Membrane in water
40167
    1TCq1    O1    1   0.785   2.980  11.257  0.1736 -0.1237  0.2999
    1TCq1    C1    2   0.680   2.955  11.342  0.4949 -0.4675 -0.3854
    1TCq1    O2    3   0.663   3.022  11.442 -0.8559 -0.6125  0.6926
    1TCq1    C2    4   0.659   2.812  11.336  0.2098 -0.1688 -0.8685
    1TCq1    C3    5   0.640   2.759  11.213  0.0645 -0.4188 -0.7173
    1TCq1    C4    6   0.617   2.620  11.210  0.2798  0.4487 -0.0932
    1TCq1    C5    7   0.626   2.547  11.327 -1.1065  0.5879 -0.2865
    1TCq1    C6    8   0.647   2.610  11.450 -0.2602 -0.3800  0.2223
    1TCq1    C7    9   0.655   2.745  11.454  0.1029 -0.0849  0.3490
    1TCq1    C8   10   0.645   2.530  11.573 -0.2841 -0.1388 -0.8151
    1TCq1    O4   11   0.663   2.598  11.676  0.6082 -0.0023  0.6038
    1TCq1    C9   12   0.576   2.560  11.086  0.3857  0.4898 -0.2187
    1TCq1    O5   13   0.561   2.438  11.084 -0.3941  0.0345  0.1564
    1TCq1    O6   14   0.563   2.632  10.985 -0.0305 -0.5863  0.1404
    1TCq1    H1   15   0.818   2.900  11.211 -0.2367  0.2604 -0.6591
    1TCq1    H2   16   0.630   2.814  11.120 -0.0571 -0.2169 -0.5867
    1TCq1    H3   17   0.608   2.441  11.320  0.2326  0.3900 -0.8921
    1TCq1    H4   18   0.670   2.804  11.544  4.1003 -0.2545 -0.1823
    2MPD2     C   19   0.797   2.104  11.817  0.0160 -1.0870 -0.4746
    2MPD2    C1   20   0.775   2.229  11.861 -0.2447 -0.3320 -0.4725
    2MPD2    C2   21   0.717   2.320  11.775 -0.0002 -0.3197 -0.1833
    2MPD2    C3   22   0.683   2.297  11.643 -0.2859  0.2616 -0.4702
    2MPD2    C4   23   0.706   2.169  11.601  0.8574 -0.2102  0.7294
    2MPD2    C5   24   0.759   2.077  11.686 -0.1523 -0.2121  0.6986
    2MPD2     H   25   0.702   2.423  11.804 -0.1710 -1.1958  2.8870
    2MPD2    H1   26   0.690   2.140  11.498  0.1741 -1.7532  1.2666
    2MPD2    H2   27   0.850   2.031  11.877 -0.8189  0.7705  2.4858
    2MPD2    H3   28   0.774   1.979  11.642  1.0557  0.4824 -0.4410
    2MPD2     N   29   0.643   2.394  11.553 -0.5836  0.0475 -0.0198
    2MPD2    H5   30   0.640   2.362  11.457  1.0957  2.4915 -0.8958
    2MPD2    N1   31   0.792   2.268  11.999 -0.2875  0.0456  0.8079
    2MPD2    H7   32   0.751   2.355  12.033  1.6080  1.2244  0.0431
    3TCq1    O1   33   0.501   3.981  10.455 -0.1927  0.2020 -0.3317
    3TCq1    C1   34   0.436   3.926  10.553  0.5096  0.0424  0.2351
    3TCq1    O2   35   0.404   3.972  10.663 -0.1638 -0.1404 -0.2718
    3TCq1    C2   36   0.376   3.807  10.498  0.4913  0.4038 -0.2231
    3TCq1    C3   37   0.460   3.720  10.431 -0.0597 -0.3710  0.0800
    3TCq1    C4   38   0.411   3.606  10.377  0.3532  0.5347 -0.4250
    3TCq1    C5   39   0.278   3.578  10.403 -0.2944 -0.0990  0.2098
    3TCq1    C6   40   0.199   3.665  10.473  0.3878  0.2102  0.1377
    3TCq1    C7   41   0.250   3.778  10.530 -0.5612  0.1015 -0.0275
    3TCq1    C8   42   0.059   3.633  10.488  0.6398  0.3659  0.8171
    3TCq1    O4   43   0.023   3.518  10.461 -0.1290  0.1490  0.2758
    3TCq1    C9   44   0.499   3.523  10.289  0.0136 -0.5864 -0.2452
    3TCq1    O5   45   0.458   3.409  10.258 -0.3484  0.5196  0.4713
    3TCq1    O6   46   0.605   3.572  10.241  0.0604 -0.7692 -0.3035
    3TCq1    H1   47   0.478   3.957  10.363 -0.1819 -0.3400 -0.1920
    3TCq1    H2   48   0.566   3.740  10.423 -0.2504  0.3573 -0.6813
    3TCq1    H3   49   0.226   3.497  10.352 -1.6624 -0.0745  1.5745
    3TCq1    H4   50   0.189   3.845  10.590 -0.4725  0.5592 -0.4457
    4MPD2     C   51   4.286   3.759  10.505  0.5652  0.1362  0.0784
    4MPD2    C1   52   4.360   3.875  10.504  0.5996  0.0249 -0.0774
    4MPD2    C2   53   4.497   3.863  10.503  0.5782  0.0514 -0.2575
    4MPD2    C3   54   4.560   3.742  10.501 -0.6251  0.2445 -0.4711
    4MPD2    C4   55   4.485   3.622  10.511  0.1169 -0.0482  0.4164
    4MPD2    C5   56   4.354   3.638  10.515 -0.4624  0.1884  0.4156
    4MPD2     H   57   4.561   3.950  10.505 -1.0538  1.1894  1.5812
    4MPD2    H1   58   4.513   3.517  10.501 -1.4999 -0.4857  0.5327
    4MPD2    H2   59   4.178   3.751  10.504  0.6221 -0.7421  1.7837
    4MPD2    H3   60   4.289   3.552  10.524 -0.3175  0.0908  0.5315
    4MPD2     N   61   4.701   3.743  10.489  0.2218  0.1259  0.0880
    4MPD2    H5   62   0.028   3.832  10.475  0.8448 -0.2031  0.0687
    4MPD2    N1   63   4.311   4.005  10.481 -0.1324  0.4155  0.2117
    4MPD2    H7   64   4.374   4.083  10.462 -0.7589  1.2311  1.4876
    5TCq1    O1   65   0.592   4.527  12.322  0.2062 -0.1303 -0.5623
    5TCq1    C1   66   0.488   4.583  12.391 -0.3355  0.1108 -0.0242
    5TCq1    O2   67   0.514   4.631  12.502 -0.2755 -0.4731  0.2165
    5TCq1    C2   68   0.400   4.648  12.301  0.4505  0.4852 -0.4994
    5TCq1    C3   69   0.352   0.050  12.337 -0.2090 -0.2762 -0.5645
    5TCq1    C4   70   0.297   0.128  12.238 -0.7819 -0.1311  0.9301
    5TCq1    C5   71   0.277   0.082  12.108  0.9236 -0.1572 -0.8265
    5TCq1    C6   72   0.316   4.672  12.083 -0.5792 -0.6576 -0.2578
    5TCq1    C7   73   0.368   4.598  12.181 -0.0956  0.3689 -0.2548
    5TCq1    C8   74   0.326   4.629  11.943 -0.5888  0.0736  0.3959
    5TCq1    O4   75   0.344   4.509  11.924 -0.0824 -0.3116 -0.0755
    5TCq1    C9   76   0.248   0.256  12.267  0.1034 -0.0351 -0.0315
    5TCq1    O5   77   0.183   0.317  12.178 -0.5356 -0.1471  0.1997
    5TCq1    O6   78   0.318   0.315  12.354  0.1557 -0.6399  0.0474
    5TCq1    H1   79   0.594   4.530  12.224  0.2109  2.9381 -0.4711
    5TCq1    H2   80   0.384   0.096  12.430 -1.4948  0.1055 -0.3075
    5TCq1    H3   81   0.217   0.140  12.038  0.6642  0.4596 -0.0838
    5TCq1    H4   82   0.415   4.504  12.152  2.7595  2.2628 -1.8171
    6MPD2     C   83   0.199   0.093  11.659  0.4729  0.0573 -0.2700
    6MPD2    C1   84   0.276   4.720  11.718  0.3620  0.1926  0.5867
    6MPD2    C2   85   0.331   4.610  11.649  0.7732  0.3870 -0.3278
    6MPD2    C3   86   0.284   4.587  11.516  0.2847  0.7626  0.3131
    6MPD2    C4   87   0.211   4.692  11.457  0.2453  0.5212 -0.1252
    6MPD2    C5   88   0.173   0.084  11.525 -0.4298  0.0666 -0.2347
    6MPD2     H   89   0.395   4.536  11.697  1.1654  0.7904 -0.2312
    6MPD2    H1   90   0.168   4.686  11.357  1.0827 -0.1355 -0.4484
    6MPD2    H2   91   0.180   0.180  11.721  1.0209  1.0697 -1.5259
    6MPD2    H3   92   0.131   0.160  11.461 -1.2437 -0.3065 -0.1410
    6MPD2     N   93   0.299   4.465  11.457 -0.3542 -0.2293 -0.1102
    6MPD2    H5   94   0.351   4.391  11.502 -2.5522 -0.6440  1.7178
    6MPD2    N1   95   0.278   0.005  11.859 -0.0038  0.0250 -0.2132
    6MPD2    H7   96   0.261   0.097  11.898 -0.6873 -0.6489  1.0736
    7TCq1    O1   97   2.771   0.338  14.102 -0.1439 -0.4837  0.5699
    7TCq1    C1   98   2.882   0.380  14.039 -0.2535 -0.3661  0.0228
    7TCq1    O2   99   2.970   0.457  14.070 -0.2845 -0.2866 -0.2309
    7TCq1    C2  100   2.909   0.283  13.932  0.1534  0.3435 -0.0932
    7TCq1    C3  101   3.004   0.334  13.837  0.7166  1.1571  0.3012
    7TCq1    C4  102   3.045   0.247  13.738 -0.2568 -0.2369  0.1937
    7TCq1    C5  103   3.006   0.120  13.727 -0.3496  0.2200 -0.2780
    7TCq1    C6  104   2.920   0.073  13.828  0.8549 -0.1699  0.2944
    7TCq1    C7  105   2.870   0.148  13.931  0.0264 -0.0826  0.2369
    7TCq1    C8  106   2.860   4.665  13.809  0.4595 -0.2941  0.3875
    7TCq1    O4  107   2.743   4.642  13.840 -0.4229 -0.3431  0.0877
    7TCq1    C9  108   3.119   0.294  13.618  0.1605  0.1600  0.1600
    7TCq1    O5  109   3.183   0.401  13.637 -0.5840  0.4616 -0.4246
    7TCq1    O6  110   3.068   0.245  13.513 -0.6111 -0.4595 -0.2111
    7TCq1    H1  111   2.719   0.263  14.065 -0.0020  0.1296 -0.8997
    7TCq1    H2  112   3.048   0.433  13.835  1.3297  0.9111  1.7777
    7TCq1    H3  113   3.026   0.058  13.641  4.3261  0.9295  0.2834
    7TCq1    H4  114   2.801   0.101  14.000 -0.6803 -0.8139 -0.9784
    8MPD2     C  115   2.929   4.202  13.591  0.5435  0.6960 -0.0856
    8MPD2    C1  116   2.816   4.245  13.660 -0.6054 -0.1846  0.4104
    8MPD2    C2  117   2.815   4.371  13.718  0.2236 -0.6053 -0.4421
    8MPD2    C3  118   2.938   4.442  13.707  0.8986 -0.2916 -0.3551
    8MPD2    C4  119   3.051   4.391  13.645 -0.1101 -0.1257 -0.1264
    8MPD2    C5  120   3.045   4.271  13.587  0.2389 -0.1778  0.3271
    8MPD2     H  121   2.735   4.411  13.779  0.6941  0.1202 -0.2992
    8MPD2    H1  122   3.141   4.450  13.645 -1.7404  2.3753 -3.0734
    8MPD2    H2  123   2.923   4.114  13.528 -0.2268 -1.9821  3.6956
    8MPD2    H3  124   3.140   4.234  13.550 -1.8001 -2.3778 -2.6756
    8MPD2     N  125   2.951   4.575  13.757  0.8010  0.3034 -0.1624
    8MPD2    H5  126   3.045   4.614  13.751  0.8002  0.4254  0.5986
    8MPD2    N1  127   2.700   4.166  13.654 -0.2377  0.0806 -0.3443
    8MPD2    H7  128   2.704   4.082  13.598 -1.4588 -0.3759  0.2700
    9TCq1    O1  129   0.407   2.562  10.791 -0.0431  0.0789 -0.6125
    9TCq1    C1  130   0.446   2.581  10.665 -0.2919 -0.2273  0.0413
    9TCq1    O2  131   0.389   2.530  10.568 -0.4736 -1.1182  0.1428
    9TCq1    C2  132   0.565   2.665  10.652 -0.1637 -0.1119 -1.1362
    9TCq1    C3  133   0.636   2.650  10.535  0.9774  0.3701  0.0233
    9TCq1    C4  134   0.736   2.740  10.500 -0.0535  0.6900 -0.0044
    9TCq1    C5  135   0.762   2.841  10.579 -0.4104 -0.0510  0.5151
    9TCq1    C6  136   0.678   2.863  10.691 -0.2753  0.1185  1.0810
    9TCq1    C7  137   0.578   2.779  10.730 -0.4970  0.4756 -0.0751
    9TCq1    C8  138   0.696   2.993  10.761 -0.1714  0.5244 -0.0438
    9TCq1    O4  139   0.779   3.072  10.721  0.2812  0.1633 -0.0623
    9TCq1    C9  140   0.827   2.717  10.387 -0.4511 -1.1914 -0.4469
    9TCq1    O5  141   0.789   2.633  10.304 -0.4148  0.2867  0.1314
    9TCq1    O6  142   0.915   2.805  10.369 -0.0048  0.2036  0.1227
    9TCq1    H1  143   0.478   2.575  10.857 -0.1049  2.7237 -1.0630
    9TCq1    H2  144   0.618   2.564  10.472 -0.1694  0.8515 -0.3126
    9TCq1    H3  145   0.831   2.918  10.547 -1.5044  0.6458 -0.1740
    9TCq1    H4  146   0.493   2.811  10.788 -0.2342 -1.2151  1.2566
   10MPD2     C  147   0.640   3.233  10.929 -0.2673 -0.2748 -0.3432
   10MPD2    C1  148   0.582   3.110  10.951 -0.5461  0.4968 -0.1388
   10MPD2    C2  149   0.499   3.092  11.060 -0.2917  0.1470 -0.3455
   10MPD2    C3  150   0.467   3.199  11.142 -0.0671 -0.5134 -0.0189
   10MPD2    C4  151   0.507   3.324  11.112 -0.3382  0.1889 -0.2974
   10MPD2    C5  152   0.591   3.341  10.999  0.7715 -0.0271 -0.4712
   10MPD2     H  153   0.468   2.993  11.090  0.0935  0.5990  1.4997
   10MPD2    H1  154   0.488   3.406  11.180  0.8032 -2.0700  2.7875
   10MPD2    H2  155   0.711   3.254  10.849  1.8336  2.2614  2.1841
   10MPD2    H3  156   0.620   3.440  10.969  0.0949  0.1816 -0.4472
   10MPD2     N  157   0.417   3.183  11.276  0.5553  0.1913  0.2759
   10MPD2    H5  158   0.426   3.265  11.335 -0.6277  0.0850  0.6094
   10MPD2    N1  159   0.612   2.996  10.876 -0.0731  0.1106  0.3044
   10MPD2    H7  160   0.570   2.908  10.907  0.5416 -0.8018 -1.4486
   11TCq1    O1  161   1.421   3.190  14.509  0.0630 -0.3720 -0.4015
   11TCq1    C1  162   1.321   3.126  14.567  0.4122 -0.2528 -0.2238
   11TCq1    O2  163   1.291   3.010  14.567  0.1676  0.0738 -0.2267
   11TCq1    C2  164   1.214   3.222  14.588  0.2390  0.4328 -0.3153
   11TCq1    C3  165   1.221   3.347  14.537  0.3631  0.2376  0.2317
   11TCq1    C4  166   1.104   3.423  14.548  0.0040 -0.1667  0.3049
   11TCq1    C5  167   0.989   3.386  14.606  0.6238 -0.0291 -0.9974
   11TCq1    C6  168   0.989   3.266  14.665 -0.1474 -0.3231 -0.2753
   11TCq1    C7  169   1.103   3.184  14.661 -0.3130 -0.8960  0.1314
   11TCq1    C8  170   0.864   3.186  14.671 -0.2495 -0.5022  0.0076
   11TCq1    O4  171   0.844   3.108  14.762  0.5538 -0.2585 -0.0669
   11TCq1    C9  172   1.100   3.543  14.473 -0.0205  0.1899  0.9924
   11TCq1    O5  173   1.148   3.535  14.355 -0.7706 -0.4002  0.3947
   11TCq1    O6  174   1.025   3.637  14.509  0.3427  0.5281 -0.3304
   11TCq1    H1  175   1.427   3.285  14.534  0.7239 -0.8773  1.3071
   11TCq1    H2  176   1.311   3.387  14.491 -0.4663  0.5530 -1.1107
   11TCq1    H3  177   0.894   3.431  14.577  0.0471 -0.5980  0.0085
   11TCq1    H4  178   1.106   3.090  14.715 -1.0914 -1.8745 -1.5371
   12MPD2     C  179   0.577   3.101  14.620 -0.0960  0.6686 -0.2446
   12MPD2    C1  180   0.668   3.142  14.526  0.5283  0.4871 -0.2606
   12MPD2    C2  181   0.639   3.134  14.390  0.6469  0.7865  1.0585
   12MPD2    C3  182   0.531   3.063  14.349  0.9518  0.3406 -0.1381
   12MPD2    C4  183   0.440   3.022  14.444 -0.0575 -0.3388  0.0247
   12MPD2    C5  184   0.460   3.050  14.573  0.1928 -0.3178 -1.3941
   12MPD2     H  185   0.720   3.158  14.322 -0.5660  0.3102 -0.5700
   12MPD2    H1  186   0.347   2.972  14.419  0.8529 -1.9568 -0.1475
   12MPD2    H2  187   0.584   3.113  14.727  0.6556 -1.7955 -0.0237
   12MPD2    H3  188   0.385   3.017  14.644  1.8377 -0.4004  0.3087
   12MPD2     N  189   0.518   3.027  14.206  0.4772  0.1188 -0.2258
   12MPD2    H5  190   0.593   3.059  14.146 -0.1392 -1.5098 -1.8624
   12MPD2    N1  191   0.793   3.202  14.552  0.1639 -0.0850  0.0499
   12MPD2    H7  192   0.841   3.247  14.475 -3.4186  1.1972 -1.4289
   13TCq1    O1  193   1.104   2.889  10.525  0.0921 -0.1878  0.5721
   13TCq1    C1  194   1.134   2.823  10.638  0.6109 -0.1181 -0.0324
   13TCq1    O2  195   1.210   2.858  10.729 -0.1187  0.3788 -0.4670
   13TCq1    C2  196   1.119   2.688  10.597  0.2152  0.5389  0.6426
   13TCq1    C3  197   1.160   2.649  10.473  0.2914 -0.1102 -0.6117
   13TCq1    C4  198   1.118   2.531  10.426  0.1603 -0.1616  0.3639
   13TCq1    C5  199   1.028   2.453  10.492 -0.2620 -0.4435  0.2499
   13TCq1    C6  200   0.992   2.494  10.618  0.3666  0.2796 -0.8207
   13TCq1    C7  201   1.038   2.612  10.671 -0.3499 -0.6722  0.2716
   13TCq1    C8  202   0.881   2.424  10.689 -0.8498 -0.0182  0.3337
   13TCq1    O4  203   0.860   2.461  10.805  0.2309  0.5107  0.7207
   13TCq1    C9  204   1.166   2.491  10.296 -0.3930  0.4047  0.6637
   13TCq1    O5  205   1.137   2.371  10.264 -0.1848 -0.0409 -1.0213
   13TCq1    O6  206   1.223   2.576  10.230 -0.6787  0.2750  0.6414
   13TCq1    H1  207   1.043   2.844  10.463 -0.4285 -0.5023  1.3094
   13TCq1    H2  208   1.236   2.701  10.416  1.9096 -0.4814  1.2461
   13TCq1    H3  209   0.997   2.360  10.446 -1.7276  1.4718 -2.6362
   13TCq1    H4  210   1.007   2.649  10.768  0.5784 -0.8456  0.6349
   14MPD2     C  211   0.654   2.168  10.577 -0.3018  0.4120  0.1211
   14MPD2    C1  212   0.695   2.265  10.663  0.5397  0.1071  0.3135
   14MPD2    C2  213   0.627   2.292  10.779  0.2538  0.3528 -0.6582
   14MPD2    C3  214   0.513   2.213  10.804 -0.5306 -0.5199  1.2687
   14MPD2    C4  215   0.478   2.113  10.717 -0.1010  0.4795 -0.4800
   14MPD2    C5  216   0.548   2.094  10.608  0.0276 -0.3933 -0.0179
   14MPD2     H  217   0.652   2.376  10.843  0.9979 -1.2356  1.1250
   14MPD2    H1  218   0.397   2.045  10.741  2.8778 -2.9846 -0.1652
   14MPD2    H2  219   0.709   2.145  10.486 -0.5814 -1.1232  0.3373
   14MPD2    H3  220   0.507   2.014  10.547  1.6703 -1.2109 -0.0513
   14MPD2     N  221   0.427   2.247  10.916 -0.0091 -0.0123  0.6269
   14MPD2    H5  222   0.453   2.328  10.971 -0.9368  0.6501  0.0884
   14MPD2    N1  223   0.813   2.336  10.612  0.1146 -0.9448  0.7840
   14MPD2    H7  224   0.834   2.330  10.513 -0.3841 -1.7332  0.7322
   15TCq1    O1  225   2.447   2.972   2.090 -0.0414  0.4247 -0.1943
   15TCq1    C1  226   2.518   2.942   1.985  0.1964  0.3647  0.6025
   15TCq1    O2  227   2.634   2.909   1.987 -0.1883  0.3176  0.5018
   15TCq1    C2  228   2.409   2.890   1.900  0.4356 -0.3228  0.3204
   15TCq1    C3  229   2.311   2.980   1.861  0.6150 -0.0843  0.1212
   15TCq1    C4  230   2.243   2.964   1.743 -0.4625  0.0075 -0.1600
   15TCq1    C5  231   2.277   2.858   1.661  0.3596 -0.9332  0.0438
   15TCq1    C6  232   2.367   2.765   1.709 -0.3394  0.2298 -0.0973
   15TCq1    C7  233   2.442   2.788   1.827 -0.2554 -0.1932  0.6874
   15TCq1    C8  234   2.379   2.634   1.637 -0.3637 -0.2657 -0.2140
   15TCq1    O4  235   2.453   2.562   1.699  0.0503  0.3151 -0.3277
   15TCq1    C9  236   2.142   3.061   1.706  0.2963  0.5117  0.5961
   15TCq1    O5  237   2.107   3.157   1.781  0.0680  0.1937  0.6492
   15TCq1    O6  238   2.093   3.051   1.591  0.3487 -0.1904 -0.8899
   15TCq1    H1  239   2.351   2.955   2.077  0.2879  0.9757 -3.1569
   15TCq1    H2  240   2.294   3.069   1.920  0.4806 -0.6452  0.9338
   15TCq1    H3  241   2.211   2.840   1.577 -0.2080 -1.6219  0.6323
   15TCq1    H4  242   2.513   2.717   1.867  0.9687  0.2313 -0.7300
   16MPD2     C  243   2.210   2.507   1.333  0.0653  0.1005 -0.0011
   16MPD2    C1  244   2.312   2.513   1.430  0.1823  0.0184  0.2764
   16MPD2    C2  245   2.409   2.411   1.444 -0.1033  0.8773 -0.1485
   16MPD2    C3  246   2.404   2.308   1.360 -0.3128  0.4341  0.2625
   16MPD2    C4  247   2.295   2.290   1.276 -0.2683 -0.5026  0.9126
   16MPD2    C5  248   2.196   2.385   1.263 -0.3033  0.2597 -0.2211
   16MPD2     H  249   2.482   2.420   1.524  2.1977  0.0468 -2.1444
   16MPD2    H1  250   2.284   2.208   1.207 -0.7505 -0.4010  0.8690
   16MPD2    H2  251   2.137   2.585   1.318 -0.1448 -0.1988 -0.5212
   16MPD2    H3  252   2.119   2.368   1.189 -0.1515 -1.3967  0.0081
   16MPD2     N  253   2.493   2.203   1.386  0.7083  0.4628  0.4631
   16MPD2    H5  254   2.566   2.215   1.455  0.6582  1.0368  0.4165
   16MPD2    N1  255   2.313   2.630   1.519  0.4134 -0.0866 -0.1533
   16MPD2    H7  256   2.248   2.705   1.498 -2.0226 -1.8170  1.3467
   17TCq1    O1  257   4.595   1.910  10.991  0.2170  0.4105  0.0413
   17TCq1    C1  258   4.634   1.871  11.113 -0.2645 -0.0805  0.1595
   17TCq1    O2  259   4.602   1.924  11.218 -0.4080 -0.0311 -0.7749
   17TCq1    C2  260   0.024   1.790  11.099  0.3174  0.0701  0.1732
   17TCq1    C3  261   0.028   1.688  11.006 -0.5357  0.0506  0.2741
   17TCq1    C4  262   0.152   1.635  10.979  0.8097  0.3988  0.2190
   17TCq1    C5  263   0.265   1.687  11.033 -0.1511  0.9177 -0.5104
   17TCq1    C6  264   0.251   1.790  11.122 -0.1686 -0.2630 -0.9407
   17TCq1    C7  265   0.135   1.842  11.159  1.0920 -0.9918 -0.4030
   17TCq1    C8  266   0.374   1.854  11.165  0.1248 -0.1989 -0.0938
   17TCq1    O4  267   0.370   1.931  11.262  0.6169  0.5854  0.0811
   17TCq1    C9  268   0.156   1.528  10.882 -1.1206  0.4168  0.1615
   17TCq1    O5  269   0.260   1.452  10.869 -0.0494  0.0199  0.2981
   17TCq1    O6  270   0.050   1.513  10.814  0.0195 -0.1943 -0.4295
   17TCq1    H1  271   4.630   1.862  10.913 -2.1190 -0.4436 -0.4491
   17TCq1    H2  272   4.656   1.647  10.967  0.9593 -1.6476 -1.4158
   17TCq1    H3  273   0.351   1.624  11.014 -0.6800 -0.6099  2.2827
   17TCq1    H4  274   0.135   1.918  11.236 -2.3414  0.9281 -2.2554
   18MPD2     C  275   0.661   1.910  11.226  0.4673  0.2907  0.8473
   18MPD2    C1  276   0.618   1.878  11.098  0.9691  0.3611  0.1595
   18MPD2    C2  277   0.706   1.897  10.992  0.1068  0.0954  1.0952
   18MPD2    C3  278   0.818   1.966  11.013 -0.2337 -0.4611 -0.4617
   18MPD2    C4  279   0.851   2.016  11.138 -0.6961  0.2895  0.2685
   18MPD2    C5  280   0.772   1.986  11.241  0.5654  0.3412 -0.3027
   18MPD2     H  281   0.666   1.848  10.904  1.6930 -0.6240  0.7700
   18MPD2    H1  282   0.944   2.068  11.158 -2.0450  1.7956  2.6420
   18MPD2    H2  283   0.596   1.897  11.311  0.2208 -0.6805  0.5030
   18MPD2    H3  284   0.796   2.025  11.339 -1.2595  0.3643  0.1464
   18MPD2     N  285   0.912   1.993  10.911  0.1495 -0.9167  0.4330
   18MPD2    H5  286   0.974   2.073  10.914 -1.4769  0.4581 -2.1304
   18MPD2    N1  287   0.483   1.818  11.084  0.0524  0.7239 -0.4298
   18MPD2    H7  288   0.453   1.775  10.997  0.5033  0.7365 -0.5879
   19TMC2    C1  289   2.369   2.937  13.708 -0.0725  0.3113  0.2202
   19TMC2    C2  290   2.411   2.982  13.587  0.0061 -0.7262 -0.2697
   19TMC2    C3  291   2.347   2.919  13.486  0.3568  0.1464  0.4159
   19TMC2    C4  292   2.268   2.848  13.738 -0.6736  0.1996 -0.3433
   19TMC2    C5  293   2.198   2.805  13.635  0.1460  0.1520  0.3929
   19TMC2    C6  294   2.245   2.828  13.507  0.2430  0.7554  0.0057
   19TMC2     C  295   2.456   2.974  13.824 -0.0133  0.8671  0.1362
   19TMC2     O  296   2.526   3.074  13.809 -0.3552  0.1054 -0.3626
   19TMC2     H  297   2.510   3.027  13.582 -0.4659  0.5320  2.1354
   19TMC2    H1  298   2.230   2.825  13.837 -2.6567 -2.2772 -1.6811
   19TMC2    H2  299   2.193   2.774  13.428 -0.8163  3.0589 -0.8992
   19TMC2    C7  300   2.095   2.708  13.669 -0.7322  0.6986  0.1969
   19TMC2    C8  301   2.397   2.933  13.347  0.4679 -0.3635 -0.1871
   19TMC2    O1  302   2.034   2.722  13.778 -0.0911  0.6565  0.0415
   19TMC2    O2  303   2.402   2.841  13.270 -0.4393 -0.7113  0.2538
   19TMC2    O5  304   2.474   3.041  13.347  0.5825  0.0886  0.4848
   19TMC2    H5  305   2.438   3.113  13.404  1.8171  0.4865  0.7568
   20MPD2     C  306   2.550   3.006  14.111 -0.0443  0.3048  0.3474
   20MPD2    C1  307   2.457   2.909  14.066  0.1371 -0.1676  0.1402
   20MPD2    C2  308   2.394   2.826  14.156  0.4323  0.1812 -0.0757
   20MPD2    C3  309   2.418   2.839  14.289  0.0777  0.5822  0.3328
   20MPD2    C4  310   2.507   2.940  14.335 -0.1757  0.6912  0.2651
   20MPD2    C5  311   2.573   3.018  14.250 -0.3067 -0.1081  0.3346
   20MPD2     H  312   2.335   2.743  14.120  2.0862 -1.7558  1.6399
   20MPD2    H1  313   2.525   2.960  14.440 -2.3214 -1.5878  1.0710
   20MPD2    H2  314   2.597   3.073  14.040  1.0136 -2.6408 -1.7372
   20MPD2    H3  315   2.635   3.100  14.283  2.8085 -2.2410 -0.2335
   20MPD2     N  316   2.343   2.764  14.385  0.6523  0.3521  0.1456
   20MPD2    H5  317   2.356   2.788  14.483  1.8077  1.4847 -0.2822
   20MPD2    N1  318   2.423   2.889  13.929 -0.1888  0.1246 -0.0708
   20MPD2    H7  319   2.359   2.815  13.904  2.5250 -1.8006 -1.2284
   21MPD2     C  320   4.285   3.503  14.561  0.5014 -0.2872  0.3600
   21MPD2    C1  321   4.343   3.445  14.449 -0.4647 -0.5721  0.2210
   21MPD2    C2  322   4.260   3.437  14.336 -0.5765 -0.1457 -0.0052
   21MPD2    C3  323   4.136   3.500  14.328 -0.1512  0.4812  0.5132
   21MPD2    C4  324   4.094   3.571  14.436  0.5253 -0.2954 -0.5261
   21MPD2    C5  325   4.162   3.565  14.553  0.0222  0.5532 -0.1788
   21MPD2     H  326   4.288   3.376  14.251 -1.4197  0.2870 -0.5994
   21MPD2    H1  327   4.012   3.643  14.438  0.9178  0.0855  2.0899
   21MPD2    H2  328   4.343   3.503  14.653  2.7140 -0.3833 -1.0237
   21MPD2    H3  329   4.123   3.614  14.642  1.6866 -1.1203  1.4965
   21MPD2     N  330   4.059   3.499  14.207 -0.2192  0.3199  0.3519
   21MPD2    H5  331   3.968   3.543  14.200 -0.2374  0.3930  0.9871
   21MPD2    N1  332   4.467   3.388  14.451  0.2604  0.5858 -0.0649
   21MPD2    H7  333   4.475   3.325  14.371 -1.8949  1.2297 -0.7948
   22TCq2    C1  334   4.096   3.444  14.087  1.3454 -0.8843 -0.0767
   22TCq2    O2  335   4.200   3.383  14.063  0.0370 -0.3083 -0.5256
   22TCq2    C2  336   3.997   3.459  13.977 -0.4254  0.4337  0.0641
   22TCq2    C3  337   4.018   3.383  13.864 -0.0516  0.0828  0.2651
   22TCq2    C4  338   3.903   3.334  13.795 -0.5351  0.9172 -0.4007
   22TCq2    C5  339   3.777   3.365  13.839 -0.1336  0.7480 -0.1345
   22TCq2    C6  340   3.765   3.432  13.949 -0.2032 -0.3285 -0.2886
   22TCq2    C7  341   3.871   3.489  14.020  0.9151 -0.6322 -0.9226
   22TCq2    C8  342   3.642   3.428  14.015  0.2604  0.0593 -0.2618
   22TCq2    O4  343   3.569   3.337  13.982 -0.4857 -0.4462  0.3760
   22TCq2    C9  344   3.918   3.271  13.668  0.5732  0.3359  0.1058
   22TCq2    O5  345   4.032   3.227  13.638 -0.0170  0.9739  0.0245
   22TCq2    O6  346   3.811   3.240  13.606 -0.4020  0.1682 -0.3785
   22TCq2    H2  347   4.115   3.360  13.821  0.2547 -2.2877  2.2562
   22TCq2    H3  348   3.689   3.330  13.786  1.4193 -0.0022 -2.1994
   22TCq2    H4  349   3.856   3.546  14.111  1.8058 -1.6910 -0.1187
   23MPD2     C  350   1.337   4.224  14.961 -0.0325 -0.0686  0.2028
   23MPD2    C1  351   1.210   4.193  15.006  0.1624  0.3431  0.3686
   23MPD2    C2  352   1.104   4.256  14.939  0.1265  0.3288  0.3613
   23MPD2    C3  353   1.123   4.342  14.832 -0.4631 -0.2756  0.2072
   23MPD2    C4  354   1.251   4.374  14.797  0.9243 -0.2034  0.2127
   23MPD2    C5  355   1.354   4.314  14.861 -0.1575  0.0105 -0.3768
   23MPD2     H  356   1.003   4.229  14.966  0.1921 -0.9032 -0.6320
   23MPD2    H1  357   1.275   4.444  14.718 -1.0141 -0.1829 -0.3571
   23MPD2    H2  358   1.435   4.186  14.986  0.2105  0.6288  0.3143
   23MPD2    H3  359   1.454   4.329  14.823 -0.4417 -1.8464 -1.8584
   23MPD2     N  360   1.019   4.406  14.766 -0.4053  0.1693  0.2239
   23MPD2    H5  361   1.058   4.465  14.693 -0.0182  1.1446  1.2072
   23MPD2    N1  362   1.181   4.104  15.112  0.2571 -0.7157  0.3560
   23MPD2    H7  363   1.087   4.102  15.151  0.2868 -0.0699  0.4551
   24TCq2    C1  364   0.880   4.392  14.788  0.0806 -0.1668 -0.0868
   24TCq2    O2  365   0.828   4.347  14.890  0.3360  0.1256 -1.0192
   24TCq2    C2  366   0.800   4.470  14.692  0.0108 -0.0197  0.4360
   24TCq2    C3  367   0.843   4.500  14.564 -0.2069  0.3679 -0.6131
   24TCq2    C4  368   0.754   4.544  14.472 -0.2854 -0.3999  0.5302
   24TCq2    C5  369   0.618   4.549  14.506 -0.1058 -0.2203  0.4809
   24TCq2    C6  370   0.575   4.505  14.630 -0.4386  0.0789  0.2809
   24TCq2    C7  371   0.669   4.480  14.725 -0.4620 -1.0728  0.2291
   24TCq2    C8  372   0.445   4.458  14.652 -0.2867 -0.0050 -0.3541
   24TCq2    O4  373   0.434   4.366  14.733  0.4229 -0.5800  0.3587
   24TCq2    C9  374   0.801   4.582  14.337 -0.3929  0.7704  0.2300
   24TCq2    O5  375   0.927   4.568  14.324 -0.6474 -0.6243 -0.0056
   24TCq2    O6  376   0.713   4.560  14.251  0.0573  0.1500  0.5235
   24TCq2    H2  377   0.945   4.482  14.531 -0.6832 -2.2086 -0.6540
   24TCq2    H3  378   0.554   4.579  14.424  1.6337  1.2187 -0.3510
   24TCq2    H4  379   0.635   4.443  14.821 -1.2523 -1.3878 -0.1807
   25TMC2    C1  380   0.090   1.655  11.428  0.4194 -0.0848  0.1345
   25TMC2    C2  381   0.210   1.591  11.388 -0.5521  0.2810  0.0223
   25TMC2    C3  382   0.317   1.622  11.464  0.3947  0.3461  0.1013
   25TMC2    C4  383   0.090   1.764  11.516  0.0266 -0.1759 -0.3474
   25TMC2    C5  384   0.214   1.805  11.564 -1.6595  0.1904  0.0976
   25TMC2    C6  385   0.333   1.745  11.535  0.0284 -0.3319  0.0734
   25TMC2     C  386   4.683   1.585  11.423 -0.2575  0.8161 -0.7518
   25TMC2     O  387   4.604   1.628  11.502  0.0656 -0.3198  0.9850
   25TMC2     H  388   0.215   1.496  11.336 -1.2607 -0.9696  2.2237
   25TMC2    H1  389   0.002   1.821  11.542 -0.0544 -1.4628  2.2430
   25TMC2    H2  390   0.427   1.768  11.583 -0.0618  1.8389 -0.8338
   25TMC2    C7  391   0.203   1.859  11.694 -0.2376 -0.1912  0.6499
   25TMC2    C8  392   0.442   1.569  11.408 -0.2484 -0.2864 -0.4799
   25TMC2    O1  393   0.127   1.804  11.773 -0.2203 -0.0324 -0.3838
   25TMC2    O2  394   0.469   1.541  11.293 -0.2776  0.7265 -0.9160
   25TMC2    O5  395   0.548   1.605  11.490  0.5850  0.0751  0.1880
   25TMC2    H5  396   0.507   1.616  11.578  0.9156 -0.9766  0.4803
   26MPD2     C  397   4.360   1.205  11.312 -0.4818 -0.3047 -0.2896
   26MPD2    C1  398   4.457   1.194  11.220  0.2551  0.6659 -0.3275
   26MPD2    C2  399   4.570   1.283  11.233  0.0614  0.1144 -0.3003
   26MPD2    C3  400   4.577   1.377  11.337  0.3677  0.0385  0.2907
   26MPD2    C4  401   4.469   1.390  11.428 -0.2917 -0.8667 -0.0432
   26MPD2    C5  402   4.365   1.301  11.410  0.0692  1.1780 -0.7259
   26MPD2     H  403   4.652   1.284  11.162 -0.6671  1.5984 -1.1028
   26MPD2    H1  404   4.464   1.460  11.511  2.5980 -0.9444  0.1790
   26MPD2    H2  405   4.268   1.149  11.305 -0.7751  0.0208  1.0539
   26MPD2    H3  406   4.281   1.308  11.478  0.7927 -2.3032  0.5175
   26MPD2     N  407   4.686   1.471  11.349 -0.2415  0.1273 -0.0779
   26MPD2    H5  408   0.040   1.473  11.280 -0.3740  1.0565 -0.1987
   26MPD2    N1  409   4.438   1.101  11.119 -0.0481 -0.6525 -0.5630
   26MPD2    H7  410   4.347   1.057  11.112 -0.1029 -0.6125 -0.0967
   27TMC2    C1  411   3.431   4.374  12.630  0.8526  1.2857  0.0419
   27TMC2    C2  412   3.507   4.309  12.719 -0.1489  0.7745  0.7349
   27TMC2    C3  413   3.634   4.277  12.673  0.3507  0.3138 -0.1656
   27TMC2    C4  414   3.470   4.410  12.501  0.3536 -0.4802 -0.0830
   27TMC2    C5  415   3.595   4.372  12.462 -0.2310  0.2845 -0.6168
   27TMC2    C6  416   3.682   4.317  12.551 -0.4446 -0.0103  0.0388
   27TMC2     C  417   3.286   4.381  12.664 -0.8084  0.3007 -0.6159
   27TMC2     O  418   3.226   4.462  12.594 -0.4817 -0.0596 -0.5392
   27TMC2     H  419   3.474   4.291  12.821 -2.3729  0.5232 -0.0460
   27TMC2    H1  420   3.399   4.444  12.426  0.3856  0.6391  0.3851
   27TMC2    H2  421   3.780   4.277  12.528 -0.9583  0.0577 -2.2888
   27TMC2    C7  422   3.604   4.323  12.326  0.3813  0.3996 -0.2097
   27TMC2    C8  423   3.730   4.199  12.759 -0.4117 -0.1148  0.2552
   27TMC2    O1  424   3.507   4.279  12.268 -0.2617  0.4369 -0.5821
   27TMC2    O2  425   3.850   4.216  12.770 -0.0644  0.4470  0.3097
   27TMC2    O5  426   3.656   4.089  12.798  0.1244 -0.0595 -0.1636
   27TMC2    H5  427   3.560   4.090  12.778 -0.0619  2.8154  0.8068
   28MPD2     C  428   2.850   4.249  12.882 -0.4834 -0.2346  0.0470
   28MPD2    C1  429   2.929   4.138  12.885 -0.5713 -0.7080 -0.4565
   28MPD2    C2  430   3.061   4.149  12.844  0.3063  0.0229  0.1696
   28MPD2    C3  431   3.103   4.265  12.780  0.1517 -0.3281  0.3785
   28MPD2    C4  432   3.024   4.378  12.780 -0.0507 -0.0681 -0.8722
   28MPD2    C5  433   2.898   4.365  12.831  0.2756 -0.3413 -0.1994
   28MPD2     H  434   3.131   4.067  12.851  0.0334 -0.4444 -2.6163
   28MPD2    H1  435   3.053   4.476  12.744  0.5313  0.2056  0.3374
   28MPD2    H2  436   2.753   4.236  12.928  0.0033  1.3622  1.5620
   28MPD2    H3  437   2.831   4.449  12.820  1.5878  0.8732  0.9800
   28MPD2     N  438   3.236   4.273  12.737  0.4070  0.6517 -0.4865
   28MPD2    H5  439   3.293   4.193  12.761 -1.8601 -0.6474  0.4696
   28MPD2    N1  440   2.885   4.029  12.959  0.0500 -0.1483  0.3480
   28MPD2    H7  441   2.784   4.025  12.964 -0.0182 -0.0990 -1.0224
   29MPD2     C  442   2.834   1.369  14.182  1.0650 -0.0079  0.4207
   29MPD2    C1  443   2.844   1.326  14.309 -0.5454  1.1714 -0.2371
   29MPD2    C2  444   2.833   1.415  14.412  0.9323 -0.6695  0.1496
   29MPD2    C3  445   2.802   1.551  14.391 -0.5557  0.8429  0.0145
   29MPD2    C4  446   2.796   1.598  14.257 -0.0578  0.7669  0.3334
   29MPD2    C5  447   2.817   1.504  14.159 -0.6387  0.2335  0.4431
   29MPD2     H  448   2.841   1.374  14.512 -0.7176  1.3378  1.1055
   29MPD2    H1  449   2.780   1.704  14.237  0.9643  0.3720 -2.5101
   29MPD2    H2  450   2.854   1.309  14.093  0.6612  1.4020 -0.6113
   29MPD2    H3  451   2.819   1.532  14.054  0.4372 -2.9495 -0.3831
   29MPD2     N  452   2.779   1.642  14.494 -0.6562  0.2951  0.1178
   29MPD2    H5  453   2.777   1.738  14.462 -3.5772  0.6361  1.3104
   29MPD2    N1  454   2.877   1.191  14.344  0.6260  0.5136  0.2848
   29MPD2    H7  455   2.885   1.166  14.442 -2.9631  0.3416  0.5679
   30TCq2    C1  456   2.741   1.614  14.622 -0.3182 -0.5432  0.1645
   30TCq2    O2  457   2.690   1.511  14.662 -0.0099 -0.2903 -0.3793
   30TCq2    C2  458   2.734   1.735  14.712  0.4280  0.3668 -0.5197
   30TCq2    C3  459   2.677   1.716  14.837 -0.2576 -0.2183 -0.5739
   30TCq2    C4  460   2.696   1.814  14.925  0.2380 -0.0582  0.0542
   30TCq2    C5  461   2.768   1.927  14.897 -0.0989 -0.7942  0.4272
   30TCq2    C6  462   2.840   1.936  14.781 -0.2509 -0.2081  0.3550
   30TCq2    C7  463   2.826   1.834  14.691  0.7204 -0.3144 -0.2299
   30TCq2    C8  464   2.887   2.064  14.734 -0.2882 -0.0477 -0.4473
   30TCq2    O4  465   2.928   2.142  14.817  0.3399  0.2112  0.8256
   30TCq2    C9  466   2.647   1.792  15.059  0.6888 -0.0822  0.0334
   30TCq2    O5  467   2.573   1.696  15.078  0.4038 -0.4349 -0.5534
   30TCq2    O6  468   2.688   1.875  15.144  0.6064  0.5789  0.6894
   30TCq2    H2  469   2.604   1.637  14.853  0.2876 -0.7245 -0.5810
   30TCq2    H3  470   2.780   2.010  14.966 -3.2359  0.9610 -1.1496
   30TCq2    H4  471   2.878   1.832  14.596 -1.5621 -1.5933 -1.4467
   31MPD2     C  472   0.937   0.102  14.674 -0.0016  0.0150  0.2009
   31MPD2    C1  473   0.814   0.146  14.632  0.0129  0.2378  0.4898
   31MPD2    C2  474   0.702   0.124  14.718  0.3318 -0.2958 -0.9980
   31MPD2    C3  475   0.710   0.060  14.840  0.1740  0.0427  0.8017
   31MPD2    C4  476   0.837   0.009  14.876  0.0528  0.8302 -0.4742
   31MPD2    C5  477   0.941   0.036  14.792 -1.0250 -0.2451  0.2489
   31MPD2     H  478   0.604   0.152  14.680 -0.9004  0.3677  2.6299
   31MPD2    H1  479   0.857   4.681  14.971  0.5494  1.5808 -0.2020
   31MPD2    H2  480   1.023   0.136  14.616  0.0167 -1.4784 -0.6523
   31MPD2    H3  481   1.035   4.707  14.814 -0.4319  0.6283 -0.3177
   31MPD2     N  482   0.604   0.050  14.931  0.8666 -0.1157  0.4762
   31MPD2    H5  483   0.601   4.711  15.014  1.6412 -0.3052  0.3638
   31MPD2    N1  484   0.803   0.206  14.508 -0.1627 -0.6836 -0.1393
   31MPD2    H7  485   0.894   0.227  14.469 -0.4258  2.6917  1.1375
   32TCq2    C1  486   0.487   0.126  14.917  0.4582 -0.0886 -0.0337
   32TCq2    O2  487   0.447   0.218  14.851  0.1468  0.4291 -0.1055
   32TCq2    C2  488   0.400   0.111  15.035  0.2470  0.2671 -0.0422
   32TCq2    C3  489   0.264   0.138  15.018 -0.1449 -0.2432  0.2130
   32TCq2    C4  490   0.171   0.121  15.117 -0.4407 -0.0799 -0.6125
   32TCq2    C5  491   0.221   0.069  15.241 -0.0794 -0.2724 -0.0551
   32TCq2    C6  492   0.351   0.040  15.258 -0.1074  0.0381  0.3386
   32TCq2    C7  493   0.441   0.057  15.154 -0.6311  0.7143  0.3026
   32TCq2    C8  494   0.398   0.006  15.396  0.2615  0.1664 -0.3973
   32TCq2    O4  495   0.498   4.654  15.412  0.0874  0.1131  0.3003
   32TCq2    C9  496   0.029   0.154  15.097  0.8668 -0.1432  0.1863
   32TCq2    O5  497   0.008   0.212  14.989 -0.2871 -0.6923 -0.2198
   32TCq2    O6  498   4.673   0.129  15.198 -0.4215  0.1277  0.1391
   32TCq2    H2  499   0.234   0.174  14.920  2.3162  0.2693 -0.3610
   32TCq2    H3  500   0.143   0.039  15.310  0.6692 -2.2244 -0.0757
   32TCq2    H4  501   0.546   0.038  15.174 -0.8690  0.3698  1.2135
   33MPD2     C  502   0.578   1.936  10.278  0.6743 -0.0140  0.0332
   33MPD2    C1  503   0.704   2.000  10.246  0.8816 -0.2241 -0.1521
   33MPD2    C2  504   0.712   2.096  10.143 -0.1820 -0.2858 -0.3032
   33MPD2    C3  505   0.594   2.120  10.073  0.4532 -0.1622 -0.6580
   33MPD2    C4  506   0.474   2.058  10.104  0.3281 -0.3267 -0.1009
   33MPD2    C5  507   0.468   1.972  10.209 -0.0654  0.5546  0.2828
   33MPD2     H  508   0.810   2.137  10.120 -1.0780  1.4506 -1.0052
   33MPD2    H1  509   0.381   2.093  10.062  1.3162  0.4035 -1.7020
   33MPD2    H2  510   0.559   1.870  10.361 -4.2948 -0.2650 -1.3093
   33MPD2    H3  511   0.373   1.925  10.234  0.0256  0.2387  0.0391
   33MPD2     N  512   0.587   2.213   9.973 -0.0223 -0.0376  0.1576
   33MPD2    H5  513   0.500   2.218   9.921 -0.3932  1.5851  0.9469
   33MPD2    N1  514   0.815   1.972  10.331 -0.5457  0.0706  0.2017
   33MPD2    H7  515   0.796   1.897  10.397  0.1102 -0.9715 -0.7908
   34TCq2    C1  516   0.688   2.293   9.929  0.1183  0.0491  0.8048
   34TCq2    O2  517   0.802   2.306   9.972  0.1458 -0.0430 -0.2561
   34TCq2    C2  518   0.660   2.377   9.815 -0.3833 -0.2442 -0.0418
   34TCq2    C3  519   0.547   2.353   9.736  0.1510  0.5066  0.3145
   34TCq2    C4  520   0.507   2.441   9.640  0.0021  0.7713  0.4839
   34TCq2    C5  521   0.571   2.559   9.628  0.4983  0.2146 -0.5675
   34TCq2    C6  522   0.686   2.581   9.700  0.1985 -0.1517 -0.2222
   34TCq2    C7  523   0.736   2.487   9.792  0.1057  0.0008 -0.9338
   34TCq2    C8  524   0.766   2.709   9.679 -0.3878  0.1881  0.9478
   34TCq2    O4  525   0.886   2.710   9.693 -0.0485  0.2742 -0.6961
   34TCq2    C9  526   0.386   2.421   9.566 -0.0388  0.0240  0.6944
   34TCq2    O5  527   0.341   2.504   9.487 -0.1027  0.0681 -0.0025
   34TCq2    O6  528   0.325   2.315   9.586  0.2809 -0.0641 -0.5353
   34TCq2    H2  529   0.487   2.264   9.746 -0.1663  0.7705  0.7729
   34TCq2    H3  530   0.522   2.621   9.554 -2.2438 -1.1023  0.1322
   34TCq2    H4  531   0.822   2.517   9.852  0.3019 -0.5962 -0.9096
   35MPD2     C  532   2.830   4.529  12.090 -0.2251  0.7194  0.0928
   35MPD2    C1  533   2.711   4.507  12.163  0.5117 -0.2642  0.1103
   35MPD2    C2  534   2.593   4.478  12.086  0.3208 -0.3242 -0.3499
   35MPD2    C3  535   2.599   4.474  11.948  0.4350  0.0445 -0.0229
   35MPD2    C4  536   2.715   4.514  11.889  0.1170 -0.7635 -0.1975
   35MPD2    C5  537   2.829   4.529  11.959  0.4298  0.3278 -0.3198
   35MPD2     H  538   2.496   4.462  12.132  0.5660 -1.9474 -0.4170
   35MPD2    H1  539   2.724   4.513  11.781 -0.9097 -2.7733 -0.2611
   35MPD2    H2  540   2.921   4.545  12.147 -1.0816 -0.1661  1.7097
   35MPD2    H3  541   2.921   4.549  11.904 -1.0375  0.6650 -2.6595
   35MPD2     N  542   2.488   4.420  11.877  0.1083  0.1167 -0.2896
   35MPD2    H5  543   2.500   4.435  11.777 -1.9130  0.1050 -0.5278
   35MPD2    N1  544   2.714   4.503  12.306 -0.1816 -0.4469  0.0587
   35MPD2    H7  545   2.804   4.486  12.351 -0.3126  2.3931  1.3580
   36TCq2    C1  546   2.379   4.356  11.922 -0.4207 -0.3557  0.3067
   36TCq2    O2  547   2.345   4.334  12.040  0.0965 -0.2240  0.1292
   36TCq2    C2  548   2.298   4.319  11.809  0.3343 -0.3696 -0.2661
   36TCq2    C3  549   2.323   4.362  11.685  0.5526  0.7112  0.3654
   36TCq2    C4  550   2.258   4.310  11.574  0.0006  0.7408  0.7583
   36TCq2    C5  551   2.160   4.216  11.595 -0.0759  0.3932  0.6514
   36TCq2    C6  552   2.130   4.176  11.720  0.6732 -0.2178  0.1380
   36TCq2    C7  553   2.210   4.215  11.825  0.1313 -0.0887  1.2639
   36TCq2    C8  554   2.054   4.049  11.720  0.2978  0.2690  0.5333
   36TCq2    O4  555   1.960   4.018  11.647  0.0878  0.5121 -0.1466
   36TCq2    C9  556   2.297   4.347  11.440 -0.2887 -0.0120  0.3320
   36TCq2    O5  557   2.413   4.391  11.417 -0.6392 -0.3568  0.3659
   36TCq2    O6  558   2.229   4.305  11.344  0.0857 -0.7818  0.7929
   36TCq2    H2  559   2.402   4.429  11.652  2.5585 -1.7906  0.1443
   36TCq2    H3  560   2.115   4.170  11.508  0.3806  1.5140 -0.1772
   36TCq2    H4  561   2.184   4.184  11.925 -2.2924 -0.7418  0.4332
   37TMC2    C1  562   4.339   4.447  11.590  0.3024  0.1366  0.1137
   37TMC2    C2  563   4.283   4.447  11.464  0.6129 -0.5436  0.1246
   37TMC2    C3  564   4.349   4.384  11.361 -0.5107 -0.3656 -0.1656
   37TMC2    C4  565   4.461   4.389  11.615 -0.3480 -0.2556  0.2235
   37TMC2    C5  566   4.526   4.330  11.510  0.0250  0.4258 -0.4315
   37TMC2    C6  567   4.472   4.328  11.378  0.0961 -0.0821  0.3579
   37TMC2     C  568   4.265   4.490  11.702 -0.1783  0.6162 -0.1670
   37TMC2     O  569   4.200   4.594  11.689  0.6904 -0.1072  0.2017
   37TMC2     H  570   4.186   4.494  11.459  0.9620  0.0822 -0.8103
   37TMC2    H1  571   4.510   4.398  11.711 -0.0665  0.2307  0.0339
   37TMC2    H2  572   4.538   4.297  11.298  0.1410  0.1251  0.3138
   37TMC2    C7  573   4.657   4.275  11.533  0.5179 -0.0018  0.2479
   37TMC2    C8  574   4.296   4.395  11.230  0.1220  0.5218  0.5064
   37TMC2    O1  575   4.709   4.327  11.628  0.3224  0.3309 -0.4676
   37TMC2    O2  576   4.207   4.473  11.205 -0.0802 -0.0547 -0.0116
   37TMC2    O5  577   4.319   4.273  11.170 -0.7156 -0.3100 -0.1809
   37TMC2    H5  578   4.373   4.210  11.223  1.0931  0.9249 -0.5458
   38MPD2     C  579   4.199   4.490  12.226  0.2727 -0.0650  0.5571
   38MPD2    C1  580   4.273   4.375  12.191 -0.2228 -0.1096  0.9492
   38MPD2    C2  581   4.300   4.359  12.056  0.1454 -0.2557 -0.1262
   38MPD2    C3  582   4.259   4.447  11.952  0.6699  0.1383 -0.1602
   38MPD2    C4  583   4.181   4.560  11.989  0.2534  0.3645 -0.0499
   38MPD2    C5  584   4.163   4.570  12.128 -0.3076 -0.9440  0.7383
   38MPD2     H  585   4.358   4.272  12.032  0.0196  0.1087 -1.7501
   38MPD2    H1  586   4.144   4.636  11.922 -0.5723  0.5143  0.5778
   38MPD2    H2  587   4.179   4.518  12.329  1.4265 -0.2763  0.8391
   38MPD2    H3  588   4.106   4.659  12.152  1.8197  1.1893 -2.1447
   38MPD2     N  589   4.296   4.415  11.819 -0.2358  0.1502 -0.3736
   38MPD2    H5  590   4.349   4.330  11.803 -0.3305 -0.1607  1.0319
   38MPD2    N1  591   4.318   4.270  12.276  0.4270 -0.1909  0.0030
   38MPD2    H7  592   4.367   4.190  12.238 -0.0460 -0.9588  1.0247
   39MPD2     C  593   2.709   1.424   1.868 -0.0960 -0.2794  0.3830
   39MPD2    C1  594   2.656   1.541   1.912 -0.4099 -0.3597  0.5484
   39MPD2    C2  595   2.575   1.612   1.829  0.1329 -0.4938  0.0104
   39MPD2    C3  596   2.529   1.550   1.713  0.3767  0.3060 -0.2314
   39MPD2    C4  597   2.576   1.424   1.675 -0.1904  0.4355  0.8648
   39MPD2    C5  598   2.673   1.371   1.750  0.2823 -0.0381 -0.4726
   39MPD2     H  599   2.557   1.718   1.846 -0.2270 -0.6249  0.4318
   39MPD2    H1  600   2.550   1.381   1.579  1.1546  1.2368  0.1512
   39MPD2    H2  601   2.778   1.363   1.925 -0.9952 -1.9388 -0.2926
   39MPD2    H3  602   2.721   1.278   1.722 -0.9623 -1.5087  2.2588
   39MPD2     N  603   2.450   1.612   1.607 -0.1197  0.0356  0.3222
   39MPD2    H5  604   2.423   1.554   1.528 -0.3070 -1.8664  1.7723
   39MPD2    N1  605   2.714   1.599   2.028 -0.2618 -0.0458 -0.6288
   39MPD2    H7  606   2.785   1.547   2.079 -0.7068 -0.4372 -0.4094
   40TCq2    C1  607   2.668   1.714   2.089  0.1647  0.2980  0.2039
   40TCq2    O2  608   2.559   1.764   2.077  0.3851 -0.8341 -0.2656
   40TCq2    C2  609   2.746   1.741   2.213  0.6854  0.4114 -0.1214
   40TCq2    C3  610   2.695   1.834   2.292  0.0644 -0.5006 -0.1165
   40TCq2    C4  611   2.758   1.872   2.405  0.1657 -0.2917  0.0316
   40TCq2    C5  612   2.878   1.823   2.434 -0.6798  0.3671 -0.0111
   40TCq2    C6  613   2.935   1.738   2.344 -0.4776 -0.2870 -0.5939
   40TCq2    C7  614   2.872   1.694   2.228 -0.5671 -0.5015 -0.2429
   40TCq2    C8  615   3.074   1.703   2.363  0.1503 -0.0713 -0.4803
   40TCq2    O4  616   3.119   1.606   2.304  0.2552 -0.7498  0.2787
   40TCq2    C9  617   2.703   1.953   2.512  0.2104  0.8673 -0.2054
   40TCq2    O5  618   2.763   1.941   2.628  0.1044 -0.2707 -0.1901
   40TCq2    O6  619   2.593   2.007   2.499  0.5355  0.1727  0.3009
   40TCq2    H2  620   2.591   1.864   2.283 -0.1852 -1.3793 -0.1041
   40TCq2    H3  621   2.940   1.855   2.518 -0.5597 -2.7079  1.0789
   40TCq2    H4  622   2.924   1.623   2.165  0.3760  0.7850 -0.9100
   41TMC2    C1  623   1.206   4.063  13.333  0.4210  0.1183 -0.1185
   41TMC2    C2  624   1.153   4.049  13.209  0.3292  0.2598  0.6411
   41TMC2    C3  625   1.234   4.072  13.108  0.1884  0.2629 -0.2595
   41TMC2    C4  626   1.338   4.100  13.346 -0.5923 -0.0730  0.2365
   41TMC2    C5  627   1.419   4.118  13.231  0.2904  0.4169 -0.3857
   41TMC2    C6  628   1.362   4.105  13.109  0.3359  0.2156 -0.2879
   41TMC2     C  629   1.130   4.023  13.443 -0.5822  0.2596 -0.8127
   41TMC2     O  630   1.020   3.972  13.423 -0.0960  0.5323 -0.2125
   41TMC2     H  631   1.047   4.047  13.185  0.4449 -2.7990  0.3623
   41TMC2    H1  632   1.387   4.101  13.443  1.6006 -1.6448 -0.8501
   41TMC2    H2  633   1.424   4.094  13.021  0.9591 -1.5174  0.3657
   41TMC2    C7  634   1.543   4.187  13.230  0.0137 -0.7832 -0.3996
   41TMC2    C8  635   1.184   4.020  12.986  0.3450 -0.4324 -0.3067
   41TMC2    O1  636   1.569   4.236  13.123 -0.4965  0.1938 -0.4902
   41TMC2    O2  637   1.117   3.921  12.992  0.4360  0.5692  0.5623
   41TMC2    O5  638   1.229   4.079  12.876 -0.4542  0.1631 -0.0418
   41TMC2    H5  639   1.264   4.170  12.887 -2.3544  0.9869 -0.8901
   42MPD2     C  640   1.005   4.000  13.713 -0.3285  0.3703 -0.1279
   42MPD2    C1  641   1.127   4.065  13.691 -0.2371  0.3411 -0.3657
   42MPD2    C2  642   1.190   4.129  13.797 -0.7892  0.4866 -0.1201
   42MPD2    C3  643   1.139   4.121  13.921  0.2342  1.1790 -0.7385
   42MPD2    C4  644   1.025   4.048  13.934 -0.7719  0.5129 -0.4230
   42MPD2    C5  645   0.954   3.991  13.839 -0.1971 -0.2402  0.1890
   42MPD2     H  646   1.286   4.170  13.769 -0.8974  0.8072 -0.0223
   42MPD2    H1  647   0.988   4.039  14.035 -2.5290 -1.6834 -1.2655
   42MPD2    H2  648   0.956   3.943  13.635  0.3498 -1.1481  0.5754
   42MPD2    H3  649   0.864   3.933  13.852 -0.4031 -0.5124 -2.4872
   42MPD2     N  650   1.206   4.172  14.032 -0.3438 -0.0879 -0.0915
   42MPD2    H5  651   1.161   4.144  14.118 -0.4328 -0.8231 -0.3796
   42MPD2    N1  652   1.195   4.057  13.565  0.4715 -0.4764  0.2870
   42MPD2    H7  653   1.282   4.110  13.563  0.0123  0.2956  1.2730
   43MPD2     C  654   3.002   2.607   0.779 -0.0171  1.1417  0.0634
   43MPD2    C1  655   3.079   2.577   0.894  0.1652  0.7040  0.2250
   43MPD2    C2  656   3.039   2.628   1.018  0.1089  0.5399  0.8400
   43MPD2    C3  657   2.942   2.726   1.027 -0.7994  0.7018 -0.2736
   43MPD2    C4  658   2.864   2.746   0.911 -0.2440  0.4417 -0.5891
   43MPD2    C5  659   2.897   2.689   0.788 -0.0343 -0.2608 -0.6281
   43MPD2     H  660   3.099   2.604   1.105  2.7357  0.4928 -0.9864
   43MPD2    H1  661   2.785   2.821   0.910 -0.2631  0.4222 -0.5019
   43MPD2    H2  662   3.039   2.574   0.683  0.8940  0.0566  0.7842
   43MPD2    H3  663   2.850   2.723   0.696  0.6888  3.6785  0.4758
   43MPD2     N  664   2.922   2.808   1.139 -0.2222  0.0734 -0.6071
   43MPD2    H5  665   2.877   2.897   1.121  0.0952  0.2023 -0.7663
   43MPD2    N1  666   3.190   2.491   0.895 -0.4004  0.1110  0.3972
   43MPD2    H7  667   3.224   2.467   0.987 -1.0918 -1.6889  0.2000
   44TCq2    C1  668   3.132   3.059   1.642  0.0074  0.5493 -0.0545
   44TCq2    O2  669   3.174   2.954   1.692  0.0889  0.3693 -0.2073
   44TCq2    C2  670   3.054   3.049   1.523  0.0616 -0.2963 -0.0231
   44TCq2    C3  671   2.963   3.149   1.493  0.1487  0.2870  0.4758
   44TCq2    C4  672   2.893   3.139   1.377  0.6572  0.2459 -0.2288
   44TCq2    C5  673   2.903   3.028   1.299  0.4152 -0.6743 -0.2366
   44TCq2    C6  674   2.993   2.932   1.333  0.0450 -0.1863  0.3460
   44TCq2    C7  675   3.077   2.943   1.439 -0.2003  0.3334 -0.6066
   44TCq2    C8  676   2.997   2.802   1.257 -0.2070 -0.4832 -0.2281
   44TCq2    O4  677   3.073   2.720   1.297 -0.1990  0.2207 -0.0942
   44TCq2    C9  678   2.789   3.236   1.355 -0.5952  0.1615  0.8071
   44TCq2    O5  679   2.700   3.195   1.275 -0.0867  0.5479 -0.1009
   44TCq2    O6  680   2.807   3.354   1.389 -0.0263  0.2399 -0.4004
   44TCq2    H2  681   2.950   3.241   1.549 -0.4180  0.3836  0.1926
   44TCq2    H3  682   2.847   3.024   1.207 -0.1618  0.5634  0.0726
   44TCq2    H4  683   3.133   2.855   1.470  1.9801  1.9331 -0.0491
   45TMC2    C1  684   0.019   3.973   9.363  0.8853  0.1487  0.0163
   45TMC2    C2  685   0.140   3.928   9.416 -0.8387  0.3519  0.2381
   45TMC2    C3  686   0.215   4.021   9.479 -0.4036 -0.1104  0.2020
   45TMC2    C4  687   4.698   4.107   9.360  0.1081 -0.0639 -0.6361
   45TMC2    C5  688   0.056   4.187   9.438  0.4124  0.0120 -0.1717
   45TMC2    C6  689   0.167   4.150   9.503 -0.0639 -0.5665 -0.4510
   45TMC2     C  690   4.672   3.865   9.293  0.2019  0.2242  0.3111
   45TMC2     O  691   0.013   3.766   9.262  0.3920  0.1033 -0.0153
   45TMC2     H  692   0.172   3.825   9.408  0.1588  0.7847 -1.2307
   45TMC2    H1  693   4.597   4.139   9.335 -1.2471 -2.7066  1.4157
   45TMC2    H2  694   0.225   4.224   9.558 -2.6423 -0.7413  2.5158
   45TMC2    C7  695   0.016   4.322   9.463  0.1213  0.1362 -0.0361
   45TMC2    C8  696   0.313   3.975   9.572  0.9524  0.1189 -0.0306
   45TMC2    O1  697   0.071   4.376   9.554 -0.0553  0.4557 -0.1794
   45TMC2    O2  698   0.353   4.047   9.659 -0.1910 -0.2748 -0.1022
   45TMC2    O5  699   0.383   3.884   9.509 -0.1553 -0.4699  0.3181
   45TMC2    H5  700   0.341   3.843   9.430 -1.7432  0.4495  0.6992
   46MPD2     C  701   4.492   3.712   9.100 -0.0655 -0.0882  0.3020
   46MPD2    C1  702   4.458   3.829   9.169 -0.0131 -0.6702  0.7582
   46MPD2    C2  703   4.331   3.876   9.156 -0.0274  0.1891  0.0680
   46MPD2    C3  704   4.236   3.809   9.077 -0.0569  1.3601 -0.1388
   46MPD2    C4  705   4.275   3.701   9.006 -0.2034  0.1787  0.8769
   46MPD2    C5  706   4.399   3.649   9.022  1.0987  0.5332  0.1825
   46MPD2     H  707   4.308   3.962   9.217  1.1299 -0.5477  1.5499
   46MPD2    H1  708   4.204   3.658   8.936  0.9288  2.0883 -1.4095
   46MPD2    H2  709   4.593   3.674   9.110  0.1400 -0.4180 -2.9029
   46MPD2    H3  710   4.433   3.570   8.956 -2.9752 -1.5336  0.5622
   46MPD2     N  711   4.106   3.861   9.076  0.0287 -0.3786 -0.2635
   46MPD2    H5  712   4.084   3.934   9.143  1.0926  0.6790 -1.0694
   46MPD2    N1  713   4.546   3.907   9.255  0.1126  0.4348 -0.4004
   46MPD2    H7  714   4.511   3.990   9.301  1.0583  0.6687 -0.1161
   47TMC2    C1  715   0.809   3.897   9.385  0.2877 -0.2615  0.9432
   47TMC2    C2  716   0.897   3.806   9.330 -0.0485 -0.8861 -0.3126
   47TMC2    C3  717   0.858   3.747   9.211  0.0564 -0.9225  0.3991
   47TMC2    C4  718   0.680   3.910   9.349  0.0058 -0.0292  0.4691
   47TMC2    C5  719   0.635   3.838   9.243  0.1033 -0.0426 -0.7108
   47TMC2    C6  720   0.725   3.766   9.166  0.2851 -0.4682  0.0334
   47TMC2     C  721   0.839   3.969   9.514  0.4560  0.3500  0.3116
   47TMC2     O  722   0.742   4.012   9.578  0.1022  0.0825  0.0630
   47TMC2     H  723   0.994   3.795   9.377  1.2342 -0.3427 -2.8236
   47TMC2    H1  724   0.609   3.955   9.417 -0.7976 -1.9120  0.8613
   47TMC2    H2  725   0.692   3.699   9.087 -1.3057  1.5190 -0.9778
   47TMC2    C7  726   0.527   3.892   9.164  0.0930 -0.3881 -1.0733
   47TMC2    C8  727   0.932   3.636   9.152 -0.1576 -0.1974  0.3248
   47TMC2    O1  728   0.475   3.815   9.088  0.5607 -0.1004  0.1910
   47TMC2    O2  729   0.920   3.601   9.033  0.3424 -0.0289  0.3571
   47TMC2    O5  730   0.990   3.565   9.249 -0.1679  0.3873 -0.2127
   47TMC2    H5  731   0.971   3.599   9.338 -1.1232  2.1796 -1.1078
   48MPD2     C  732   0.947   4.198   9.644  0.6578  1.1443  0.7472
   48MPD2    C1  733   1.024   4.083   9.622  0.2152  0.0499 -0.2323
   48MPD2    C2  734   1.153   4.083   9.659  0.3638 -0.4787  0.4922
   48MPD2    C3  735   1.200   4.193   9.736 -0.1712 -0.0295 -0.7492
   48MPD2    C4  736   1.120   4.297   9.763 -0.5953  0.7041  0.1990
   48MPD2    C5  737   0.996   4.298   9.714 -0.3316 -0.2412 -0.0874
   48MPD2     H  738   1.226   4.003   9.651  0.2833 -0.3518 -1.4325
   48MPD2    H1  739   1.159   4.385   9.813 -2.7183 -0.2549  3.5531
   48MPD2    H2  740   0.845   4.211   9.607  0.3631 -0.2712  1.0519
   48MPD2    H3  741   0.936   4.388   9.728  0.5691  0.3712 -0.1307
   48MPD2     N  742   1.329   4.178   9.792 -0.6143  0.5273  0.4410
   48MPD2    H5  743   1.382   4.100   9.756  1.6609  2.5670 -0.6632
   48MPD2    N1  744   0.974   3.980   9.549  0.0822  0.1294 -0.2731
   48MPD2    H7  745   1.040   3.905   9.527  1.0053  0.7697  0.3015
   49MPD2     C  746   4.569   2.424   9.927 -0.6467 -0.0662  0.2643
   49MPD2    C1  747   4.450   2.369   9.972  0.6027  0.1513 -0.9833
   49MPD2    C2  748   4.440   2.325  10.098  0.4910  0.1417 -0.5040
   49MPD2    C3  749   4.549   2.340  10.183 -0.6283  0.3293  0.2321
   49MPD2    C4  750   4.668   2.390  10.129  0.4750 -0.1493 -0.7816
   49MPD2    C5  751   4.683   2.434  10.001  0.2551 -0.1668  0.4956
   49MPD2     H  752   4.345   2.290  10.136  0.2728 -0.5899 -1.7353
   49MPD2    H1  753   0.035   2.408  10.192 -0.0005  1.2281 -0.5026
   49MPD2    H2  754   4.575   2.474   9.831 -3.1668  1.5959  0.9781
   49MPD2    H3  755   0.048   2.483   9.955 -0.2968  2.3177  2.1127
   49MPD2     N  756   4.538   2.319  10.326 -0.0247 -0.0832  1.0626
   49MPD2    H5  757   4.613   2.344  10.389  1.1506 -2.6910  0.7082
   49MPD2    N1  758   4.333   2.354   9.900 -0.3892  0.0856  0.0788
   49MPD2    H7  759   4.252   2.331   9.957  0.8845 -1.5511  1.2493
   50TCq2    C1  760   4.321   2.378   9.766  0.2898  0.3939  0.2210
   50TCq2    O2  761   4.399   2.418   9.680  0.1738 -0.1013  0.0341
   50TCq2    C2  762   4.184   2.359   9.713 -0.9214  0.0995 -0.0475
   50TCq2    C3  763   4.144   2.425   9.596 -0.4048  0.6959  0.2341
   50TCq2    C4  764   4.015   2.422   9.562  0.0373 -0.5259  0.2086
   50TCq2    C5  765   3.920   2.354   9.638 -0.0052  0.7674 -0.1321
   50TCq2    C6  766   3.962   2.293   9.756  0.5201 -0.8170  0.1470
   50TCq2    C7  767   4.094   2.291   9.788  0.0615  0.2813  0.1478
   50TCq2    C8  768   3.886   2.181   9.807  0.1734 -0.4025  0.0603
   50TCq2    O4  769   3.925   2.119   9.906 -0.4866  0.2357  0.4053
   50TCq2    C9  770   3.971   2.493   9.448  0.3592 -0.2676  0.2873
   50TCq2    O5  771   4.054   2.505   9.361  0.1804  0.4802 -0.3911
   50TCq2    O6  772   3.849   2.489   9.422 -0.3828 -0.5048  0.2674
   50TCq2    H2  773   4.210   2.488   9.538 -0.3554 -1.1623 -1.7018
   50TCq2    H3  774   3.817   2.375   9.615  0.1922  1.9319  0.0411
   50TCq2    H4  775   4.125   2.243   9.880  0.8197 -2.7948 -1.7359
   51MPD2     C  776   0.103   0.243   2.161 -0.1904  0.3332 -0.3631
   51MPD2    C1  777   0.201   0.301   2.092 -0.0552  0.2208 -0.1214
   51MPD2    C2  778   0.276   0.402   2.147 -0.0470 -0.0524  0.2297
   51MPD2    C3  779   0.247   0.447   2.271  0.3737 -0.6543 -0.0980
   51MPD2    C4  780   0.137   0.397   2.338  0.6573 -0.1927  0.1224
   51MPD2    C5  781   0.063   0.302   2.276  0.1556  0.2871  0.2153
   51MPD2     H  782   0.350   0.448   2.083  0.9955 -2.6410 -0.4148
   51MPD2    H1  783   0.100   0.431   2.433 -1.6232 -0.0969 -0.7983
   51MPD2    H2  784   0.034   0.168   2.121 -2.8806  0.9601  3.1035
   51MPD2    H3  785   4.703   0.248   2.326  0.5764 -0.2260  0.3343
   51MPD2     N  786   0.315   0.550   2.332 -0.2104 -0.2699 -0.2452
   51MPD2    H5  787   0.284   0.581   2.424 -0.0804  1.6631 -0.8590
   51MPD2    N1  788   0.240   0.269   1.962  0.7159 -0.2170 -0.4240
   51MPD2    H7  789   0.320   0.305   1.911  0.3509  0.2135 -0.6892
   52TCq2    C1  790   0.399   0.632   2.269 -0.3096  0.0855 -0.0580
   52TCq2    O2  791   0.436   0.643   2.156  0.3550 -0.2509  0.7631
   52TCq2    C2  792   0.434   0.749   2.346 -0.4800  0.2035 -1.0216
   52TCq2    C3  793   0.435   0.740   2.480  0.3651 -0.3640  0.3468
   52TCq2    C4  794   0.468   0.845   2.560 -0.6088  0.1167  0.3077
   52TCq2    C5  795   0.508   0.959   2.511 -0.8627  0.3284  0.4662
   52TCq2    C6  796   0.511   0.968   2.374 -0.4773  0.5927  0.1371
   52TCq2    C7  797   0.484   0.862   2.289  0.1990 -0.5547 -0.0771
   52TCq2    C8  798   0.573   1.083   2.318 -0.6373  0.0251  0.8917
   52TCq2    O4  799   0.528   1.125   2.210 -0.0008 -0.0445 -0.2934
   52TCq2    C9  800   0.455   0.827   2.703 -0.7778 -0.3447  0.0337
   52TCq2    O5  801   0.533   0.901   2.766  0.2189  0.0318 -0.4020
   52TCq2    O6  802   0.413   0.715   2.742  0.6884 -0.0754  0.1350
   52TCq2    H2  803   0.428   0.642   2.525  0.7879  0.3886  2.0651
   52TCq2    H3  804   0.542   1.035   2.581 -0.8335 -0.6188  1.4741
   52TCq2    H4  805   0.502   0.866   2.182 -1.8004  0.6532 -0.3707
   53TMC2    C1  806   0.539   3.959  11.851 -0.0184  0.3761 -0.0487
   53TMC2    C2  807   0.668   3.925  11.864 -0.2792 -0.2927  0.8235
   53TMC2    C3  808   0.718   3.929  11.991  0.0448  0.3449 -0.0688
   53TMC2    C4  809   0.459   4.004  11.952  0.8021  0.5573  0.2808
   53TMC2    C5  810   0.518   4.011  12.073  0.0211  0.4918  0.9700
   53TMC2    C6  811   0.650   3.971  12.094  0.2925 -0.3608 -0.0256
   53TMC2     C  812   0.480   3.934  11.720  0.7518  0.5749  0.4416
   53TMC2     O  813   0.536   3.856  11.643  0.0862 -0.0060 -0.2626
   53TMC2     H  814   0.734   3.910  11.779 -0.9110 -1.7438  0.5931
   53TMC2    H1  815   0.352   4.014  11.935  0.7892 -0.7760 -0.3987
   53TMC2    H2  816   0.700   3.971  12.190  0.4775  3.4892 -0.1228
   53TMC2    C7  817   0.455   4.119  12.157  0.0193  0.0573 -0.1117
   53TMC2    C8  818   0.858   3.956  12.002 -0.4109 -0.7709 -0.2570
   53TMC2    O1  819   0.370   4.189  12.097  0.2588  0.0989  0.2530
   53TMC2    O2  820   0.915   4.020  12.089  0.2196  0.3561 -0.7321
   53TMC2    O5  821   0.918   3.863  11.924 -0.3480  0.3725 -0.2639
   53TMC2    H5  822   0.868   3.808  11.859 -0.6651  3.1755 -2.3863
   54MPD2     C  823   0.267   3.859  11.514  0.1452  0.1034 -1.0984
   54MPD2    C1  824   0.261   3.970  11.595 -0.1785  0.6268 -0.1225
   54MPD2    C2  825   0.160   4.063  11.582  0.0482  0.3482 -0.2224
   54MPD2    C3  826   0.065   4.054  11.484 -0.4342 -0.3391  0.7717
   54MPD2    C4  827   0.068   3.947  11.405  0.0112 -0.7116 -0.1760
   54MPD2    C5  828   0.159   3.843  11.422  0.6325  0.2088 -0.0046
   54MPD2     H  829   0.159   4.144  11.653 -1.0549 -0.9008  1.1891
   54MPD2    H1  830   4.715   3.940  11.325 -2.5487  0.2545  2.1135
   54MPD2    H2  831   0.349   3.789  11.519  0.4301  0.2862 -3.3401
   54MPD2    H3  832   0.152   3.761  11.352  2.6695 -0.1522  0.2149
   54MPD2     N  833   4.683   4.153  11.467  0.0026 -0.0493  0.0016
   54MPD2    H5  834   4.610   4.123  11.403  0.9799  0.3094 -1.2977
   54MPD2    N1  835   0.360   3.995  11.695  0.1171  0.3927  1.0110
   54MPD2    H7  836   0.346   4.077  11.754  1.0727  0.8886  0.5502
   55MPD2     C  837   0.927   1.835  17.495  0.2542 -0.0437 -0.8323
   55MPD2    C1  838   0.941   1.809  17.631  0.1694 -0.2983  0.2988
   55MPD2    C2  839   0.866   1.890   0.035 -0.3454  0.0723 -0.4240
   55MPD2    C3  840   0.783   1.992  17.675 -1.0712  0.3185  0.3725
   55MPD2    C4  841   0.768   2.006  17.538 -0.2734  0.5322 -0.3033
   55MPD2    C5  842   0.836   1.927  17.453  0.5009  0.3002 -0.0678
   55MPD2     H  843   0.880   1.879   0.142  0.5740 -0.3318 -0.5873
   55MPD2    H1  844   0.706   2.080  17.488 -1.4509  1.5655  2.7219
   55MPD2    H2  845   0.981   1.768  17.429 -0.4804 -0.1947 -1.2854
   55MPD2    H3  846   0.827   1.936  17.345  1.3609 -0.6593 -0.2193
   55MPD2     N  847   0.715   2.072   0.085 -0.4135 -0.2901  0.6005
   55MPD2    H5  848   0.728   2.054   0.183  0.2980 -1.5118  0.2730
   55MPD2    N1  849   1.034   1.716  17.671 -0.0350  0.4166 -0.0509
   55MPD2    H7  850   1.086   1.673  17.596 -0.4138  1.4567 -0.9088
   56TCq2    C1  851   1.054   1.676   0.117 -0.2717 -0.0603  0.0688
   56TCq2    O2  852   0.976   1.677   0.213  0.1172  0.1033 -0.2328
   56TCq2    C2  853   1.162   1.592   0.145 -0.1170  0.3248  0.1427
   56TCq2    C3  854   1.277   1.614   0.077 -0.5597 -0.1811  0.2935
   56TCq2    C4  855   1.395   1.559   0.118 -0.2349  0.4295 -0.3275
   56TCq2    C5  856   1.401   1.497   0.240  0.1753  0.2455  0.1142
   56TCq2    C6  857   1.293   1.502   0.318 -0.2116  0.3764  0.4650
   56TCq2    C7  858   1.166   1.534   0.272  0.4698  0.3491  1.0435
   56TCq2    C8  859   1.327   1.517   0.464 -0.8924  0.5383  0.3720
   56TCq2    O4  860   1.444   1.496   0.498  0.0129  0.0172  0.0524
   56TCq2    C9  861   1.515   1.605   0.047 -0.0331  0.4919  0.8056
   56TCq2    O5  862   1.507   1.667  17.624  0.2165 -0.1182  0.0491
   56TCq2    O6  863   1.621   1.556   0.090  0.1260  0.0047  0.0098
   56TCq2    H2  864   1.275   1.681  17.675 -1.1729  0.7109  1.0102
   56TCq2    H3  865   1.496   1.468   0.285 -0.2745  0.8810  1.4737
   56TCq2    H4  866   1.080   1.509   0.332 -0.1433 -1.0113 -0.3696
   57TMC2    C1  867   4.618   3.088  13.351  0.8867 -0.4286  0.1329
   57TMC2    C2  868   0.003   3.133  13.430  0.6026 -0.0767 -0.2757
   57TMC2    C3  869   0.111   3.057  13.442  0.4164  0.2595 -0.4284
   57TMC2    C4  870   4.626   2.969  13.286  0.5247 -0.0014 -0.0084
   57TMC2    C5  871   0.018   2.900  13.301  0.0164  0.1541  0.2172
   57TMC2    C6  872   0.127   2.941  13.372 -0.1598 -0.4412 -0.1049
   57TMC2     C  873   4.498   3.173  13.336  0.8003  0.6466 -0.1686
   57TMC2     O  874   4.506   3.283  13.393  0.0933  0.3476  0.0687
   57TMC2     H  875   0.012   3.230  13.477 -1.2182 -0.0498  0.0086
   57TMC2    H1  876   4.557   2.932  13.210  2.1068  0.7057 -1.7788
   57TMC2    H2  877   0.224   2.894  13.376  0.9152  1.5197 -2.6974
   57TMC2    C7  878   0.030   2.775  13.219 -0.4942 -0.2143 -0.6084
   57TMC2    C8  879   0.232   3.132  13.474 -0.0086  0.4533 -0.0408
   57TMC2    O1  880   4.650   2.704  13.205  0.0598  0.8167 -0.4372
   57TMC2    O2  881   0.226   3.212  13.568  0.1841  0.1268  0.0290
   57TMC2    O5  882   0.266   3.176  13.350 -0.3162  0.0937 -0.4609
   57TMC2    H5  883   0.273   3.107  13.281  0.1263 -0.8074  0.4847
   58MPD2     C  884   4.043   3.280  13.133 -0.2431  0.4595 -0.1185
   58MPD2    C1  885   4.091   3.318  13.258  0.4918  1.3673  0.8901
   58MPD2    C2  886   4.223   3.273  13.290  0.0985  0.4130 -0.3674
   58MPD2    C3  887   4.295   3.194  13.204  0.0098 -0.9349 -0.6342
   58MPD2    C4  888   4.228   3.145  13.098  0.1814 -0.1817  1.2275
   58MPD2    C5  889   4.110   3.191  13.056 -0.0427 -0.1361  0.0129
   58MPD2     H  890   4.267   3.316  13.380 -2.2105 -1.2897  1.5627
   58MPD2    H1  891   4.274   3.062  13.045  0.5994  0.9825 -0.2527
   58MPD2    H2  892   3.951   3.316  13.088 -0.9015  0.7334  1.4417
   58MPD2    H3  893   4.056   3.146  12.973 -0.6017 -0.5789  0.6107
   58MPD2     N  894   4.416   3.132  13.239  0.2555  0.4190 -0.4831
   58MPD2    H5  895   4.442   3.057  13.176  0.1012  0.9599 -1.1931
   58MPD2    N1  896   4.026   3.412  13.341  0.2209 -0.0524  0.6858
   58MPD2    H7  897   4.075   3.456  13.419 -1.0562 -0.6638  1.8269
   59MPD2     C  898   2.687   3.348  13.270 -0.2941  0.1290 -0.0284
   59MPD2    C1  899   2.779   3.414  13.187 -0.2714  0.0041  0.3021
   59MPD2    C2  900   2.866   3.505  13.245 -0.2165  0.9434  0.0409
   59MPD2    C3  901   2.862   3.539  13.378  0.3424  0.3944 -0.7479
   59MPD2    C4  902   2.771   3.475  13.462 -0.0255 -0.1929 -0.4211
   59MPD2    C5  903   2.692   3.373  13.404 -0.8363 -0.1817 -0.4142
   59MPD2     H  904   2.935   3.552  13.175  1.1607  0.0681  0.8212
   59MPD2    H1  905   2.778   3.489  13.569  0.0848 -0.7614 -0.3554
   59MPD2    H2  906   2.617   3.271  13.240 -2.3599  2.4575 -1.1306
   59MPD2    H3  907   2.633   3.311  13.470  2.6639 -1.8675  1.1132
   59MPD2     N  908   2.938   3.645  13.435  0.2666 -0.1943 -0.1478
   59MPD2    H5  909   2.917   3.666  13.532  0.8735 -0.4905  0.0501
   59MPD2    N1  910   2.782   3.390  13.043  0.2664 -0.3334  0.6158
   59MPD2    H7  911   2.847   3.445  12.987 -0.9772 -0.2612 -0.7724
   60TCq2    C1  912   2.717   3.282  12.986  0.0179 -0.5210  0.4429
   60TCq2    O2  913   2.654   3.190  13.035  0.1084 -0.0846  0.6678
   60TCq2    C2  914   2.768   3.257  12.854  0.1268  0.0171 -0.5571
   60TCq2    C3  915   2.810   3.125  12.818  0.3149 -0.5579  0.5810
   60TCq2    C4  916   2.868   3.109  12.691 -0.1098 -0.3819 -0.1071
   60TCq2    C5  917   2.870   3.211  12.602 -0.1816  0.6395 -0.3577
   60TCq2    C6  918   2.832   3.341  12.638 -0.6251  0.2957 -0.5806
   60TCq2    C7  919   2.779   3.367  12.764  0.2557 -0.0494  0.1764
   60TCq2    C8  920   2.844   3.440  12.536 -0.1135 -0.3542 -0.3129
   60TCq2    O4  921   2.907   3.392  12.438 -0.4457  0.5458  0.4335
   60TCq2    C9  922   2.940   2.985  12.658 -1.1148  0.2010  0.3906
   60TCq2    O5  923   3.016   2.982  12.559 -0.2294 -0.1305 -0.1904
   60TCq2    O6  924   2.921   2.891  12.741 -0.2859 -0.4872 -0.3190
   60TCq2    H2  925   2.785   3.041  12.881  0.1998  0.6440  2.1529
   60TCq2    H3  926   2.910   3.179  12.507 -0.4899  2.5428 -1.1208
   60TCq2    H4  927   2.738   3.459  12.804  0.8842 -0.1951  1.1327
   61MPD2     C  928   2.067   4.461  15.607  0.3899  0.8461  0.2755
   61MPD2    C1  929   2.018   4.569  15.534 -0.0670  0.4150  0.8912
   61MPD2    C2  930   2.037   4.576  15.393  0.6313  0.5269 -0.9063
   61MPD2    C3  931   2.141   4.495  15.342 -0.2276  0.3422 -0.1824
   61MPD2    C4  932   2.196   4.394  15.418  0.7284 -0.0225  0.3006
   61MPD2    C5  933   2.157   4.377  15.552  0.1996  0.4399  0.5683
   61MPD2     H  934   1.991   4.663  15.349  1.1523  0.5976 -1.3132
   61MPD2    H1  935   2.278   4.332  15.385  0.0226  0.5552 -2.4917
   61MPD2    H2  936   2.035   4.442  15.709 -0.5748 -0.7122 -0.3229
   61MPD2    H3  937   2.208   4.299  15.608 -1.0744 -1.2677 -0.6209
   61MPD2     N  938   2.186   4.511  15.209 -0.8406  0.6039 -0.2699
   61MPD2    H5  939   2.276   4.468  15.187 -0.9128  0.9001 -1.1687
   61MPD2    N1  940   1.946   4.671  15.599 -0.4952 -0.2632 -0.0148
   61MPD2    H7  941   1.917   0.025  15.537  2.2979  1.2053  0.4604
   62TCq2    C1  942   1.938   4.690  15.733 -0.5011  0.1968  0.1599
   62TCq2    O2  943   1.977   4.612  15.823  0.5372  0.1759 -0.1319
   62TCq2    C2  944   1.850   0.080  15.771 -0.6704 -0.0637  0.0619
   62TCq2    C3  945   1.829   0.107  15.903 -0.0306 -0.0629  0.3197
   62TCq2    C4  946   1.762   0.219  15.940  0.4407 -0.1912 -0.5157
   62TCq2    C5  947   1.709   0.300  15.846 -0.1563 -0.9341 -0.3809
   62TCq2    C6  948   1.731   0.267  15.712 -0.3119 -0.0453  0.6658
   62TCq2    C7  949   1.805   0.165  15.677 -0.1127 -0.0872  0.2501
   62TCq2    C8  950   1.707   0.374  15.613  0.2367  0.2471  0.2966
   62TCq2    O4  951   1.786   0.385  15.522 -0.1548 -0.0212  0.1681
   62TCq2    C9  952   1.738   0.244  16.081  0.2917  0.1237 -0.1132
   62TCq2    O5  953   1.705   0.360  16.115 -0.4948 -0.6756 -0.7172
   62TCq2    O6  954   1.788   0.160  16.159  0.2650 -0.0390  0.0756
   62TCq2    H2  955   1.869   0.042  15.980 -1.1986  0.6963  1.5609
   62TCq2    H3  956   1.644   0.380  15.879  0.8838 -0.4229  0.4174
   62TCq2    H4  957   1.822   0.157  15.570  0.3843  0.9497  0.2530
   63TMC2    C1  958   1.528   4.549  11.307  0.2667  0.2351  0.5969
   63TMC2    C2  959   1.584   4.601  11.424 -0.5342 -0.6873  0.3638
   63TMC2    C3  960   1.698   4.675  11.415  0.7367 -0.6244  0.1989
   63TMC2    C4  961   1.582   4.568  11.186  0.1666 -0.3803 -0.6534
   63TMC2    C5  962   1.698   4.629  11.179  1.0320  0.6999 -0.4141
   63TMC2    C6  963   1.758   4.679  11.291 -0.2756  0.1868 -0.1545
   63TMC2     C  964   1.414   4.457  11.312 -0.6502 -0.2399  0.5848
   63TMC2     O  965   1.365   4.424  11.420  0.0350  0.0200  0.0980
   63TMC2     H  966   1.533   4.577  11.516  0.6419 -1.1689  0.8973
   63TMC2    H1  967   1.544   4.521  11.096  0.1784  0.0022 -0.8564
   63TMC2    H2  968   1.842   0.026  11.291 -1.6064  1.8529 -0.2218
   63TMC2    C7  969   1.765   4.632  11.050  0.0724  0.2162 -0.1847
   63TMC2    C8  970   1.754   0.046  11.517  0.0722 -0.3376  0.1046
   63TMC2    O1  971   1.682   4.617  10.961  0.9266  0.7356 -0.2778
   63TMC2    O2  972   1.835   0.132  11.505 -0.0094  0.1032  0.5833
   63TMC2    O5  973   1.705   4.720  11.639 -0.2131  0.0611 -0.5446
   63TMC2    H5  974   1.659   4.633  11.631 -1.2343  0.4885  0.7234
   64MPD2     C  975   1.265   3.995  11.129 -0.2157  0.0919 -0.9121
   64MPD2    C1  976   1.333   4.064  11.032 -0.4101 -0.1096 -0.0048
   64MPD2    C2  977   1.367   4.194  11.055  0.1559 -0.3481  0.6645
   64MPD2    C3  978   1.344   4.251  11.179  0.1653 -0.0037  0.5908
   64MPD2    C4  979   1.278   4.184  11.275 -0.9172  0.1442 -0.5213
   64MPD2    C5  980   1.237   4.056  11.252  0.3217 -0.1895 -0.1155
   64MPD2     H  981   1.417   4.247  10.975 -0.6894  3.0788  2.4396
   64MPD2    H1  982   1.253   4.229  11.371 -1.7168  0.5411 -0.9117
   64MPD2    H2  983   1.227   3.899  11.096  0.5786 -0.1710 -1.0781
   64MPD2    H3  984   1.190   4.001  11.331  3.0987 -1.7203  0.4669
   64MPD2     N  985   1.399   4.380  11.194 -0.0110 -0.3164 -0.2228
   64MPD2    H5  986   1.469   4.407  11.126  0.3699 -2.5627 -0.7210
   64MPD2    N1  987   1.371   4.019  10.905 -0.1315 -0.2584 -0.4331
   64MPD2    H7  988   1.425   4.084  10.849 -1.1670 -0.4364 -1.6398
   65MPD2     C  989   2.522   4.017  15.755  0.1611 -0.3157 -0.3234
   65MPD2    C1  990   2.493   4.042  15.625  0.7543 -0.2156  0.0795
   65MPD2    C2  991   2.457   3.930  15.547 -0.1941 -0.6950 -0.6207
   65MPD2    C3  992   2.421   3.807  15.612  0.3428 -0.8888  0.4771
   65MPD2    C4  993   2.431   3.798  15.743 -0.1536 -0.5189 -0.8841
   65MPD2    C5  994   2.483   3.898  15.813  0.4147 -0.9958 -0.2721
   65MPD2     H  995   2.427   3.940  15.443  0.6885  0.8163 -0.7273
   65MPD2    H1  996   2.407   3.701  15.787 -0.2210 -0.5927 -1.0815
   65MPD2    H2  997   2.575   4.083  15.823  1.3702 -1.5532 -0.0853
   65MPD2    H3  998   2.502   3.877  15.918  2.0760  0.4863 -0.2847
   65MPD2     N  999   2.353   3.700  15.543 -0.2370  0.8135  0.1698
   65MPD2    H5 1000   2.307   3.625  15.594 -3.6453  2.3567 -0.6134
   65MPD2    N1 1001   2.495   4.165  15.569  0.3194 -0.3035 -0.4966
   65MPD2    H7 1002   2.478   4.171  15.469  1.4103  2.4273 -0.5266
   66TCq2    C1 1003   2.506   4.281  15.636 -0.7122  0.6692 -0.3629
   66TCq2    O2 1004   2.494   4.311  15.753 -0.2307 -0.7432 -0.3918
   66TCq2    C2 1005   2.509   4.394  15.546  0.1338  0.2885  1.0385
   66TCq2    C3 1006   2.565   4.370  15.423 -0.2157 -0.5185 -0.1382
   66TCq2    C4 1007   2.570   4.473  15.333 -0.1780 -0.3137  0.3097
   66TCq2    C5 1008   2.522   4.601  15.363  0.2610  0.4588  0.0543
   66TCq2    C6 1009   2.465   4.615  15.485  0.3006  0.0845  0.0257
   66TCq2    C7 1010   2.460   4.518  15.580 -0.3544  0.3006 -0.0755
   66TCq2    C8 1011   2.392   0.018  15.507  0.0532 -1.0031  1.0881
   66TCq2    O4 1012   2.372   0.085  15.406  0.4742  0.5429  0.3824
   66TCq2    C9 1013   2.644   4.457  15.209  0.1353 -1.0755 -0.2134
   66TCq2    O5 1014   2.739   4.371  15.211 -0.5554 -0.2293  0.1624
   66TCq2    O6 1015   2.616   4.544  15.123 -0.3120  0.1529  0.1630
   66TCq2    H2 1016   2.601   4.275  15.383  2.0665 -0.6634  2.2750
   66TCq2    H3 1017   2.533   4.683  15.292  1.1722  0.5637  0.3169
   66TCq2    H4 1018   2.414   4.531  15.677 -1.4669 -0.7736 -0.4576
   67MPD2     C 1019   2.516   3.721  14.058  0.0216 -0.1706 -0.4356
   67MPD2    C1 1020   2.436   3.740  14.173 -0.2918  0.3995 -0.2860
   67MPD2    C2 1021   2.303   3.709  14.169 -0.6760  0.9861 -0.2007
   67MPD2    C3 1022   2.244   3.662  14.051 -0.9874  0.4010  0.5019
   67MPD2    C4 1023   2.326   3.650  13.942  0.2983  0.3187 -0.4976
   67MPD2    C5 1024   2.456   3.683  13.945  0.2269 -0.6362 -0.5280
   67MPD2     H 1025   2.249   3.730  14.260  0.9441 -1.1566  1.2594
   67MPD2    H1 1026   2.283   3.632  13.844  2.0711 -2.4638 -0.7808
   67MPD2    H2 1027   2.623   3.737  14.056  0.0152  0.0265  0.9381
   67MPD2    H3 1028   2.516   3.673  13.855 -0.1020  2.3020 -1.0671
   67MPD2     N 1029   2.113   3.633  14.031  0.0183  0.3211  0.2365
   67MPD2    H5 1030   2.084   3.612  13.935 -1.2350 -1.7808  1.0752
   67MPD2    N1 1031   2.479   3.784  14.294  0.1564 -0.6359  0.0269
   67MPD2    H7 1032   2.412   3.791  14.370 -1.1750 -2.1064 -1.0361
   68TCq2    C1 1033   2.616   3.785  14.323 -0.6625  0.5672  0.3153
   68TCq2    O2 1034   2.712   3.760  14.256 -0.2590  0.0640  0.0463
   68TCq2    C2 1035   2.649   3.824  14.459  0.4296 -0.6642 -0.0404
   68TCq2    C3 1036   2.584   3.921  14.521  0.1099  0.2899  0.3878
   68TCq2    C4 1037   2.657   3.986  14.617  0.4185  0.4387 -0.0630
   68TCq2    C5 1038   2.779   3.945  14.670  0.2879  0.2542 -0.7202
   68TCq2    C6 1039   2.838   3.848  14.605  0.5056 -0.1459 -0.3794
   68TCq2    C7 1040   2.777   3.785  14.500  0.3910  0.7577  0.2201
   68TCq2    C8 1041   2.925   3.761  14.678  0.6347 -0.0585 -0.3712
   68TCq2    O4 1042   3.012   3.713  14.611  0.1232 -0.3909  0.2993
   68TCq2    C9 1043   2.590   4.084  14.695 -0.4275 -0.1818  1.0855
   68TCq2    O5 1044   2.638   4.106  14.809 -0.2096  0.4078  0.1692
   68TCq2    O6 1045   2.490   4.149  14.650 -0.6614 -0.5521  0.0106
   68TCq2    H2 1046   2.484   3.956  14.496 -0.0539 -0.9724 -0.7021
   68TCq2    H3 1047   2.823   3.998  14.753  0.7178 -1.4550  0.1444
   68TCq2    H4 1048   2.830   3.698  14.463 -0.0828 -0.3849  2.2152
   69TMC2    C1 1049   0.460   0.206  12.750  0.1828 -1.3254  0.3734
   69TMC2    C2 1050   0.388   0.323  12.743 -0.0802  0.2143  0.5208
   69TMC2    C3 1051   0.428   0.405  12.637  0.0539  0.2078  0.6038
   69TMC2    C4 1052   0.576   0.175  12.681 -0.2525 -0.8356  0.1048
   69TMC2    C5 1053   0.615   0.261  12.586 -0.0913  0.1002  0.2248
   69TMC2    C6 1054   0.537   0.373  12.556 -0.2177 -0.0625 -0.0650
   69TMC2     C 1055   0.392   0.089  12.802  0.0460  0.3970 -0.0111
   69TMC2     O 1056   0.458   0.007  12.865  0.1088 -0.0218 -0.4083
   69TMC2     H 1057   0.307   0.357  12.807 -1.1838  1.2718 -1.4091
   69TMC2    H1 1058   0.630   0.082  12.695 -0.0715 -0.5091  1.6626
   69TMC2    H2 1059   0.570   0.429  12.469  1.7089 -2.0385 -0.6036
   69TMC2    C7 1060   0.678   0.196  12.474 -0.4289 -0.6828 -0.1101
   69TMC2    C8 1061   0.378   0.543  12.617 -0.3274  0.1072 -0.0107
   69TMC2    O1 1062   0.783   0.141  12.496  0.3281  0.3772  0.8182
   69TMC2    O2 1063   0.334   0.621  12.703 -0.4609 -0.4379  0.5509
   69TMC2    O5 1064   0.323   0.528  12.495 -0.2465 -0.2490  0.2667
   69TMC2    H5 1065   0.326   0.438  12.455 -1.0078  0.1731 -0.7251
   70MPD2     C 1066   0.027   0.041  12.824 -0.0081  0.5645  0.0897
   70MPD2    C1 1067   0.166   0.002  12.826  0.2247 -0.2756 -0.2936
   70MPD2    C2 1068   0.204   4.592  12.862  0.0455  0.3495  0.6704
   70MPD2    C3 1069   0.106   4.501  12.904  0.7207  0.0553 -0.3541
   70MPD2    C4 1070   4.689   4.538  12.886 -0.0658 -0.3176 -0.2229
   70MPD2    C5 1071   4.658   4.665  12.852 -0.0088 -0.4061  0.4076
   70MPD2     H 1072   0.307   4.558  12.865 -0.1785 -0.5905 -1.9741
   70MPD2    H1 1073   4.603   4.476  12.908 -0.5226  0.1105 -0.7993
   70MPD2    H2 1074   4.706   0.140  12.807  0.6821  0.5394 -1.6943
   70MPD2    H3 1075   4.551   4.678  12.866 -0.2419  0.1304 -1.9244
   70MPD2     N 1076   0.135   4.371  12.947 -0.0719 -0.1043  0.6963
   70MPD2    H5 1077   0.055   4.309  12.957 -2.3191  2.4297 -1.6518
   70MPD2    N1 1078   0.258   0.107  12.794  0.2122 -0.4656 -0.0386
   70MPD2    H7 1079   0.217   0.187  12.747 -0.0340 -0.6093 -0.0705
   71TMC2    C1 1080   2.277   1.375   2.018  0.1252  0.1674 -0.1706
   71TMC2    C2 1081   2.360   1.414   2.116 -1.0892 -0.3695 -0.8974
   71TMC2    C3 1082   2.306   1.511   2.194  0.1383 -0.0488 -0.1855
   71TMC2    C4 1083   2.154   1.429   1.994 -0.6375 -0.0350  0.3731
   71TMC2    C5 1084   2.108   1.526   2.070 -0.5193  0.0594 -0.5629
   71TMC2    C6 1085   2.183   1.568   2.177  0.1671  0.1557 -0.8297
   71TMC2     C 1086   2.313   1.264   1.929  0.0957  0.5096 -0.5211
   71TMC2     O 1087   2.268   1.256   1.814  0.1788 -0.3948 -0.1737
   71TMC2     H 1088   2.463   1.382   2.127 -0.9829  0.1132 -0.5084
   71TMC2    H1 1089   2.098   1.391   1.909  0.1948  3.2708 -1.6298
   71TMC2    H2 1090   2.152   1.646   2.245 -0.8470 -1.7659  0.9427
   71TMC2    C7 1091   1.989   1.595   2.048  0.2119  0.1664  0.4321
   71TMC2    C8 1092   2.363   1.538   2.328  0.2854 -0.3409 -0.4146
   71TMC2    O1 1093   1.962   1.682   2.132  0.0089  0.3195 -0.7806
   71TMC2    O2 1094   2.317   1.624   2.406 -0.0518 -0.0778 -0.3340
   71TMC2    O5 1095   2.467   1.450   2.351  0.6546 -0.1644  0.6286
   71TMC2    H5 1096   2.457   1.360   2.314  1.1206 -0.0668  0.2540
   72MPD2     C 1097   2.626   0.867   1.796  0.6040 -0.4877  0.4911
   72MPD2    C1 1098   2.532   0.939   1.724  0.4876 -0.2588 -0.4515
   72MPD2    C2 1099   2.458   1.043   1.780  0.5978  0.0368 -0.7396
   72MPD2    C3 1100   2.484   1.082   1.913 -0.1933  0.0541  0.1738
   72MPD2    C4 1101   2.575   1.012   1.986  0.7877 -0.2063 -0.1813
   72MPD2    C5 1102   2.648   0.910   1.926  0.3016 -0.4089 -0.0025
   72MPD2     H 1103   2.388   1.098   1.718  0.6650  0.6326 -0.2818
   72MPD2    H1 1104   2.595   1.024   2.092  0.1178  0.9367 -0.1868
   72MPD2    H2 1105   2.682   0.781   1.761  2.9213  1.4974 -0.6914
   72MPD2    H3 1106   2.722   0.866   1.991 -0.4876 -0.8370  0.6061
   72MPD2     N 1107   2.420   1.191   1.980  0.3457  0.8027  0.5325
   72MPD2    H5 1108   2.443   1.219   2.075  0.7145 -0.2369  0.7552
   72MPD2    N1 1109   2.509   0.913   1.594  0.4927  0.6079 -0.2939
   72MPD2    H7 1110   2.441   0.978   1.555 -0.1393  0.5942  0.7815
   73TMC2    C1 1111   2.141   2.211  13.883  0.3208 -0.0908  0.2502
   73TMC2    C2 1112   2.021   2.263  13.924  0.2019  0.7283 -0.9215
   73TMC2    C3 1113   2.020   2.387  13.989  0.2458  0.4028 -0.5755
   73TMC2    C4 1114   2.261   2.268  13.909 -0.0636 -0.3078  0.7320
   73TMC2    C5 1115   2.248   2.394  13.961  0.2453 -0.0379 -0.2261
   73TMC2    C6 1116   2.133   2.454  14.006 -0.3336  0.2778  0.1119
   73TMC2     C 1117   2.141   2.149  13.754  0.7619  0.2910 -0.2818
   73TMC2     O 1118   2.244   2.182  13.693  0.1867  0.3085 -0.1435
   73TMC2     H 1119   1.930   2.206  13.911  0.7621 -1.1538  3.3684
   73TMC2    H1 1120   2.357   2.222  13.893 -0.2978 -1.1524  1.7232
   73TMC2    H2 1121   2.135   2.556  14.041  1.3030  1.1515 -2.5343
   73TMC2    C7 1122   2.341   2.481  13.890  0.3289 -0.7933  0.1007
   73TMC2    C8 1123   1.916   2.387  14.097  0.1590 -0.1394  0.7428
   73TMC2    O1 1124   2.353   2.600  13.928 -0.3385  0.7629  0.3405
   73TMC2    O2 1125   1.816   2.318  14.114 -0.1391  0.1823  0.2119
   73TMC2    O5 1126   1.991   2.436  14.200  0.0677 -0.9028  0.6899
   73TMC2    H5 1127   2.072   2.487  14.180 -0.8165  0.1782 -0.1835
   74MPD2     C 1128   1.959   1.895  13.350 -0.5335 -0.4036  0.5692
   74MPD2    C1 1129   2.064   1.980  13.366 -0.5284  1.1783 -0.9783
   74MPD2    C2 1130   2.095   2.025  13.492  0.4637  0.5243 -0.4975
   74MPD2    C3 1131   2.014   2.000  13.601  0.0890 -0.1511 -0.0521
   74MPD2    C4 1132   1.901   1.923  13.586 -0.0398 -0.6215  0.5006
   74MPD2    C5 1133   1.872   1.876  13.455  0.3220  0.2303 -0.1168
   74MPD2     H 1134   2.189   2.074  13.515  0.8864 -1.0116  1.1513
   74MPD2    H1 1135   1.825   1.925  13.663  0.1128  1.6363  0.6107
   74MPD2    H2 1136   1.938   1.858  13.250  0.8974 -1.4280  0.6525
   74MPD2    H3 1137   1.772   1.840  13.433  1.0270 -1.5455 -0.4064
   74MPD2     N 1138   2.032   2.068  13.723  0.4755 -0.2367 -0.4339
   74MPD2    H5 1139   1.963   2.055  13.796 -1.7952  2.7195 -2.0213
   74MPD2    N1 1140   2.144   2.010  13.248  0.0567 -0.4773  0.3310
   74MPD2    H7 1141   2.113   1.978  13.157 -0.6861  0.6521  0.1853
   75TCq2    C1 1142   2.013   3.643  14.128 -0.0508  0.2709 -0.0473
   75TCq2    O2 1143   2.029   3.669  14.248 -0.1775  0.9304 -0.3500
   75TCq2    C2 1144   1.884   3.607  14.081 -0.3894  0.1479  0.5184
   75TCq2    C3 1145   1.792   3.579  14.179  0.5939  0.1216 -0.9501
   75TCq2    C4 1146   1.658   3.575  14.142  0.1118 -0.2570 -0.0361
   75TCq2    C5 1147   1.612   3.580  14.016 -0.3492  0.1384 -0.0117
   75TCq2    C6 1148   1.710   3.601  13.919 -0.4150  0.1049 -0.2603
   75TCq2    C7 1149   1.843   3.619  13.949  0.7068  0.3828  0.1701
   75TCq2    C8 1150   1.671   3.608  13.780  0.6959 -0.4583  0.5904
   75TCq2    O4 1151   1.764   3.581  13.704 -0.6069  0.5475  0.1486
   75TCq2    C9 1152   1.556   3.557  14.244 -0.8991 -0.6996 -0.1542
   75TCq2    O5 1153   1.603   3.526  14.359  0.2554 -0.1427 -0.5512
   75TCq2    O6 1154   1.438   3.608  14.221 -0.3870 -0.0511  0.3995
   75TCq2    H2 1155   1.813   3.573  14.285 -1.5901 -0.4857 -0.5470
   75TCq2    H3 1156   1.509   3.555  13.994 -1.1837 -0.0542  4.0333
   75TCq2    H4 1157   1.915   3.649  13.873 -0.5581 -0.3015 -1.2948
   76MPD2     C 1158   1.528   4.240  12.299 -0.4038  0.2834  0.2546
   76MPD2    C1 1159   1.481   4.170  12.193  0.4122 -0.0930  0.3925
   76MPD2    C2 1160   1.530   4.045  12.154  0.9135  0.2516  0.8391
   76MPD2    C3 1161   1.632   3.989  12.230  0.0519 -0.7649 -0.6747
   76MPD2    C4 1162   1.688   4.067  12.329 -0.0397  0.5130  0.2638
   76MPD2    C5 1163   1.631   4.188  12.367  0.2544  0.2516  0.2773
   76MPD2     H 1164   1.482   3.989  12.075  1.2025  1.8172 -0.4572
   76MPD2    H1 1165   1.762   4.029  12.399  0.5230 -1.2505 -1.2847
   76MPD2    H2 1166   1.486   4.331  12.340 -0.5172  0.4481 -0.2213
   76MPD2    H3 1167   1.666   4.249  12.449 -0.9957  3.4034 -1.5277
   76MPD2     N 1168   1.696   3.862  12.189  0.2814 -0.0161  0.3649
   76MPD2    H5 1169   1.782   3.843  12.238  0.5939  1.1314  0.2692
   76MPD2    N1 1170   1.374   4.222  12.123 -0.0452  0.1372  0.0409
   76MPD2    H7 1171   1.312   4.162  12.070  2.6366 -4.8036  2.4570
   77TCq2    C1 1172   1.654   3.774  12.090  0.9832 -0.0530  0.1233
   77TCq2    O2 1173   1.553   3.767  12.018  0.4892 -0.4757  0.2312
   77TCq2    C2 1174   1.741   3.654  12.093  0.6388 -0.4829  0.3262
   77TCq2    C3 1175   1.685   3.537  12.048 -0.0879  0.1686 -0.2179
   77TCq2    C4 1176   1.771   3.431  12.040  0.6826 -0.6195  0.6032
   77TCq2    C5 1177   1.906   3.432  12.074  0.2997 -0.7728 -0.4165
   77TCq2    C6 1178   1.955   3.552  12.113 -0.7926 -0.3248 -0.7958
   77TCq2    C7 1179   1.874   3.667  12.118 -0.3057  0.0207 -0.4181
   77TCq2    C8 1180   2.090   3.547  12.177 -0.1767  0.8684 -0.2446
   77TCq2    O4 1181   2.165   3.460  12.143  0.2537 -0.6336  0.6822
   77TCq2    C9 1182   1.730   3.312  11.973 -0.7098 -0.0054  0.6882
   77TCq2    O5 1183   1.820   3.236  11.925  0.6170  0.0657 -0.4942
   77TCq2    O6 1184   1.606   3.282  11.982  0.0058 -0.5213  0.3048
   77TCq2    H2 1185   1.581   3.531  12.018  0.0225  2.5852 -1.0384
   77TCq2    H3 1186   1.977   3.351  12.076  1.2940  0.0990 -0.5039
   77TCq2    H4 1187   1.919   3.764  12.135  1.8455 -0.5907 -2.7290
   78MPD1     C 1188   4.242   4.022   0.977 -0.7532 -0.2283 -0.1112
   78MPD1    C1 1189   4.306   4.142   0.978  0.4165  0.1994  0.4454
   78MPD1    C2 1190   4.267   4.239   1.060 -0.1653 -0.2960  0.1644
   78MPD1    C3 1191   4.169   4.210   1.158 -0.3056 -0.0319  0.2063
   78MPD1    C4 1192   4.112   4.084   1.162 -0.1168  0.5298  0.7865
   78MPD1    C5 1193   4.138   4.001   1.063  0.3932 -0.7354 -0.5698
   78MPD1     H 1194   4.310   4.338   1.055 -2.6421  0.8796  2.1926
   78MPD1    H1 1195   4.026   4.059   1.224 -0.0521 -0.5820  0.4233
   78MPD1    H2 1196   4.280   3.935   0.924 -0.4432 -0.3129  0.2459
   78MPD1    H3 1197   4.082   3.908   1.063 -1.4928  0.4004 -1.1041
   78MPD1     N 1198   4.116   4.304   1.251  0.8641 -0.7501  0.6267
   78MPD1    H5 1199   4.042   4.269   1.312  1.2352 -1.7494  0.5115
   78MPD1    N1 1200   4.381   4.169   0.863 -0.2951 -0.2866  0.2677
   78MPD1    H6 1201   4.442   4.092   0.837  0.5361 -0.0279  1.4523
   78MPD1    H7 1202   4.439   4.252   0.874  1.5925 -1.3171 -2.0586
   79TCq2    C1 1203   4.172   4.425   1.280 -0.4673 -0.1791 -0.0895
   79TCq2    O2 1204   4.268   4.480   1.231 -0.0150  0.0409  0.3685
   79TCq2    C2 1205   4.112   4.483   1.401 -0.4361  0.3889 -0.4492
   79TCq2    C3 1206   4.002   4.434   1.464  0.3093 -0.0081  0.3902
   79TCq2    C4 1207   3.960   4.492   1.583  0.1816  0.4645 -0.3047
   79TCq2    C5 1208   4.027   4.600   1.630 -0.7953  0.7611 -0.4350
   79TCq2    C6 1209   4.143   4.643   1.568  0.5681  0.2487  1.0508
   79TCq2    C7 1210   4.182   4.588   1.449 -0.5210 -0.0752  0.5152
   79TCq2    C8 1211   4.227   0.015   1.643  0.2530  0.1638  0.1562
   79TCq2    O4 1212   4.330   0.042   1.581 -0.1905 -0.0424  0.4445
   79TCq2    C9 1213   3.855   4.428   1.658 -0.2747 -0.2638  0.4588
   79TCq2    O5 1214   3.782   4.342   1.599 -0.2834 -0.9273 -0.1766
   79TCq2    O6 1215   3.826   4.487   1.767 -0.3125 -0.3614  0.4248
   79TCq2    H2 1216   3.939   4.357   1.420 -2.0508  0.5733  2.7846
   79TCq2    H3 1217   3.995   4.650   1.721 -1.2337 -0.3476  0.0253
   79TCq2    H4 1218   4.280   4.613   1.410 -0.0760 -0.0476  1.6548
   80MPD2     C 1219   0.362   3.740  12.212  0.4789 -0.0568 -0.1371
   80MPD2    C1 1220   0.253   3.787  12.149 -0.1570  0.3690 -0.0732
   80MPD2    C2 1221   0.164   3.857  12.224 -0.0109 -0.4240  0.2842
   80MPD2    C3 1222   0.181   3.890  12.353 -0.1022 -0.1709 -0.1175
   80MPD2    C4 1223   0.295   3.851  12.417  0.4576 -0.4035  0.8930
   80MPD2    C5 1224   0.372   3.765  12.345 -0.0636 -0.5754 -0.1565
   80MPD2     H 1225   0.084   3.910  12.173  0.1444 -0.1832  0.2917
   80MPD2    H1 1226   0.315   3.879  12.520  1.0385 -0.6353  0.8429
   80MPD2    H2 1227   0.433   3.677  12.161 -1.5946 -1.0869 -1.7853
   80MPD2    H3 1228   0.458   3.717  12.391  0.3397  0.2446 -0.0623
   80MPD2     N 1229   0.084   3.963  12.426  0.2625 -0.0225 -0.0283
   80MPD2    H5 1230   0.106   3.990  12.521 -0.7706 -1.1053  0.5169
   80MPD2    N1 1231   0.225   3.766  12.012  0.2247 -0.2558  0.2003
   80MPD2    H7 1232   0.138   3.803  11.976 -0.1444  0.0911  1.4540
   81TCq2    C1 1233   0.298   3.685  11.927  0.1648 -0.1696  0.8049
   81TCq2    O2 1234   0.415   3.669  11.926 -0.2614 -0.4260 -0.1103
   81TCq2    C2 1235   0.222   3.630  11.817 -0.2322 -0.2677 -0.6699
   81TCq2    C3 1236   0.289   3.590  11.700  0.7789  0.6093  0.2945
   81TCq2    C4 1237   0.229   3.499  11.607 -0.0722  0.5496 -0.2004
   81TCq2    C5 1238   0.094   3.469  11.630  0.0536 -0.0160  0.0158
   81TCq2    C6 1239   0.043   3.498  11.754 -0.1089 -0.5360  0.3695
   81TCq2    C7 1240   0.099   3.582  11.846  0.3006 -0.3041  0.0824
   81TCq2    C8 1241   4.615   3.480  11.760  0.6584  0.3671 -0.0181
   81TCq2    O4 1242   4.543   3.500  11.663  0.0701 -0.0989  0.2729
   81TCq2    C9 1243   0.303   3.462  11.490  0.4022  0.5527  0.1674
   81TCq2    O5 1244   0.234   3.388  11.412  0.0670 -0.6085 -0.1075
   81TCq2    O6 1245   0.425   3.490  11.470 -0.5149  0.9433  0.2270
   81TCq2    H2 1246   0.395   3.607  11.690  0.7846  0.5193  0.2031
   81TCq2    H3 1247   0.029   3.403  11.573 -2.3870  1.3098  1.2880
   81TCq2    H4 1248   0.061   3.606  11.944 -2.2211 -0.8672 -0.7615
   82MPD2     C 1249   3.691   3.556  10.448 -0.5030 -0.0675  0.0832
   82MPD2    C1 1250   3.592   3.463  10.443  0.5225  0.1625 -1.1344
   82MPD2    C2 1251   3.591   3.369  10.543 -0.0080 -0.4912 -0.7548
   82MPD2    C3 1252   3.702   3.352  10.630  0.1505 -0.2067  0.0918
   82MPD2    C4 1253   3.812   3.441  10.621 -0.2787 -1.0004 -0.2381
   82MPD2    C5 1254   3.800   3.546  10.529  0.1376 -0.0310 -0.1994
   82MPD2     H 1255   3.503   3.305  10.542 -0.9029  0.7661 -1.2703
   82MPD2    H1 1256   3.897   3.441  10.689 -0.4242  0.9060 -0.0719
   82MPD2    H2 1257   3.699   3.642  10.382  1.6705  0.2992  0.7949
   82MPD2    H3 1258   3.880   3.619  10.529 -0.8272  1.0169 -0.5546
   82MPD2     N 1259   3.712   3.258  10.734  0.3595  0.4877 -0.2292
   82MPD2    H5 1260   3.807   3.247  10.768  0.3556  1.6406  0.1582
   82MPD2    N1 1261   3.500   3.473  10.331 -0.3405  0.4767  0.3410
   82MPD2    H7 1262   3.508   3.563  10.284  1.8616  0.3653  0.5309
   83TCq2    C1 1263   3.613   3.179  10.786 -0.4831  0.2791 -0.0108
   83TCq2    O2 1264   3.496   3.182  10.763  0.0956 -0.2279  0.3136
   83TCq2    C2 1265   3.657   3.099  10.898 -0.0558  0.1690  0.1987
   83TCq2    C3 1266   3.770   3.138  10.962  0.5324 -0.4999 -0.3235
   83TCq2    C4 1267   3.795   3.079  11.084  0.0298  0.6469  0.2313
   83TCq2    C5 1268   3.704   2.987  11.138 -0.2214 -0.4893 -0.3862
   83TCq2    C6 1269   3.596   2.947  11.068 -0.1613 -0.6583  0.0906
   83TCq2    C7 1270   3.577   2.997  10.943 -0.6106 -0.5052 -0.3714
   83TCq2    C8 1271   3.500   2.857  11.125 -0.2567  0.3050 -0.2756
   83TCq2    O4 1272   3.497   2.854  11.245 -0.9789  0.0671 -0.2908
   83TCq2    C9 1273   3.915   3.128  11.152  0.6090  0.2112  0.2673
   83TCq2    O5 1274   3.968   3.041  11.221 -0.2582 -0.7400  0.4362
   83TCq2    O6 1275   3.964   3.238  11.112  0.3688  0.1168  0.0234
   83TCq2    H2 1276   3.835   3.219  10.929 -1.1664  0.9348 -0.1133
   83TCq2    H3 1277   3.720   2.957  11.241  1.5953  1.6239 -0.0601
   83TCq2    H4 1278   3.480   2.978  10.898 -0.6127  0.5992 -0.8457
   84TCq2    C1 1279   4.467   2.215  10.377 -0.5478 -0.6509  0.1777
   84TCq2    O2 1280   4.430   2.118  10.310  0.2567 -0.3097 -0.1883
   84TCq2    C2 1281   4.485   2.190  10.520  0.7518 -0.1395  0.0178
   84TCq2    C3 1282   4.505   2.056  10.545 -0.2267 -0.0861 -0.0051
   84TCq2    C4 1283   4.575   2.026  10.653  0.2307  0.9562 -0.6160
   84TCq2    C5 1284   4.615   2.118  10.751  0.2259  0.6823 -0.0436
   84TCq2    C6 1285   4.588   2.248  10.724 -0.2026 -0.8384  0.5517
   84TCq2    C7 1286   4.533   2.288  10.605  0.8826  0.4027  0.0180
   84TCq2    C8 1287   4.580   2.344  10.830  0.2333 -0.2725  0.4311
   84TCq2    O4 1288   4.583   2.462  10.808 -0.5033  0.0156 -0.1347
   84TCq2    C9 1289   4.623   1.887  10.654 -0.2378 -0.1068  0.3359
   84TCq2    O5 1290   4.685   1.843  10.757  0.3018  0.2261  0.1386
   84TCq2    O6 1291   4.616   1.810  10.554 -0.5706  0.2383 -0.3438
   84TCq2    H2 1292   4.474   1.978  10.477 -0.2637 -0.3144  0.2739
   84TCq2    H3 1293   4.684   2.093  10.831  0.9130  1.5153 -0.3703
   84TCq2    H4 1294   4.504   2.391  10.591  1.8557  0.3384 -2.3003
   85MPD2     C 1295   0.096   0.298  16.419  0.1177  0.4556  0.0752
   85MPD2    C1 1296   0.074   0.303  16.282  0.6438 -0.6375 -0.1671
   85MPD2    C2 1297   0.160   0.380  16.208  0.6415 -0.0317  0.5411
   85MPD2    C3 1298   0.259   0.467  16.260  0.5623  0.1552 -0.1702
   85MPD2    C4 1299   0.276   0.453  16.397  0.0480  0.1280 -0.0810
   85MPD2    C5 1300   0.203   0.368  16.470 -0.3686  0.3224 -0.0456
   85MPD2     H 1301   0.146   0.373  16.101 -0.7120 -0.9913  0.7758
   85MPD2    H1 1302   0.353   0.511  16.446  2.1187 -1.0700 -1.9047
   85MPD2    H2 1303   0.047   0.225  16.484 -0.2115 -0.0647 -0.7487
   85MPD2    H3 1304   0.232   0.350  16.573  0.6488  1.2268 -0.1682
   85MPD2     N 1305   0.312   0.573  16.182  0.2988 -0.5159 -0.3711
   85MPD2    H5 1306   0.304   0.568  16.081 -1.7516 -1.4388 -0.1727
   85MPD2    N1 1307   4.697   0.224  16.214  0.1189  0.3170  0.0548
   85MPD2    H7 1308   4.703   0.232  16.113  0.3311  1.2285  0.1421
   86TCq2    C1 1309   0.367   0.686  16.239 -0.2945  0.9291  0.3003
   86TCq2    O2 1310   0.359   0.723  16.356 -0.1206  0.2907 -0.6231
   86TCq2    C2 1311   0.432   0.766  16.137 -0.1198 -0.7052  0.5390
   86TCq2    C3 1312   0.412   0.897  16.129 -0.2819 -0.6735  0.0792
   86TCq2    C4 1313   0.474   0.957  16.022  0.0195  0.5527 -0.2250
   86TCq2    C5 1314   0.542   0.883  15.933 -0.2563  1.0078 -0.2419
   86TCq2    C6 1315   0.547   0.748  15.942  0.6943 -0.4551 -0.2628
   86TCq2    C7 1316   0.492   0.688  16.046 -0.3412 -0.2680  0.2135
   86TCq2    C8 1317   0.612   0.671  15.838  0.4415  1.0454 -0.1935
   86TCq2    O4 1318   0.640   0.558  15.875  0.0766  0.4139 -0.0639
   86TCq2    C9 1319   0.459   1.098  16.001  0.3253 -0.2004  0.0371
   86TCq2    O5 1320   0.502   1.143  15.890  0.2876  0.3461  0.2001
   86TCq2    O6 1321   0.417   1.171  16.095  0.7144 -0.5873 -0.0013
   86TCq2    H2 1322   0.365   0.947  16.213 -0.1320 -0.7983  0.2374
   86TCq2    H3 1323   0.585   0.934  15.847  0.0766 -3.3474 -2.6710
   86TCq2    H4 1324   0.500   0.580  16.057 -0.1358 -0.4990 -2.2038
   87MPD2     C 1325   1.816   4.632   1.324  0.3462 -0.7405 -1.0653
   87MPD2    C1 1326   1.832   4.607   1.193 -0.5621  0.2950 -0.1909
   87MPD2    C2 1327   1.742   4.672   1.108 -1.0071 -0.2269  0.8363
   87MPD2    C3 1328   1.653   0.038   1.152  0.1801 -0.1573  0.4391
   87MPD2    C4 1329   1.634   0.055   1.279 -0.3611 -0.2875  0.0751
   87MPD2    C5 1330   1.718   4.714   1.364 -0.1695  0.1667  0.4137
   87MPD2     H 1331   1.764   4.662   1.002 -1.8770  0.3807  0.6012
   87MPD2    H1 1332   1.560   0.129   1.309 -0.6241 -1.2230  1.7723
   87MPD2    H2 1333   1.875   4.573   1.393 -2.2931 -1.6346  0.4209
   87MPD2    H3 1334   1.711   0.007   1.472  0.2467 -1.8665  0.6953
   87MPD2     N 1335   1.577   0.118   1.063 -0.1237 -0.0109 -0.1239
   87MPD2    H5 1336   1.526   0.198   1.098 -2.5813 -0.6972 -2.1487
   87MPD2    N1 1337   1.940   4.530   1.153  0.4184  0.1839 -0.3886
   87MPD2    H7 1338   2.003   4.507   1.229 -1.0615 -1.9800  0.1804
   88TCq2    C1 1339   1.964   4.475   1.025  0.3343 -1.2361  0.3257
   88TCq2    O2 1340   1.901   4.488   0.924  0.2563  0.4858 -0.0622
   88TCq2    C2 1341   2.095   4.409   1.013 -0.6202 -0.0227 -0.2792
   88TCq2    C3 1342   2.192   4.438   1.109 -0.2795 -0.2278  0.2438
   88TCq2    C4 1343   2.282   4.340   1.128 -0.5047  0.4507 -0.4556
   88TCq2    C5 1344   2.289   4.225   1.059 -0.5833 -0.4073  0.4773
   88TCq2    C6 1345   2.185   4.194   0.973  0.0651  0.6854 -0.0293
   88TCq2    C7 1346   2.097   4.292   0.937 -0.3287  0.2604  0.3453
   88TCq2    C8 1347   2.211   4.085   0.884 -0.2892  0.2188  1.3025
   88TCq2    O4 1348   2.268   3.989   0.937  0.4079 -0.0620 -0.2380
   88TCq2    C9 1349   2.401   4.379   1.204  0.0880 -0.9899  0.0879
   88TCq2    O5 1350   2.512   4.328   1.168 -0.0642 -0.2683 -0.1858
   88TCq2    O6 1351   2.386   4.481   1.280  0.2341  0.3957 -0.0572
   88TCq2    H2 1352   2.204   4.538   1.149 -0.0116  0.5565 -1.8210
   88TCq2    H3 1353   2.375   4.160   1.067  0.1721  0.4510 -0.7004
   88TCq2    H4 1354   2.006   4.268   0.884 -0.8299 -1.0690  1.8017
   89MPD2     C 1355   3.357   1.688   2.442 -0.4371 -0.5730 -0.5663
   89MPD2    C1 1356   3.281   1.803   2.456  0.3672  0.0159  1.1154
   89MPD2    C2 1357   3.346   1.920   2.489 -0.6863 -0.0235  0.8466
   89MPD2    C3 1358   3.477   1.937   2.486  0.7672 -0.3159  0.0535
   89MPD2    C4 1359   3.561   1.825   2.479 -0.8470 -0.0759 -0.2595
   89MPD2    C5 1360   3.493   1.704   2.457  0.5551  0.1715 -0.2756
   89MPD2     H 1361   3.278   2.001   2.514  0.3019  1.6582 -1.8261
   89MPD2    H1 1362   3.669   1.824   2.493 -0.9487 -1.7648  0.4580
   89MPD2    H2 1363   3.331   1.588   2.408  1.8966 -1.2145 -0.4697
   89MPD2    H3 1364   3.558   1.620   2.437 -0.1929 -0.5082  0.1919
   89MPD2     N 1365   3.526   2.067   2.502  0.3328 -0.3175  0.1263
   89MPD2    H5 1366   3.463   2.146   2.515  0.0490 -0.1830 -2.1366
   89MPD2    N1 1367   3.144   1.808   2.424  0.2241 -0.2187 -0.6228
   89MPD2    H7 1368   3.091   1.894   2.432 -2.8956 -2.0591 -1.5892
   90TCq2    C1 1369   3.657   2.100   2.476  0.4839 -0.0294  0.6971
   90TCq2    O2 1370   3.754   2.031   2.454  0.9097  0.0323  0.2961
   90TCq2    C2 1371   3.675   2.243   2.448 -0.0484  0.1292  0.0959
   90TCq2    C3 1372   3.797   2.290   2.431  0.8509  0.0295  0.7617
   90TCq2    C4 1373   3.817   2.401   2.354  0.5286 -0.2240  0.8927
   90TCq2    C5 1374   3.712   2.468   2.296  0.4958  0.4042  0.0813
   90TCq2    C6 1375   3.587   2.416   2.311 -0.2679 -0.3094  0.0952
   90TCq2    C7 1376   3.561   2.305   2.395  0.2341 -0.8318 -0.3044
   90TCq2    C8 1377   3.499   2.438   2.205  0.5731 -0.3389 -0.2603
   90TCq2    O4 1378   3.382   2.410   2.225  0.4344 -0.1975 -0.0353
   90TCq2    C9 1379   3.948   2.467   2.344 -1.0927 -0.0498 -0.0915
   90TCq2    O5 1380   4.041   2.425   2.421  0.2373 -0.5974  0.3469
   90TCq2    O6 1381   3.969   2.545   2.249  0.5146 -0.0138 -0.0408
   90TCq2    H2 1382   3.881   2.238   2.474  1.0159  0.1137  0.5368
   90TCq2    H3 1383   3.731   2.564   2.248 -2.0547 -0.3094 -2.3273
   90TCq2    H4 1384   3.469   2.250   2.375 -0.0237 -0.7945  0.7882
   91TMC2    C1 1385   0.192   1.418  16.355  0.2131 -0.6718 -0.0841
   91TMC2    C2 1386   0.263   1.409  16.240  0.6449  0.5118 -0.2557
   91TMC2    C3 1387   0.187   1.401  16.125 -0.6978  0.0378  0.4300
   91TMC2    C4 1388   0.050   1.411  16.361  0.7908 -0.6999 -0.2535
   91TMC2    C5 1389   4.706   1.394  16.247 -0.1854 -0.5210  0.3432
   91TMC2    C6 1390   0.049   1.406  16.130 -0.1127  0.3437  0.2696
   91TMC2     C 1391   0.264   1.407  16.482  0.8618 -0.6064  0.6738
   91TMC2     O 1392   0.195   1.369  16.578 -0.1388  0.5088  0.1246
   91TMC2     H 1393   0.370   1.421  16.228  0.7357 -0.6308 -0.6225
   91TMC2    H1 1394   4.715   1.390  16.452  1.3680 -0.6763  0.0965
   91TMC2    H2 1395   4.717   1.397  16.035  1.1458  0.5898 -0.4464
   91TMC2    C7 1396   4.559   1.389  16.255 -0.1530 -0.3087 -0.0491
   91TMC2    C8 1397   0.253   1.435  15.993  0.2463 -0.3002  0.6840
   91TMC2    O1 1398   4.511   1.397  16.366 -0.3070  0.8177 -0.0190
   91TMC2    O2 1399   0.201   1.506  15.904 -0.1886 -0.7973  0.2695
   91TMC2    O5 1400   0.384   1.408  16.005  0.0851 -0.2644 -0.3902
   91TMC2    H5 1401   0.384   1.321  16.051 -2.0977 -0.5303 -0.8921
   92MPD2     C 1402   0.471   1.318  16.682 -0.0698  0.6956  0.2372
   92MPD2    C1 1403   0.499   1.383  16.565 -0.0291  0.7692 -1.2394
   92MPD2    C2 1404   0.629   1.421  16.544 -0.4829 -0.0966  0.8233
   92MPD2    C3 1405   0.727   1.410  16.641  0.0641 -0.2980  0.0142
   92MPD2    C4 1406   0.693   1.352  16.763 -0.4830 -0.3377  0.3571
   92MPD2    C5 1407   0.570   1.301  16.765 -0.8443  0.9556 -0.1797
   92MPD2     H 1408   0.653   1.472  16.451  2.2010 -1.7770  0.5932
   92MPD2    H1 1409   0.759   1.338  16.847 -0.1282  0.6347  0.2347
   92MPD2    H2 1410   0.379   1.262  16.694  0.3198  0.3199  1.4620
   92MPD2    H3 1411   0.539   1.248  16.854  0.7004 -0.8367 -0.6975
   92MPD2     N 1412   0.858   1.459  16.601 -0.1560  0.6591 -0.1846
   92MPD2    H5 1413   0.868   1.499  16.508  2.1612  0.0969 -0.1909
   92MPD2    N1 1414   0.401   1.409  16.463 -0.5373 -0.7802 -0.3243
   92MPD2    H7 1415   0.442   1.446  16.379 -0.5617  1.5014  0.6725
   93MPD2     C 1416   2.191   1.606  13.840  0.1243  0.3466 -0.3239
   93MPD2    C1 1417   2.172   1.723  13.910  0.1010 -0.1960 -0.4871
   93MPD2    C2 1418   2.044   1.777  13.930 -0.1966 -0.4308  0.0176
   93MPD2    C3 1419   1.935   1.703  13.883  0.2514 -0.4857  0.0535
   93MPD2    C4 1420   1.959   1.586  13.814  0.8602 -0.2167  0.4741
   93MPD2    C5 1421   2.087   1.539  13.786 -0.1455 -0.2904  0.4382
   93MPD2     H 1422   2.038   1.871  13.984 -0.4782 -1.3855  1.6056
   93MPD2    H1 1423   1.878   1.522  13.780  1.1826  0.3942 -1.4417
   93MPD2    H2 1424   2.291   1.566  13.835  0.0979  0.0206  1.8154
   93MPD2    H3 1425   2.099   1.458  13.716  3.5219 -0.1551  0.9329
   93MPD2     N 1426   1.800   1.743  13.881  0.3488  0.3162  0.9654
   93MPD2    H5 1427   1.718   1.684  13.877  1.4945 -1.0923 -1.6358
   93MPD2    N1 1428   2.278   1.794  13.963  0.1340 -1.3559  0.2186
   93MPD2    H7 1429   2.259   1.873  14.024  0.5490 -0.9243 -0.2129
   94TCq2    C1 1430   2.409   1.778  13.934 -0.3782 -0.6805 -0.1773
   94TCq2    O2 1431   2.465   1.715  13.845  0.7478 -0.2890 -0.2486
   94TCq2    C2 1432   2.508   1.849  14.013  0.0564 -0.1217 -0.1690
   94TCq2    C3 1433   2.498   1.864  14.152  0.3078 -0.2273  0.4628
   94TCq2    C4 1434   2.608   1.914  14.219  0.1282 -0.3675  0.1507
   94TCq2    C5 1435   2.712   1.967  14.154  0.2965  0.4093 -0.6392
   94TCq2    C6 1436   2.720   1.947  14.023  0.4392 -0.4512 -0.6958
   94TCq2    C7 1437   2.622   1.881  13.950 -0.1171  0.7436  0.0014
   94TCq2    C8 1438   2.844   1.982  13.963  0.4663  0.0071 -0.5428
   94TCq2    O4 1439   2.933   2.012  14.046  0.2371 -0.0606 -0.1720
   94TCq2    C9 1440   2.625   1.895  14.361 -0.0505 -0.0626  1.0795
   94TCq2    O5 1441   2.527   1.838  14.418  0.3892  0.1296  0.5247
   94TCq2    O6 1442   2.748   1.887  14.392 -0.3156 -0.1148 -0.0180
   94TCq2    H2 1443   2.407   1.825  14.196 -0.0486  2.0718  1.7458
   94TCq2    H3 1444   2.803   1.999  14.204  1.3027 -0.6784 -1.7777
   94TCq2    H4 1445   2.627   1.883  13.841  0.8385 -1.9437 -0.0003
   95TMC2    C1 1446   1.395   3.083  15.607 -0.1093 -0.8372  0.5206
   95TMC2    C2 1447   1.391   2.958  15.553  0.2681  0.6643  0.1519
   95TMC2    C3 1448   1.287   2.882  15.583  0.8269  0.5430 -0.1774
   95TMC2    C4 1449   1.301   3.130  15.689  0.1557  0.6660  0.2202
   95TMC2    C5 1450   1.197   3.048  15.722 -0.2695  0.0035 -0.6744
   95TMC2    C6 1451   1.193   2.920  15.673 -0.2967 -0.4387  0.3819
   95TMC2     C 1452   1.500   3.176  15.563 -0.0652 -0.1721 -0.4127
   95TMC2     O 1453   1.600   3.125  15.511  0.3717 -0.2578 -0.6038
   95TMC2     H 1454   1.466   2.928  15.481 -0.2414 -1.5487  0.5551
   95TMC2    H1 1455   1.307   3.224  15.743 -2.5325  0.1517  1.4455
   95TMC2    H2 1456   1.119   2.854  15.715  0.4179 -0.5481  1.4758
   95TMC2    C7 1457   1.110   3.067  15.840 -0.0687 -0.5107  0.1100
   95TMC2    C8 1458   1.293   2.736  15.556 -0.0523 -0.0707  0.1066
   95TMC2    O1 1459   1.075   2.971  15.907 -0.1809 -0.0225  0.3275
   95TMC2    O2 1460   1.229   2.654  15.614 -0.3405 -0.0112  0.3769
   95TMC2    O5 1461   1.319   2.717  15.423  0.1736  0.4156 -0.2128
   95TMC2    H5 1462   1.377   2.782  15.380 -0.3209  1.6824  1.0073
   96MPD2     C 1463   1.714   3.646  15.500  0.4209  1.2371 -0.2199
   96MPD2    C1 1464   1.761   3.521  15.470 -0.2499  0.4036  0.3236
   96MPD2    C2 1465   1.680   3.411  15.485 -0.0407 -0.2172 -0.8453
   96MPD2    C3 1466   1.551   3.410  15.533  0.1330 -0.7926  0.4626
   96MPD2    C4 1467   1.505   3.535  15.563 -0.8025 -0.7538  0.7550
   96MPD2    C5 1468   1.585   3.650  15.545 -0.1140 -0.5005 -0.2152
   96MPD2     H 1469   1.712   3.317  15.442 -1.7415 -0.7165 -0.9896
   96MPD2    H1 1470   1.407   3.556  15.605 -1.2103 -1.4082  0.1311
   96MPD2    H2 1471   1.767   3.740  15.493  0.4333  1.2128 -0.4365
   96MPD2    H3 1472   1.548   3.747  15.576  0.3380  0.2111 -1.9296
   96MPD2     N 1473   1.462   3.303  15.560 -0.1009 -0.2113  0.2561
   96MPD2    H5 1474   1.368   3.324  15.593 -0.4427 -0.5465 -0.5053
   96MPD2    N1 1475   1.898   3.514  15.440 -0.1409  0.1336  0.6658
   96MPD2    H7 1476   1.950   3.601  15.437  1.1413 -0.6943 -1.6038
   97MPD2     C 1477   4.415   2.122   1.384 -0.2309 -0.3674 -0.1533
   97MPD2    C1 1478   4.537   2.084   1.431 -0.9546  0.2432  0.0431
   97MPD2    C2 1479   4.613   1.998   1.352 -1.0270  0.2905  0.1767
   97MPD2    C3 1480   4.568   1.970   1.224  0.0400 -0.1297 -0.4500
   97MPD2    C4 1481   4.445   2.014   1.180  1.0452 -0.3089 -0.2463
   97MPD2    C5 1482   4.366   2.089   1.258 -0.0011  1.0134 -0.1981
   97MPD2     H 1483   4.711   1.964   1.384 -0.9726  0.8529  0.5988
   97MPD2    H1 1484   4.411   1.976   1.085  1.7926  1.0087 -1.0297
   97MPD2    H2 1485   4.360   2.186   1.452 -1.1881 -1.2385 -0.1152
   97MPD2    H3 1486   4.266   2.120   1.232 -0.0084 -1.1390 -2.7796
   97MPD2     N 1487   4.631   1.870   1.138 -0.3737  0.5040  0.3400
   97MPD2    H5 1488   4.585   1.841   1.052  1.0379 -1.4730  0.2668
   97MPD2    N1 1489   4.569   2.117   1.564  0.1925  0.0053  0.0408
   97MPD2    H7 1490   4.502   2.182   1.602 -0.1595 -1.3533  1.7421
   98TCq2    C1 1491   0.029   1.810   1.166  0.3074  0.5974  0.0368
   98TCq2    O2 1492   0.119   1.842   1.243  0.1006 -0.1098 -0.3243
   98TCq2    C2 1493   0.067   1.713   1.062 -0.0092 -0.0898  0.3907
   98TCq2    C3 1494   0.166   1.632   1.104  0.2578  1.1380  0.3749
   98TCq2    C4 1495   0.183   1.519   1.023  0.0901 -0.2535 -0.2724
   98TCq2    C5 1496   0.126   1.502   0.900 -0.5907  0.0777  0.1350
   98TCq2    C6 1497   0.042   1.602   0.860  0.7586  0.7704  0.4371
   98TCq2    C7 1498   0.012   1.707   0.939  0.8742 -0.6307  0.2024
   98TCq2    C8 1499   4.715   1.609   0.727 -0.8482 -0.0634  0.8695
   98TCq2    O4 1500   4.617   1.684   0.707  0.4903 -0.4216 -0.2597
   98TCq2    C9 1501   0.261   1.410   1.076  0.1480 -0.4904  0.3619
   98TCq2    O5 1502   0.309   1.420   1.189 -0.1588 -0.1278  0.4789
   98TCq2    O6 1503   0.265   1.298   1.019 -0.2763 -0.2850  0.6341
   98TCq2    H2 1504   0.205   1.632   1.205  1.0867 -0.9961  0.0644
   98TCq2    H3 1505   0.133   1.407   0.849 -1.6666  0.3797 -0.5821
   98TCq2    H4 1506   4.667   1.790   0.913  1.5630  0.2962  1.3884
   99MPD2     C 1507   3.286   3.326   2.049 -0.2441 -0.3265 -0.3413
   99MPD2    C1 1508   3.222   3.418   1.964 -0.1344  0.1988  0.3835
   99MPD2    C2 1509   3.166   3.367   1.852 -0.3877 -0.7380 -0.2504
   99MPD2    C3 1510   3.176   3.232   1.816  0.1104 -0.3151  0.0674
   99MPD2    C4 1511   3.252   3.146   1.898  0.2324  0.1409  0.3356
   99MPD2    C5 1512   3.296   3.194   2.016  0.7836  0.2078 -0.0226
   99MPD2     H 1513   3.113   3.427   1.779  2.3253 -0.0512 -1.6320
   99MPD2    H1 1514   3.279   3.042   1.882  0.8964  0.3262  0.2763
   99MPD2    H2 1515   3.333   3.353   2.143  1.7013 -1.3089 -1.0205
   99MPD2    H3 1516   3.351   3.135   2.088 -0.8675 -0.6977  0.4991
   99MPD2     N 1517   3.125   3.190   1.693  0.5529  0.0292  0.2453
   99MPD2    H5 1518   3.065   3.260   1.649 -0.5289  1.6335  4.1824
   99MPD2    N1 1519   3.216   3.559   1.985  0.0213  0.6335 -0.3556
   99MPD2    H7 1520   3.164   3.610   1.915 -1.1531  2.1068  1.5837
  100TCq2    C1 1521   3.265   3.620   2.094 -0.1588  0.2949 -0.3218
  100TCq2    O2 1522   3.334   3.571   2.187  0.0406 -0.2172 -0.1878
  100TCq2    C2 1523   3.220   3.759   2.111 -0.2487 -0.5189  1.0861
  100TCq2    C3 1524   3.283   3.826   2.207 -0.7424 -0.2422 -0.0336
  100TCq2    C4 1525   3.257   3.954   2.226  0.1931  0.1355  0.4010
  100TCq2    C5 1526   3.172   4.018   2.137  0.4353  0.1538 -0.0539
  100TCq2    C6 1527   3.103   3.948   2.039 -0.7012  0.4564  0.3590
  100TCq2    C7 1528   3.134   3.819   2.021 -0.0415  0.4290 -0.0690
  100TCq2    C8 1529   2.987   4.010   1.981  0.4995  0.0198  0.2404
  100TCq2    O4 1530   2.972   4.128   2.005  0.0604  0.3378  0.2185
  100TCq2    C9 1531   3.313   4.026   2.340 -0.2390  0.0403  1.1120
  100TCq2    O5 1532   3.285   4.143   2.347 -0.4415  0.1294 -0.5366
  100TCq2    O6 1533   3.384   3.965   2.420  0.3075  0.6305  0.4357
  100TCq2    H2 1534   3.347   3.776   2.278 -1.6262 -0.4549  0.6090
  100TCq2    H3 1535   3.158   4.124   2.156  0.0135 -0.2172  1.7371
  100TCq2    H4 1536   3.081   3.756   1.949 -0.3716 -0.5254  1.0100
  101MPD2     C 1537   3.786   4.295  13.289  0.0677 -0.3210 -0.2448
  101MPD2    C1 1538   3.668   4.303  13.228 -0.1704  0.3269  0.4754
  101MPD2    C2 1539   3.565   4.209  13.256 -0.4315 -0.0308  0.5062
  101MPD2    C3 1540   3.582   4.117  13.357  0.1866 -0.5955 -0.5241
  101MPD2    C4 1541   3.700   4.113  13.422  0.0944  0.7083  0.6410
  101MPD2    C5 1542   3.798   4.206  13.391  0.1602  0.2517  0.0899
  101MPD2     H 1543   3.471   4.212  13.202  0.6420  2.2666 -1.2318
  101MPD2    H1 1544   3.721   4.036  13.495  1.2580 -1.2604 -1.7725
  101MPD2    H2 1545   3.860   4.369  13.259  0.0608 -0.3309 -0.2869
  101MPD2    H3 1546   3.892   4.207  13.445  0.6012 -0.4015 -0.6850
  101MPD2     N 1547   3.472   4.038  13.394  0.2460 -0.0564 -0.2927
  101MPD2    H5 1548   3.389   4.044  13.336  0.0457 -3.7522 -0.3868
  101MPD2    N1 1549   3.660   4.405  13.134  0.4289  0.2832  0.2538
  101MPD2    H7 1550   3.740   4.468  13.130  0.2928  0.4540  0.2797
  102TCq2    C1 1551   3.829   4.672  12.760  0.1094 -0.8406 -0.2988
  102TCq2    O2 1552   3.917   4.663  12.842  0.2862  0.3986  0.0404
  102TCq2    C2 1553   3.693   4.636  12.805  0.7385  0.1153  0.7373
  102TCq2    C3 1554   3.590   4.715  12.766 -0.0836 -0.0032 -0.0810
  102TCq2    C4 1555   3.465   4.698  12.823 -0.1964  0.5885  0.0168
  102TCq2    C5 1556   3.447   4.606  12.921 -0.0457 -0.2799  0.4424
  102TCq2    C6 1557   3.557   4.541  12.973  0.3239  0.5692 -0.4730
  102TCq2    C7 1558   3.683   4.556  12.909  0.5424 -0.0104  0.2172
  102TCq2    C8 1559   3.543   4.431  13.064 -0.7578  0.4332  0.0005
  102TCq2    O4 1560   3.428   4.387  13.067 -0.2273 -0.0829 -0.2187
  102TCq2    C9 1561   3.358   0.048  12.756  0.0448 -0.1696  0.6478
  102TCq2    O5 1562   3.369   0.092  12.642 -0.1375  0.4791 -0.3088
  102TCq2    O6 1563   3.247   0.054  12.822 -0.4416  0.3602 -0.5004
  102TCq2    H2 1564   3.603   0.051  12.674  0.7684 -1.5411 -0.9135
  102TCq2    H3 1565   3.343   4.594  12.949 -0.2664  1.2868  0.3050
  102TCq2    H4 1566   3.769   4.499  12.943 -0.7355 -1.1109  1.6059
  103TMC2    C1 1567   2.221   3.979  12.839 -0.1629  0.4286  0.6777
  103TMC2    C2 1568   2.348   3.997  12.889 -0.0350  0.0444 -0.1585
  103TMC2    C3 1569   2.368   4.085  12.990  0.0372  0.5601 -1.0615
  103TMC2    C4 1570   2.119   4.066  12.884  0.0896  0.2592 -0.0759
  103TMC2    C5 1571   2.137   4.143  12.992  0.3176  0.2341 -0.3795
  103TMC2    C6 1572   2.265   4.154  13.051  0.6192  0.1503  0.1746
  103TMC2     C 1573   2.199   3.897  12.716  0.0969  0.3875  0.0514
  103TMC2     O 1574   2.080   3.876  12.696  0.3103 -0.3566  0.9393
  103TMC2     H 1575   2.429   3.941  12.845 -2.3391 -2.8297 -0.7176
  103TMC2    H1 1576   2.018   4.053  12.845  0.5639  0.1374 -1.2392
  103TMC2    H2 1577   2.292   4.230  13.123 -0.0971 -0.0781  0.6860
  103TMC2    C7 1578   2.013   4.203  13.055 -0.4499 -0.3845  0.1015
  103TMC2    C8 1579   2.502   4.110  13.015  0.1713  1.0333  0.3780
  103TMC2    O1 1580   1.904   4.206  13.000  0.0661  0.1828  0.7201
  103TMC2    O2 1581   2.597   4.050  12.969  0.6846  0.2235 -0.3452
  103TMC2    O5 1582   2.501   4.247  13.027 -0.0340  0.0629 -0.3851
  103TMC2    H5 1583   2.411   4.284  13.040  0.7352  1.3378  1.3530
  104MPD2     C 1584   2.447   3.773  12.478 -1.0881  1.1120  0.3452
  104MPD2    C1 1585   2.322   3.816  12.515 -0.3580  0.3329 -0.5647
  104MPD2    C2 1586   2.214   3.770  12.442 -0.2792 -0.6717  0.0763
  104MPD2    C3 1587   2.228   3.679  12.335  0.2638  0.6268 -0.3612
  104MPD2    C4 1588   2.359   3.642  12.301 -0.6045  0.8100 -0.1483
  104MPD2    C5 1589   2.465   3.691  12.371  0.0826  0.0399 -0.2388
  104MPD2     H 1590   2.112   3.788  12.476  0.1304  0.3576  0.7237
  104MPD2    H1 1591   2.377   3.575  12.218  1.0261  0.0679  0.7995
  104MPD2    H2 1592   2.536   3.808  12.530  0.0725 -3.5056  1.4722
  104MPD2    H3 1593   2.563   3.655  12.340  1.0753  1.9162  0.7344
  104MPD2     N 1594   2.111   3.642  12.274  0.6938 -0.5707 -0.3693
  104MPD2    H5 1595   2.031   3.695  12.308  1.3371  1.3126 -1.8231
  104MPD2    N1 1596   2.315   3.884  12.642 -0.0779  0.0093  0.0626
  104MPD2    H7 1597   2.403   3.912  12.685 -0.7181 -0.3079  1.6053
  105MPD2     C 1598   3.179   3.239   0.097  0.3373  0.6052  0.3877
  105MPD2    C1 1599   3.131   3.369   0.094 -0.2446 -0.5061  0.2637
  105MPD2    C2 1600   3.035   3.412   0.185 -0.0990 -0.0264 -0.5456
  105MPD2    C3 1601   2.996   3.329   0.284  0.1156 -0.2110 -0.4000
  105MPD2    C4 1602   3.060   3.208   0.302  0.1003  0.4792 -0.1582
  105MPD2    C5 1603   3.151   3.172   0.207 -0.7732 -0.1314 -0.0304
  105MPD2     H 1604   2.992   3.512   0.186  1.0615  0.4729 -0.0344
  105MPD2    H1 1605   3.040   3.147   0.389 -1.7524  0.2671 -0.7475
  105MPD2    H2 1606   3.259   3.200   0.036  1.3282  2.0075  0.7791
  105MPD2    H3 1607   3.217   3.090   0.231 -1.6817 -0.6684  0.6217
  105MPD2     N 1608   2.888   3.380   0.369  0.7908 -0.4601  0.2721
  105MPD2    H5 1609   2.852   3.471   0.344  1.5206 -0.3628 -0.4065
  105MPD2    N1 1610   3.175   3.457  17.677  0.2302  0.7345 -0.0181
  105MPD2    H7 1611   3.125   3.545   0.004  1.9107  1.8097 -1.0970
  106TCq2    C1 1612   2.838   3.305   0.472 -0.1042  0.3355 -0.8085
  106TCq2    O2 1613   2.883   3.201   0.523  0.2794 -0.1029 -0.2483
  106TCq2    C2 1614   2.731   3.367   0.545  0.0406  0.3001  0.4978
  106TCq2    C3 1615   2.742   3.351   0.677  0.1662  0.5902  0.2362
  106TCq2    C4 1616   2.664   3.431   0.758  0.6355 -0.1054 -0.6429
  106TCq2    C5 1617   2.577   3.517   0.707  0.2031 -0.4690  0.0791
  106TCq2    C6 1618   2.570   3.531   0.572 -0.3785 -0.2728  0.3577
  106TCq2    C7 1619   2.643   3.452   0.488  0.4979 -0.0663 -0.3419
  106TCq2    C8 1620   2.447   3.595   0.518  0.4393  0.4669  0.7986
  106TCq2    O4 1621   2.430   3.581   0.394  0.0345  0.2717  0.5476
  106TCq2    C9 1622   2.636   3.398   0.902 -0.7045 -0.4162 -0.8470
  106TCq2    O5 1623   2.722   3.333   0.974 -0.3967 -0.0837  0.8247
  106TCq2    O6 1624   2.526   3.430   0.956 -0.3736 -0.5684 -0.6449
  106TCq2    H2 1625   2.814   3.279   0.713 -1.6560 -2.4144 -2.0518
  106TCq2    H3 1626   2.502   3.553   0.776  0.9357  1.1623  0.0150
  106TCq2    H4 1627   2.630   3.463   0.381  0.5337  0.0709 -0.3333
  107TMC2    C1 1628   4.189   2.937  11.461  0.0835 -0.0440 -0.5622
  107TMC2    C2 1629   4.203   3.028  11.357 -0.0022  0.2491  0.0631
  107TMC2    C3 1630   4.307   3.006  11.275  0.8153  0.3791  0.3505
  107TMC2    C4 1631   4.266   2.829  11.484 -0.3849 -0.3114 -0.3084
  107TMC2    C5 1632   4.368   2.814  11.402  0.2440 -0.5080  0.9266
  107TMC2    C6 1633   4.388   2.895  11.291 -0.3799  0.6645 -0.3114
  107TMC2     C 1634   4.077   2.955  11.554 -0.0796  0.1282 -0.3744
  107TMC2     O 1635   4.091   2.917  11.670 -0.1625 -0.3404 -0.1078
  107TMC2     H 1636   4.154   3.124  11.358 -0.5265  0.0182 -3.2056
  107TMC2    H1 1637   4.250   2.773  11.575  2.7843  1.5891  1.4272
  107TMC2    H2 1638   4.465   2.879  11.217 -1.8676  3.2634 -2.4183
  107TMC2    C7 1639   4.410   2.675  11.389  0.2892  0.1189  0.3547
  107TMC2    C8 1640   4.326   3.083  11.158 -0.1168 -0.4718  0.0431
  107TMC2    O1 1641   4.373   2.612  11.490  1.1629 -0.2709  0.2389
  107TMC2    O2 1642   4.428   3.074  11.094 -0.4707 -0.3139  0.3391
  107TMC2    O5 1643   4.213   3.114  11.109  0.3051 -0.3975 -0.0410
  107TMC2    H5 1644   4.137   3.085  11.164  0.9806 -0.3149  0.9456
  108MPD2     C 1645   3.761   3.136  11.487 -0.2923  0.4521 -0.4650
  108MPD2    C1 1646   3.853   3.066  11.556  0.0120 -0.8764  0.1099
  108MPD2    C2 1647   3.824   3.035  11.691  0.3438 -0.2541  0.5937
  108MPD2    C3 1648   3.707   3.087  11.754 -0.2150  0.6079 -0.1051
  108MPD2    C4 1649   3.617   3.153  11.677 -0.2250 -0.6117 -0.4922
  108MPD2    C5 1650   3.652   3.186  11.550 -0.1980  0.5462 -0.4879
  108MPD2     H 1651   3.892   2.964  11.736  0.7288  1.1957  2.3342
  108MPD2    H1 1652   3.523   3.186  11.719 -0.6932 -1.4366 -0.8924
  108MPD2    H2 1653   3.781   3.162  11.383  0.5851 -1.9897 -0.9189
  108MPD2    H3 1654   3.589   3.254  11.493  0.3166  1.5506  0.1374
  108MPD2     N 1655   3.677   3.060  11.888  0.1747  0.4113 -0.1775
  108MPD2    H5 1656   3.599   3.114  11.923 -0.0563  0.2687 -0.4757
  108MPD2    N1 1657   3.971   3.016  11.496 -0.4658  0.3680  0.1830
  108MPD2    H7 1658   3.985   3.027  11.396  0.4578  0.5053  0.3294
  109MPD2     C 1659   4.712   0.721   2.331  0.0134  0.2624  0.3044
  109MPD2    C1 1660   0.037   0.799   2.232 -0.4057  0.3883 -0.1353
  109MPD2    C2 1661   0.105   0.914   2.257  0.1804 -0.5460  0.2477
  109MPD2    C3 1662   0.110   0.966   2.387  0.8601 -0.2659  0.9017
  109MPD2    C4 1663   0.061   0.886   2.491 -0.6743  0.3555 -0.1413
  109MPD2    C5 1664   0.007   0.762   2.460 -0.7211 -0.6738 -0.1769
  109MPD2     H 1665   0.126   0.980   2.174 -1.8043  0.2321  0.3883
  109MPD2    H1 1666   0.076   0.901   2.597 -1.1454 -2.3890  0.3175
  109MPD2    H2 1667   4.666   0.623   2.317  0.0508 -0.0800  2.4730
  109MPD2    H3 1668   4.692   0.698   2.541 -1.2466  0.9641  0.9072
  109MPD2     N 1669   0.170   1.099   2.403 -0.3677  0.1488  0.1981
  109MPD2    H5 1670   0.211   1.144   2.322 -0.6419 -0.5938 -0.3594
  109MPD2    N1 1671   0.011   0.737   2.114  0.1668 -0.4170 -0.2252
  109MPD2    H7 1672   4.686   0.647   2.115  0.1534 -0.3961  0.8250
  110TCq2    C1 1673   0.188   1.152   2.524  0.2026  0.0465 -0.5373
  110TCq2    O2 1674   0.133   1.132   2.627  0.2829  0.0381  0.3808
  110TCq2    C2 1675   0.279   1.267   2.522  0.1971 -0.2311  0.3357
  110TCq2    C3 1676   0.374   1.270   2.622 -0.0813 -0.2861 -0.1124
  110TCq2    C4 1677   0.480   1.344   2.611 -0.2524  0.8332 -0.5327
  110TCq2    C5 1678   0.494   1.435   2.512 -0.3147 -0.1126 -0.1254
  110TCq2    C6 1679   0.398   1.421   2.410  0.3826  0.3677 -0.9551
  110TCq2    C7 1680   0.292   1.330   2.402 -0.1210 -0.4052 -0.7185
  110TCq2    C8 1681   0.405   1.522   2.309 -0.4843  0.5707 -0.3944
  110TCq2    O4 1682   0.350   1.499   2.204  0.4685  0.7977  0.0589
  110TCq2    C9 1683   0.576   1.355   2.720  0.2307  0.1471 -0.1960
  110TCq2    O5 1684   0.661   1.445   2.708  0.3201  0.0490  0.4613
  110TCq2    O6 1685   0.574   1.259   2.797 -0.0349  0.0177 -0.0166
  110TCq2    H2 1686   0.356   1.211   2.711  1.9844  1.8188  1.7032
  110TCq2    H3 1687   0.592   1.481   2.499 -0.0693 -0.7946 -0.7219
  110TCq2    H4 1688   0.210   1.347   2.333 -1.7446 -3.9888  0.3416
  111TMC2    C1 1689   3.999   0.199  11.682 -0.7011 -0.0507 -0.1942
  111TMC2    C2 1690   3.885   0.180  11.760  0.5728 -0.0760  0.2919
  111TMC2    C3 1691   3.894   0.205  11.892  0.2844  0.1111 -0.1794
  111TMC2    C4 1692   4.122   0.221  11.735  0.3069 -0.8276 -0.1524
  111TMC2    C5 1693   4.131   0.239  11.869 -0.4767  0.4392  0.0518
  111TMC2    C6 1694   4.014   0.240  11.945 -0.1358  0.2904 -0.0408
  111TMC2     C 1695   3.978   0.227  11.540  0.3791 -0.2379 -0.5362
  111TMC2     O 1696   3.883   0.172  11.482 -0.0631 -0.5898  0.5269
  111TMC2     H 1697   3.794   0.165  11.704  1.4386  0.6235 -1.3071
  111TMC2    H1 1698   4.205   0.213  11.667 -0.6970 -0.0404 -1.4800
  111TMC2    H2 1699   4.034   0.240  12.052  1.9616 -1.7792 -0.4423
  111TMC2    C7 1700   4.249   0.193  11.941 -0.1136 -0.0316 -0.2545
  111TMC2    C8 1701   3.774   0.199  11.978  0.0872 -0.5352 -0.1752
  111TMC2    O1 1702   4.245   0.206  12.065  0.4313 -0.4825  0.6159
  111TMC2    O2 1703   3.670   0.170  11.926 -0.4256  0.0686 -0.0111
  111TMC2    O5 1704   3.803   0.301  12.058 -0.2373  0.0754 -0.3315
  111TMC2    H5 1705   3.886   0.353  12.059 -0.1608 -0.0383 -1.2957
  112MPD2     C 1706   4.153   0.372  11.077  0.2475  0.4875  0.1748
  112MPD2    C1 1707   4.043   0.297  11.116  0.1086  0.4763  0.1632
  112MPD2    C2 1708   4.009   0.284  11.253  0.4530  0.0093 -0.4945
  112MPD2    C3 1709   4.104   0.322  11.348  1.2756  0.4375 -0.1647
  112MPD2    C4 1710   4.217   0.395  11.308 -0.1522 -0.5301 -0.1692
  112MPD2    C5 1711   4.240   0.422  11.172  0.0604  0.4649  0.6390
  112MPD2     H 1712   3.910   0.248  11.278 -0.0508  1.3334 -0.5803
  112MPD2    H1 1713   4.284   0.450  11.372 -0.3381 -0.3751 -0.1098
  112MPD2    H2 1714   4.176   0.396  10.974 -0.8783  0.6188 -0.0417
  112MPD2    H3 1715   4.330   0.477  11.146 -1.9791  3.2724 -0.5520
  112MPD2     N 1716   4.079   0.309  11.486 -0.0302 -0.3537 -0.1808
  112MPD2    H5 1717   4.148   0.341  11.553 -0.5798  0.6324 -0.0775
  112MPD2    N1 1718   3.943   0.258  11.019 -0.0308  0.3726 -0.4522
  112MPD2    H7 1719   3.855   0.222  11.055  1.3959 -2.0621  0.6444
  113MPD2     C 1720   1.920   3.313   1.186 -0.0757  0.1771 -0.4730
  113MPD2    C1 1721   1.889   3.411   1.092  0.3297 -0.0282  0.0429
  113MPD2    C2 1722   1.795   3.385   0.996 -0.6777 -0.8924 -0.1102
  113MPD2    C3 1723   1.745   3.259   0.970  0.4203 -0.3385 -0.3079
  113MPD2    C4 1724   1.766   3.164   1.065  0.4595 -0.4100  0.7518
  113MPD2    C5 1725   1.851   3.194   1.175 -0.1971  0.2709  0.3061
  113MPD2     H 1726   1.769   3.465   0.927  0.1431  0.4581  1.1445
  113MPD2    H1 1727   1.719   3.066   1.064 -0.0786 -0.1229 -1.8775
  113MPD2    H2 1728   1.998   3.322   1.261  0.4126 -0.6215 -0.8881
  113MPD2    H3 1729   1.870   3.122   1.253  2.0246  1.9714  1.3307
  113MPD2     N 1730   1.648   3.225   0.871 -0.1872 -0.4273 -0.6403
  113MPD2    H5 1731   1.597   3.139   0.882 -0.5006 -0.0516  0.8463
  113MPD2    N1 1732   1.949   3.535   1.102  0.0672  0.1132  0.7482
  113MPD2    H7 1733   1.905   3.617   1.060 -1.6356 -1.1630  0.0677
  114TCq2    C1 1734   1.618   3.309   0.764  0.4318 -0.9552  0.4396
  114TCq2    O2 1735   1.687   3.402   0.724 -0.5424 -0.4003 -0.4313
  114TCq2    C2 1736   1.499   3.269   0.693 -0.3013 -0.9863  0.8577
  114TCq2    C3 1737   1.435   3.358   0.614  0.3940 -0.6086  0.3052
  114TCq2    C4 1738   1.314   3.323   0.558 -0.3076  0.5296 -0.4744
  114TCq2    C5 1739   1.250   3.202   0.576 -0.6893 -0.0486  0.0206
  114TCq2    C6 1740   1.317   3.119   0.661 -0.5339 -0.3076 -0.8219
  114TCq2    C7 1741   1.443   3.141   0.714 -0.3181  0.2553 -0.3112
  114TCq2    C8 1742   1.242   3.000   0.689  0.1150  0.2570 -0.2487
  114TCq2    O4 1743   1.128   3.000   0.643 -0.3639  0.1107  0.3523
  114TCq2    C9 1744   1.242   3.419   0.479 -0.1748 -0.3988 -0.1536
  114TCq2    O5 1745   1.289   3.533   0.467  0.7791 -0.0083 -0.0120
  114TCq2    O6 1746   1.131   3.385   0.432 -0.1953  0.4262 -0.0482
  114TCq2    H2 1747   1.469   3.461   0.607  0.7724 -0.5972  2.2457
  114TCq2    H3 1748   1.154   3.184   0.529  0.4505  2.7310 -3.4048
  114TCq2    H4 1749   1.496   3.066   0.773  2.7704  2.9270  0.3118
  115TMC2    C1 1750   2.973   0.947  17.643 -0.3554 -0.9205  0.8581
  115TMC2    C2 1751   3.103   0.898  17.637 -0.0360 -0.3809  0.2505
  115TMC2    C3 1752   3.195   0.983  17.601 -0.0171  0.5819  0.1727
  115TMC2    C4 1753   2.939   1.070  17.610  1.0243 -0.5897 -0.1528
  115TMC2    C5 1754   3.039   1.156  17.594 -0.3134  0.0562  0.3147
  115TMC2    C6 1755   3.168   1.113  17.596 -0.1125  0.2669 -0.0348
  115TMC2     C 1756   2.875   0.855  17.678 -0.4165 -0.0745 -0.4638
  115TMC2     O 1757   2.879   0.738  17.647  0.4991 -0.0656  0.2571
  115TMC2     H 1758   3.117   0.792  17.659  0.3001  0.0187  1.9435
  115TMC2    H1 1759   2.839   1.112  17.600  1.1497 -0.1741  0.3414
  115TMC2    H2 1760   3.247   1.186  17.581  2.1617 -1.9178  1.2286
  115TMC2    C7 1761   3.006   1.285  17.544 -0.2010  0.1522  0.1280
  115TMC2    C8 1762   3.329   0.936  17.578  0.0267  0.2994 -0.7546
  115TMC2    O1 1763   2.905   1.350  17.574 -0.7489  0.0097 -0.2132
  115TMC2    O2 1764   3.422   0.993  17.629 -0.1319  0.1354  0.6023
  115TMC2    O5 1765   3.324   0.812  17.545 -0.3376  0.0211 -0.2827
  115TMC2    H5 1766   3.244   0.796  17.491  0.2675 -2.2139 -0.4945
  116MPD2     C 1767   2.440   0.784   0.256 -0.1622 -0.0972 -1.2810
  116MPD2    C1 1768   2.520   0.696   0.185 -0.2805  0.0325  0.0412
  116MPD2    C2 1769   2.642   0.736   0.144 -0.7987  0.0874  0.1561
  116MPD2    C3 1770   2.687   0.865   0.160  0.1932  0.0292 -0.3272
  116MPD2    C4 1771   2.608   0.957   0.229  0.5671  0.1030 -0.3377
  116MPD2    C5 1772   2.486   0.910   0.282 -0.0799 -0.2227  1.0280
  116MPD2     H 1773   2.693   0.669   0.074 -1.2349 -0.2139  0.1286
  116MPD2    H1 1774   2.634   1.062   0.241  0.3794  0.3211 -1.8107
  116MPD2    H2 1775   2.336   0.773   0.283  0.6410 -1.9149  1.0823
  116MPD2    H3 1776   2.412   0.975   0.329 -2.0008 -1.7155  0.0759
  116MPD2     N 1777   2.791   0.924   0.083  0.0091 -0.2654  0.2764
  116MPD2    H5 1778   2.808   1.022   0.100  2.1060 -0.5272 -0.3828
  116MPD2    N1 1779   2.465   0.566   0.161 -0.4384 -0.9664 -0.2228
  116MPD2    H7 1780   2.367   0.542   0.173 -0.4342 -1.0534 -0.3632
  117TMC2    C1 1781   1.310   2.366  13.892  0.2775 -0.3043 -0.1928
  117TMC2    C2 1782   1.294   2.378  14.027 -0.2465  0.1475 -0.1342
  117TMC2    C3 1783   1.393   2.436  14.098 -0.6520 -0.4193  0.4235
  117TMC2    C4 1784   1.424   2.386  13.829  0.5959 -0.4681 -0.6178
  117TMC2    C5 1785   1.526   2.440  13.900  0.2311  0.0973 -0.2471
  117TMC2    C6 1786   1.508   2.474  14.033  1.0936  0.3066 -0.5432
  117TMC2     C 1787   1.206   2.354  13.787  0.0454 -0.3821  0.1899
  117TMC2     O 1788   1.227   2.292  13.681 -0.6157  0.9363  0.6139
  117TMC2     H 1789   1.202   2.344  14.073  0.3215  0.4844  1.2479
  117TMC2    H1 1790   1.430   2.364  13.723 -2.7838 -0.3927 -0.8152
  117TMC2    H2 1791   1.585   2.525  14.090  2.3082 -1.4791 -0.5916
  117TMC2    C7 1792   1.663   2.464  13.848  0.5206  0.2811  0.0895
  117TMC2    C8 1793   1.401   2.419  14.242  0.0762  0.1607 -0.4011
  117TMC2    O1 1794   1.738   2.541  13.910  0.1392  0.3340  0.4096
  117TMC2    O2 1795   1.328   2.482  14.324 -0.3851 -0.7269 -0.0133
  117TMC2    O5 1796   1.393   2.282  14.239  0.2237  0.7645  0.5937
  117TMC2    H5 1797   1.457   2.257  14.169 -0.1344 -2.1689  1.3409
  118MPD2     C 1798   1.833   2.283  13.578 -0.1748 -0.0947 -0.0726
  118MPD2    C1 1799   1.813   2.381  13.670  0.0715 -0.5835 -0.6756
  118MPD2    C2 1800   1.910   2.481  13.675 -0.0501  0.3849 -0.4981
  118MPD2    C3 1801   2.017   2.493  13.587  0.4402  0.5075  0.1483
  118MPD2    C4 1802   2.033   2.399  13.486 -0.2592  0.4930  0.2196
  118MPD2    C5 1803   1.934   2.300  13.481 -0.5489 -0.5350  0.1427
  118MPD2     H 1804   1.888   2.559  13.747  0.5311  0.8489 -0.8324
  118MPD2    H1 1805   2.106   2.414  13.407  0.1036 -1.4409  0.2022
  118MPD2    H2 1806   1.758   2.206  13.562  0.2541 -0.8200  1.4415
  118MPD2    H3 1807   1.939   2.230  13.399 -1.7756  0.3016 -0.6462
  118MPD2     N 1808   2.102   2.602  13.586  0.4990  0.2281  0.3295
  118MPD2    H5 1809   2.165   2.604  13.506  0.0484 -1.1736 -0.0681
  118MPD2    N1 1810   1.695   2.379  13.745  0.4683 -0.2317  0.4672
  118MPD2    H7 1811   1.618   2.316  13.723 -0.8265  1.1396  1.0994
  119MPD2     C 1812   4.097   3.914  13.264 -0.2432 -0.1329  0.2141
  119MPD2    C1 1813   3.996   3.906  13.353  0.4294 -0.0807  0.1509
  119MPD2    C2 1814   3.866   3.891  13.306 -0.6089 -0.3945  0.2537
  119MPD2    C3 1815   3.827   3.906  13.177 -0.6422  0.2505 -0.0245
  119MPD2    C4 1816   3.932   3.947  13.093  0.1737 -0.7225 -0.0581
  119MPD2    C5 1817   4.062   3.941  13.136 -0.5094  0.2266 -0.2124
  119MPD2     H 1818   3.781   3.882  13.372 -0.4203  1.5395  0.7599
  119MPD2    H1 1819   3.917   3.984  12.992 -1.7261 -0.8901  0.1441
  119MPD2    H2 1820   4.201   3.922  13.295 -0.3851  0.7800  0.4366
  119MPD2    H3 1821   4.133   3.967  13.060  0.1988 -0.3760  0.2444
  119MPD2     N 1822   3.692   3.902  13.135 -0.2794 -0.5180 -0.2655
  119MPD2    H5 1823   3.666   3.944  13.046  0.6870 -0.7979 -0.6780
  119MPD2    N1 1824   4.030   3.911  13.487 -0.7043  0.5265 -0.1527
  119MPD2    H7 1825   4.112   3.964  13.515 -0.5551 -0.3160  1.0096
  120TCq2    C1 1826   3.593   3.824  13.197  0.4273  0.1221  0.4199
  120TCq2    O2 1827   3.606   3.755  13.294 -0.7726 -0.4081  0.0709
  120TCq2    C2 1828   3.480   3.806  13.106  0.0288 -0.2177 -0.1336
  120TCq2    C3 1829   3.475   3.883  12.990  0.1127  0.8732 -0.0375
  120TCq2    C4 1830   3.389   3.832  12.894 -0.4908  0.5736 -0.6577
  120TCq2    C5 1831   3.346   3.703  12.892  0.1814 -0.9324 -0.2663
  120TCq2    C6 1832   3.363   3.622  13.005 -0.0717  0.4844  0.2693
  120TCq2    C7 1833   3.433   3.681  13.111  0.1746 -0.3483 -0.6714
  120TCq2    C8 1834   3.302   3.491  13.016 -0.2003  0.5547  0.4210
  120TCq2    O4 1835   3.258   3.434  12.919  0.3233 -0.5964 -0.2808
  120TCq2    C9 1836   3.360   3.912  12.773  0.2880 -0.3232  0.6876
  120TCq2    O5 1837   3.409   4.028  12.753  0.1075  0.3948 -0.2361
  120TCq2    O6 1838   3.265   3.880  12.698 -0.4714  0.5761 -0.1032
  120TCq2    H2 1839   3.502   3.987  12.985  2.8787  0.3253  3.6717
  120TCq2    H3 1840   3.287   3.666  12.810 -2.3700  0.6132  0.8847
  120TCq2    H4 1841   3.453   3.625  13.201 -0.6544 -1.2856 -1.0624
  121TMC2    C1 1842   0.905   0.166  14.037  0.0045 -0.0175 -1.3109
  121TMC2    C2 1843   0.810   0.073  14.054  0.1354  0.1232 -0.1252
  121TMC2    C3 1844   0.678   0.115  14.065 -0.4461 -0.3669 -0.0276
  121TMC2    C4 1845   0.875   0.298  14.032  0.1350 -0.6357  0.3823
  121TMC2    C5 1846   0.743   0.336  14.030 -0.3744 -0.3287  0.1675
  121TMC2    C6 1847   0.644   0.249  14.051 -0.8099  0.2344 -0.3309
  121TMC2     C 1848   1.043   0.114  14.011 -0.3970 -0.6271  0.6210
  121TMC2     O 1849   1.077   0.013  14.073 -0.0980  0.0969 -0.7605
  121TMC2     H 1850   0.843   4.691  14.045 -1.0673 -0.1572 -1.2021
  121TMC2    H1 1851   0.951   0.375  14.026 -0.9040  0.2967 -0.8227
  121TMC2    H2 1852   0.543   0.287  14.058 -0.7860  0.4849 -1.3768
  121TMC2    C7 1853   0.724   0.448  13.949  0.0803 -0.1715 -0.1592
  121TMC2    C8 1854   0.567   0.027  14.017  0.2547 -0.9387 -0.0219
  121TMC2    O1 1855   0.813   0.532  13.943 -0.0396 -0.0138 -0.0454
  121TMC2    O2 1856   0.491   0.071  13.934 -0.2953 -0.7290  0.4734
  121TMC2    O5 1857   0.594   4.620  14.041 -0.1249 -0.1127 -0.1149
  121TMC2    H5 1858   0.652   4.600  14.118  2.0185  1.1879 -1.3820
  122MPD2     C 1859   1.313   0.053  13.904 -0.2369 -0.2621 -0.0233
  122MPD2    C1 1860   1.249   0.174  13.880 -0.0455  0.4706  0.1830
  122MPD2    C2 1861   1.317   0.260  13.803  0.2383 -0.3629  0.5923
  122MPD2    C3 1862   1.446   0.245  13.760 -0.5409  0.0047 -0.4082
  122MPD2    C4 1863   1.507   0.124  13.788 -0.1162  0.0966  0.2340
  122MPD2    C5 1864   1.441   0.035  13.870 -0.3836  0.2131  0.8089
  122MPD2     H 1865   1.253   0.339  13.765  1.6051  0.4193 -0.0729
  122MPD2    H1 1866   1.614   0.110  13.783 -0.1018  0.5289 -0.7135
  122MPD2    H2 1867   1.258   4.695  13.955 -0.0213 -0.4009 -0.0054
  122MPD2    H3 1868   1.483   4.664  13.912 -0.5780  0.2026  0.9806
  122MPD2     N 1869   1.509   0.332  13.672 -0.8142 -0.1456 -0.0815
  122MPD2    H5 1870   1.598   0.298  13.636  1.1953  2.9184  2.0676
  122MPD2    N1 1871   1.115   0.191  13.923 -0.4353 -0.0304  0.4430
  122MPD2    H7 1872   1.071   0.262  13.865  0.5482 -1.7408 -2.4333
  123MPD2     C 1873   4.322   2.851   8.450  0.6361 -0.1900  0.3709
  123MPD2    C1 1874   4.320   2.898   8.583  0.1722 -0.2954  0.1585
  123MPD2    C2 1875   4.429   2.973   8.630 -0.6970 -0.7894 -0.1136
  123MPD2    C3 1876   4.544   2.990   8.556  0.5080  0.2075 -0.7614
  123MPD2    C4 1877   4.547   2.932   8.432  0.0535 -0.6799 -0.6499
  123MPD2    C5 1878   4.440   2.869   8.376  0.2571  0.1110  0.0912
  123MPD2     H 1879   4.434   3.012   8.731 -1.3271 -1.3025  0.1137
  123MPD2    H1 1880   4.630   2.918   8.364  1.1748 -1.9755  0.9975
  123MPD2    H2 1881   4.245   2.790   8.404  1.0338  0.4796 -1.1904
  123MPD2    H3 1882   4.454   2.826   8.277 -0.3906  1.2882 -0.5162
  123MPD2     N 1883   4.656   3.052   8.615  0.1732 -0.2019 -0.1653
  123MPD2    H5 1884   4.651   3.089   8.709  3.9638 -0.5968  0.1910
  123MPD2    N1 1885   4.203   2.866   8.656 -0.1928 -0.0156  0.0993
  123MPD2    H7 1886   4.144   2.798   8.611  2.0629 -2.8702  1.4546
  124TCq2    C1 1887   0.056   3.065   8.554 -0.9489 -0.0921  0.2691
  124TCq2    O2 1888   0.087   3.014   8.449  0.3989  0.2420  0.0722
  124TCq2    C2 1889   0.153   3.151   8.629 -0.2189  0.3586  0.0291
  124TCq2    C3 1890   0.265   3.169   8.569  0.3140  0.0298 -0.0635
  124TCq2    C4 1891   0.370   3.247   8.627 -0.4422  0.2024 -0.0155
  124TCq2    C5 1892   0.340   3.304   8.749 -0.1066  1.2305 -0.4761
  124TCq2    C6 1893   0.225   3.272   8.814 -0.2601 -0.1975  0.2875
  124TCq2    C7 1894   0.123   3.200   8.755  0.6805 -0.3656 -0.3831
  124TCq2    C8 1895   0.200   3.315   8.949 -0.2857  0.0389 -0.1401
  124TCq2    O4 1896   0.295   3.375   9.001 -0.9300  0.2935 -0.0565
  124TCq2    C9 1897   0.499   3.257   8.566  0.9079 -0.4290 -0.6092
  124TCq2    O5 1898   0.583   3.304   8.642  0.1568 -0.6847 -0.1375
  124TCq2    O6 1899   0.520   3.202   8.457  0.4908  0.4587  0.1367
  124TCq2    H2 1900   0.285   3.110   8.481  0.6407  0.8169 -0.5199
  124TCq2    H3 1901   0.418   3.359   8.800 -0.9081  1.5688  0.3796
  124TCq2    H4 1902   0.029   3.185   8.807 -0.2078  0.0746 -1.8566
  125TMC2    C1 1903   4.480   3.901   8.777 -0.1313  0.0135 -0.0330
  125TMC2    C2 1904   4.357   3.963   8.772 -0.3041  0.2011  0.2367
  125TMC2    C3 1905   4.339   4.078   8.836 -0.3059 -0.4639 -0.4665
  125TMC2    C4 1906   4.585   3.955   8.842  0.2831  0.3510 -0.2078
  125TMC2    C5 1907   4.554   4.066   8.924  0.2163 -0.4835  0.5955
  125TMC2    C6 1908   4.435   4.128   8.922  0.4003 -0.6835  1.2159
  125TMC2     C 1909   4.501   3.776   8.704 -0.8422  0.3795  0.1740
  125TMC2     O 1910   4.401   3.706   8.674  0.7524 -0.1925 -0.4282
  125TMC2     H 1911   4.276   3.925   8.711 -0.3140 -0.4690  0.6654
  125TMC2    H1 1912   4.677   3.900   8.859  0.8912  1.0427 -1.2536
  125TMC2    H2 1913   4.403   4.212   8.983  0.9583 -1.8136  3.0654
  125TMC2    C7 1914   4.651   4.139   9.007  0.0850  0.2879  0.9408
  125TMC2    C8 1915   4.205   4.134   8.850  0.0029 -0.6745  0.0654
  125TMC2    O1 1916   4.604   4.216   9.092 -0.2774 -0.3653  0.6055
  125TMC2    O2 1917   4.103   4.075   8.820 -0.1259  0.6571 -0.1435
  125TMC2    O5 1918   4.230   4.269   8.851  0.3894 -0.4100 -0.1356
  125TMC2    H5 1919   4.324   4.295   8.860  0.1164  0.2422  0.7734
  126MPD1     C 1920   0.066   3.424   8.453  0.4121  0.1756 -0.3762
  126MPD1    C1 1921   0.159   3.517   8.510  0.3123  0.6909  0.0765
  126MPD1    C2 1922   0.102   3.628   8.572 -0.2073 -0.8064 -0.1295
  126MPD1    C3 1923   4.682   3.633   8.596  0.6292  0.8246 -0.2258
  126MPD1    C4 1924   4.597   3.535   8.542  0.4500 -0.0941 -0.9074
  126MPD1    C5 1925   4.652   3.434   8.464 -0.2964 -0.3373  0.0720
  126MPD1     H 1926   0.156   3.711   8.615 -0.3184  0.5706 -2.6214
  126MPD1    H1 1927   4.492   3.530   8.565  0.2919  2.1111 -1.0989
  126MPD1    H2 1928   0.107   3.344   8.395  0.9929 -0.0453  0.3373
  126MPD1    H3 1929   4.583   3.368   8.413 -2.3206  1.7947  0.0177
  126MPD1     N 1930   4.633   3.746   8.674 -0.0742 -0.4148 -0.0618
  126MPD1    H5 1931   4.705   3.811   8.703  1.1802 -1.4294 -0.9205
  126MPD1    N1 1932   0.292   3.513   8.460  0.1825  0.0219 -0.7230
  126MPD1    H6 1933   0.321   3.416   8.445 -0.1913 -0.2503  0.2943
  126MPD1    H7 1934   0.358   3.556   8.524 -0.4880  1.1295 -0.7766
  127MPD2     C 1935   1.837   3.504   9.727 -0.2587  0.3214  0.1408
  127MPD2    C1 1936   1.711   3.556   9.690 -0.1435  0.1185  0.0460
  127MPD2    C2 1937   1.674   3.686   9.722  0.8212  1.1755 -0.3200
  127MPD2    C3 1938   1.765   3.763   9.792 -0.4174 -0.4607  1.0386
  127MPD2    C4 1939   1.887   3.714   9.842 -0.0518 -0.3203 -0.2580
  127MPD2    C5 1940   1.920   3.589   9.804 -0.1696  0.2874 -0.0823
  127MPD2     H 1941   1.582   3.729   9.687 -0.2918 -2.0743 -1.4255
  127MPD2    H1 1942   1.956   3.769   9.905 -2.4881 -0.3564  2.4734
  127MPD2    H2 1943   1.873   3.403   9.710  1.2618  0.5715  1.9872
  127MPD2    H3 1944   2.006   3.538   9.847 -1.5100 -1.9744 -0.0518
  127MPD2     N 1945   1.719   3.892   9.822  0.0117  0.4426 -0.5565
  127MPD2    H5 1946   1.631   3.923   9.783  0.3419  0.7763 -1.0389
  127MPD2    N1 1947   1.634   3.470   9.604 -0.6445  0.2026  0.3823
  127MPD2    H7 1948   1.682   3.382   9.588  0.5724  1.1321 -1.0443
  128TCq2    C1 1949   1.502   3.489   9.578 -0.3958  0.1296  0.3990
  128TCq2    O2 1950   1.434   3.579   9.624  0.3633  0.7305  0.3179
  128TCq2    C2 1951   1.437   3.387   9.505 -0.7265  0.1975 -0.2090
  128TCq2    C3 1952   1.506   3.299   9.428  0.0264  0.2627  0.4521
  128TCq2    C4 1953   1.454   3.175   9.404  0.1912 -0.2877  0.3131
  128TCq2    C5 1954   1.327   3.148   9.432 -0.0886 -0.3954 -0.5098
  128TCq2    C6 1955   1.251   3.241   9.500  0.3311 -0.3359  0.6734
  128TCq2    C7 1956   1.308   3.359   9.536 -0.0835 -0.9452 -0.2846
  128TCq2    C8 1957   1.112   3.236   9.531 -0.2690  0.2351 -0.3853
  128TCq2    O4 1958   1.063   3.346   9.553  0.0198 -0.1528 -0.5797
  128TCq2    C9 1959   1.544   3.071   9.356  0.3642 -0.5135 -1.0315
  128TCq2    O5 1960   1.666   3.103   9.372 -0.5589  0.5086  0.8433
  128TCq2    O6 1961   1.492   2.959   9.337  0.2427  0.2818 -0.0370
  128TCq2    H2 1962   1.613   3.302   9.409 -0.0686  0.9337  0.0116
  128TCq2    H3 1963   1.278   3.056   9.402 -0.4571 -0.6798  0.9605
  128TCq2    H4 1964   1.259   3.410   9.618  0.0892 -1.2751  0.0189
  129MPD2     C 1965   0.121   4.145   1.480 -0.1829  0.6741  0.5807
  129MPD2    C1 1966   0.063   4.205   1.589  0.2839 -0.5240 -0.9080
  129MPD2    C2 1967   0.074   4.341   1.602 -0.1499 -0.1175  0.6697
  129MPD2    C3 1968   0.141   4.422   1.504 -0.8886 -0.0627  0.4333
  129MPD2    C4 1969   0.215   4.359   1.408  0.4437 -0.2609 -0.7556
  129MPD2    C5 1970   0.209   4.221   1.399  0.2762  0.7182 -0.2552
  129MPD2     H 1971   0.020   4.394   1.679 -1.6978  0.6600 -0.9421
  129MPD2    H1 1972   0.272   4.411   1.333  0.3862  0.7194 -0.1209
  129MPD2    H2 1973   0.118   4.038   1.465 -0.3827  1.0993 -2.3283
  129MPD2    H3 1974   0.276   4.169   1.332  0.0606  0.8033 -0.5389
  129MPD2     N 1975   0.137   4.559   1.524 -0.1846  0.2502  0.3316
  129MPD2    H5 1976   0.068   4.588   1.592  1.1205 -1.4958  2.3617
  129MPD2    N1 1977   4.699   4.144   1.685  0.4835 -0.9255  0.3025
  129MPD2    H7 1978   4.669   4.198   1.765  0.3539 -0.1091 -0.2995
  130TCq2    C1 1979   4.663   4.011   1.672  0.0483  0.5914  0.0548
  130TCq2    O2 1980   4.661   3.940   1.574  0.1887  1.2056 -0.2169
  130TCq2    C2 1981   4.562   3.974   1.771  0.4324 -0.5271  0.1873
  130TCq2    C3 1982   4.520   4.075   1.860 -0.1030 -0.3587  0.6339
  130TCq2    C4 1983   4.397   4.068   1.922 -0.3416  0.0095 -0.9246
  130TCq2    C5 1984   4.322   3.955   1.900 -0.2289 -0.7076  0.2594
  130TCq2    C6 1985   4.353   3.870   1.797  0.5689 -0.5468 -0.2785
  130TCq2    C7 1986   4.479   3.871   1.738 -0.0090  0.7660  0.1237
  130TCq2    C8 1987   4.283   3.748   1.808  0.1126  0.8524 -0.4682
  130TCq2    O4 1988   4.168   3.747   1.845  0.3624  0.2804 -0.9889
  130TCq2    C9 1989   4.355   4.167   2.017 -0.5641  0.2011 -0.1057
  130TCq2    O5 1990   4.442   4.246   2.061 -0.0375 -0.5855 -0.2951
  130TCq2    O6 1991   4.237   4.150   2.067 -0.6793 -0.0432  0.4039
  130TCq2    H2 1992   4.586   4.155   1.892 -1.0630  0.9158 -0.6090
  130TCq2    H3 1993   4.228   3.944   1.954  1.2177 -0.5044  2.8167
  130TCq2    H4 1994   4.502   3.799   1.661  0.3112 -0.5136  1.4043
  131MPD2     C 1995   3.649   3.475   9.223 -0.9944 -0.2916  0.3803
  131MPD2    C1 1996   3.785   3.455   9.202  0.4357 -0.4234 -0.2547
  131MPD2    C2 1997   3.833   3.349   9.131 -0.7081 -0.6150 -0.0790
  131MPD2    C3 1998   3.738   3.270   9.071 -0.5379  0.6246 -0.3812
  131MPD2    C4 1999   3.599   3.278   9.099  0.1978  0.4341 -0.4811
  131MPD2    C5 2000   3.561   3.393   9.165 -0.4519  0.0401 -0.2224
  131MPD2     H 2001   3.939   3.329   9.115 -0.2628  1.5242  0.2204
  131MPD2    H1 2002   3.519   3.224   9.050  1.4567 -1.9750  0.1348
  131MPD2    H2 2003   3.606   3.563   9.269 -1.2035  0.1525 -0.6596
  131MPD2    H3 2004   3.455   3.411   9.176 -0.0406  0.6254  2.8911
  131MPD2     N 2005   3.793   3.178   8.987  0.0615  0.4708 -0.1419
  131MPD2    H5 2006   3.891   3.187   8.961  0.0807  0.0894 -0.1962
  131MPD2    N1 2007   3.864   3.547   9.271  0.4687 -0.1373 -0.4679
  131MPD2    H7 2008   3.823   3.623   9.323 -1.0637 -0.8104 -0.7140
  132TCq2    C1 2009   4.381   3.649   9.546  0.6953  0.1860 -0.2237
  132TCq2    O2 2010   4.418   3.533   9.548 -0.6790 -0.3903 -0.0426
  132TCq2    C2 2011   4.242   3.683   9.518 -0.2594  0.4384 -0.4364
  132TCq2    C3 2012   4.202   3.818   9.526 -0.0977 -0.1673 -0.3454
  132TCq2    C4 2013   4.091   3.854   9.455 -0.1521  0.5156  0.3062
  132TCq2    C5 2014   4.026   3.756   9.378  0.4376  0.0783 -0.0509
  132TCq2    C6 2015   4.067   3.625   9.380 -0.1512  0.2725 -0.0218
  132TCq2    C7 2016   4.178   3.590   9.445 -0.7235 -0.2671 -0.2061
  132TCq2    C8 2017   4.002   3.530   9.292  0.6638 -0.0752 -0.6873
  132TCq2    O4 2018   4.068   3.427   9.279 -0.5215 -0.1887 -0.0785
  132TCq2    C9 2019   4.077   3.999   9.424  0.2898 -0.1508  0.0369
  132TCq2    O5 2020   4.035   4.017   9.306  0.8158 -0.2505  0.3282
  132TCq2    O6 2021   4.148   4.079   9.491 -0.4708 -0.3726 -0.4640
  132TCq2    H2 2022   4.247   3.894   9.588 -1.0089  0.6426 -0.6769
  132TCq2    H3 2023   3.952   3.803   9.313 -0.3765 -0.2803  0.6127
  132TCq2    H4 2024   4.220   3.491   9.434  1.4732  1.0772 -3.9028
  133MPD2     C 2025   3.869   4.615   9.444  0.3843 -0.5738 -0.1261
  133MPD2    C1 2026   3.766   4.603   9.352 -0.0538  0.2867  0.3367
  133MPD2    C2 2027   3.760   4.488   9.272 -0.0481  0.4920  0.2816
  133MPD2    C3 2028   3.871   4.399   9.268 -0.4546 -0.4743  0.4938
  133MPD2    C4 2029   3.971   4.417   9.362  0.7878  0.6104 -0.1776
  133MPD2    C5 2030   3.973   4.528   9.443 -0.0246  0.0117 -0.6037
  133MPD2     H 2031   3.667   4.463   9.222 -1.4281 -0.3025  3.2358
  133MPD2    H1 2032   4.059   4.354   9.360 -1.0765 -1.9281 -2.6463
  133MPD2    H2 2033   3.866   4.705   9.505 -0.5317 -1.0489  0.5334
  133MPD2    H3 2034   4.063   4.545   9.500 -1.1576 -0.3745  1.2819
  133MPD2     N 2035   3.871   4.272   9.203 -0.1973 -0.0635  0.4225
  133MPD2    H5 2036   3.949   4.210   9.224 -1.6849 -1.7030  1.1202
  133MPD2    N1 2037   3.664   4.701   9.368 -0.4667  0.6483 -0.0981
  133MPD2    H7 2038   3.683   0.052   9.438  2.4722 -0.7034  0.4862
  134TCq2    C1 2039   3.546   4.709   9.299 -0.4519  0.5864 -0.7226
  134TCq2    O2 2040   3.516   4.663   9.189  0.0173  0.3953 -0.6242
  134TCq2    C2 2041   3.444   0.073   9.368 -0.1297  0.0055  0.4544
  134TCq2    C3 2042   3.323   0.076   9.308 -0.2511  0.9146 -0.0673
  134TCq2    C4 2043   3.209   0.101   9.384  0.1752 -0.5027  0.2940
  134TCq2    C5 2044   3.214   0.133   9.515  0.4820  0.3849 -0.6510
  134TCq2    C6 2045   3.339   0.126   9.574 -0.6601  0.1650  0.5243
  134TCq2    C7 2046   3.452   0.090   9.505 -0.9490 -0.0152 -0.3088
  134TCq2    C8 2047   3.358   0.155   9.713  0.2273  0.1769 -0.2146
  134TCq2    O4 2048   3.465   0.135   9.767 -0.0293  0.1458  0.1118
  134TCq2    C9 2049   3.084   0.100   9.319 -0.3483 -0.3470 -0.4731
  134TCq2    O5 2050   2.977   0.094   9.385  0.4206  0.1157 -0.3294
  134TCq2    O6 2051   3.080   0.088   9.193 -0.5634  0.4461 -0.5478
  134TCq2    H2 2052   3.300   0.054   9.204  2.9166 -0.2530 -0.5374
  134TCq2    H3 2053   3.120   0.165   9.558 -0.2649 -1.3035 -1.0556
  134TCq2    H4 2054   3.543   0.056   9.554 -1.7883  0.2211  1.4260
  135MPD2     C 2055   1.469   4.684   9.705 -0.3530  0.1247 -0.3749
  135MPD2    C1 2056   1.356   4.718   9.628  0.5695  0.4198 -0.4890
  135MPD2    C2 2057   1.292   4.615   9.561  0.3663 -0.4051  0.2104
  135MPD2    C3 2058   1.339   4.490   9.557 -0.3073  0.1298 -0.4942
  135MPD2    C4 2059   1.450   4.458   9.635  0.6141  0.7845  0.1055
  135MPD2    C5 2060   1.515   4.554   9.705 -0.3790  0.5342  0.2867
  135MPD2     H 2061   1.203   4.639   9.503  0.6713 -0.7759 -0.4083
  135MPD2    H1 2062   1.498   4.362   9.624 -1.1740  0.0367 -1.1591
  135MPD2    H2 2063   1.517   0.035   9.771 -2.9901  0.2329  1.4140
  135MPD2    H3 2064   1.585   4.520   9.781 -0.4901  0.4083  0.3344
  135MPD2     N 2065   1.284   4.383   9.478  0.0966  0.5471 -0.0339
  135MPD2    H5 2066   1.326   4.292   9.493 -1.7247 -0.0073  1.6320
  135MPD2    N1 2067   1.302   0.130   9.617  0.2321 -0.3036  0.3239
  135MPD2    H7 2068   1.214   0.140   9.568 -0.0686  0.3845  1.0102
  136TCq2    C1 2069   1.343   0.240   9.690  0.4018 -0.1666  0.4186
  136TCq2    O2 2070   1.448   0.262   9.749  0.1656 -0.7529  0.4068
  136TCq2    C2 2071   1.261   0.351   9.668 -0.0744 -0.3010 -0.5356
  136TCq2    C3 2072   1.319   0.471   9.710  0.6220 -0.3592 -0.6029
  136TCq2    C4 2073   1.231   0.571   9.743  0.0299  0.6474 -0.5239
  136TCq2    C5 2074   1.097   0.558   9.740  0.0434 -0.4136  0.3913
  136TCq2    C6 2075   1.046   0.442   9.701  0.0601  0.2774  0.1580
  136TCq2    C7 2076   1.124   0.336   9.660 -0.1805  0.2015  0.1591
  136TCq2    C8 2077   0.901   0.435   9.681  0.4873 -0.2861 -0.3326
  136TCq2    O4 2078   0.859   0.351   9.600 -0.1212 -0.9625 -0.0006
  136TCq2    C9 2079   1.285   0.705   9.779 -0.0137  0.0601 -0.9206
  136TCq2    O5 2080   1.411   0.718   9.794 -0.1978 -0.7393  0.6581
  136TCq2    O6 2081   1.197   0.798   9.774  0.4482 -0.2014 -0.4156
  136TCq2    H2 2082   1.425   0.491   9.721  0.1268  1.6045  0.4167
  136TCq2    H3 2083   1.023   0.636   9.756 -0.2877 -1.1162  2.1685
  136TCq2    H4 2084   1.081   0.240   9.636  0.5694 -0.1898  0.3790
  137MPD2     C 2085   0.887   3.802  10.611  0.5841 -0.0037 -0.5417
  137MPD2    C1 2086   0.998   3.868  10.569 -0.4375  0.1709 -0.0524
  137MPD2    C2 2087   1.046   3.963  10.653  0.5956 -0.0979  0.8648
  137MPD2    C3 2088   0.984   3.990  10.777 -0.4969 -0.0283 -0.3705
  137MPD2    C4 2089   0.884   3.906  10.825  0.1216 -0.4552 -0.2606
  137MPD2    C5 2090   0.842   3.814  10.735  0.6851 -0.1330 -0.1190
  137MPD2     H 2091   1.127   4.033  10.636  2.4679 -2.9569 -2.0127
  137MPD2    H1 2092   0.828   3.922  10.917  1.4008  3.0663 -0.0720
  137MPD2    H2 2093   0.830   3.740  10.543 -1.0358  1.5196 -0.5851
  137MPD2    H3 2094   0.751   3.760  10.759  1.5197 -2.0804 -1.3357
  137MPD2     N 2095   1.029   4.111  10.836 -0.3641  0.1902  0.5351
  137MPD2    H5 2096   1.070   4.185  10.780 -1.7324 -0.9241 -1.9122
  137MPD2    N1 2097   1.053   3.840  10.440 -0.8834  0.6854  0.4110
  137MPD2    H7 2098   0.997   3.784  10.377  0.2600  1.5993 -1.4309
  138TCq2    C1 2099   1.161   3.911  10.386  0.2183 -0.3197 -0.1375
  138TCq2    O2 2100   1.232   3.999  10.440 -0.2614 -0.1216  0.4848
  138TCq2    C2 2101   1.168   3.889  10.243 -0.0391  0.5654 -0.3664
  138TCq2    C3 2102   1.086   3.799  10.187  0.1164 -0.1423  0.4627
  138TCq2    C4 2103   1.022   3.828  10.071 -0.1078  0.3047  0.0708
  138TCq2    C5 2104   1.049   3.944  10.005 -0.6130 -0.1199  0.5106
  138TCq2    C6 2105   1.133   4.034  10.065 -0.3524 -0.4574  0.2137
  138TCq2    C7 2106   1.204   4.001  10.180 -0.4632  0.4908 -0.2036
  138TCq2    C8 2107   1.096   4.174  10.074  0.3236 -0.3978  0.1715
  138TCq2    O4 2108   1.176   4.250  10.132  0.6893  0.0565  0.3855
  138TCq2    C9 2109   0.918   3.740  10.025 -0.0058  0.0239  0.8412
  138TCq2    O5 2110   0.829   3.794   9.955 -0.1823 -0.0187  0.5473
  138TCq2    O6 2111   0.907   3.630  10.078  0.0369 -0.1610  0.5618
  138TCq2    H2 2112   1.064   3.704  10.236  0.4142 -0.1465  0.5892
  138TCq2    H3 2113   0.994   3.953   9.912  3.4331  2.6376 -1.6223
  138TCq2    H4 2114   1.262   4.079  10.227 -1.1786  1.2373 -0.5687
  139TMC2    C1 2115   1.137   2.784  13.624  0.6146  0.4780  0.5349
  139TMC2    C2 2116   1.079   2.741  13.506 -0.1997 -0.4395  0.4291
  139TMC2    C3 2117   0.966   2.814  13.467 -0.5731 -0.3221  0.2184
  139TMC2    C4 2118   1.088   2.880  13.706 -0.3210  0.1884 -0.2949
  139TMC2    C5 2119   0.973   2.941  13.663  0.4694 -0.0213  0.4660
  139TMC2    C6 2120   0.916   2.914  13.544 -0.2255 -0.4011  0.7816
  139TMC2     C 2121   1.275   2.755  13.645  0.1978  0.4820 -0.4105
  139TMC2     O 2122   1.308   2.644  13.608 -0.1196  0.4144  0.1086
  139TMC2     H 2123   1.134   2.669  13.448 -0.7294  0.4748 -1.1909
  139TMC2    H1 2124   1.128   2.901  13.805 -0.6969 -4.5767  0.8811
  139TMC2    H2 2125   0.825   2.956  13.503 -0.0120  0.6608  1.4245
  139TMC2    C7 2126   0.894   3.024  13.761  0.1163  0.3524 -0.1733
  139TMC2    C8 2127   0.906   2.775  13.348 -0.4029 -0.3079 -0.0406
  139TMC2    O1 2128   0.776   3.027  13.725 -0.7009  0.8885  0.1881
  139TMC2    O2 2129   0.789   2.750  13.337  0.4141 -0.4096 -0.0742
  139TMC2    O5 2130   0.987   2.805  13.243 -0.0973 -0.5653  0.6660
  139TMC2    H5 2131   1.078   2.824  13.275  0.0778 -0.2837 -0.0023
  140MPD2     C 2132   1.583   2.948  13.743  0.5676  0.2073 -0.0108
  140MPD2    C1 2133   1.496   2.859  13.678  0.2726 -0.3153 -0.0390
  140MPD2    C2 2134   1.561   2.800  13.573  0.4981 -0.6329  0.6306
  140MPD2    C3 2135   1.696   2.807  13.547  0.1575  0.9456  0.5790
  140MPD2    C4 2136   1.773   2.869  13.640  0.5041  0.2125 -0.3013
  140MPD2    C5 2137   1.718   2.956  13.729 -0.3266 -0.2044 -0.3242
  140MPD2     H 2138   1.495   2.759  13.498 -2.1650  1.4156  1.8696
  140MPD2    H1 2139   1.881   2.879  13.633  0.6425 -1.1158  0.0512
  140MPD2    H2 2140   1.546   3.008  13.826 -0.6478  0.0233 -0.4142
  140MPD2    H3 2141   1.780   3.023  13.788 -1.1396  0.6985 -0.4974
  140MPD2     N 2142   1.749   2.753  13.432 -0.2148  0.1936  0.1157
  140MPD2    H5 2143   1.691   2.687  13.381  0.9312 -1.3876  0.8590
  140MPD2    N1 2144   1.354   2.858  13.685 -0.1883  0.2193 -0.2628
  140MPD2    H7 2145   1.312   2.943  13.722 -2.2790 -0.6961 -0.4844
  141TCq2    C1 2146   1.317   4.256  14.026 -0.0345  1.0548  0.3120
  141TCq2    O2 2147   1.363   4.324  13.939  0.4132  0.1490 -0.3902
  141TCq2    C2 2148   1.367   4.286  14.166 -0.3137  0.3611 -0.2807
  141TCq2    C3 2149   1.364   4.186  14.262  0.2542  0.2850  0.3054
  141TCq2    C4 2150   1.409   4.221  14.387 -0.3442 -0.1342 -0.2994
  141TCq2    C5 2151   1.445   4.355  14.419 -0.1291  0.2189  0.3196
  141TCq2    C6 2152   1.425   4.447  14.321  0.0524  0.7139  0.4621
  141TCq2    C7 2153   1.390   4.413  14.190 -0.2050  0.0220 -0.5882
  141TCq2    C8 2154   1.491   4.577  14.336  0.4176  0.3855 -0.2513
  141TCq2    O4 2155   1.464   4.672  14.263  0.0682  0.5659  0.5645
  141TCq2    C9 2156   1.442   4.114  14.482  0.3433  0.1783 -0.0590
  141TCq2    O5 2157   1.507   4.151  14.580  0.3838 -0.5160  0.2034
  141TCq2    O6 2158   1.447   4.005  14.426 -0.3373 -0.1422  0.5405
  141TCq2    H2 2159   1.346   4.084  14.230 -0.7341  1.1877 -1.9624
  141TCq2    H3 2160   1.465   4.384  14.521  2.9148  0.0485 -0.2097
  141TCq2    H4 2161   1.360   4.490  14.120  0.0136  1.5375  0.9782
  142MPD2     C 2162   0.211   2.782  10.286 -0.1938  0.3656 -0.7653
  142MPD2    C1 2163   0.122   2.805  10.179 -0.0179 -0.3881 -0.4738
  142MPD2    C2 2164   0.163   2.886  10.076  0.0124 -0.6423  0.0664
  142MPD2    C3 2165   0.293   2.937  10.079  0.2917  0.2353 -0.5271
  142MPD2    C4 2166   0.381   2.899  10.175  0.1721  0.6686 -0.4594
  142MPD2    C5 2167   0.336   2.820  10.281 -0.9368  0.0056  0.6969
  142MPD2     H 2168   0.085   2.928  10.014 -1.1830 -1.5048  0.9868
  142MPD2    H1 2169   0.485   2.930  10.180  0.2491  0.5960 -1.6331
  142MPD2    H2 2170   0.183   2.712  10.363 -0.0089 -0.1381 -1.1566
  142MPD2    H3 2171   0.402   2.793  10.364  1.2032  0.4982 -0.8366
  142MPD2     N 2172   0.341   3.027   9.983  0.7146 -0.5715  0.2453
  142MPD2    H5 2173   0.429   3.075   9.999  1.5306 -1.8113 -0.4277
  142MPD2    N1 2174   4.716   2.742  10.195  0.4131 -0.2939  0.0445
  142MPD2    H7 2175   4.699   2.704  10.288 -1.9294  0.2649 -0.1429
  143TCq2    C1 2176   0.263   3.068   9.871  0.0877  0.1991  0.3127
  143TCq2    O2 2177   0.161   3.011   9.832  0.1975 -0.4390 -0.3365
  143TCq2    C2 2178   0.317   3.185   9.804 -0.9033 -0.3844 -0.3108
  143TCq2    C3 2179   0.419   3.261   9.857  0.1819 -0.3190 -0.9296
  143TCq2    C4 2180   0.470   3.369   9.788  0.9277 -0.7147 -0.4679
  143TCq2    C5 2181   0.429   3.396   9.659  0.7078 -0.1533 -0.5422
  143TCq2    C6 2182   0.328   3.318   9.613 -0.8273  0.3333  0.3563
  143TCq2    C7 2183   0.265   3.215   9.677  0.0928  0.6589 -0.3597
  143TCq2    C8 2184   0.274   3.350   9.480  0.1455 -0.3805 -0.5555
  143TCq2    O4 2185   0.347   3.398   9.393 -0.6274  0.0711  0.1314
  143TCq2    C9 2186   0.553   3.461   9.860  0.2508 -0.9528  0.4936
  143TCq2    O5 2187   0.583   3.573   9.811 -0.4787 -0.0326 -0.1176
  143TCq2    O6 2188   0.598   3.427   9.972  0.3428  0.1423  0.5890
  143TCq2    H2 2189   0.446   3.255   9.962 -1.0264  2.1404 -0.4870
  143TCq2    H3 2190   0.464   3.473   9.591 -0.7626 -0.1685 -1.3206
  143TCq2    H4 2191   0.180   3.161   9.637 -0.8181  1.7834  0.0496
  144MPD2     C 2192   1.867   2.775   0.988  0.9888  0.4250 -0.0746
  144MPD2    C1 2193   1.900   2.644   0.957  0.0921 -0.4486  0.0883
  144MPD2    C2 2194   2.034   2.606   0.965  0.1991 -0.1173 -0.1980
  144MPD2    C3 2195   2.128   2.691   1.021  0.2419  0.5375 -0.1650
  144MPD2    C4 2196   2.090   2.819   1.062 -0.3295  0.3860  0.0968
  144MPD2    C5 2197   1.958   2.860   1.045 -0.4168  0.1509 -0.2215
  144MPD2     H 2198   2.062   2.505   0.935  1.6602  0.0931  0.4715
  144MPD2    H1 2199   2.166   2.889   1.097  0.5029 -0.3151 -0.2906
  144MPD2    H2 2200   1.771   2.825   0.984  0.7348  0.0804  1.5326
  144MPD2    H3 2201   1.938   2.966   1.056 -1.1847 -0.5577  4.9434
  144MPD2     N 2202   2.265   2.655   1.046  0.1807 -0.2045  0.0703
  144MPD2    H5 2203   2.322   2.715   1.104  0.2917 -0.9445  0.7185
  144MPD2    N1 2204   1.805   2.550   0.914 -0.0613  0.3756  0.2905
  144MPD2    H7 2205   1.841   2.464   0.875 -0.6818 -0.4151  1.4699
  145TCq2    C1 2206   2.326   2.542   0.999  0.5734 -0.7888 -0.1563
  145TCq2    O2 2207   2.273   2.456   0.930 -0.2562 -0.0082 -0.3702
  145TCq2    C2 2208   2.461   2.516   1.047  0.5028  0.2471 -0.5444
  145TCq2    C3 2209   2.529   2.408   0.999 -0.5006  0.3324 -0.2694
  145TCq2    C4 2210   2.642   2.374   1.063 -0.4984 -0.5041  0.5913
  145TCq2    C5 2211   2.701   2.451   1.152  0.9085 -0.1912  0.1087
  145TCq2    C6 2212   2.628   2.554   1.203  0.5429 -0.2085 -0.1324
  145TCq2    C7 2213   2.502   2.584   1.153  0.6467  0.1488 -0.0626
  145TCq2    C8 2214   2.678   2.613   1.326  0.2277  0.7742  0.9897
  145TCq2    O4 2215   2.765   2.552   1.389  0.7022  0.0397 -0.3552
  145TCq2    C9 2216   2.705   2.252   1.026 -0.3118 -0.0293 -0.0391
  145TCq2    O5 2217   2.803   2.217   1.101  0.5310  0.6001 -0.7576
  145TCq2    O6 2218   2.661   2.189   0.926 -0.6377 -0.5537 -0.0571
  145TCq2    H2 2219   2.483   2.345   0.924 -0.2416  0.6914 -0.7235
  145TCq2    H3 2220   2.791   2.420   1.203  0.8438 -0.9611 -0.2363
  145TCq2    H4 2221   2.436   2.653   1.205 -0.5004 -1.6907  0.9197
  146TMC2    C1 2222   4.181   0.518  12.258  0.3402 -0.1057  1.3323
  146TMC2    C2 2223   4.237   0.522  12.132 -0.2453  0.7885  0.0471
  146TMC2    C3 2224   4.373   0.525  12.109  0.0263 -0.0302  0.9889
  146TMC2    C4 2225   4.269   0.508  12.366 -0.0003 -0.4864 -0.4099
  146TMC2    C5 2226   4.409   0.506  12.345  0.1197  0.4580  0.0255
  146TMC2    C6 2227   4.457   0.521  12.217  0.0661  0.2086 -0.2501
  146TMC2     C 2228   4.044   0.475  12.259  0.5648  0.2355  0.3032
  146TMC2     O 2229   3.986   0.442  12.153 -0.1968 -0.2366  0.2641
  146TMC2     H 2230   4.173   0.530  12.045 -2.3036 -1.4543  1.3758
  146TMC2    H1 2231   4.239   0.504  12.470  1.4381 -0.4876  0.0098
  146TMC2    H2 2232   4.565   0.524  12.210  0.0294  0.7516 -0.5676
  146TMC2    C7 2233   4.511   0.470  12.448  0.6759  1.0552 -0.1653
  146TMC2    C8 2234   4.421   0.571  11.977  0.0652 -0.2425  0.0162
  146TMC2    O1 2235   4.633   0.482  12.421  0.3538  0.5294  0.0396
  146TMC2    O2 2236   4.350   0.606  11.886 -0.3514  0.3320  0.5154
  146TMC2    O5 2237   4.553   0.555  11.973 -1.1084 -0.3839  0.1961
  146TMC2    H5 2238   4.589   0.492  12.039 -0.4302 -0.7343 -0.5081
  147MPD2     C 2239   4.684   0.384  12.928 -0.7074 -0.8013 -0.6563
  147MPD2    C1 2240   4.566   0.314  12.913 -0.1840 -0.2220  0.2921
  147MPD2    C2 2241   4.497   0.326  12.791  0.5222 -0.7113  0.0875
  147MPD2    C3 2242   4.536   0.413  12.689  0.6661 -0.0932 -0.1611
  147MPD2    C4 2243   4.647   0.487  12.714 -0.1063  0.3222 -0.3969
  147MPD2    C5 2244   0.006   0.464  12.823 -0.0415  0.1108 -0.1564
  147MPD2     H 2245   4.392   0.298  12.786  0.8128 -1.4720 -1.7873
  147MPD2    H1 2246   4.680   0.569  12.651  1.3403 -0.0731 -0.1536
  147MPD2    H2 2247   0.018   0.384  13.023  0.7229  2.3032 -1.4690
  147MPD2    H3 2248   0.091   0.527  12.847 -0.5145  0.1747  1.3101
  147MPD2     N 2249   4.455   0.421  12.569  0.0262  0.3726  0.4082
  147MPD2    H5 2250   4.361   0.382  12.578  0.6034 -1.2522 -0.5219
  147MPD2    N1 2251   4.526   0.222  13.011 -0.1248 -0.7005  0.0063
  147MPD2    H7 2252   4.585   0.221  13.094 -1.1081 -2.0632  0.6976
  148MPD2     C 2253   4.374   3.945  10.142 -0.3121  0.2056 -0.5386
  148MPD2    C1 2254   4.412   3.813  10.150  0.2425 -0.7372  0.2006
  148MPD2    C2 2255   4.319   3.715  10.165 -0.3364 -0.5709  0.0133
  148MPD2    C3 2256   4.183   3.747  10.169 -0.1996  0.0290  0.0917
  148MPD2    C4 2257   4.146   3.878  10.136  0.2964  0.1710 -0.2516
  148MPD2    C5 2258   4.239   3.975  10.136  0.4405  0.8714 -0.4938
  148MPD2     H 2259   4.355   3.616  10.192  1.8826 -0.4139 -2.3746
  148MPD2    H1 2260   4.043   3.910  10.129  0.0649 -0.4850  0.1226
  148MPD2    H2 2261   4.442   4.029  10.137 -0.3673  0.4126  2.6562
  148MPD2    H3 2262   4.212   4.079  10.119  0.9294  1.3110  1.3573
  148MPD2     N 2263   4.074   3.653  10.176 -0.4271 -0.1471  0.0372
  148MPD2    H5 2264   3.979   3.686  10.161 -0.4643  0.7571  2.2775
  148MPD2    N1 2265   4.543   3.764  10.139  0.3548 -0.1286  0.3716
  148MPD2    H7 2266   4.552   3.664  10.149  1.1667 -0.0486  0.4874
  149TCq2    C1 2267   4.656   3.841  10.140  0.6165  0.1990 -0.6195
  149TCq2    O2 2268   4.662   3.960  10.156 -0.2171  0.5283 -0.1741
  149TCq2    C2 2269   0.060   3.772  10.104 -0.2283  0.9469  0.7215
  149TCq2    C3 2270   0.179   3.837  10.120  0.0274 -0.1724 -0.7809
  149TCq2    C4 2271   0.297   3.769  10.090  0.7161  0.0236 -0.3720
  149TCq2    C5 2272   0.299   3.636  10.058 -1.1383 -0.2144  0.1609
  149TCq2    C6 2273   0.179   3.585  10.017  0.2824  0.0621 -0.3144
  149TCq2    C7 2274   0.059   3.648  10.046  0.6287 -0.0741  0.3351
  149TCq2    C8 2275   0.175   3.445   9.991  0.3416  0.2453 -0.2188
  149TCq2    O4 2276   0.089   3.418   9.909 -0.1717 -0.0324 -0.2235
  149TCq2    C9 2277   0.422   3.830  10.135  0.2354 -0.2135 -0.6560
  149TCq2    O5 2278   0.417   3.922  10.223 -0.6567 -0.0153  0.3645
  149TCq2    O6 2279   0.526   3.797  10.074  0.5878  0.4730 -0.5548
  149TCq2    H2 2280   0.186   3.937  10.162 -4.2146 -0.9946  1.8921
  149TCq2    H3 2281   0.392   3.582  10.055 -0.9110  0.2250 -0.9231
  149TCq2    H4 2282   4.686   3.595  10.033  1.2330 -0.6220 -1.7832
  150MPD2     C 2283   0.395   3.358  12.112  0.5787  0.4581 -0.1240
  150MPD2    C1 2284   0.473   3.328  11.999  0.4035 -1.0014 -0.2368
  150MPD2    C2 2285   0.607   3.359  12.007  0.0601 -0.1989  0.6695
  150MPD2    C3 2286   0.668   3.423  12.110 -0.6739 -0.6792 -0.0048
  150MPD2    C4 2287   0.590   3.463  12.217 -0.3603  0.3737 -0.6599
  150MPD2    C5 2288   0.460   3.426  12.219 -0.0986  0.9820  0.0779
  150MPD2     H 2289   0.673   3.327  11.927  0.1559  0.3487  0.5294
  150MPD2    H1 2290   0.632   3.521  12.299  3.5781  2.4171 -4.0970
  150MPD2    H2 2291   0.289   3.336  12.112  0.6865 -0.0919 -1.4939
  150MPD2    H3 2292   0.404   3.457  12.307  1.0129 -3.6644  2.4260
  150MPD2     N 2293   0.804   3.462  12.085 -0.4173 -0.6416  0.5532
  150MPD2    H5 2294   0.849   3.428  12.000 -0.5000  0.1215  0.2047
  150MPD2    N1 2295   0.431   3.258  11.885 -0.6561 -0.1278 -0.4990
  150MPD2    H7 2296   0.336   3.222  11.882 -0.7319  0.1707 -1.5860
  151TCq2    C1 2297   0.881   3.532  12.177 -0.0313  0.4439  0.2209
  151TCq2    O2 2298   0.854   3.575  12.288  0.4143  0.1443  0.2742
  151TCq2    C2 2299   1.012   3.574  12.113  0.0312  0.1111  0.1788
  151TCq2    C3 2300   1.040   3.548  11.978 -0.0992 -0.1005  0.1755
  151TCq2    C4 2301   1.167   3.584  11.931  0.0357  0.3939 -0.6308
  151TCq2    C5 2302   1.260   3.629  12.014  0.5405  0.2080 -0.2702
  151TCq2    C6 2303   1.232   3.649  12.143  0.1501 -0.1212  0.9494
  151TCq2    C7 2304   1.105   3.626  12.194 -0.6398 -0.6651  0.2320
  151TCq2    C8 2305   1.333   3.687  12.238 -1.0934  0.1660 -0.3269
  151TCq2    O4 2306   1.327   3.796  12.287  0.1425  0.4019  0.5190
  151TCq2    C9 2307   1.195   3.570  11.787 -0.3535  0.7498  0.5262
  151TCq2    O5 2308   1.312   3.587  11.746  0.3737 -0.0539  0.1495
  151TCq2    O6 2309   1.088   3.548  11.718 -0.1002 -0.1022  0.0627
  151TCq2    H2 2310   0.973   3.499  11.909  0.1855  0.0267 -0.1897
  151TCq2    H3 2311   1.357   3.662  11.978  1.8223 -2.0146  1.1382
  151TCq2    H4 2312   1.087   3.643  12.300 -0.3124  1.9831 -0.1275
  152MPD2     C 2313   0.147   2.687  12.762  0.0062 -0.5307  0.4556
  152MPD2    C1 2314   0.186   2.811  12.713  0.0886 -0.1285 -0.0408
  152MPD2    C2 2315   0.085   2.902  12.683 -0.4988 -0.8783 -0.1612
  152MPD2    C3 2316   4.670   2.884  12.710 -0.6312 -0.2518  0.1289
  152MPD2    C4 2317   4.635   2.761  12.767  1.0713  0.1898  0.3220
  152MPD2    C5 2318   0.008   2.667  12.789 -1.0821  0.6671  0.6447
  152MPD2     H 2319   0.103   2.989  12.622  1.4735 -0.1621  1.4530
  152MPD2    H1 2320   4.532   2.743  12.797  1.8665 -1.1302  2.3140
  152MPD2    H2 2321   0.211   2.603  12.788  0.8086  0.0982  0.4950
  152MPD2    H3 2322   4.704   2.574  12.838  0.3547  0.7070  1.4509
  152MPD2     N 2323   4.574   2.976  12.664 -0.4002  0.3163  0.2834
  152MPD2    H5 2324   4.621   3.055  12.620  0.4395 -1.8017 -2.6108
  152MPD2    N1 2325   0.326   2.834  12.701  0.5948 -0.5294 -0.0377
  152MPD2    H7 2326   0.392   2.756  12.706  1.4358  0.1384 -0.5428
  153TCq2    C1 2327   0.374   2.959  12.667 -0.2655 -0.1209  0.2629
  153TCq2    O2 2328   0.316   3.066  12.650  0.3934 -0.2058  0.3510
  153TCq2    C2 2329   0.515   2.960  12.658 -1.1550  0.6985  0.2583
  153TCq2    C3 2330   0.583   2.852  12.717  0.2103 -0.0567 -0.4816
  153TCq2    C4 2331   0.716   2.858  12.722  0.2882  0.0014 -0.6252
  153TCq2    C5 2332   0.779   2.969  12.694 -0.4061  0.2175  0.3493
  153TCq2    C6 2333   0.712   3.083  12.652  0.4294 -0.1999  0.6125
  153TCq2    C7 2334   0.580   3.081  12.631 -0.0790  0.1403 -0.2040
  153TCq2    C8 2335   0.789   3.193  12.591 -0.1119 -0.0330  0.0189
  153TCq2    O4 2336   0.730   3.251  12.498 -0.6207  0.0054  0.8074
  153TCq2    C9 2337   0.792   2.745  12.761  0.1004  0.2331 -0.3273
  153TCq2    O5 2338   0.917   2.776  12.768 -0.6868 -0.4128 -0.0262
  153TCq2    O6 2339   0.746   2.630  12.730 -0.4529 -0.2815 -0.0916
  153TCq2    H2 2340   0.546   2.755  12.750  0.3528  0.1802  0.3953
  153TCq2    H3 2341   0.887   2.972  12.701 -0.3125  3.2247 -2.2753
  153TCq2    H4 2342   0.525   3.169  12.600 -1.4370 -0.3826  0.7260
  154MPD2     C 2343   2.006   3.452  17.672  0.0460  0.3696 -0.1720
  154MPD2    C1 2344   1.984   3.445   0.129 -0.9401  0.1750 -0.6033
  154MPD2    C2 2345   1.910   3.551   0.179  0.4520  0.1041  0.6881
  154MPD2    C3 2346   1.858   3.653   0.103 -0.3742  0.8154  0.7967
  154MPD2    C4 2347   1.866   3.639  17.652 -0.1789  0.4025  0.2053
  154MPD2    C5 2348   1.949   3.544  17.597 -0.6769  0.0690  0.0199
  154MPD2     H 2349   1.878   3.546   0.283 -0.0228 -1.5229  0.4743
  154MPD2    H1 2350   1.802   3.692  17.582  2.5221  1.6149 -1.3243
  154MPD2    H2 2351   2.069   3.380  17.619  1.0273  2.0294 -1.2698
  154MPD2    H3 2352   1.971   3.545  17.491  0.2480  1.4824  0.2240
  154MPD2     N 2353   1.807   3.765   0.179  0.4746  0.3521  0.5408
  154MPD2    H5 2354   1.806   3.755   0.280 -1.0959 -0.0824  0.4793
  154MPD2    N1 2355   2.052   3.348   0.208 -0.6093  0.8230  0.5444
  154MPD2    H7 2356   2.107   3.278   0.159 -1.6534  0.2802  0.1557
  155TCq2    C1 2357   2.070   3.352   0.343  0.3600  0.2945 -0.3544
  155TCq2    O2 2358   2.024   3.434   0.419  0.4103  0.0231  0.1254
  155TCq2    C2 2359   2.175   3.262   0.397 -0.2799 -0.4401 -0.5918
  155TCq2    C3 2360   2.210   3.299   0.521 -0.2828  0.2353  0.5324
  155TCq2    C4 2361   2.260   3.199   0.600  0.9268  0.2603  0.7073
  155TCq2    C5 2362   2.285   3.072   0.560  0.0146 -0.5405 -0.3223
  155TCq2    C6 2363   2.243   3.040   0.429  0.0163 -0.2734  0.3104
  155TCq2    C7 2364   2.183   3.135   0.352  0.0010 -0.6216 -0.1053
  155TCq2    C8 2365   2.273   2.910   0.370 -0.7051  0.3459 -0.1995
  155TCq2    O4 2366   2.245   2.898   0.251  0.5094 -0.3749 -0.2044
  155TCq2    C9 2367   2.308   3.234   0.731  0.1982 -0.3542 -1.1994
  155TCq2    O5 2368   2.258   3.334   0.780 -0.2329 -0.9697 -0.2841
  155TCq2    O6 2369   2.384   3.153   0.795  0.0986  0.2316 -0.5935
  155TCq2    H2 2370   2.204   3.401   0.556  1.9043  0.8365 -0.8691
  155TCq2    H3 2371   2.333   3.004   0.630 -1.9144  1.3995  2.9134
  155TCq2    H4 2372   2.132   3.114   0.259 -0.5782  0.2941  0.0031
  156MPD2     C 2373   1.093   0.337  11.922  0.4633 -0.1201  0.6291
  156MPD2    C1 2374   1.077   0.471  11.882 -0.2039 -0.4029 -0.2250
  156MPD2    C2 2375   1.142   0.572  11.951 -0.3582 -0.1354 -0.5625
  156MPD2    C3 2376   1.228   0.539  12.052  0.3324 -0.2936 -0.0486
  156MPD2    C4 2377   1.252   0.409  12.088  0.3210 -0.0961  0.8062
  156MPD2    C5 2378   1.175   0.312  12.029  0.0857  0.1761  0.8683
  156MPD2     H 2379   1.125   0.675  11.925 -1.8829  0.1757  1.6287
  156MPD2    H1 2380   1.331   0.368  12.151  1.2387 -1.0650 -0.9575
  156MPD2    H2 2381   1.043   0.260  11.865  2.7943 -2.3618  1.5832
  156MPD2    H3 2382   1.199   0.211  12.060 -0.7828 -0.0208  0.9102
  156MPD2     N 2383   1.297   0.649  12.110 -0.0196  0.2065  0.5894
  156MPD2    H5 2384   1.292   0.733  12.052 -2.0725 -0.0005  0.4765
  156MPD2    N1 2385   1.008   0.492  11.759 -0.3065  0.2281  0.4581
  156MPD2    H7 2386   0.985   0.411  11.702 -1.8937 -0.3817  1.9546
  157TCq2    C1 2387   0.989   0.617  11.699 -0.2089  0.4343  0.2547
  157TCq2    O2 2388   1.009   0.731  11.740 -0.0914 -0.3120 -0.3285
  157TCq2    C2 2389   0.908   0.605  11.578 -0.5600  0.3747 -0.1949
  157TCq2    C3 2390   0.844   0.493  11.551  0.1521  0.2069 -0.5369
  157TCq2    C4 2391   0.784   0.491  11.431  0.3847 -0.6710 -0.2862
  157TCq2    C5 2392   0.787   0.595  11.342  0.2723  0.3155 -0.1367
  157TCq2    C6 2393   0.859   0.704  11.378 -0.3704 -0.3185 -0.2653
  157TCq2    C7 2394   0.924   0.712  11.497 -1.0648 -0.5530 -0.5260
  157TCq2    C8 2395   0.814   0.831  11.334 -0.1449  0.4855  0.7260
  157TCq2    O4 2396   0.861   0.930  11.387  0.2038 -0.1084  0.2467
  157TCq2    C9 2397   0.689   0.390  11.396 -0.1898 -0.5918 -0.1712
  157TCq2    O5 2398   0.625   0.402  11.290 -0.1303 -0.2003  0.3639
  157TCq2    O6 2399   0.681   0.296  11.483 -0.2945  0.0908 -0.0286
  157TCq2    H2 2400   0.827   0.420  11.629 -0.7237  0.9586 -0.0278
  157TCq2    H3 2401   0.733   0.582  11.248 -1.4284 -0.8052  0.9918
  157TCq2    H4 2402   0.980   0.799  11.530 -2.3619  0.4064 -0.8382
  158TMC2    C1 2403   0.759   4.190  13.393  0.9589 -0.1493 -0.7485
  158TMC2    C2 2404   0.792   4.241  13.269  0.0930  0.0868 -0.1317
  158TMC2    C3 2405   0.732   4.191  13.161  0.8294  0.2635 -0.1957
  158TMC2    C4 2406   0.670   4.087  13.409  0.3367 -0.1911 -0.0518
  158TMC2    C5 2407   0.606   4.053  13.296  0.0257 -0.5622 -0.3650
  158TMC2    C6 2408   0.632   4.107  13.175 -1.1620 -0.1321 -0.3623
  158TMC2     C 2409   0.833   4.247  13.504 -0.3229  0.1311  0.2574
  158TMC2     O 2410   0.940   4.298  13.476  0.0518 -0.1527 -0.1606
  158TMC2     H 2411   0.862   4.323  13.256  0.2651  0.0580  0.5924
  158TMC2    H1 2412   0.647   4.036  13.502  1.1721  1.1538  0.8826
  158TMC2    H2 2413   0.583   4.053  13.094 -0.0316 -2.2582  0.3450
  158TMC2    C7 2414   0.475   3.989  13.312  0.1784 -0.2369  0.7069
  158TMC2    C8 2415   0.708   4.283  13.051 -0.0636 -0.5224 -0.0470
  158TMC2    O1 2416   0.389   4.016  13.230 -0.0096 -0.0439  0.3554
  158TMC2    O2 2417   0.679   4.402  13.068  0.3691  0.4623  0.4221
  158TMC2    O5 2418   0.725   4.216  12.938  0.0754  0.1175 -0.0842
  158TMC2    H5 2419   0.760   4.126  12.957 -0.5907 -0.1546 -0.1498
  159MPD2     C 2420   0.892   4.398  13.992 -0.5423 -0.6837  0.7053
  159MPD2    C1 2421   0.764   4.340  13.984 -0.8329 -0.1361  0.3117
  159MPD2    C2 2422   0.731   4.280  13.860 -0.9330  0.4399 -0.3682
  159MPD2    C3 2423   0.813   4.294  13.749 -0.0361 -0.7164 -0.4819
  159MPD2    C4 2424   0.941   4.354  13.763 -0.1714  0.5658 -0.6648
  159MPD2    C5 2425   0.974   4.410  13.880  0.2444 -0.1270 -0.3755
  159MPD2     H 2426   0.636   4.229  13.854 -0.6069 -0.2962  0.8579
  159MPD2    H1 2427   1.008   4.342  13.678  3.2452 -0.0143  2.1439
  159MPD2    H2 2428   0.938   4.436  14.083  2.5250  0.4954 -1.3265
  159MPD2    H3 2429   1.073   4.452  13.892 -0.2811  0.3608  2.2794
  159MPD2     N 2430   0.771   4.241  13.624  0.3676 -0.0465  0.0705
  159MPD2    H5 2431   0.680   4.195  13.632  0.4074  0.3151  2.7828
  159MPD2    N1 2432   0.694   4.327  14.102  0.2318  0.2010  0.6099
  159MPD2    H7 2433   0.724   4.390  14.176  0.4288  0.9718 -0.1134
  160TMC2    C1 2434   1.315   2.800   1.676 -0.2813  0.1962  0.8598
  160TMC2    C2 2435   1.443   2.762   1.708 -0.1126 -0.3308  0.0785
  160TMC2    C3 2436   1.536   2.807   1.620  0.3367  0.8213  0.0695
  160TMC2    C4 2437   1.277   2.871   1.568  0.1697 -0.5268  0.8856
  160TMC2    C5 2438   1.375   2.891   1.480  0.8489 -0.5451  0.2096
  160TMC2    C6 2439   1.505   2.855   1.497 -0.4384 -0.6712 -0.6778
  160TMC2     C 2440   1.212   2.743   1.762  0.5987  0.1266  0.5652
  160TMC2     O 2441   1.249   2.672   1.854  0.3736 -0.0160 -0.0427
  160TMC2     H 2442   1.456   2.713   1.803 -1.0374 -1.3420 -0.3170
  160TMC2    H1 2443   1.177   2.910   1.556  0.7257  0.1828 -1.5192
  160TMC2    H2 2444   1.580   2.895   1.429  0.4774 -0.7222  0.2801
  160TMC2    C7 2445   1.325   2.964   1.362  0.5341 -0.1365 -0.1981
  160TMC2    C8 2446   1.676   2.778   1.647  0.7190  0.5595  0.3194
  160TMC2    O1 2447   1.203   2.946   1.335 -0.1356  0.1667  0.3459
  160TMC2    O2 2448   1.754   2.739   1.559 -0.6166  0.1242  0.3655
  160TMC2    O5 2449   1.694   2.762   1.781  0.0540  0.1692  0.0813
  160TMC2    H5 2450   1.624   2.797   1.840 -0.0031 -1.1348  0.7921
  161MPD2     C 2451   0.932   2.633   1.870 -0.5471 -0.6483 -0.7397
  161MPD2    C1 2452   0.958   2.729   1.769  0.5073  0.1506 -0.5548
  161MPD2    C2 2453   0.856   2.804   1.717  0.1500 -0.2080 -0.6812
  161MPD2    C3 2454   0.727   2.793   1.765  0.0374 -0.4308  0.7554
  161MPD2    C4 2455   0.706   2.706   1.865  0.7510 -0.6323 -0.4258
  161MPD2    C5 2456   0.810   2.630   1.922  1.2667 -0.2262 -0.3461
  161MPD2     H 2457   0.874   2.864   1.629  0.5023 -2.0027 -1.8290
  161MPD2    H1 2458   0.607   2.684   1.903  1.5555 -1.5566  1.1495
  161MPD2    H2 2459   1.011   2.572   1.913 -1.1380 -0.6365  0.3344
  161MPD2    H3 2460   0.778   2.552   1.990 -0.5858  1.3865  0.6712
  161MPD2     N 2461   0.612   2.852   1.703 -0.0362 -0.6818  0.9033
  161MPD2    H5 2462   0.522   2.825   1.741 -0.9403 -0.1735 -0.8700
  161MPD2    N1 2463   1.087   2.759   1.708  0.1919 -0.1996 -0.4700
  161MPD2    H7 2464   1.085   2.810   1.620  2.6483  2.5976  1.1043
  162TMC2    C1 2465   3.050   4.096   1.387  1.1619 -0.0856  0.5838
  162TMC2    C2 2466   2.938   4.168   1.421 -1.1853 -0.1890 -0.6836
  162TMC2    C3 2467   2.912   4.189   1.551 -0.6812 -0.0607  0.0403
  162TMC2    C4 2468   3.132   4.035   1.473  0.2707  0.4168 -0.0383
  162TMC2    C5 2469   3.100   4.050   1.606  0.2505 -0.4110  0.0290
  162TMC2    C6 2470   2.993   4.132   1.646 -0.4279 -0.9890 -0.7541
  162TMC2     C 2471   3.069   4.063   1.246  0.4560 -0.8220 -0.7322
  162TMC2     O 2472   3.178   4.019   1.215 -0.4802  0.0752 -0.4995
  162TMC2     H 2473   2.892   4.228   1.344 -0.3887 -0.0675 -1.0649
  162TMC2    H1 2474   3.223   3.982   1.444 -0.0092  0.5165 -1.0937
  162TMC2    H2 2475   2.982   4.138   1.754  1.2327  0.0850 -0.6421
  162TMC2    C7 2476   3.209   4.033   1.702  0.1345  0.3973  0.0388
  162TMC2    C8 2477   2.816   4.286   1.597  0.8869  0.2266 -0.1251
  162TMC2    O1 2478   3.210   4.109   1.797  0.3262 -0.3847 -0.2842
  162TMC2    O2 2479   2.828   4.339   1.709 -0.1519  0.2190 -0.1045
  162TMC2    O5 2480   2.715   4.298   1.517 -0.0100  0.3361  0.0470
  162TMC2    H5 2481   2.709   4.248   1.433  3.7385 -2.1058  1.2715
  163MPD2     C 2482   2.938   4.023   0.744 -0.4561 -0.2086  0.2698
  163MPD2    C1 2483   3.046   3.972   0.817  0.3592  0.5730 -0.2369
  163MPD2    C2 2484   3.049   3.986   0.956  0.8058 -1.2110 -0.3682
  163MPD2    C3 2485   2.946   4.044   1.023 -0.2237  0.2620  0.0318
  163MPD2    C4 2486   2.839   4.087   0.953 -0.1739 -0.3784 -0.7247
  163MPD2    C5 2487   2.835   4.074   0.819 -0.2231 -0.0925 -0.4590
  163MPD2     H 2488   3.141   3.961   1.006 -0.2259 -0.5656  1.8611
  163MPD2    H1 2489   2.762   4.140   1.007 -0.1066 -0.9441 -0.0666
  163MPD2    H2 2490   2.932   4.031   0.636  0.0073 -0.3742  0.2331
  163MPD2    H3 2491   2.749   4.119   0.771 -2.3906 -1.6646  1.9793
  163MPD2     N 2492   2.956   4.075   1.161  0.5332 -0.6712  0.0147
  163MPD2    H5 2493   2.868   4.101   1.205  0.8778  0.9059 -0.2162
  163MPD2    N1 2494   3.157   3.932   0.741 -0.4280 -0.6336  0.4944
  163MPD2    H7 2495   3.153   3.965   0.646 -1.1780  1.9169  1.4147
  164TCq2    C1 2496   4.178   4.037  10.476  0.6821  0.0688  0.5047
  164TCq2    O2 2497   4.079   3.967  10.499  0.1424 -0.0003 -0.1450
  164TCq2    C2 2498   4.166   4.181  10.445  0.1424  0.2303 -0.2174
  164TCq2    C3 2499   4.269   4.267  10.429  0.6356  0.0763 -0.3793
  164TCq2    C4 2500   4.247   4.402  10.435  0.0025 -0.0670 -0.3076
  164TCq2    C5 2501   4.126   4.452  10.479  0.0298 -0.2985 -0.5832
  164TCq2    C6 2502   4.026   4.364  10.499 -0.3757 -0.0321 -0.2457
  164TCq2    C7 2503   4.037   4.228  10.471  0.5733  0.0573 -0.1790
  164TCq2    C8 2504   3.936   4.383  10.609 -0.2896  0.5434 -0.9128
  164TCq2    O4 2505   3.828   4.323  10.602  0.0317 -0.0340  0.5010
  164TCq2    C9 2506   4.360   4.491  10.418 -0.4430 -0.6407  0.6002
  164TCq2    O5 2507   4.367   4.589  10.500 -0.0395 -0.1003 -0.9382
  164TCq2    O6 2508   4.454   4.451  10.347 -0.4948 -0.1201  0.4691
  164TCq2    H2 2509   4.371   4.241  10.405  0.0235 -2.7325  0.1192
  164TCq2    H3 2510   4.108   4.557  10.497 -1.3113 -0.3971 -1.3969
  164TCq2    H4 2511   3.959   4.153  10.469 -0.2447  0.7923  3.2979
  165MPD2     C 2512   0.836   1.300   2.462  0.3665  0.2917  0.3441
  165MPD2    C1 2513   0.728   1.267   2.380  1.2583 -0.1031  0.3107
  165MPD2    C2 2514   0.707   1.356   2.269 -0.4495  0.1021  0.0754
  165MPD2    C3 2515   0.777   1.467   2.248  0.9918 -0.6922  0.1755
  165MPD2    C4 2516   0.875   1.502   2.340  0.0882  0.0290 -0.8343
  165MPD2    C5 2517   0.904   1.418   2.444 -0.6066 -0.1773  0.3072
  165MPD2     H 2518   0.626   1.337   2.199 -0.9369  0.9687  0.4046
  165MPD2    H1 2519   0.928   1.595   2.324  0.6033 -0.0201  0.5459
  165MPD2    H2 2520   0.857   1.249   2.555 -1.6122 -0.3958  0.4181
  165MPD2    H3 2521   0.969   1.458   2.520  1.0894  1.6935 -2.1084
  165MPD2     N 2522   0.732   1.553   2.146 -0.4580 -0.3417 -0.2959
  165MPD2    H5 2523   0.638   1.545   2.110 -0.5951 -0.4921  0.0996
  165MPD2    N1 2524   0.664   1.144   2.400  0.5533  0.4983 -0.3315
  165MPD2    H7 2525   0.684   1.095   2.486  1.1020  0.4655 -0.4770
  166TCq2    C1 2526   0.801   1.656   2.097  0.0149  0.9093 -0.6352
  166TCq2    O2 2527   0.913   1.695   2.130  0.4500  0.0411 -0.7667
  166TCq2    C2 2528   0.733   1.739   2.004 -0.4535  0.7037 -0.5242
  166TCq2    C3 2529   0.632   1.689   1.937  0.0405  0.8242 -0.0679
  166TCq2    C4 2530   0.570   1.770   1.845  0.1798  0.1604 -0.1827
  166TCq2    C5 2531   0.601   1.896   1.828  0.2548 -0.2111 -0.1690
  166TCq2    C6 2532   0.708   1.942   1.896 -0.0675  0.2872  0.5118
  166TCq2    C7 2533   0.778   1.863   1.984 -0.0406  0.0976  0.2350
  166TCq2    C8 2534   0.766   2.069   1.866  0.7690  0.1129  0.0720
  166TCq2    O4 2535   0.883   2.088   1.895  0.4265 -0.4134 -0.0775
  166TCq2    C9 2536   0.453   1.721   1.766 -0.2251 -0.0570  0.2780
  166TCq2    O5 2537   0.377   1.799   1.703  0.3786  1.0871 -0.4134
  166TCq2    O6 2538   0.434   1.595   1.766 -0.8475  0.6226  0.3434
  166TCq2    H2 2539   0.592   1.590   1.956  1.2488  0.7505  2.0354
  166TCq2    H3 2540   0.549   1.951   1.750 -0.5307  0.1090  0.5772
  166TCq2    H4 2541   0.859   1.904   2.043  1.3448 -2.7075  0.2525
  167TMC2    C1 2542   3.656   3.636  12.092 -0.3036  0.1221 -0.1992
  167TMC2    C2 2543   3.519   3.666  12.123  1.7800 -0.9164 -0.6309
  167TMC2    C3 2544   3.448   3.582  12.209 -0.7817  0.3337 -0.4285
  167TMC2    C4 2545   3.711   3.523  12.162  0.0761  0.1428 -0.2794
  167TMC2    C5 2546   3.631   3.434  12.238  0.7830 -0.0420  0.1999
  167TMC2    C6 2547   3.500   3.465  12.260  0.1118 -0.4329  0.4213
  167TMC2     C 2548   3.750   3.743  12.065 -0.4750  0.5504 -0.0260
  167TMC2     O 2549   3.862   3.707  12.028  0.2866 -0.4199  1.0705
  167TMC2     H 2550   3.463   3.737  12.062  1.5859 -0.7440 -0.2530
  167TMC2    H1 2551   3.818   3.505  12.151  0.2443  0.3749  0.9601
  167TMC2    H2 2552   3.439   3.395  12.315 -3.0571 -0.1888 -2.7875
  167TMC2    C7 2553   3.690   3.331  12.316  0.0126  0.7714  0.1248
  167TMC2    C8 2554   3.306   3.574  12.203  0.1762 -0.4888  0.5839
  167TMC2    O1 2555   3.619   3.284  12.409  0.3664 -0.4033 -0.0456
  167TMC2    O2 2556   3.244   3.469  12.219 -0.2645 -0.1775  0.0112
  167TMC2    O5 2557   3.256   3.698  12.200 -0.8122 -0.1147  0.0153
  167TMC2    H5 2558   3.327   3.764  12.217 -0.9321  0.8003 -2.9562
  168MPD2     C 2559   3.920   3.994  12.079 -0.5831 -0.0209 -0.3751
  168MPD2    C1 2560   3.790   3.977  12.135  0.8678 -0.5099  0.5533
  168MPD2    C2 2561   3.723   4.091  12.191 -0.4353  0.2518 -0.0220
  168MPD2    C3 2562   3.792   4.208  12.215  0.3075 -0.1883 -0.1095
  168MPD2    C4 2563   3.924   4.213  12.175 -0.5641  0.7538 -0.1107
  168MPD2    C5 2564   3.981   4.113  12.097  0.2363 -0.7122  0.4624
  168MPD2     H 2565   3.624   4.076  12.232  0.0660  1.7814  1.7135
  168MPD2    H1 2566   3.980   4.305  12.190  0.2000 -0.1542  2.4957
  168MPD2    H2 2567   3.986   3.920  12.034 -0.6270 -0.2838 -0.0058
  168MPD2    H3 2568   4.081   4.120  12.056 -0.1177  0.8801 -0.1571
  168MPD2     N 2569   3.732   4.313  12.289  0.1395 -0.3159  0.1621
  168MPD2    H5 2570   3.798   4.383  12.322  1.1095  0.5992 -3.8145
  168MPD2    N1 2571   3.714   3.860  12.127 -0.5362 -0.3094 -0.3247
  168MPD2    H7 2572   3.620   3.866  12.164 -0.4845  1.4267 -0.4596
  169MPD1     C 2573   2.694   1.548   9.561  0.4594  0.2090  0.1334
  169MPD1    C1 2574   2.573   1.485   9.560  0.1558  0.0358  0.1721
  169MPD1    C2 2575   2.468   1.560   9.608  0.1802 -0.4376 -0.4208
  169MPD1    C3 2576   2.483   1.692   9.643  0.3938  0.2738 -0.1220
  169MPD1    C4 2577   2.608   1.750   9.642 -0.6790  0.6255 -0.1378
  169MPD1    C5 2578   2.712   1.676   9.602  0.4275  0.3497  0.2138
  169MPD1     H 2579   2.370   1.518   9.630 -0.0386  1.1488  1.6276
  169MPD1    H1 2580   2.614   1.853   9.676  1.0621  0.6550 -0.5082
  169MPD1    H2 2581   2.778   1.496   9.517  1.1006  0.7631  0.7279
  169MPD1    H3 2582   2.810   1.721   9.588  1.6481 -2.5675 -0.7334
  169MPD1     N 2583   2.360   1.755   9.686 -0.0160  0.2611 -0.4957
  169MPD1    H5 2584   2.275   1.700   9.692  0.6134 -0.5713  0.9720
  169MPD1    N1 2585   2.561   1.345   9.546  0.9749 -0.2778  0.0236
  169MPD1    H6 2586   2.620   1.294   9.480 -0.9189 -1.4286 -0.7628
  169MPD1    H7 2587   2.468   1.311   9.524  1.1671  0.6285 -2.2507
  170MPD1     C 2588   4.357   1.192  12.574 -0.0370  0.1129 -0.0789
  170MPD1    C1 2589   4.472   1.266  12.565 -0.2144  0.2191  0.6287
  170MPD1    C2 2590   4.517   1.321  12.687 -0.3784  0.9929 -0.4597
  170MPD1    C3 2591   4.466   1.273  12.807  0.5300  0.7753 -0.1033
  170MPD1    C4 2592   4.368   1.175  12.803 -0.5154  0.0557 -0.6498
  170MPD1    C5 2593   4.312   1.140  12.687  0.1959  0.3370  0.5265
  170MPD1     H 2594   4.598   1.394  12.690 -0.0642  0.6091  0.4421
  170MPD1    H1 2595   4.335   1.119  12.891 -0.3341  1.5696  0.3761
  170MPD1    H2 2596   4.315   1.173  12.476  1.3538 -0.7141 -0.5185
  170MPD1    H3 2597   4.231   1.068  12.683  1.1714 -0.6743 -1.1668
  170MPD1     N 2598   4.509   1.331  12.929 -0.1318 -0.2223  0.0024
  170MPD1    H5 2599   4.548   1.425  12.927  2.1841 -1.2018 -1.2853
  170MPD1    N1 2600   4.518   1.320  12.436  0.6350  0.2263 -0.0650
  170MPD1    H6 2601   4.490   1.255  12.364  0.5504  0.5716 -0.3396
  170MPD1    H7 2602   4.619   1.333  12.430  0.8224 -0.1156  2.1467
  171MPD1     C 2603   2.947   2.905  15.255 -0.3361 -0.0619 -0.5953
  171MPD1    C1 2604   2.864   2.792  15.241  0.3385 -0.0384  0.0734
  171MPD1    C2 2605   2.854   2.700  15.343  0.0241  0.3884 -0.0892
  171MPD1    C3 2606   2.914   2.727  15.471 -0.1569  0.3937 -0.8919
  171MPD1    C4 2607   2.997   2.842  15.479  0.2679  0.0159 -0.0442
  171MPD1    C5 2608   3.007   2.930  15.380 -0.3233  0.3019  0.7120
  171MPD1     H 2609   2.796   2.612  15.319  0.0193 -0.0481  1.5331
  171MPD1    H1 2610   3.047   2.873  15.569 -1.4624 -0.9262  1.2555
  171MPD1    H2 2611   2.955   2.974  15.171 -0.4419  2.9080  1.8528
  171MPD1    H3 2612   3.072   3.015  15.397 -0.1556  0.3776 -0.3094
  171MPD1     N 2613   2.913   2.644  15.584 -0.0118 -0.1250  0.0657
  171MPD1    H5 2614   2.958   2.678  15.668  0.7574  0.7943 -0.7209
  171MPD1    N1 2615   2.825   2.756  15.111  0.3466  0.1857  0.0202
  171MPD1    H6 2616   2.744   2.695  15.104  2.3148 -2.5926  1.3892
  171MPD1    H7 2617   2.814   2.835  15.048  0.2278 -1.0512 -1.5259
  172MPD1     C 2618   1.814   1.756   0.976 -0.1393  0.1194  0.5548
  172MPD1    C1 2619   1.784   1.746   0.842 -0.6311 -0.4406 -0.5186
  172MPD1    C2 2620   1.827   1.842   0.760 -0.1222  0.2714 -0.5265
  172MPD1    C3 2621   1.923   1.934   0.793  0.0101 -0.1205  0.2723
  172MPD1    C4 2622   1.959   1.943   0.923  0.4650 -0.8189  0.1986
  172MPD1    C5 2623   1.902   1.852   1.011  0.0727  0.2361 -0.4728
  172MPD1     H 2624   1.788   1.837   0.659 -3.8535  0.4832  0.9280
  172MPD1    H1 2625   2.036   2.011   0.958 -0.6964 -0.6746  2.5218
  172MPD1    H2 2626   1.773   1.698   1.058 -2.1418 -0.9918 -1.2447
  172MPD1    H3 2627   1.929   1.854   1.116 -4.3531 -0.6870  0.6840
  172MPD1     N 2628   1.978   2.027   0.707 -0.8885  0.1160 -0.7707
  172MPD1    H5 2629   2.029   2.103   0.751  2.3802 -2.5415  0.0171
  172MPD1    N1 2630   1.678   1.655   0.815 -0.2156  0.2943 -0.5409
  172MPD1    H6 2631   1.692   1.622   0.719  0.2684 -2.7149  0.5689
  172MPD1    H7 2632   1.670   1.577   0.879  0.5057  1.1762  0.6271
  173MPD1     C 2633   3.377   2.244  14.004 -0.2322  0.3808 -0.1459
  173MPD1    C1 2634   3.253   2.191  14.042 -0.1548  0.3140  0.2215
  173MPD1    C2 2635   3.251   2.087  14.137  0.2180  0.5363 -0.0363
  173MPD1    C3 2636   3.374   2.031  14.180 -0.2838 -0.6935 -0.7946
  173MPD1    C4 2637   3.491   2.089  14.145 -0.5421  0.2826 -0.6332
  173MPD1    C5 2638   3.496   2.188  14.050  0.0167  0.5535  0.3777
  173MPD1     H 2639   3.162   2.043  14.180  0.5230  0.7890  0.8454
  173MPD1    H1 2640   3.583   2.047  14.184 -0.3291  0.4962 -0.9074
  173MPD1    H2 2641   3.371   2.316  13.924 -0.1367  0.5816  0.0285
  173MPD1    H3 2642   3.589   2.235  14.019  0.0678  1.7845  2.3665
  173MPD1     N 2643   3.356   1.924  14.264 -0.5721 -0.3077  0.3769
  173MPD1    H5 2644   3.260   1.904  14.290 -0.4946 -1.5018 -0.2825
  173MPD1    N1 2645   3.135   2.256  14.008 -1.0100  0.5637  0.5617
  173MPD1    H6 2646   3.045   2.208  14.015 -0.2592 -0.9258  0.0189
  173MPD1    H7 2647   3.141   2.299  13.916  3.7031 -2.0788 -0.3609
  174MPD1     C 2648   3.856   1.193  14.889  1.0370 -0.4977 -0.0433
  174MPD1    C1 2649   3.902   1.265  14.782 -1.0526  0.1299 -0.3427
  174MPD1    C2 2650   3.811   1.318  14.694 -0.0513 -0.3096  0.3680
  174MPD1    C3 2651   3.674   1.298  14.714  0.0153 -0.5217  0.7276
  174MPD1    C4 2652   3.636   1.208  14.808 -0.1413 -0.3132  0.5214
  174MPD1    C5 2653   3.725   1.159  14.896 -0.0789 -0.0825  0.3841
  174MPD1     H 2654   3.856   1.375  14.614 -0.3915  0.0522  0.4309
  174MPD1    H1 2655   3.531   1.182  14.816 -0.6872  1.8076  0.1275
  174MPD1    H2 2656   3.923   1.140  14.956  1.5574 -0.1125 -0.2517
  174MPD1    H3 2657   3.691   1.090  14.972 -2.2423 -0.3259 -0.8034
  174MPD1     N 2658   3.575   1.357  14.628 -0.1569 -0.4769 -0.7546
  174MPD1    H5 2659   3.478   1.329  14.635 -0.0580 -0.2498  1.5013
  174MPD1    N1 2660   4.034   1.312  14.791  0.5873  0.3620  0.3390
  174MPD1    H6 2661   4.089   1.239  14.837  3.6220  1.6083 -1.2926
  174MPD1    H7 2662   4.080   1.333  14.703  0.1744 -1.0757 -0.2152
  175MPD1     C 2663   0.829   2.254  15.696 -0.3939 -0.3955 -0.0143
  175MPD1    C1 2664   0.839   2.266  15.834 -0.6260  0.6136  0.3398
  175MPD1    C2 2665   0.920   2.367  15.885  0.9479  0.0243 -0.0004
  175MPD1    C3 2666   0.994   2.453  15.807 -0.5514  0.6090  0.1405
  175MPD1    C4 2667   0.979   2.441  15.671  0.0069 -0.6880  0.3248
  175MPD1    C5 2668   0.889   2.350  15.614  0.6067  0.1916  0.5154
  175MPD1     H 2669   0.928   2.388  15.991  1.7861  0.7611 -0.2118
  175MPD1    H1 2670   1.032   2.510  15.606 -0.4084  0.1266  0.8551
  175MPD1    H2 2671   0.765   2.184  15.644  0.8726 -0.1016 -1.9739
  175MPD1    H3 2672   0.873   2.354  15.507  1.3199 -1.0659  0.3617
  175MPD1     N 2673   1.079   2.556  15.857 -0.4216  0.0508  0.4911
  175MPD1    H5 2674   1.128   2.622  15.797 -0.6389  0.2215  0.5011
  175MPD1    N1 2675   0.764   2.178  15.914 -0.2453  0.0249 -0.0507
  175MPD1    H6 2676   0.723   2.223  15.996 -1.6678  0.1002 -0.8016
  175MPD1    H7 2677   0.685   2.142  15.862 -0.8183 -0.1467  0.9389
  176MPD1     C 2678   3.056   3.754  16.313 -0.2697 -0.2158 -0.4274
  176MPD1    C1 2679   2.955   3.817  16.384 -0.0353 -0.4252 -0.0926
  176MPD1    C2 2680   2.986   3.929  16.456  0.2538  0.6378 -0.5148
  176MPD1    C3 2681   3.116   3.964  16.472  0.0655  0.1585  0.1557
  176MPD1    C4 2682   3.223   3.892  16.414  0.1894  0.4684 -0.3892
  176MPD1    C5 2683   3.187   3.796  16.320 -0.5528 -0.4258 -0.2903
  176MPD1     H 2684   2.910   3.967  16.524 -0.0865  0.0188 -0.5517
  176MPD1    H1 2685   3.329   3.911  16.425  0.1665 -0.4753  1.5057
  176MPD1    H2 2686   3.031   3.673  16.246 -0.0194  1.5063 -2.6016
  176MPD1    H3 2687   3.265   3.744  16.265  0.1105  0.5595 -0.2768
  176MPD1     N 2688   3.141   4.079  16.554  0.3024  0.8844 -0.0195
  176MPD1    H5 2689   3.062   4.134  16.585 -1.3602 -0.4400 -1.9064
  176MPD1    N1 2690   2.822   3.776  16.383 -0.4087 -0.9731  0.5723
  176MPD1    H6 2691   2.825   3.674  16.382 -1.6405 -1.0158  0.5620
  176MPD1    H7 2692   2.770   3.803  16.467  0.0811 -3.0196  1.5349
  177MPD1     C 2693   2.186   0.005  10.227  0.4886  0.1566  0.3395
  177MPD1    C1 2694   2.185   4.604  10.282 -0.1239 -0.2701  0.4219
  177MPD1    C2 2695   2.086   4.510  10.244 -0.1501 -0.7003 -1.0071
  177MPD1    C3 2696   2.003   4.538  10.135  0.0297  0.6854 -0.9835
  177MPD1    C4 2697   2.009   4.663  10.076  0.1214 -0.0341 -0.4715
  177MPD1    C5 2698   2.105   0.032  10.121  0.4314  0.1624 -0.0755
  177MPD1     H 2699   2.067   4.416  10.295 -0.6449  0.3065  0.6882
  177MPD1    H1 2700   1.948   4.677   9.987 -0.1282  2.2014  0.0495
  177MPD1    H2 2701   2.253   0.080  10.268  0.7857 -0.1970  0.5001
  177MPD1    H3 2702   2.095   0.129  10.074  3.0054 -0.2106 -1.3798
  177MPD1     N 2703   1.919   4.433  10.090 -0.5216  0.1514  0.7173
  177MPD1    H5 2704   1.938   4.339  10.125 -0.9008  0.9219  3.0261
  177MPD1    N1 2705   2.260   4.576  10.393  0.3143 -0.6883 -0.6126
  177MPD1    H6 2706   2.344   4.632  10.405 -1.5216  1.7814  0.7928
  177MPD1    H7 2707   2.277   4.478  10.413 -1.1227 -0.6325  1.0008
  178MPD1     C 2708   4.487   0.564   0.768  0.4553  0.3863  0.5548
  178MPD1    C1 2709   4.442   0.438   0.719  0.7766 -0.4257 -0.4421
  178MPD1    C2 2710   4.485   0.393   0.592 -0.3362  0.6112  0.3145
  178MPD1    C3 2711   4.535   0.488   0.498 -0.3541 -0.4395  0.1122
  178MPD1    C4 2712   4.554   0.619   0.542  0.3580  0.1859 -0.1686
  178MPD1    C5 2713   4.518   0.653   0.670 -0.0775  0.6800  0.3360
  178MPD1     H 2714   4.451   0.292   0.575  1.8983 -0.7429  3.9289
  178MPD1    H1 2715   4.604   0.702   0.493  1.8277 -1.0224 -0.7057
  178MPD1    H2 2716   4.467   0.590   0.872 -0.7332 -2.9601  1.1585
  178MPD1    H3 2717   4.518   0.759   0.692  1.9124  0.5201  1.0842
  178MPD1     N 2718   4.574   0.451   0.372 -0.5712  0.4594 -0.4083
  178MPD1    H5 2719   4.638   0.513   0.324  1.2487 -0.2473  1.1116
  178MPD1    N1 2720   4.382   0.352   0.815  0.1308 -0.0044 -0.9291
  178MPD1    H6 2721   4.309   0.409   0.857 -0.4121 -1.6595  0.3889
  178MPD1    H7 2722   4.338   0.266   0.781  0.0467  0.0199 -0.8799
  179MPD1     C 2723   3.631   3.798  14.904  0.3379 -0.7691  0.1206
  179MPD1    C1 2724   3.755   3.734  14.925 -0.4894  0.2003 -0.5449
  179MPD1    C2 2725   3.777   3.677  15.051 -0.1185 -0.4450 -0.7175
  179MPD1    C3 2726   3.664   3.657  15.132 -0.5359  0.4847 -0.1148
  179MPD1    C4 2727   3.543   3.716  15.110  0.2836 -0.7646 -0.2795
  179MPD1    C5 2728   3.531   3.790  14.995 -0.2137 -0.6078  0.5807
  179MPD1     H 2729   3.873   3.634  15.076 -0.1994 -0.1444  0.0993
  179MPD1    H1 2730   3.459   3.694  15.174  1.3047  0.0427  1.3311
  179MPD1    H2 2731   3.605   3.837  14.806  1.2088 -1.5071 -0.4014
  179MPD1    H3 2732   3.437   3.830  14.957 -0.4104 -0.3686  1.3242
  179MPD1     N 2733   3.670   3.586  15.254  0.2396  0.2642 -0.4160
  179MPD1    H5 2734   3.582   3.577  15.304  0.8714 -0.7228  0.5270
  179MPD1    N1 2735   3.862   3.746  14.834 -0.3082 -0.4332 -0.5663
  179MPD1    H6 2736   3.840   3.772  14.739  0.5080  0.6364 -0.4604
  179MPD1    H7 2737   3.932   3.673  14.844 -0.0058 -0.4896 -3.2523
  180MPD1     C 2738   3.740   4.498  15.551  0.0080  0.3027  0.6799
  180MPD1    C1 2739   3.846   4.581  15.509  0.3033 -0.0547  0.6653
  180MPD1    C2 2740   3.845   4.625  15.378 -0.2346 -0.1280 -0.5462
  180MPD1    C3 2741   3.761   4.570  15.282  0.3819 -0.4629  0.0135
  180MPD1    C4 2742   3.665   4.485  15.327 -0.0356  0.2048 -0.0798
  180MPD1    C5 2743   3.656   4.449  15.461 -0.2891 -0.2052 -0.6634
  180MPD1     H 2744   3.913   4.699  15.337 -0.3332 -0.5038 -1.3727
  180MPD1    H1 2745   3.585   4.447  15.263  0.2153  0.5337 -0.5916
  180MPD1    H2 2746   3.737   4.464  15.654  0.2282 -0.4052  0.4533
  180MPD1    H3 2747   3.576   4.378  15.481  1.4004 -1.4314  1.6758
  180MPD1     N 2748   3.749   4.633  15.150  0.1918 -0.3037 -0.4161
  180MPD1    H5 2749   3.811   4.711  15.129 -0.4257 -0.1079 -1.5097
  180MPD1    N1 2750   3.915   4.648  15.612  0.3554  0.0846 -0.4459
  180MPD1    H6 2751   3.995   4.701  15.577  0.3607  0.0704 -0.4550
  180MPD1    H7 2752   3.956   4.585  15.680 -0.1267 -1.0799 -1.2354
  181MPD1     C 2753   1.194   1.444  10.134  0.1252 -0.0885  0.3361
  181MPD1    C1 2754   1.186   1.320  10.087 -0.1506  0.5420 -0.0085
  181MPD1    C2 2755   1.298   1.248  10.053 -0.8446 -0.4114 -0.1061
  181MPD1    C3 2756   1.420   1.305  10.092  0.8084  0.5229  0.1647
  181MPD1    C4 2757   1.424   1.435  10.145  0.1890 -1.0343 -0.0696
  181MPD1    C5 2758   1.312   1.505  10.161  0.5760 -0.1488  0.1564
  181MPD1     H 2759   1.289   1.145  10.018 -0.8497 -0.4859  0.1182
  181MPD1    H1 2760   1.516   1.478  10.183  0.1178  0.0993 -1.2018
  181MPD1    H2 2761   1.115   1.509  10.170  1.4530  2.0842 -0.6537
  181MPD1    H3 2762   1.328   1.599  10.212 -0.4893 -0.1903  0.5868
  181MPD1     N 2763   1.544   1.246  10.063  0.2423 -0.2866 -0.3640
  181MPD1    H5 2764   1.626   1.290  10.103  0.5479 -2.0163  0.9373
  181MPD1    N1 2765   1.058   1.273  10.049  0.4655  0.0663 -0.2624
  181MPD1    H6 2766   1.045   1.172  10.046  0.4096  0.1162 -1.7316
  181MPD1    H7 2767   0.978   1.314  10.097  0.5228 -0.8884  0.6661
  182MPD1     C 2768   2.131   2.233   2.175 -0.4778 -1.1219  0.3043
  182MPD1    C1 2769   2.198   2.158   2.083 -0.1682 -0.1960 -0.4012
  182MPD1    C2 2770   2.121   2.095   1.992 -0.5312  0.1080  0.9487
  182MPD1    C3 2771   1.982   2.098   1.987 -0.8824 -0.2987  0.3027
  182MPD1    C4 2772   1.921   2.178   2.081  0.2971  0.2787  0.1308
  182MPD1    C5 2773   1.999   2.236   2.182  0.0690 -0.1127  0.2329
  182MPD1     H 2774   2.175   2.044   1.913  0.0460 -0.8834  1.9735
  182MPD1    H1 2775   1.814   2.197   2.082  0.4886  1.2971  2.8102
  182MPD1    H2 2776   2.180   2.298   2.248  0.2591 -1.2993 -0.0312
  182MPD1    H3 2777   1.945   2.292   2.258  0.4640 -1.5174  1.5304
  182MPD1     N 2778   1.901   2.034   1.886 -0.2371 -0.4221 -0.2861
  182MPD1    H5 2779   1.802   2.057   1.893 -0.5138 -1.4938 -0.6832
  182MPD1    N1 2780   2.336   2.183   2.062  0.5784  0.6848 -0.0728
  182MPD1    H6 2781   2.385   2.106   2.017 -0.0686  1.3050 -1.8594
  182MPD1    H7 2782   2.395   2.213   2.140  0.9815  0.4396 -0.2821
  183MPD1     C 2783   1.591   4.134   9.235 -0.6723 -0.0395 -0.0655
  183MPD1    C1 2784   1.601   4.243   9.318 -0.3033  0.0519  0.8566
  183MPD1    C2 2785   1.543   4.359   9.273  0.6303  0.8324  0.5202
  183MPD1    C3 2786   1.503   4.373   9.142 -1.0735  0.6216 -0.6056
  183MPD1    C4 2787   1.495   4.261   9.058 -0.2229 -0.4469  0.3139
  183MPD1    C5 2788   1.545   4.143   9.107  0.0782  0.4103  0.4516
  183MPD1     H 2789   1.531   4.443   9.342  1.6164  1.6091 -0.2589
  183MPD1    H1 2790   1.461   4.253   8.956  1.9080  1.9133 -0.5861
  183MPD1    H2 2791   1.601   4.032   9.271  2.2401  0.4060  0.4402
  183MPD1    H3 2792   1.530   4.054   9.046 -0.1742  0.4938  0.3895
  183MPD1     N 2793   1.475   4.505   9.101  0.4902  0.3327  0.0930
  183MPD1    H5 2794   1.493   4.572   9.175  1.6883 -1.5137  1.4918
  183MPD1    N1 2795   1.648   4.228   9.447 -0.2200 -0.2204 -0.5358
  183MPD1    H6 2796   1.724   4.161   9.439  0.2168  0.1237  0.8079
  183MPD1    H7 2797   1.694   4.315   9.474 -1.7520  0.1639  0.8422
  184MPD1     C 2798   2.269   3.483  10.777 -0.1408  0.1216  0.3249
  184MPD1    C1 2799   2.311   3.480  10.645 -1.4490 -0.4712  0.4567
  184MPD1    C2 2800   2.222   3.512  10.546 -0.4989  0.9951 -0.1457
  184MPD1    C3 2801   2.088   3.530  10.573 -0.1681 -0.0233 -0.1262
  184MPD1    C4 2802   2.051   3.539  10.697  0.6034 -0.4838 -0.3466
  184MPD1    C5 2803   2.138   3.520  10.803 -0.3466  0.6566 -0.0615
  184MPD1     H 2804   2.262   3.508  10.445 -0.2384 -0.9990  0.0271
  184MPD1    H1 2805   1.946   3.545  10.725 -0.0821 -1.2168 -2.7834
  184MPD1    H2 2806   2.343   3.452  10.850 -1.5197  0.2693  1.7914
  184MPD1    H3 2807   2.104   3.516  10.906 -0.7218 -1.5935 -0.2771
  184MPD1     N 2808   1.984   3.527  10.476  0.6322  0.0600 -0.2128
  184MPD1    H5 2809   1.891   3.544  10.512  1.5004 -0.9025  2.4855
  184MPD1    N1 2810   2.445   3.494  10.622  0.1037  0.6532 -0.4263
  184MPD1    H6 2811   2.508   3.457  10.694 -0.6808 -0.4131 -0.2813
  184MPD1    H7 2812   2.481   3.470  10.530  0.3105 -2.9581  0.5846
  185MPD1     C 2813   1.252   3.119   9.824 -0.2371 -0.1568 -0.1344
  185MPD1    C1 2814   1.381   3.100   9.794  0.5423 -0.4361  0.3051
  185MPD1    C2 2815   1.476   3.189   9.841  0.0473  0.5516  0.7486
  185MPD1    C3 2816   1.445   3.281   9.943  0.4422 -0.0860 -0.3985
  185MPD1    C4 2817   1.315   3.304   9.961 -0.2671  0.2236  1.1216
  185MPD1    C5 2818   1.218   3.222   9.909  0.3158  0.0631 -0.5741
  185MPD1     H 2819   1.583   3.174   9.829 -0.0274  0.3508  0.3408
  185MPD1    H1 2820   1.281   3.389  10.019 -0.5057 -0.2623  1.6990
  185MPD1    H2 2821   1.172   3.055   9.787  0.2218 -0.5875 -0.3806
  185MPD1    H3 2822   1.114   3.248   9.924 -0.1015  0.0317 -3.4084
  185MPD1     N 2823   1.539   3.370   9.998  0.7644  1.2392  0.2059
  185MPD1    H5 2824   1.491   3.441  10.051 -1.5174  1.0351 -1.5932
  185MPD1    N1 2825   1.432   2.976   9.740  0.1283  0.0057 -0.0458
  185MPD1    H6 2826   1.362   2.943   9.675 -1.8636  0.8079  1.6895
  185MPD1    H7 2827   1.522   2.989   9.693  0.3324 -1.0788  0.0576
  186MPD1     C 2828   4.185   3.818  15.572 -0.4014  0.8893 -0.3871
  186MPD1    C1 2829   4.070   3.780  15.634  0.4231 -0.7547 -0.1419
  186MPD1    C2 2830   4.047   3.840  15.757  0.0447  0.1175 -0.2710
  186MPD1    C3 2831   4.126   3.948  15.803  0.0824  0.2750 -0.3189
  186MPD1    C4 2832   4.228   3.986  15.724  0.0534 -1.4053  0.1564
  186MPD1    C5 2833   4.256   3.924  15.607 -0.7757 -0.2631  0.0074
  186MPD1     H 2834   3.966   3.802  15.818 -0.3480  0.7796 -0.3805
  186MPD1    H1 2835   4.296   4.063  15.759 -2.2613  1.1433 -0.9366
  186MPD1    H2 2836   4.237   3.761  15.495  0.4146 -1.6686  2.0668
  186MPD1    H3 2837   4.354   3.939  15.562 -0.0251  3.7415  2.8916
  186MPD1     N 2838   4.094   4.032  15.915  0.2381  0.4043 -0.5821
  186MPD1    H5 2839   4.163   4.104  15.935 -0.7668  0.8688  1.1972
  186MPD1    N1 2840   3.989   3.670  15.594  0.6695 -0.2495 -0.0581
  186MPD1    H6 2841   3.988   3.663  15.492  0.7569  2.3616 -0.2573
  186MPD1    H7 2842   3.898   3.654  15.637  2.5686 -2.5209  3.0481
  187MPD1     C 2843   3.994   0.221   0.150  0.2715 -0.4989 -0.2790
  187MPD1    C1 2844   3.907   0.167   0.065 -0.3127 -0.2546  0.5192
  187MPD1    C2 2845   3.844   0.257  17.667  0.3569 -0.6831  0.0039
  187MPD1    C3 2846   3.887   0.389  17.659 -0.4902 -0.0200 -0.6614
  187MPD1    C4 2847   3.995   0.435   0.055 -0.4163 -0.1823  0.0891
  187MPD1    C5 2848   4.047   0.344   0.139 -0.4033 -0.1441  0.2948
  187MPD1     H 2849   3.765   0.210  17.609 -0.8586  0.0744  1.0438
  187MPD1    H1 2850   4.030   0.537   0.047 -0.1288 -0.0149  3.5469
  187MPD1    H2 2851   4.042   0.162   0.227 -0.1213 -1.0003 -0.4126
  187MPD1    H3 2852   4.128   0.365   0.208  0.0683  0.0889 -0.3267
  187MPD1     N 2853   3.844   0.488  17.568 -0.1060  0.1051 -0.0373
  187MPD1    H5 2854   3.896   0.576  17.565  1.5665 -0.7928  3.3794
  187MPD1    N1 2855   3.856   0.041   0.092 -0.4668  0.2273  0.3045
  187MPD1    H6 2856   3.834   0.001   0.000  1.8045  3.1224 -1.4837
  187MPD1    H7 2857   3.933   4.708   0.130 -0.5540 -0.7862 -0.9181
  188MPD1     C 2858   2.453   0.306  10.253  0.2632  0.4079  0.8066
  188MPD1    C1 2859   2.544   0.275  10.350 -0.1345  0.5774 -0.0403
  188MPD1    C2 2860   2.654   0.197  10.320 -0.1265 -0.1494 -0.2074
  188MPD1    C3 2861   2.670   0.132  10.197 -0.3192  0.5951  0.4020
  188MPD1    C4 2862   2.577   0.157  10.099 -0.0193 -0.5716  0.7353
  188MPD1    C5 2863   2.468   0.242  10.131 -0.0182 -0.3883 -0.5189
  188MPD1     H 2864   2.735   0.183  10.392 -0.0843  0.8365 -0.0624
  188MPD1    H1 2865   2.586   0.116   9.999  0.5802 -1.0480  0.9825
  188MPD1    H2 2866   2.375   0.380  10.264 -0.8332 -0.5599 -0.4721
  188MPD1    H3 2867   2.390   0.269  10.061 -0.7522 -0.6667  0.2028
  188MPD1     N 2868   2.786   0.053  10.163 -0.2733 -0.2793 -0.1277
  188MPD1    H5 2869   2.797   0.017  10.069  1.1112 -1.4722  0.4846
  188MPD1    N1 2870   2.550   0.365  10.456  0.7614 -0.2424  0.1446
  188MPD1    H6 2871   2.600   0.319  10.533  0.7597  1.6332  1.2561
  188MPD1    H7 2872   2.459   0.382  10.499  1.6727  1.3335  1.4704
  189MPD1     C 2873   4.158   1.447  17.215 -0.1141 -0.4955 -0.0396
  189MPD1    C1 2874   4.283   1.425  17.278  0.4701 -0.9385 -0.4021
  189MPD1    C2 2875   4.322   1.524  17.368  0.0561 -0.1800  0.1160
  189MPD1    C3 2876   4.239   1.621  17.416  0.1848  0.1110  0.6314
  189MPD1    C4 2877   4.118   1.638  17.359 -0.2817  0.1273  0.3859
  189MPD1    C5 2878   4.081   1.547  17.259 -0.4258  0.2608  0.2923
  189MPD1     H 2879   4.420   1.519  17.414 -0.8743 -1.7409  1.9603
  189MPD1    H1 2880   4.053   1.716  17.397 -0.8215 -0.6224  1.0131
  189MPD1    H2 2881   4.128   1.384  17.132 -0.0848 -0.1898 -0.2809
  189MPD1    H3 2882   3.985   1.567  17.213 -0.0604 -0.4299 -0.7629
  189MPD1     N 2883   4.292   1.708  17.518 -0.0699  0.5646 -0.3508
  189MPD1    H5 2884   4.373   1.678  17.571 -0.5734  1.0441  0.6989
  189MPD1    N1 2885   4.379   1.344  17.213  0.0341  0.0047  0.3803
  189MPD1    H6 2886   4.450   1.328  17.284  1.7143 -0.0405 -1.3034
  189MPD1    H7 2887   4.341   1.251  17.194  0.3895 -0.3044  1.2217
  190MPD1     C 2888   3.812   0.544  15.425 -0.7145 -0.9347 -0.6277
  190MPD1    C1 2889   3.907   0.609  15.491 -0.5619 -0.0913  0.1801
  190MPD1    C2 2890   4.016   0.538  15.540  1.0680  0.3356 -0.1369
  190MPD1    C3 2891   4.015   0.400  15.541  0.6266  0.8045  0.0442
  190MPD1    C4 2892   3.905   0.336  15.485  0.1994  0.0372  0.5379
  190MPD1    C5 2893   3.813   0.409  15.420 -0.4089 -0.4023 -0.5828
  190MPD1     H 2894   4.097   0.584  15.594 -0.2882  1.1934  1.1545
  190MPD1    H1 2895   3.881   0.230  15.490 -1.7326  0.5587  2.0350
  190MPD1    H2 2896   3.727   0.598  15.384 -0.9925 -0.7781  0.1488
  190MPD1    H3 2897   3.745   0.346  15.363 -0.8127 -0.5520  0.0599
  190MPD1     N 2898   4.119   0.337  15.597  0.3621  0.1291 -0.3340
  190MPD1    H5 2899   4.180   0.399  15.650  1.1691  1.0088 -2.2636
  190MPD1    N1 2900   3.911   0.749  15.488 -0.0642  0.1583 -0.3531
  190MPD1    H6 2901   3.817   0.787  15.473 -0.1905  0.1620  0.4843
  190MPD1    H7 2902   3.951   0.789  15.572  0.6602 -0.3348 -0.4641
  191MPD1     C 2903   3.469   1.619  12.698  0.4070 -0.8987 -0.2559
  191MPD1    C1 2904   3.351   1.686  12.678  0.2693  0.3101  0.5376
  191MPD1    C2 2905   3.353   1.814  12.630  0.1860  0.1144 -0.3591
  191MPD1    C3 2906   3.471   1.874  12.596  0.2027 -0.1779 -0.2784
  191MPD1    C4 2907   3.590   1.809  12.624 -0.0991  0.0760 -0.6866
  191MPD1    C5 2908   3.588   1.681  12.672 -0.0210 -0.2821 -0.5587
  191MPD1     H 2909   3.255   1.857  12.614 -0.7940 -2.4469 -1.2419
  191MPD1    H1 2910   3.690   1.846  12.602  0.1168  0.7164  1.4119
  191MPD1    H2 2911   3.472   1.518  12.737  0.9475 -0.8402 -0.1497
  191MPD1    H3 2912   3.679   1.623  12.686 -0.4447 -0.9148 -0.4217
  191MPD1     N 2913   3.456   1.994  12.522 -0.0249  0.1587 -0.4176
  191MPD1    H5 2914   3.364   2.034  12.508 -0.3697 -0.9104 -1.1750
  191MPD1    N1 2915   3.240   1.628  12.727 -0.4978 -0.5055  0.5079
  191MPD1    H6 2916   3.238   1.529  12.706 -0.5227  0.1944 -2.7147
  191MPD1    H7 2917   3.155   1.675  12.696  1.2236  2.1221 -0.2348
  192MPD1     C 2918   2.752   2.203  12.256 -0.0311  0.5882  0.1295
  192MPD1    C1 2919   2.835   2.160  12.148  0.2554  0.3025 -1.0895
  192MPD1    C2 2920   2.969   2.172  12.161  0.5298  0.4224 -0.2600
  192MPD1    C3 2921   3.026   2.233  12.269  0.1364 -0.2288  0.4761
  192MPD1    C4 2922   2.941   2.283  12.366  0.2592  0.5408 -0.4823
  192MPD1    C5 2923   2.806   2.269  12.361  0.1463  0.0183  0.3912
  192MPD1     H 2924   3.031   2.123  12.087  0.0181 -0.4589 -0.1078
  192MPD1    H1 2925   2.969   2.342  12.453 -1.6448  0.3085  0.2999
  192MPD1    H2 2926   2.645   2.186  12.252 -0.1826  2.3686 -3.5208
  192MPD1    H3 2927   2.741   2.309  12.437  1.4061  1.9213  0.4724
  192MPD1     N 2928   3.158   2.252  12.281 -0.6488 -0.6910 -0.5778
  192MPD1    H5 2929   3.187   2.302  12.364 -0.5605 -1.2385 -0.2792
  192MPD1    N1 2930   2.778   2.112  12.028  0.6042  0.0536  0.1275
  192MPD1    H6 2931   2.833   2.041  11.981 -1.1294 -0.1358 -1.6076
  192MPD1    H7 2932   2.685   2.076  12.050 -0.7004  3.4458  0.2326
  193MPD1     C 2933   2.611   2.313  16.003 -0.1971  0.5685  0.4298
  193MPD1    C1 2934   2.628   2.446  16.025  0.3695  0.2012  1.4019
  193MPD1    C2 2935   2.692   2.492  16.135  0.5987 -0.3451 -0.3631
  193MPD1    C3 2936   2.768   2.405  16.217 -0.2659 -0.6809  0.6575
  193MPD1    C4 2937   2.759   2.272  16.189 -0.9787  0.4548  0.3555
  193MPD1    C5 2938   2.678   2.226  16.086  0.7834 -0.4669 -0.4131
  193MPD1     H 2939   2.691   2.600  16.145  0.5294 -0.4704  1.0307
  193MPD1    H1 2940   2.813   2.199  16.248 -2.5665  0.2159  1.5313
  193MPD1    H2 2941   2.554   2.272  15.921  1.1299  2.8352 -1.6475
  193MPD1    H3 2942   2.657   2.121  16.072 -0.2000 -0.1760 -1.1016
  193MPD1     N 2943   2.838   2.446  16.334 -0.3273  0.3274  0.1092
  193MPD1    H5 2944   2.863   2.371  16.398  0.0680  1.0705  0.8217
  193MPD1    N1 2945   2.544   2.535  15.957  0.1948 -0.0653 -0.3362
  193MPD1    H6 2946   2.534   2.501  15.861  1.3721  0.8652 -0.7753
  193MPD1    H7 2947   2.589   2.626  15.963  2.2543 -1.0075 -1.7576
  194MPD1     C 2948   0.120   4.672  16.511 -0.9848 -0.1218 -0.2319
  194MPD1    C1 2949   0.228   4.628  16.436  0.1308  0.1903  0.3981
  194MPD1    C2 2950   0.312   4.533  16.490 -0.2867 -0.1336 -0.0420
  194MPD1    C3 2951   0.302   4.499  16.623 -0.2597 -0.3763 -0.3388
  194MPD1    C4 2952   0.200   4.544  16.701  0.6835  0.3859  0.1142
  194MPD1    C5 2953   0.107   4.627  16.644  0.4049 -0.1284  0.0643
  194MPD1     H 2954   0.395   4.500  16.428 -0.5902 -1.8427  0.4441
  194MPD1    H1 2955   0.188   4.510  16.803  0.2321  1.0857  0.2942
  194MPD1    H2 2956   0.044   0.017  16.471  1.2056  1.6943 -1.4442
  194MPD1    H3 2957   0.021   4.650  16.706 -0.6039 -4.0305  0.1373
  194MPD1     N 2958   0.400   4.417  16.684 -0.3531  0.0701  0.8272
  194MPD1    H5 2959   0.395   4.420  16.786 -1.5666  0.2439  0.7594
  194MPD1    N1 2960   0.233   4.666  16.303  0.0914 -0.0544  0.4839
  194MPD1    H6 2961   0.205   0.041  16.280 -1.5940 -0.5390  0.5098
  194MPD1    H7 2962   0.326   4.651  16.267  0.8935  0.9325  2.1326
  195MPD1     C 2963   2.769   1.070  17.275  0.2685 -0.1610  0.2258
  195MPD1    C1 2964   2.903   1.053  17.270 -0.3695 -0.0776 -0.3736
  195MPD1    C2 2965   2.958   0.926  17.276  0.0266  0.0145  0.2168
  195MPD1    C3 2966   2.877   0.820  17.311  0.3277  0.4655  0.4859
  195MPD1    C4 2967   2.747   0.836  17.326  0.2331  0.2811  0.1402
  195MPD1    C5 2968   2.690   0.963  17.318 -0.0868 -0.3601  0.2991
  195MPD1     H 2969   3.063   0.909  17.256  0.4132  2.0291  0.5178
  195MPD1    H1 2970   2.678   0.761  17.362  1.4967 -1.0240 -0.1301
  195MPD1    H2 2971   2.731   1.171  17.270 -1.3333 -0.6820  1.8771
  195MPD1    H3 2972   2.583   0.966  17.329 -0.2140 -1.0716 -0.7252
  195MPD1     N 2973   2.922   0.688  17.336  0.1360 -0.1268  0.1804
  195MPD1    H5 2974   2.850   0.618  17.350 -0.0580 -0.0364 -0.3886
  195MPD1    N1 2975   2.981   1.153  17.221  0.0374  0.4517  1.0146
  195MPD1    H6 2976   3.079   1.137  17.242  0.8479  1.3383 -1.9967
  195MPD1    H7 2977   2.953   1.243  17.260 -0.0423  0.7664  0.2381
  196MPD1     C 2978   2.655   0.262   0.775 -0.3720  0.4489 -0.0859
  196MPD1    C1 2979   2.736   0.366   0.751 -0.6353  0.0440  0.6596
  196MPD1    C2 2980   2.711   0.479   0.831 -0.6187 -0.3485  0.2478
  196MPD1    C3 2981   2.614   0.478   0.932 -0.4817  0.0065  0.6323
  196MPD1    C4 2982   2.531   0.375   0.947 -0.0988 -0.0512 -0.4312
  196MPD1    C5 2983   2.550   0.268   0.862  0.1517 -0.3085  0.2495
  196MPD1     H 2984   2.772   0.569   0.826 -1.6813  0.3420 -0.1485
  196MPD1    H1 2985   2.442   0.378   1.010 -0.6324 -0.1789 -1.1855
  196MPD1    H2 2986   2.674   0.173   0.717 -0.6505  0.9539 -0.9459
  196MPD1    H3 2987   2.481   0.185   0.868 -0.2378 -0.0084 -0.1452
  196MPD1     N 2988   2.588   0.588   1.023 -0.0283  0.2548  1.3067
  196MPD1    H5 2989   2.513   0.578   1.091 -0.8498 -0.7237  0.2703
  196MPD1    N1 2990   2.844   0.354   0.659  0.2986 -0.3564 -0.2431
  196MPD1    H6 2991   2.876   0.447   0.633 -0.5802  0.4521  1.5337
  196MPD1    H7 2992   2.841   0.292   0.579  3.6720 -0.6603 -0.1748
  197MPD1     C 2993   1.379   2.312  17.507  0.3310  0.1480  0.4240
  197MPD1    C1 2994   1.320   2.264  17.395  0.0410  0.7367  0.1453
  197MPD1    C2 2995   1.343   2.332  17.279  0.0663 -0.9201  0.3521
  197MPD1    C3 2996   1.427   2.440  17.273 -0.4433 -0.2611 -0.1271
  197MPD1    C4 2997   1.493   2.478  17.390 -0.4260  0.1415  0.3417
  197MPD1    C5 2998   1.470   2.413  17.503  0.3320  0.3450  0.1065
  197MPD1     H 2999   1.282   2.319  17.190 -0.3521  0.2595  0.4689
  197MPD1    H1 3000   1.563   2.560  17.392  2.1343 -2.0557  0.7884
  197MPD1    H2 3001   1.361   2.265  17.603 -1.3981  0.4375  0.2448
  197MPD1    H3 3002   1.513   2.448  17.597  1.1441 -0.4052  0.0125
  197MPD1     N 3003   1.449   2.515  17.160 -0.2206 -0.0721  0.5015
  197MPD1    H5 3004   1.521   2.586  17.158  0.3014 -0.6960 -2.4042
  197MPD1    N1 3005   1.217   2.171  17.421  0.3507 -0.1287  0.4143
  197MPD1    H6 3006   1.202   2.105  17.345 -0.5713  1.3225 -0.6672
  197MPD1    H7 3007   1.218   2.130  17.514 -0.9544 -1.8818 -0.3435
  198MPD1     C 3008   3.638   0.768  15.131 -0.1945 -0.1107  0.5443
  198MPD1    C1 3009   3.768   0.802  15.114  0.5328 -0.1295 -0.2335
  198MPD1    C2 3010   3.826   0.900  15.187 -1.1639  0.1304 -0.5254
  198MPD1    C3 3011   3.757   0.982  15.270  0.7321  0.1775  0.0068
  198MPD1    C4 3012   3.623   0.962  15.274  0.1280  0.4718  0.2747
  198MPD1    C5 3013   3.568   0.851  15.214 -0.2026  0.2828  0.1232
  198MPD1     H 3014   3.932   0.920  15.170 -1.2012 -0.0536 -0.9787
  198MPD1    H1 3015   3.554   1.022  15.332  1.5566  2.4274 -0.0438
  198MPD1    H2 3016   3.580   0.695  15.075  1.4700 -0.2353 -1.0196
  198MPD1    H3 3017   3.461   0.830  15.213 -0.0035 -0.7253 -0.0695
  198MPD1     N 3018   3.829   1.085  15.325 -0.6126  0.9778 -0.4758
  198MPD1    H5 3019   3.930   1.084  15.317 -0.6081 -1.2806  0.0329
  198MPD1    N1 3020   3.846   0.714  15.038 -0.3610 -0.7287  0.0468
  198MPD1    H6 3021   3.793   0.646  14.985 -1.2522  0.0804 -0.0977
  198MPD1    H7 3022   3.907   0.758  14.969 -1.2354 -0.8501 -0.7951
  199MPD1     C 3023   2.453   0.300   9.426 -0.6292  0.1833 -0.2350
  199MPD1    C1 3024   2.493   0.399   9.512  0.6828  0.4211  0.3289
  199MPD1    C2 3025   2.400   0.498   9.526  0.1530 -0.2541 -0.2119
  199MPD1    C3 3026   2.287   0.505   9.448  0.0428 -0.2323 -0.1058
  199MPD1    C4 3027   2.259   0.413   9.358  0.4688 -0.0697  0.1200
  199MPD1    C5 3028   2.339   0.302   9.353 -0.5591  0.1624  0.0700
  199MPD1     H 3029   2.399   0.574   9.604  1.8285 -1.1246  0.6582
  199MPD1    H1 3030   2.169   0.419   9.297  1.2245 -1.5630 -1.1704
  199MPD1    H2 3031   2.510   0.209   9.411  1.9050  1.6903  0.3763
  199MPD1    H3 3032   2.315   0.223   9.283  2.2661  0.6187 -1.4203
  199MPD1     N 3033   2.184   0.603   9.443  0.1690  0.2810  0.0199
  199MPD1    H5 3034   2.112   0.588   9.373 -0.3997 -0.7472  0.8185
  199MPD1    N1 3035   2.592   0.384   9.607  0.3570  0.6270  0.4611
  199MPD1    H6 3036   2.661   0.328   9.556 -1.2216 -1.0093  0.1170
  199MPD1    H7 3037   2.626   0.475   9.636 -1.4144  2.0181 -1.7986
  200MPD1     C 3038   4.108   1.789  14.852 -0.0607  0.5294  0.7867
  200MPD1    C1 3039   4.099   1.881  14.754 -0.2867  0.3474 -0.0922
  200MPD1    C2 3040   4.208   1.964  14.734  0.1468 -0.5411 -0.4259
  200MPD1    C3 3041   4.311   1.965  14.820  0.5621  0.4607  0.0445
  200MPD1    C4 3042   4.322   1.874  14.923 -1.1176 -0.3882  0.0070
  200MPD1    C5 3043   4.214   1.793  14.936  1.2036  0.1346 -0.4575
  200MPD1     H 3044   4.214   2.036  14.653  0.9839  0.2667  0.3539
  200MPD1    H1 3045   4.399   1.865  14.999 -0.8198 -0.5397 -0.3162
  200MPD1    H2 3046   4.035   1.713  14.878  0.6394 -1.0975 -2.0371
  200MPD1    H3 3047   4.218   1.718  15.014 -1.4748 -0.8054 -1.2354
  200MPD1     N 3048   4.413   2.053  14.794  0.2884  1.0220 -0.0561
  200MPD1    H5 3049   4.413   2.096  14.702  2.2656  1.6512  0.2550
  200MPD1    N1 3050   3.991   1.878  14.666  0.4852  0.6976  0.0078
  200MPD1    H6 3051   3.926   1.805  14.693 -0.3184  0.8962 -1.3640
  200MPD1    H7 3052   4.016   1.848  14.572 -2.6439  0.6915 -0.8082
  201MPD1     C 3053   3.672   1.131  13.091  0.2808  0.4081  0.5773
  201MPD1    C1 3054   3.647   1.237  13.179 -0.1665  0.3621 -0.3041
  201MPD1    C2 3055   3.562   1.204  13.288  0.4580  0.5574 -0.6495
  201MPD1    C3 3056   3.513   1.080  13.314 -0.1020 -0.4041  0.4070
  201MPD1    C4 3057   3.546   0.981  13.224  0.9029 -0.0356  0.6521
  201MPD1    C5 3058   3.623   1.005  13.115  0.0259  1.5147  0.0650
  201MPD1     H 3059   3.530   1.288  13.348  0.4898  0.2122 -0.1482
  201MPD1    H1 3060   3.519   0.877  13.241  0.4733 -0.0107  0.1256
  201MPD1    H2 3061   3.727   1.155  13.001 -1.3020 -1.3197 -0.8462
  201MPD1    H3 3062   3.631   0.929  13.039  0.1473  0.4237  1.1798
  201MPD1     N 3063   3.419   1.068  13.422  0.0350 -0.2475  0.8882
  201MPD1    H5 3064   3.420   1.144  13.489 -1.1648  0.9105 -0.4013
  201MPD1    N1 3065   3.686   1.366  13.148 -0.1140 -0.0142 -0.0655
  201MPD1    H6 3066   3.692   1.427  13.230 -0.8516 -1.1063  0.7915
  201MPD1    H7 3067   3.782   1.362  13.114  0.1239  1.5424  0.4166
  202MPD1     C 3068   2.283   3.692   9.237 -0.2380 -0.1202 -0.2100
  202MPD1    C1 3069   2.180   3.776   9.244 -0.0581 -0.7397 -0.4021
  202MPD1    C2 3070   2.211   3.905   9.277  0.6158  0.4326 -0.0617
  202MPD1    C3 3071   2.326   3.939   9.337 -0.2559  0.9016 -0.1452
  202MPD1    C4 3072   2.424   3.850   9.349  0.6398  0.0803 -0.4714
  202MPD1    C5 3073   2.407   3.726   9.296  0.7272 -0.1694  0.4072
  202MPD1     H 3074   2.128   3.974   9.266  0.6800  0.7506  1.5784
  202MPD1    H1 3075   2.520   3.875   9.391  1.0858  0.6799 -1.8174
  202MPD1    H2 3076   2.283   3.593   9.193  1.2842 -1.3228  2.4465
  202MPD1    H3 3077   2.487   3.652   9.301 -0.4233 -1.4719 -0.6556
  202MPD1     N 3078   2.352   4.074   9.382 -0.4118  0.7852 -0.0683
  202MPD1    H5 3079   2.431   4.081   9.445  1.0324 -3.4564 -1.4097
  202MPD1    N1 3080   2.069   3.751   9.164 -0.4065  0.7770 -1.0026
  202MPD1    H6 3081   1.983   3.804   9.177 -1.4858 -1.2302  0.1176
  202MPD1    H7 3082   2.047   3.652   9.152 -0.2715  0.5134  1.0475
  203MPD1     C 3083   0.879   1.845  12.616 -0.2952 -1.4084 -0.5299
  203MPD1    C1 3084   0.931   1.782  12.505 -0.4204 -0.8854  0.6322
  203MPD1    C2 3085   1.032   1.693  12.532 -0.6242  0.8800 -0.1563
  203MPD1    C3 3086   1.088   1.677  12.662  0.5837 -0.6830 -0.7935
  203MPD1    C4 3087   1.042   1.761  12.760  0.5641 -0.2207  0.0397
  203MPD1    C5 3088   0.933   1.837  12.742 -0.4837  0.1569 -0.0482
  203MPD1     H 3089   1.073   1.644  12.444  2.0627  0.2979  1.3983
  203MPD1    H1 3090   1.081   1.754  12.861 -1.1888 -0.6042  0.6864
  203MPD1    H2 3091   0.800   1.918  12.603  0.0381 -1.1850 -1.3441
  203MPD1    H3 3092   0.900   1.896  12.827  1.1055  1.7791 -0.5515
  203MPD1     N 3093   1.191   1.585  12.683  0.2719  1.1660 -0.4201
  203MPD1    H5 3094   1.225   1.534  12.601 -0.0388  3.5419 -2.0341
  203MPD1    N1 3095   0.866   1.777  12.380 -0.0343 -0.1145  0.1100
  203MPD1    H6 3096   0.815   1.861  12.352 -1.5261 -1.0237  0.1307
  203MPD1    H7 3097   0.936   1.771  12.307 -1.1828  0.2334 -1.0113
  204MPD1     C 3098   0.854   2.916   0.081  0.2925  0.0661  0.3738
  204MPD1    C1 3099   0.938   2.821   0.021  0.3080  0.1283 -0.1742
  204MPD1    C2 3100   0.872   2.715  17.645 -0.1460  0.5107 -0.7686
  204MPD1    C3 3101   0.737   2.703  17.647 -0.2754  0.3724  0.3136
  204MPD1    C4 3102   0.660   2.796   0.036  0.3732  0.2873 -0.6554
  204MPD1    C5 3103   0.719   2.898   0.102 -1.1103 -0.5807 -0.1620
  204MPD1     H 3104   0.922   2.637  17.590  0.3494 -0.3817  0.9344
  204MPD1    H1 3105   0.555   2.782   0.057  0.6096  2.7934  2.2667
  204MPD1    H2 3106   0.890   3.011   0.119 -1.9024  0.3376  1.7780
  204MPD1    H3 3107   0.661   2.968   0.161 -1.8022  0.5653 -2.2049
  204MPD1     N 3108   0.687   2.602  17.559  0.3936 -0.0761 -0.1944
  204MPD1    H5 3109   0.749   2.542  17.505 -0.8482 -0.5608 -1.0849
  204MPD1    N1 3110   1.077   2.840   0.008 -0.5332 -0.0042  0.0837
  204MPD1    H6 3111   1.112   2.901   0.082  1.7569  1.9220 -2.5736
  204MPD1    H7 3112   1.137   2.761   0.032  3.7924  2.8012 -1.5458
  205MPD1     C 3113   1.257   1.193  17.421 -0.3448 -0.4189  0.1164
  205MPD1    C1 3114   1.143   1.225  17.362 -0.5547  0.2010 -0.7073
  205MPD1    C2 3115   1.038   1.269  17.444  0.2311 -0.1283 -0.6699
  205MPD1    C3 3116   1.049   1.292  17.575 -0.2511 -0.8305  0.1794
  205MPD1    C4 3117   1.173   1.273  17.632  0.7903 -0.4177 -0.7762
  205MPD1    C5 3118   1.282   1.227  17.556 -0.2652 -0.0869  0.1293
  205MPD1     H 3119   0.946   1.274  17.387 -0.6555 -0.8876  0.6858
  205MPD1    H1 3120   1.188   1.311   0.049 -1.2613 -1.7652  0.0355
  205MPD1    H2 3121   1.345   1.166  17.365 -0.4905  2.2160 -1.4145
  205MPD1    H3 3122   1.375   1.196  17.603  0.9365  1.1579 -1.4200
  205MPD1     N 3123   0.950   1.350  17.659  0.1138 -0.0955 -0.1175
  205MPD1    H5 3124   0.976   1.354   0.074 -0.8299 -0.3378  0.1404
  205MPD1    N1 3125   1.133   1.182  17.228 -0.2627  0.4887 -0.0532
  205MPD1    H6 3126   1.227   1.177  17.189 -0.9483 -1.2631 -1.4804
  205MPD1    H7 3127   1.078   1.243  17.167  0.5041  0.6379 -0.5962
  206MPD1     C 3128   0.976   4.574  16.750  0.9341  0.0615  0.0381
  206MPD1    C1 3129   0.980   4.444  16.718  0.0328  0.2146  0.2961
  206MPD1    C2 3130   0.936   4.403  16.592 -0.2215 -0.0953 -0.2606
  206MPD1    C3 3131   0.846   4.483  16.519  0.0597 -0.3670  0.1779
  206MPD1    C4 3132   0.833   4.609  16.572  0.4536  0.0767 -0.2688
  206MPD1    C5 3133   0.900   4.657  16.683 -0.8584 -0.2802  0.2610
  206MPD1     H 3134   0.959   4.306  16.549 -0.1999 -0.4424  0.5404
  206MPD1    H1 3135   0.775   4.681  16.514 -0.4326 -1.8886 -1.8127
  206MPD1    H2 3136   1.016   4.613  16.843  0.7243  0.6699 -0.1321
  206MPD1    H3 3137   0.894   0.035  16.727  1.0660 -0.5378  1.0822
  206MPD1     N 3138   0.791   4.447  16.394  0.5068  0.0106  0.1503
  206MPD1    H5 3139   0.743   4.517  16.338  2.3522  0.5827 -0.7174
  206MPD1    N1 3140   1.076   4.364  16.782  0.0027 -0.3103  0.1062
  206MPD1    H6 3141   1.078   4.264  16.761  1.8566 -0.3179  0.4137
  206MPD1    H7 3142   1.090   4.374  16.882 -1.2687  3.7063 -0.1077
  207MPD1     C 3143   3.700   2.617   9.766 -0.0114 -0.8243  0.0093
  207MPD1    C1 3144   3.801   2.699   9.720 -0.4794 -0.0207 -0.2896
  207MPD1    C2 3145   3.923   2.710   9.790  0.4510 -0.2383 -0.3024
  207MPD1    C3 3146   3.945   2.625   9.892 -0.7176  0.9357 -0.6115
  207MPD1    C4 3147   3.847   2.548   9.936 -0.1593 -0.1771 -0.2751
  207MPD1    C5 3148   3.722   2.546   9.879  0.3381 -0.2331 -0.3765
  207MPD1     H 3149   4.007   2.769   9.753  0.5280 -0.2630 -0.1684
  207MPD1    H1 3150   3.857   2.480  10.020 -1.4487  0.9868  0.8224
  207MPD1    H2 3151   3.600   2.635   9.730 -1.1706 -0.6291  3.3325
  207MPD1    H3 3152   3.641   2.495   9.929  1.5566  1.0621  2.9455
  207MPD1     N 3153   4.055   2.620   9.979 -0.4393 -0.0982  0.2287
  207MPD1    H5 3154   4.063   2.549  10.052 -1.1869 -0.7362 -0.3100
  207MPD1    N1 3155   3.768   2.780   9.610  0.1846 -0.2862  1.1685
  207MPD1    H6 3156   3.847   2.793   9.548  0.9870  0.1760  2.2933
  207MPD1    H7 3157   3.698   2.737   9.550 -0.2306  2.1054 -0.0674
  208MPD1     C 3158   1.910   1.245   0.149 -0.8727 -0.2943 -0.0510
  208MPD1    C1 3159   1.973   1.272   0.265 -0.1689 -0.4052 -0.0259
  208MPD1    C2 3160   1.892   1.267   0.377 -0.7699 -0.1854  0.0052
  208MPD1    C3 3161   1.757   1.251   0.372 -0.4410 -0.7775 -1.4465
  208MPD1    C4 3162   1.696   1.210   0.256  0.1234  0.7409 -0.0091
  208MPD1    C5 3163   1.774   1.224   0.147 -0.9616  0.3107  0.2244
  208MPD1     H 3164   1.938   1.284   0.473 -0.1080 -2.2199  0.0405
  208MPD1    H1 3165   1.589   1.196   0.248  0.5865 -2.8770  0.0044
  208MPD1    H2 3166   1.965   1.249   0.056 -0.3517  2.2342  0.3604
  208MPD1    H3 3167   1.728   1.200   0.052 -0.8033 -1.6453  0.6604
  208MPD1     N 3168   1.688   1.253   0.495 -0.3967 -0.7172  1.0675
  208MPD1    H5 3169   1.743   1.279   0.576  0.6018  2.1419 -0.5161
  208MPD1    N1 3170   2.111   1.272   0.275  0.7124  0.4668  0.2333
  208MPD1    H6 3171   2.158   1.326   0.348  1.6269 -1.1219  0.8260
  208MPD1    H7 3172   2.163   1.291   0.190 -3.1712 -1.8189 -2.6278
  209MPD1     C 3173   4.449   1.495  10.891  0.0975 -0.0957 -0.0324
  209MPD1    C1 3174   4.423   1.581  10.789  0.1698 -0.3810 -0.5974
  209MPD1    C2 3175   4.371   1.707  10.823  0.1586  0.2749  0.6527
  209MPD1    C3 3176   4.322   1.737  10.945  0.4447 -0.1826  0.1005
  209MPD1    C4 3177   4.345   1.647  11.043  0.3888  0.4744 -0.1474
  209MPD1    C5 3178   4.402   1.525  11.017  0.4018 -0.1364  0.2963
  209MPD1     H 3179   4.369   1.786  10.750 -3.0750  0.1789  0.6252
  209MPD1    H1 3180   4.309   1.650  11.145  1.3699 -1.8807  0.2728
  209MPD1    H2 3181   4.499   1.400  10.874 -0.0505 -0.0232 -0.8517
  209MPD1    H3 3182   4.410   1.455  11.099  1.6191 -1.9963 -1.4380
  209MPD1     N 3183   4.254   1.854  10.968 -0.1575  0.3502  0.6239
  209MPD1    H5 3184   4.249   1.927  10.898 -2.7563  0.8774  1.3444
  209MPD1    N1 3185   4.463   1.544  10.660  0.1662 -0.6673 -0.0707
  209MPD1    H6 3186   4.437   1.446  10.652  2.8554 -1.2776 -1.1777
  209MPD1    H7 3187   4.419   1.599  10.587  0.3779  0.0321  0.3265
  210MPD1     C 3188   3.884   2.578  11.712  0.2767 -0.7017 -0.6700
  210MPD1    C1 3189   3.878   2.444  11.719  0.0157 -0.0794  0.0664
  210MPD1    C2 3190   3.904   2.369  11.602  0.3190 -0.6454 -0.4610
  210MPD1    C3 3191   3.929   2.428  11.481  0.0618  0.8722 -0.5956
  210MPD1    C4 3192   3.924   2.565  11.480  0.6240  0.3151  0.1516
  210MPD1    C5 3193   3.910   2.642  11.593  0.6056 -0.6403 -0.0410
  210MPD1     H 3194   3.914   2.262  11.617  1.3783 -0.6917 -1.4691
  210MPD1    H1 3195   3.945   2.616  11.386  1.3678 -2.9186 -1.4309
  210MPD1    H2 3196   3.872   2.641  11.799  1.9116 -1.7599  0.3373
  210MPD1    H3 3197   3.903   2.750  11.588 -0.7990 -0.6552  1.7646
  210MPD1     N 3198   3.960   2.359  11.357  0.5354 -0.0730 -0.4283
  210MPD1    H5 3199   3.982   2.416  11.276  1.2744  0.6296  0.2715
  210MPD1    N1 3200   3.870   2.381  11.843  0.6672 -0.3808  0.2357
  210MPD1    H6 3201   3.810   2.432  11.908 -0.7695 -0.3435 -1.1074
  210MPD1    H7 3202   3.825   2.291  11.827  0.3656  0.0554 -1.3494
  211MPD1     C 3203   1.743   1.459  17.022  1.0426 -0.1583  0.1587
  211MPD1    C1 3204   1.620   1.449  17.089  0.1381 -0.0187  0.6843
  211MPD1    C2 3205   1.510   1.496  17.016 -0.3583 -0.8383 -0.0990
  211MPD1    C3 3206   1.523   1.549  16.894 -0.3037 -0.1378  0.8237
  211MPD1    C4 3207   1.644   1.556  16.830 -0.5288  0.1373 -0.1930
  211MPD1    C5 3208   1.756   1.504  16.894  0.2639  0.9108  0.8855
  211MPD1     H 3209   1.408   1.501  17.051 -0.4141  1.5811 -0.5958
  211MPD1    H1 3210   1.656   1.595  16.729  1.6864  1.0118  0.4167
  211MPD1    H2 3211   1.841   1.432  17.060  1.7745  2.8201  0.3972
  211MPD1    H3 3212   1.852   1.516  16.844 -0.0812 -0.8973 -0.2075
  211MPD1     N 3213   1.403   1.602  16.843  0.0718 -0.2513 -0.0845
  211MPD1    H5 3214   1.310   1.582  16.878 -0.1785  1.2380  0.1347
  211MPD1    N1 3215   1.610   1.395  17.217 -0.0894  0.5324 -0.0381
  211MPD1    H6 3216   1.688   1.402  17.282 -0.2374  0.7032  0.1193
  211MPD1    H7 3217   1.531   1.436  17.265  1.4447  1.9262  1.2759
  212MPD1     C 3218   0.458   3.402  17.655 -0.0842  0.3561  0.1421
  212MPD1    C1 3219   0.563   3.399  17.558 -0.0043  0.5486 -0.7049
  212MPD1    C2 3220   0.532   3.442  17.430  0.0546 -0.6957  0.6023
  212MPD1    C3 3221   0.405   3.477  17.396  0.6270  0.2605  0.2408
  212MPD1    C4 3222   0.308   3.479  17.494 -0.0285  0.6578 -0.5428
  212MPD1    C5 3223   0.329   3.444  17.627 -0.0196  0.7286  0.3274
  212MPD1     H 3224   0.612   3.454  17.358 -0.2541 -1.4395  0.1338
  212MPD1    H1 3225   0.203   3.499  17.476  0.2485  0.3345 -2.4881
  212MPD1    H2 3226   0.473   3.356   0.068  1.8596 -0.7821 -0.7236
  212MPD1    H3 3227   0.249   3.438   0.017  2.5164 -2.2564  2.8372
  212MPD1     N 3228   0.365   3.514  17.270 -0.0275 -0.0366 -0.8106
  212MPD1    H5 3229   0.274   3.555  17.255 -1.0747 -1.8363  0.7032
  212MPD1    N1 3230   0.686   3.338  17.589 -0.1417  0.0453 -0.8488
  212MPD1    H6 3231   0.715   3.327   0.003 -0.9609  3.0281 -0.2607
  212MPD1    H7 3232   0.757   3.324  17.518 -0.8531 -1.3854 -1.2722
  213MPD1     C 3233   3.645   0.576  15.968 -0.2763 -0.1400 -0.0108
  213MPD1    C1 3234   3.679   0.566  15.837  0.6479  0.0648 -0.2291
  213MPD1    C2 3235   3.577   0.528  15.751 -0.1015  0.0217  1.1871
  213MPD1    C3 3236   3.443   0.532  15.782  0.7758 -0.6385  0.0761
  213MPD1    C4 3237   3.414   0.573  15.913 -0.1508 -0.0365  0.2483
  213MPD1    C5 3238   3.512   0.593  16.005 -0.1487 -0.3901  0.1170
  213MPD1     H 3239   3.599   0.491  15.651 -1.8781  0.4379  0.6371
  213MPD1    H1 3240   3.308   0.585  15.934 -0.2345  1.9321 -1.3066
  213MPD1    H2 3241   3.715   0.610  16.043 -0.0304 -0.8221  0.0704
  213MPD1    H3 3242   3.483   0.627  16.105 -1.0751 -1.0451  0.0723
  213MPD1     N 3243   3.356   0.508  15.681 -0.0288  0.3450 -0.4042
  213MPD1    H5 3244   3.392   0.510  15.586 -3.0974  0.0040 -1.5649
  213MPD1    N1 3245   3.814   0.531  15.809 -0.5991 -0.2679  0.1427
  213MPD1    H6 3246   3.831   0.549  15.710 -0.8600  1.4933  0.4295
  213MPD1    H7 3247   3.881   0.580  15.867 -1.6359  0.7716  0.4649
  214MPD1     C 3248   2.325   0.773  15.416  0.6945  0.3708  0.1580
  214MPD1    C1 3249   2.376   0.658  15.460  0.0303  0.2189 -0.4584
  214MPD1    C2 3250   2.513   0.653  15.473 -0.1769 -0.2506  0.0603
  214MPD1    C3 3251   2.600   0.753  15.437 -0.0572  0.4388  0.0506
  214MPD1    C4 3252   2.551   0.856  15.364  0.3030  0.1191  0.7399
  214MPD1    C5 3253   2.415   0.864  15.364 -0.7952 -0.3384  0.5279
  214MPD1     H 3254   2.558   0.569  15.526 -3.6521 -0.9153  1.9370
  214MPD1    H1 3255   2.606   0.940  15.324  1.4833 -0.4699  1.1208
  214MPD1    H2 3256   2.220   0.796  15.411  0.9674  1.3611 -1.0357
  214MPD1    H3 3257   2.367   0.956  15.333  2.1405  1.0057  0.0337
  214MPD1     N 3258   2.738   0.747  15.450 -0.2137 -0.6913 -0.0407
  214MPD1    H5 3259   2.791   0.826  15.416  0.5365 -0.1374  2.4645
  214MPD1    N1 3260   2.289   0.570  15.522 -0.0338 -0.3601  0.2419
  214MPD1    H6 3261   2.333   0.478  15.520  0.9534  0.1239 -0.0393
  214MPD1    H7 3262   2.206   0.558  15.465  0.4282 -0.6096 -0.3809
  215MPD1     C 3263   4.107   0.880  10.436  0.6619  1.0518 -0.4890
  215MPD1    C1 3264   4.068   0.862  10.564 -0.1220 -1.0381 -0.2251
  215MPD1    C2 3265   4.066   0.974  10.641 -0.3349  0.6301 -0.2319
  215MPD1    C3 3266   4.114   1.092  10.592  0.2968  0.4665 -0.3916
  215MPD1    C4 3267   4.163   1.107  10.466  0.4201  0.2158 -0.4382
  215MPD1    C5 3268   4.158   0.999  10.390  0.5383 -0.1205 -0.0082
  215MPD1     H 3269   4.027   0.964  10.742 -2.1331 -1.0437 -1.0869
  215MPD1    H1 3270   4.208   1.195  10.422  1.0403  0.4194  0.5983
  215MPD1    H2 3271   4.104   0.798  10.365 -2.0756 -1.5609  2.6226
  215MPD1    H3 3272   4.198   0.995  10.289  0.3100  1.8600 -0.1861
  215MPD1     N 3273   4.107   1.203  10.678 -0.0180  0.4758 -0.3920
  215MPD1    H5 3274   4.079   1.185  10.773 -0.2252 -0.7865 -0.6948
  215MPD1    N1 3275   4.003   0.747  10.608  0.0177  0.1802 -0.2458
  215MPD1    H6 3276   4.010   0.727  10.707 -0.6379 -0.6165 -0.3644
  215MPD1    H7 3277   4.021   0.663  10.552  0.3266 -0.4002  0.7296
  216MPD1     C 3278   0.351   4.060  16.579  0.3676 -0.6729 -0.3521
  216MPD1    C1 3279   0.424   3.981  16.498 -0.0220 -0.5625 -0.4972
  216MPD1    C2 3280   0.490   3.872  16.552 -0.3485 -0.1404  0.6241
  216MPD1    C3 3281   0.502   3.856  16.691  0.5850  0.0589  0.1179
  216MPD1    C4 3282   0.430   3.942  16.774 -0.1088 -0.0376 -0.0963
  216MPD1    C5 3283   0.356   4.042  16.714 -0.0595 -0.0063  0.2007
  216MPD1     H 3284   0.532   3.794  16.490  1.1067  1.7046 -0.7293
  216MPD1    H1 3285   0.426   3.945  16.883 -0.0767  0.8047 -0.1159
  216MPD1    H2 3286   0.284   4.133  16.536 -1.2389 -1.5534  0.6593
  216MPD1    H3 3287   0.294   4.109  16.772 -0.4292 -1.8866  1.9832
  216MPD1     N 3288   0.586   3.756  16.739 -0.4232  0.8262  0.1404
  216MPD1    H5 3289   0.638   3.697  16.674  0.3085  2.5030 -0.7931
  216MPD1    N1 3290   0.404   3.983  16.356 -0.1757 -0.0704 -0.0986
  216MPD1    H6 3291   0.392   4.078  16.323 -0.0976 -0.2035 -0.5138
  216MPD1    H7 3292   0.475   3.933  16.304 -0.3191 -0.8792  0.4754
  217MPD1     C 3293   0.563   3.948   8.750  0.6561  0.7432  0.2316
  217MPD1    C1 3294   0.554   4.059   8.830  0.0130  0.0835 -0.0901
  217MPD1    C2 3295   0.669   4.100   8.903 -0.3555  0.1855 -0.0605
  217MPD1    C3 3296   0.782   4.019   8.909 -0.7123  0.1608 -0.7225
  217MPD1    C4 3297   0.785   3.911   8.829 -0.1270 -0.2430  0.0309
  217MPD1    C5 3298   0.675   3.872   8.751 -0.0428  0.5095  0.2492
  217MPD1     H 3299   0.666   4.189   8.965 -0.7338  0.5218 -0.5616
  217MPD1    H1 3300   0.872   3.846   8.823  0.2176  0.1927  0.3272
  217MPD1    H2 3301   0.480   3.916   8.688  0.0614 -1.1460  2.0177
  217MPD1    H3 3302   0.691   3.783   8.691  1.3192  1.0278 -0.1585
  217MPD1     N 3303   0.900   4.052   8.986 -0.1137 -0.1355 -0.6525
  217MPD1    H5 3304   0.981   3.995   8.964  0.6929  0.2104  1.4783
  217MPD1    N1 3305   0.455   4.149   8.812 -0.0541  0.3509  0.0025
  217MPD1    H6 3306   0.376   4.092   8.780 -0.6044  1.0756  0.0798
  217MPD1    H7 3307   0.441   4.181   8.908 -2.2585  4.6261 -1.7474
  218MPD1     C 3308   2.752   0.509  12.587 -0.4352  0.7289 -0.4471
  218MPD1    C1 3309   2.846   0.411  12.621 -1.2953  0.4641  0.0515
  218MPD1    C2 3310   2.981   0.439  12.585  0.7847  1.0832  0.1579
  218MPD1    C3 3311   3.010   0.548  12.509 -0.4439 -0.0019  0.1431
  218MPD1    C4 3312   2.907   0.639  12.484  0.7484  0.2844  0.0846
  218MPD1    C5 3313   2.776   0.622  12.518  0.2972 -0.0807  0.2685
  218MPD1     H 3314   3.065   0.377  12.614 -1.0330 -1.1328  0.6780
  218MPD1    H1 3315   2.925   0.733  12.432  1.6692  0.7598  1.2634
  218MPD1    H2 3316   2.653   0.500  12.630 -1.2840  0.9256 -2.3616
  218MPD1    H3 3317   2.704   0.703  12.509  0.0860 -0.4091 -1.0327
  218MPD1     N 3318   3.150   0.565  12.474 -0.0308 -0.1942  0.1173
  218MPD1    H5 3319   3.210   0.492  12.512  0.1686 -0.6732 -1.1210
  218MPD1    N1 3320   2.814   0.303  12.706  0.8274 -0.7827  0.1149
  218MPD1    H6 3321   2.717   0.283  12.685  0.4944  1.0629 -0.1634
  218MPD1    H7 3322   2.871   0.220  12.690 -2.1317 -2.6698 -0.6226
  219MPD1     C 3323   4.033   0.689  11.835  0.4274 -0.0252 -0.4653
  219MPD1    C1 3324   3.919   0.606  11.831 -0.8148 -0.1767  0.2249
  219MPD1    C2 3325   3.824   0.605  11.938  0.2268  0.0818  0.7388
  219MPD1    C3 3326   3.832   0.701  12.040 -0.2931 -0.3921 -0.5067
  219MPD1    C4 3327   3.950   0.766  12.048  0.5579  0.2404  0.2382
  219MPD1    C5 3328   4.042   0.771  11.946  1.0805 -1.0775  0.0862
  219MPD1     H 3329   3.738   0.538  11.932  0.8284 -0.6126 -0.0245
  219MPD1    H1 3330   3.976   0.828  12.133  0.3970 -0.0188  0.4754
  219MPD1    H2 3331   4.100   0.707  11.753 -0.5199  2.2487 -0.7367
  219MPD1    H3 3332   4.135   0.827  11.953  0.2104  0.5853 -1.9079
  219MPD1     N 3333   3.744   0.706  12.146 -0.2066 -0.4395  0.0712
  219MPD1    H5 3334   3.774   0.772  12.217 -1.5682 -1.0001  1.1544
  219MPD1    N1 3335   3.895   0.518  11.722 -0.0957  0.0469  0.5300
  219MPD1    H6 3336   3.799   0.491  11.701  0.2241  0.3018 -1.2945
  219MPD1    H7 3337   3.952   0.532  11.639 -1.2755 -1.1709 -0.4850
  220MPD1     C 3338   3.285   2.649   9.651  0.0638 -0.2970 -0.7347
  220MPD1    C1 3339   3.320   2.657   9.778  0.2599  0.1904  0.5125
  220MPD1    C2 3340   3.334   2.538   9.855 -0.2925  0.4937  0.0068
  220MPD1    C3 3341   3.327   2.414   9.793 -0.1377 -0.7985 -0.3267
  220MPD1    C4 3342   3.284   2.412   9.661  0.1942  0.1048 -0.2353
  220MPD1    C5 3343   3.270   2.522   9.591 -0.6609 -0.1887  0.2034
  220MPD1     H 3344   3.367   2.541   9.958 -0.2181 -0.4374  0.0119
  220MPD1    H1 3345   3.259   2.324   9.604  0.5850 -1.4985  2.0514
  220MPD1    H2 3346   3.265   2.736   9.589 -3.0429  0.3111  1.1171
  220MPD1    H3 3347   3.228   2.520   9.491  1.3121 -0.6653 -0.6100
  220MPD1     N 3348   3.344   2.298   9.872 -0.2975 -0.1483 -0.0630
  220MPD1    H5 3349   3.382   2.299   9.966  1.3257 -1.7659 -0.6888
  220MPD1    N1 3350   3.343   2.783   9.839  0.1736  0.2978 -0.4602
  220MPD1    H6 3351   3.432   2.792   9.888 -0.7615  0.7237  1.1563
  220MPD1    H7 3352   3.342   2.855   9.767  1.3794  1.3206  0.5331
  221MPD1     C 3353   0.634   1.085  17.181  0.0573  0.4783  0.0376
  221MPD1    C1 3354   0.576   1.015  17.075 -0.3167  0.2770 -0.1903
  221MPD1    C2 3355   0.643   1.000  16.961  0.5661  0.2735  0.2649
  221MPD1    C3 3356   0.776   1.042  16.946  0.4235  0.9107  0.0152
  221MPD1    C4 3357   0.840   1.100  17.051 -0.4375  0.1888 -0.0070
  221MPD1    C5 3358   0.763   1.125  17.164 -0.5630 -0.6590 -0.4713
  221MPD1     H 3359   0.596   0.944  16.881  0.0456 -0.1792  0.8827
  221MPD1    H1 3360   0.942   1.133  17.038 -0.3143  0.2548  1.1334
  221MPD1    H2 3361   0.574   1.098  17.270  0.4900 -2.3635  0.7442
  221MPD1    H3 3362   0.806   1.172  17.251 -1.2060 -2.8686  1.0523
  221MPD1     N 3363   0.855   1.024  16.825 -0.1425  0.1747  0.5895
  221MPD1    H5 3364   0.948   1.064  16.820 -0.2645  0.3501 -0.4162
  221MPD1    N1 3365   0.440   0.983  17.091 -0.0208 -0.6030  0.1932
  221MPD1    H6 3366   0.417   0.964  17.188 -0.8931 -0.7728 -0.0413
  221MPD1    H7 3367   0.413   0.899  17.040 -1.8432 -0.2490  0.5688
  222MPD1     C 3368   0.026   3.960  17.437  0.3048 -0.2949 -0.4467
  222MPD1    C1 3369   0.136   4.037  17.426  0.4890  0.1137  0.0994
  222MPD1    C2 3370   0.160   4.136  17.519 -0.5140  0.0565  0.4431
  222MPD1    C3 3371   0.066   4.160  17.622 -0.1207 -0.3980  0.2860
  222MPD1    C4 3372   4.675   4.074  17.628 -0.5353 -0.3427 -0.2116
  222MPD1    C5 3373   4.649   3.981  17.535  0.0859  0.0701 -0.6166
  222MPD1     H 3374   0.242   4.202  17.495 -0.6845  0.6980  1.6481
  222MPD1    H1 3375   4.596   4.093   0.016  0.6154  0.9438  0.7333
  222MPD1    H2 3376   0.000   3.883  17.365 -0.4624 -1.3468  0.9618
  222MPD1    H3 3377   4.551   3.935  17.539  1.3051 -2.5695 -1.0929
  222MPD1     N 3378   0.080   4.255   0.045  0.2829 -0.0656  0.4810
  222MPD1    H5 3379   0.001   4.262   0.109 -0.3164  2.3566 -0.5085
  222MPD1    N1 3380   0.228   4.009  17.326 -0.8863  0.2546 -0.3338
  222MPD1    H6 3381   0.211   3.917  17.286  0.5213  1.5539 -3.9163
  222MPD1    H7 3382   0.321   4.004  17.369 -0.5673  1.9536 -0.8228
  223MPD1     C 3383   4.646   3.894   0.754  0.4070 -0.2514 -0.0328
  223MPD1    C1 3384   4.558   3.964   0.678 -0.7442 -0.5060 -0.2029
  223MPD1    C2 3385   4.602   4.075   0.606 -0.0527 -0.5806  0.3469
  223MPD1    C3 3386   0.008   4.122   0.620 -0.1662  0.1486  0.4627
  223MPD1    C4 3387   0.085   4.066   0.717  0.4498 -0.3532  0.2863
  223MPD1    C5 3388   0.050   3.948   0.775  0.4003  0.0871  0.6201
  223MPD1     H 3389   4.539   4.108   0.523 -0.5928 -0.4947  0.7933
  223MPD1    H1 3390   0.188   4.099   0.717  0.7169 -1.2004 -2.9652
  223MPD1    H2 3391   4.616   3.801   0.801 -2.8034  1.1397  0.6510
  223MPD1    H3 3392   0.126   3.912   0.844  0.1609  1.1739  1.4414
  223MPD1     N 3393   0.047   4.223   0.531  0.4353  0.1716 -0.4564
  223MPD1    H5 3394   4.701   4.245   0.457  0.4153  2.7356  0.3368
  223MPD1    N1 3395   4.434   3.907   0.644  0.3296 -0.1231 -0.2483
  223MPD1    H6 3396   4.401   3.848   0.719 -0.9890  1.5081  0.4441
  223MPD1    H7 3397   4.365   3.971   0.606  1.7351  1.3947 -0.2378
  224MPD1     C 3398   1.157   0.248   9.172  0.0802 -0.0804 -0.3988
  224MPD1    C1 3399   1.191   0.121   9.200  0.4493 -0.0950 -0.7288
  224MPD1    C2 3400   1.307   0.088   9.270 -0.2674  0.0527 -0.1471
  224MPD1    C3 3401   1.390   0.186   9.319 -0.2462  0.1937  0.4874
  224MPD1    C4 3402   1.353   0.313   9.294 -0.1938 -0.3248  0.2007
  224MPD1    C5 3403   1.247   0.344   9.215  0.3689 -0.7256  0.1008
  224MPD1     H 3404   1.313   4.704   9.301 -1.2337  0.5561  1.6912
  224MPD1    H1 3405   1.416   0.392   9.332 -0.6550 -1.1219  2.5856
  224MPD1    H2 3406   1.063   0.286   9.136 -0.3796 -0.0080  0.8799
  224MPD1    H3 3407   1.229   0.444   9.177 -3.3746 -1.4160  0.0343
  224MPD1     N 3408   1.508   0.160   9.392 -0.2611  0.1502  0.6094
  224MPD1    H5 3409   1.545   0.239   9.444  0.8664 -0.5493  0.8859
  224MPD1    N1 3410   1.108   0.019   9.168 -0.3553  0.4419  0.2937
  224MPD1    H6 3411   1.122   4.642   9.192  2.1899  0.1164 -2.4897
  224MPD1    H7 3412   1.035   0.036   9.099 -0.8929  0.6312  0.9050
  225MPD1     C 3413   3.354   2.574  11.845  0.5188  0.0868 -0.3675
  225MPD1    C1 3414   3.369   2.609  11.971 -0.1686 -0.1887  0.3416
  225MPD1    C2 3415   3.257   2.619  12.048 -0.6418  0.3073 -0.6361
  225MPD1    C3 3416   3.133   2.586  11.998  0.6314 -0.4528 -0.0804
  225MPD1    C4 3417   3.123   2.521  11.881 -0.0336 -0.1757  0.2992
  225MPD1    C5 3418   3.229   2.523  11.800  0.3568  0.0302  0.1182
  225MPD1     H 3419   3.265   2.653  12.151  0.0152  0.0434 -0.6030
  225MPD1    H1 3420   3.026   2.482  11.851 -0.4519 -0.0151  1.4163
  225MPD1    H2 3421   3.436   2.568  11.774  1.7488 -0.4914  1.0981
  225MPD1    H3 3422   3.219   2.484  11.699  2.7468  0.8593 -0.4462
  225MPD1     N 3423   3.013   2.599  12.068 -0.1247 -0.4315  0.3217
  225MPD1    H5 3424   2.930   2.565  12.020 -0.2642 -1.2590  1.1599
  225MPD1    N1 3425   3.495   2.649  12.025  0.1863 -0.1716  0.2743
  225MPD1    H6 3426   3.572   2.593  11.987 -0.0946  0.0335 -0.6125
  225MPD1    H7 3427   3.499   2.636  12.126  1.6787  1.3664  0.4086
  226MPD1     C 3428   0.669   1.325   9.665 -0.5911 -0.4541  0.0630
  226MPD1    C1 3429   0.618   1.248   9.561 -0.0556  0.0552 -0.6125
  226MPD1    C2 3430   0.707   1.224   9.451  0.1097 -0.4029  0.2671
  226MPD1    C3 3431   0.842   1.242   9.460 -0.5716  0.3998 -0.4559
  226MPD1    C4 3432   0.888   1.303   9.576 -0.3184  0.8071 -0.0984
  226MPD1    C5 3433   0.805   1.356   9.668 -0.4124  0.9090  1.0470
  226MPD1     H 3434   0.660   1.173   9.368 -0.9272  0.6015  0.2343
  226MPD1    H1 3435   0.991   1.336   9.581  0.5735 -1.7344 -1.3325
  226MPD1    H2 3436   0.606   1.351   9.749  0.9150 -1.2884  1.4542
  226MPD1    H3 3437   0.855   1.407   9.750  0.1879  2.5005 -0.3089
  226MPD1     N 3438   0.926   1.197   9.355  0.2200  0.3629 -0.3524
  226MPD1    H5 3439   0.867   1.150   9.287  0.0971 -0.2266  0.1618
  226MPD1    N1 3440   0.479   1.214   9.551 -0.6472  0.1832 -0.2571
  226MPD1    H6 3441   0.458   1.137   9.488 -1.7225 -0.5456  0.9935
  226MPD1    H7 3442   0.438   1.187   9.640 -1.4507  1.0103 -0.3688
  227MPD1     C 3443   1.936   1.163   9.290 -0.4618 -0.5824  1.0146
  227MPD1    C1 3444   1.855   1.254   9.353  0.4009  0.0474 -0.2084
  227MPD1    C2 3445   1.716   1.233   9.323 -0.1886 -0.0928 -0.6725
  227MPD1    C3 3446   1.673   1.120   9.258 -0.4305 -0.3999 -0.0767
  227MPD1    C4 3447   1.760   1.029   9.201 -0.3539  0.1469 -0.1071
  227MPD1    C5 3448   1.894   1.045   9.223  0.1458 -0.6845 -1.0724
  227MPD1     H 3449   1.644   1.311   9.349 -0.2236 -0.2909 -0.1814
  227MPD1    H1 3450   1.718   0.934   9.167  1.3545  0.3745 -2.8311
  227MPD1    H2 3451   2.044   1.170   9.291 -0.4392 -0.7905  0.3997
  227MPD1    H3 3452   1.968   0.981   9.176  2.0614  0.3062  0.5853
  227MPD1     N 3453   1.532   1.119   9.229 -0.0313 -0.4438 -0.0312
  227MPD1    H5 3454   1.478   1.180   9.289  0.6766  0.0642  0.0899
  227MPD1    N1 3455   1.908   1.369   9.416 -0.4312  0.2152 -0.4422
  227MPD1    H6 3456   1.847   1.419   9.480 -1.4048 -0.9831 -0.4425
  227MPD1    H7 3457   2.000   1.360   9.460 -0.5476 -0.5384 -0.3577
  228MPD1     C 3458   0.416   4.456  13.305 -0.8882 -0.5585  0.4395
  228MPD1    C1 3459   0.398   4.574  13.254  0.1699 -0.3570 -0.7286
  228MPD1    C2 3460   0.274   4.620  13.236  0.2958  0.4596  0.0284
  228MPD1    C3 3461   0.167   4.541  13.269 -0.1358 -1.5449 -1.4436
  228MPD1    C4 3462   0.182   4.417  13.313 -1.1550 -0.3873  0.2939
  228MPD1    C5 3463   0.312   4.368  13.330 -0.5405 -0.1266 -0.8580
  228MPD1     H 3464   0.258   4.717  13.189 -2.0181 -0.2291 -0.6174
  228MPD1    H1 3465   0.095   4.359  13.341 -1.6106 -0.0754 -0.4529
  228MPD1    H2 3466   0.511   4.407  13.322  0.7880  2.2966 -0.6538
  228MPD1    H3 3467   0.332   4.266  13.364 -2.4550 -0.2170 -0.0125
  228MPD1     N 3468   0.038   4.602  13.248  0.8411  0.3460  0.1852
  228MPD1    H5 3469   0.042   4.699  13.219 -0.3333 -0.8207 -3.7577
  228MPD1    N1 3470   0.521   4.638  13.211  0.1462 -0.2176 -0.5981
  228MPD1    H6 3471   0.593   4.604  13.275 -0.5684 -1.6550 -0.5592
  228MPD1    H7 3472   0.511   0.018  13.227 -1.0581 -0.5446  0.7117
  229MPD1     C 3473   3.574   2.954  14.245 -0.3308  0.0494 -0.4167
  229MPD1    C1 3474   3.509   3.069  14.281  0.4226  0.1279 -0.3903
  229MPD1    C2 3475   3.553   3.140  14.394  0.3557  0.5382 -0.5037
  229MPD1    C3 3476   3.657   3.089  14.469  0.1248 -0.5138  0.4967
  229MPD1    C4 3477   3.719   2.979  14.431 -0.3746  0.1536 -0.5709
  229MPD1    C5 3478   3.676   2.911  14.325 -0.4093 -0.2014 -0.5915
  229MPD1     H 3479   3.508   3.237  14.410 -0.3101 -0.1234  1.6191
  229MPD1    H1 3480   3.804   2.936  14.482 -1.3024  0.9332  1.6131
  229MPD1    H2 3481   3.547   2.899  14.155 -1.4696 -0.9561  0.5397
  229MPD1    H3 3482   3.729   2.824  14.287  1.5510  0.5793  0.3629
  229MPD1     N 3483   3.700   3.146  14.594  0.1610  0.1001  0.0009
  229MPD1    H5 3484   3.766   3.101  14.656 -0.4461 -1.3882 -0.4218
  229MPD1    N1 3485   3.406   3.108  14.188  0.1443 -0.5477 -0.4378
  229MPD1    H6 3486   3.457   3.144  14.108  1.5999  0.8464  1.1095
  229MPD1    H7 3487   3.340   3.177  14.223  1.1063  0.0036  0.2849
  230MPD1     C 3488   4.493   3.397  14.996  0.5673  0.1462 -0.1334
  230MPD1    C1 3489   4.439   3.282  15.042  0.9397 -0.0272  0.0480
  230MPD1    C2 3490   4.302   3.284  15.061 -0.6110  0.0055  0.5453
  230MPD1    C3 3491   4.216   3.375  15.007  0.5220 -0.7039  0.0154
  230MPD1    C4 3492   4.275   3.485  14.954  0.2516 -0.0417  0.8617
  230MPD1    C5 3493   4.409   3.497  14.956 -0.7521 -0.1063  0.1760
  230MPD1     H 3494   4.255   3.198  15.106  0.7479 -1.7268 -1.3492
  230MPD1    H1 3495   4.226   3.576  14.923  1.2240  0.9027  2.0935
  230MPD1    H2 3496   4.600   3.411  15.000  0.4820  0.2410  1.8435
  230MPD1    H3 3497   4.453   3.594  14.937 -0.7444 -0.0963  0.2439
  230MPD1     N 3498   4.077   3.354  15.010  0.1218  0.3307  0.5231
  230MPD1    H5 3499   4.042   3.268  15.052  1.1449 -2.1775 -3.7996
  230MPD1    N1 3500   4.517   3.189  15.102  0.1636  0.4288 -0.2127
  230MPD1    H6 3501   4.608   3.186  15.056 -1.1726 -1.9437 -2.7079
  230MPD1    H7 3502   4.470   3.100  15.090  1.5233 -0.3668  0.2939
  231MPD1     C 3503   2.052   1.035  14.602  0.0162 -0.4498  0.1256
  231MPD1    C1 3504   2.162   1.107  14.561 -0.0714  0.0524 -0.7304
  231MPD1    C2 3505   2.271   1.088  14.637  0.2088 -0.1822 -0.2280
  231MPD1    C3 3506   2.281   0.997  14.737 -0.2754  0.0641 -0.9456
  231MPD1    C4 3507   2.177   0.911  14.767  0.2441 -0.1523 -0.0598
  231MPD1    C5 3508   2.063   0.936  14.694  0.1482 -0.1248  0.2235
  231MPD1     H 3509   2.349   1.161  14.617 -1.2997  0.9144 -2.1020
  231MPD1    H1 3510   2.176   0.827  14.835  1.1340  1.5016  1.9997
  231MPD1    H2 3511   1.952   1.051  14.562 -0.1825 -1.8139  0.0699
  231MPD1    H3 3512   1.977   0.874  14.719 -1.9460  2.3031 -0.9280
  231MPD1     N 3513   2.394   1.006  14.820  0.6233 -0.0628 -0.2900
  231MPD1    H5 3514   2.470   1.060  14.778  0.5222 -0.4002 -0.9057
  231MPD1    N1 3515   2.146   1.198  14.460 -0.3185 -0.0174  0.6166
  231MPD1    H6 3516   2.227   1.252  14.431  0.8182 -0.3628  3.1635
  231MPD1    H7 3517   2.090   1.163  14.383  2.2019  0.8597 -1.6185
  232MPD1     C 3518   4.450   2.751   0.913  0.1903 -0.5100  0.2892
  232MPD1    C1 3519   4.494   2.732   0.778  0.0085  0.3182  0.1057
  232MPD1    C2 3520   4.402   2.671   0.696  0.6650 -0.7392 -0.2171
  232MPD1    C3 3521   4.262   2.658   0.723 -0.1969 -0.1314  0.5785
  232MPD1    C4 3522   4.224   2.686   0.851 -0.4309 -0.3828 -0.4855
  232MPD1    C5 3523   4.318   2.737   0.939 -0.3383 -0.4034  0.0626
  232MPD1     H 3524   4.436   2.655   0.594 -0.0416 -0.8015 -0.4422
  232MPD1    H1 3525   4.123   2.679   0.889  0.2368 -2.8940  0.8536
  232MPD1    H2 3526   4.521   2.780   0.988  0.0860 -3.2339  1.4612
  232MPD1    H3 3527   4.284   2.745   1.042  1.9730  1.8495  0.6800
  232MPD1     N 3528   4.179   2.606   0.617  0.7230  0.2253  0.1466
  232MPD1    H5 3529   4.223   2.611   0.525  0.1961  0.6669 -0.0764
  232MPD1    N1 3530   4.626   2.738   0.743  0.1704 -0.3139 -0.1771
  232MPD1    H6 3531   4.622   2.765   0.645 -0.9839 -0.6169 -0.2183
  232MPD1    H7 3532   4.688   2.803   0.790  1.9859 -0.8123 -1.8791
  233MPD1     C 3533   0.103   2.395   1.198  0.2660 -0.1690 -0.3546
  233MPD1    C1 3534   0.230   2.421   1.155 -0.1845 -0.4056  0.1022
  233MPD1    C2 3535   0.336   2.358   1.215  0.4038  0.2783 -0.1547
  233MPD1    C3 3536   0.313   2.265   1.315  0.0573  0.9104 -0.1298
  233MPD1    C4 3537   0.181   2.232   1.348 -0.3671  0.0222  0.7750
  233MPD1    C5 3538   0.080   2.296   1.290 -0.1157  0.2324 -0.2789
  233MPD1     H 3539   0.431   2.394   1.179  0.1726  1.9919  0.9509
  233MPD1    H1 3540   0.159   2.152   1.418 -1.7260  1.1285  1.5830
  233MPD1    H2 3541   0.023   2.450   1.149  0.1906  0.1358  0.1172
  233MPD1    H3 3542   4.700   2.259   1.305 -0.2507  1.8242  2.7153
  233MPD1     N 3543   0.413   2.191   1.378 -0.0589 -0.0852  0.3280
  233MPD1    H5 3544   0.378   2.113   1.434 -0.0643 -0.5796 -0.3600
  233MPD1    N1 3545   0.250   2.536   1.081  0.2667 -0.0934 -0.3301
  233MPD1    H6 3546   0.327   2.517   1.016  1.2788 -0.2050  0.9016
  233MPD1    H7 3547   0.177   2.557   1.013 -0.9983 -0.8984  0.7889
  234MPD1     C 3548   2.604   3.199   9.365  0.2923  0.3650 -0.0609
  234MPD1    C1 3549   2.627   3.292   9.466 -0.3982 -0.1757 -0.2840
  234MPD1    C2 3550   2.516   3.368   9.498  0.1820  0.3164  0.0552
  234MPD1    C3 3551   2.387   3.350   9.451  0.1440 -0.3216 -0.9256
  234MPD1    C4 3552   2.369   3.245   9.359  0.2685 -0.2514  0.2465
  234MPD1    C5 3553   2.478   3.174   9.321 -0.1682 -0.1875 -0.7012
  234MPD1     H 3554   2.533   3.455   9.562  1.4996 -0.2352  0.4701
  234MPD1    H1 3555   2.277   3.225   9.304  0.7869 -0.9887 -0.3503
  234MPD1    H2 3556   2.683   3.143   9.316 -1.6158 -0.8530 -1.7146
  234MPD1    H3 3557   2.463   3.108   9.236 -1.2506  2.2578 -2.4468
  234MPD1     N 3558   2.290   3.435   9.496  0.2133  0.3090 -0.3103
  234MPD1    H5 3559   2.310   3.501   9.570  2.6985  0.7914 -1.4321
  234MPD1    N1 3560   2.753   3.319   9.512  0.0258  0.8164  0.2430
  234MPD1    H6 3561   2.806   3.232   9.521  0.0493  0.7284 -0.7512
  234MPD1    H7 3562   2.735   3.354   9.606 -0.4166  0.3657  0.3287
  235MPD1     C 3563   3.375   2.323   8.683  0.5970  0.2680  0.3546
  235MPD1    C1 3564   3.352   2.398   8.792 -0.4175  0.0536  0.6136
  235MPD1    C2 3565   3.443   2.489   8.825 -0.3087 -0.0781 -0.5040
  235MPD1    C3 3566   3.562   2.497   8.754  0.2209 -0.2714 -0.5986
  235MPD1    C4 3567   3.595   2.411   8.651 -0.0511  0.2362  0.1014
  235MPD1    C5 3568   3.498   2.323   8.613  0.1666  0.2589 -0.4023
  235MPD1     H 3569   3.417   2.559   8.903 -0.9359 -1.1575  0.2468
  235MPD1    H1 3570   3.686   2.419   8.593  0.7198 -1.4301  1.0822
  235MPD1    H2 3571   3.295   2.260   8.647  1.4171 -0.6259  0.0906
  235MPD1    H3 3572   3.505   2.270   8.519 -2.4984  0.8888 -0.9647
  235MPD1     N 3573   3.647   2.602   8.796 -0.2590 -0.1962 -1.0466
  235MPD1    H5 3574   3.612   2.667   8.866 -1.0708  0.1683 -1.8117
  235MPD1    N1 3575   3.231   2.377   8.850 -1.1132  0.3036  0.1753
  235MPD1    H6 3576   3.232   2.385   8.951  1.1360 -0.1420  0.1745
  235MPD1    H7 3577   3.177   2.299   8.811 -0.2609  0.0799 -0.5485
  236MPD1     C 3578   3.377   3.604   9.672  0.1937 -0.1173  0.1578
  236MPD1    C1 3579   3.400   3.473   9.700  0.5567  0.1401 -0.1574
  236MPD1    C2 3580   3.486   3.438   9.799 -0.4832 -0.3598 -0.1542
  236MPD1    C3 3581   3.567   3.531   9.858  1.1611 -0.1299 -0.1838
  236MPD1    C4 3582   3.545   3.661   9.827  0.1128  0.1814  0.2780
  236MPD1    C5 3583   3.453   3.705   9.734 -0.3415 -0.1575 -0.1923
  236MPD1     H 3584   3.478   3.337   9.838  0.0693  0.1532  1.2806
  236MPD1    H1 3585   3.603   3.740   9.873  1.7752 -1.5768  1.1988
  236MPD1    H2 3586   3.289   3.629   9.614  0.0867  2.4948  1.4385
  236MPD1    H3 3587   3.446   3.808   9.703 -1.4694  0.2410  1.3682
  236MPD1     N 3588   3.662   3.506   9.964 -0.3126  0.3001 -0.6047
  236MPD1    H5 3589   3.710   3.586  10.006  2.0724 -1.0819 -0.6835
  236MPD1    N1 3590   3.321   3.369   9.653  0.2602  0.4501 -0.9880
  236MPD1    H6 3591   3.367   3.278   9.657  0.9402  0.8705  0.8563
  236MPD1    H7 3592   3.287   3.388   9.559  1.8287  0.3995 -1.5591
  237MPD1     C 3593   2.332   1.959  15.399  0.2663 -0.6014  0.0568
  237MPD1    C1 3594   2.226   1.889  15.455  0.1998 -0.6478  0.7403
  237MPD1    C2 3595   2.126   1.845  15.369  0.8849  0.1423  0.2664
  237MPD1    C3 3596   2.123   1.887  15.233 -0.2850 -0.5328 -0.9775
  237MPD1    C4 3597   2.239   1.945  15.178 -0.9742 -0.4745  0.1090
  237MPD1    C5 3598   2.340   1.975  15.262 -0.9169  0.6974  0.4106
  237MPD1     H 3599   2.052   1.782  15.416 -1.2768  2.5162  0.0923
  237MPD1    H1 3600   2.266   1.954  15.074  0.6837 -0.4301  0.5531
  237MPD1    H2 3601   2.415   1.995  15.458 -0.7288  0.2343  0.9422
  237MPD1    H3 3602   2.432   2.001  15.211 -1.6284  2.3898 -0.0318
  237MPD1     N 3603   2.017   1.851  15.146 -0.3705 -0.1670 -0.1033
  237MPD1    H5 3604   2.027   1.858  15.045  1.7924  0.9710  0.2012
  237MPD1    N1 3605   2.229   1.839  15.585  0.2013 -0.6931 -0.0732
  237MPD1    H6 3606   2.268   1.906  15.651 -2.0091  0.2558  0.2512
  237MPD1    H7 3607   2.140   1.803  15.618 -1.0943  1.4028 -1.2708
  238MPD1     C 3608   4.517   0.705  15.692  0.0783 -0.1588 -0.3046
  238MPD1    C1 3609   4.562   0.583  15.636 -0.5085  1.0037  1.0032
  238MPD1    C2 3610   4.483   0.526  15.531  0.9399  0.2168  0.2301
  238MPD1    C3 3611   4.370   0.585  15.486  0.2028 -0.0518 -0.2138
  238MPD1    C4 3612   4.330   0.703  15.547  0.6106  0.0022 -0.3524
  238MPD1    C5 3613   4.405   0.762  15.641  0.6227 -0.2969 -0.4642
  238MPD1     H 3614   4.525   0.440  15.480  1.5854  1.3546 -1.1537
  238MPD1    H1 3615   4.243   0.758  15.513 -1.2896 -1.1411  2.5655
  238MPD1    H2 3616   4.567   0.765  15.767 -0.9181  0.4021 -0.0781
  238MPD1    H3 3617   4.375   0.857  15.682 -1.5682 -0.2783 -2.1457
  238MPD1     N 3618   4.298   0.542  15.376  0.4132  0.0480  0.3904
  238MPD1    H5 3619   4.218   0.594  15.341  1.6402  0.1050 -2.3175
  238MPD1    N1 3620   4.691   0.531  15.656  0.2513  0.2355  0.7144
  238MPD1    H6 3621   4.694   0.430  15.668  0.7923  0.3460  1.4681
  238MPD1    H7 3622   0.023   0.583  15.726  0.6237  1.0477 -0.1586
  239MPD1     C 3623   4.505   2.639  14.887  0.1407  0.0341 -1.1180
  239MPD1    C1 3624   4.467   2.715  14.782  0.9091 -0.2845  0.3618
  239MPD1    C2 3625   4.394   2.652  14.684 -0.1209  0.4005  0.0277
  239MPD1    C3 3626   4.390   2.519  14.672  0.2066  0.2135  0.3441
  239MPD1    C4 3627   4.451   2.440  14.769  0.3312 -0.5265  0.6618
  239MPD1    C5 3628   4.500   2.501  14.882 -1.1080  0.7268  0.4629
  239MPD1     H 3629   4.330   2.714  14.622 -0.2891  0.8282  0.6194
  239MPD1    H1 3630   4.436   2.332  14.770  1.1240 -0.6304  1.3527
  239MPD1    H2 3631   4.544   2.683  14.979 -1.4325  0.9486 -0.8972
  239MPD1    H3 3632   4.528   2.438  14.965  0.5789 -0.2198 -0.8042
  239MPD1     N 3633   4.328   2.459  14.559 -0.2064  0.0740  0.0774
  239MPD1    H5 3634   4.285   2.521  14.490 -0.1423 -0.2220 -0.2297
  239MPD1    N1 3635   4.461   2.857  14.793  0.1218  0.1465  0.2174
  239MPD1    H6 3636   4.551   2.891  14.827  1.2591 -1.3389 -1.3605
  239MPD1    H7 3637   4.439   2.906  14.707 -1.7426  0.6404  0.9616
  240MPD1     C 3638   4.317   1.140  13.999  0.4333 -0.0895  0.0863
  240MPD1    C1 3639   4.375   1.126  14.119  0.0068 -0.1953  0.6755
  240MPD1    C2 3640   4.294   1.109  14.230  0.5618 -0.8628  0.1275
  240MPD1    C3 3641   4.160   1.093  14.218  0.2185 -1.1664 -0.0467
  240MPD1    C4 3642   4.106   1.089  14.093 -0.2445  0.2169 -0.5627
  240MPD1    C5 3643   4.182   1.127  13.983  0.6748  0.3144  0.2014
  240MPD1     H 3644   4.338   1.101  14.329  0.5035  1.1252  0.3116
  240MPD1    H1 3645   4.000   1.075  14.077  0.0596  0.3273 -2.6200
  240MPD1    H2 3646   4.385   1.160  13.916  0.5776 -0.7145  0.0569
  240MPD1    H3 3647   4.149   1.127  13.880  2.7844  0.5182 -0.4671
  240MPD1     N 3648   4.085   1.087  14.339  0.1042  0.4619  0.0526
  240MPD1    H5 3649   4.131   1.113  14.425 -0.1915  0.2741  0.2689
  240MPD1    N1 3650   4.513   1.150  14.134 -0.4796  0.4041  0.3275
  240MPD1    H6 3651   4.549   1.076  14.194 -1.9882 -0.4679  0.1534
  240MPD1    H7 3652   4.566   1.146  14.047  0.2406 -3.1193  0.9461
  241MPD1     C 3653   4.479   1.008  15.079 -0.5234 -0.2413  0.4397
  241MPD1    C1 3654   4.371   0.921  15.111 -0.5034  0.3208  0.0307
  241MPD1    C2 3655   4.272   0.911  15.012 -0.0393  0.6726 -0.1168
  241MPD1    C3 3656   4.277   0.982  14.893 -0.2656  0.2130 -0.3100
  241MPD1    C4 3657   4.381   1.065  14.870 -0.7945 -0.0075  0.2155
  241MPD1    C5 3658   4.481   1.077  14.957 -0.1023  0.0305  0.2937
  241MPD1     H 3659   4.187   0.853  15.046 -1.5828  2.5047 -0.8287
  241MPD1    H1 3660   4.392   1.120  14.777 -0.7317 -0.6719 -0.1671
  241MPD1    H2 3661   4.558   1.032  15.149  0.9267 -0.5663 -1.0867
  241MPD1    H3 3662   4.561   1.144  14.927  0.7443 -0.1369  2.1495
  241MPD1     N 3663   4.180   0.974  14.794  0.1147 -0.3834 -1.0522
  241MPD1    H5 3664   4.195   1.037  14.716  2.2516 -1.3856 -1.4603
  241MPD1    N1 3665   4.357   0.874  15.241  0.5703  0.6320 -0.1518
  241MPD1    H6 3666   4.298   0.792  15.251  0.9997  0.6544  2.5800
  241MPD1    H7 3667   4.438   0.869  15.302  0.5721 -2.5992 -0.4274
  242MPD1     C 3668   4.077   4.558  15.939  0.5113 -0.5324  0.1443
  242MPD1    C1 3669   3.966   4.479  15.968 -0.1258 -0.5690 -0.0318
  242MPD1    C2 3670   3.949   4.369  15.885  0.0096 -0.3026 -0.6820
  242MPD1    C3 3671   4.012   4.350  15.764  0.0005 -0.1858 -0.3562
  242MPD1    C4 3672   4.121   4.433  15.741  0.2576 -0.0882  0.5247
  242MPD1    C5 3673   4.149   4.540  15.825  0.4045  0.5721 -0.3656
  242MPD1     H 3674   3.866   4.305  15.914  0.0335  0.0448  0.1406
  242MPD1    H1 3675   4.184   4.425  15.654 -1.4388  3.6815 -1.0442
  242MPD1    H2 3676   4.098   4.650  15.993 -4.0024  2.5163 -3.2734
  242MPD1    H3 3677   4.221   4.615  15.791 -0.1440  1.7439  1.0757
  242MPD1     N 3678   3.974   4.265  15.662  0.3924  0.5909 -0.1362
  242MPD1    H5 3679   4.037   4.264  15.582 -0.6496 -0.3733 -0.9561
  242MPD1    N1 3680   3.908   4.494  16.097 -0.1623  0.0203 -0.1179
  242MPD1    H6 3681   3.898   4.588  16.135 -1.2564 -0.2507  0.2297
  242MPD1    H7 3682   3.812   4.461  16.102 -0.9521  2.1835 -0.9705
  243MPD1     C 3683   0.771   2.822  17.214  0.0551 -1.0270 -0.7279
  243MPD1    C1 3684   0.686   2.863  17.315  0.2572 -0.0477  0.1217
  243MPD1    C2 3685   0.550   2.834  17.305  0.4039  0.6327  0.5180
  243MPD1    C3 3686   0.501   2.761  17.194 -0.4504 -0.3438 -0.1051
  243MPD1    C4 3687   0.586   2.725  17.091 -0.1465 -0.5541 -0.4512
  243MPD1    C5 3688   0.719   2.753  17.108  0.7092  0.3038  0.0980
  243MPD1     H 3689   0.486   2.871  17.383  0.9767  2.9773 -0.0987
  243MPD1    H1 3690   0.558   2.678  16.997 -1.3793 -0.1461 -0.3002
  243MPD1    H2 3691   0.877   2.839  17.206  0.0352 -0.5260  0.0572
  243MPD1    H3 3692   0.789   2.735  17.028  0.0472  1.1930 -0.6800
  243MPD1     N 3693   0.367   2.721  17.194 -0.0892  0.0764 -0.2122
  243MPD1    H5 3694   0.306   2.763  17.263  0.3762  0.8309 -0.2656
  243MPD1    N1 3695   0.729   2.956  17.414  0.1643  0.3190 -0.1714
  243MPD1    H6 3696   0.823   2.935  17.446  0.7964  2.3952 -0.6213
  243MPD1    H7 3697   0.665   2.945  17.492 -0.6945 -1.8514 -1.1830
  244MPD1     C 3698   4.181   2.852  17.607  0.4180 -0.1670  0.6750
  244MPD1    C1 3699   4.174   2.897  17.471 -0.2226  0.5656 -0.5434
  244MPD1    C2 3700   4.273   2.853  17.382  0.4491 -0.2713 -0.1848
  244MPD1    C3 3701   4.386   2.780  17.423  0.1566  0.0629  0.4864
  244MPD1    C4 3702   4.396   2.745  17.553  0.3051  0.0040  0.5130
  244MPD1    C5 3703   4.293   2.778  17.638 -0.5465  0.4451  0.4117
  244MPD1     H 3704   4.262   2.863  17.275  1.1447  3.2362  0.0770
  244MPD1    H1 3705   4.485   2.698  17.593 -1.1730 -0.8167  2.8319
  244MPD1    H2 3706   4.104   2.869  17.682  1.2009  0.8610  1.2445
  244MPD1    H3 3707   4.312   2.753   0.059  0.6539  1.9832  0.5808
  244MPD1     N 3708   4.483   2.743  17.325  0.6988 -0.1432 -0.7063
  244MPD1    H5 3709   4.458   2.760  17.228  0.4063 -0.7488 -0.7327
  244MPD1    N1 3710   4.053   2.949  17.425  0.2909 -0.3749  0.5281
  244MPD1    H6 3711   4.072   3.025  17.360  3.3584 -0.3516  1.4321
  244MPD1    H7 3712   3.992   3.001  17.487 -0.4110 -1.7964  1.0239
  245MPD1     C 3713   2.259   3.453  13.201  0.2331 -0.3999  0.1243
  245MPD1    C1 3714   2.149   3.501  13.265  0.5582 -0.5495 -0.5178
  245MPD1    C2 3715   2.166   3.593  13.363  0.1548 -0.4581  0.3241
  245MPD1    C3 3716   2.290   3.637  13.406 -0.2869  0.4715 -0.8531
  245MPD1    C4 3717   2.401   3.589  13.341  0.4378  0.3265 -0.5889
  245MPD1    C5 3718   2.382   3.495  13.239  0.4303  0.4072 -0.6371
  245MPD1     H 3719   2.075   3.644  13.393  0.3003  0.3726 -0.6147
  245MPD1    H1 3720   2.504   3.621  13.351  0.6687  0.4240 -3.4384
  245MPD1    H2 3721   2.250   3.395  13.110  2.8199 -1.2430  0.4039
  245MPD1    H3 3722   2.467   3.460  13.182  2.2600  2.1036  1.0095
  245MPD1     N 3723   2.303   3.736  13.506  0.5207  0.4308 -0.3866
  245MPD1    H5 3724   2.219   3.787  13.533 -0.2875 -2.1563  1.9855
  245MPD1    N1 3725   2.023   3.481  13.216 -0.4541 -0.2078  0.1587
  245MPD1    H6 3726   1.957   3.496  13.292 -0.1013  1.4804  0.1301
  245MPD1    H7 3727   2.009   3.397  13.161 -0.7912 -0.9774  1.4327
  246MPD1     C 3728   3.205   0.355  10.165  0.7688  0.1083 -1.1127
  246MPD1    C1 3729   3.091   0.327  10.091  0.3287 -0.7564  0.8101
  246MPD1    C2 3730   3.109   0.291   9.958 -0.3067 -0.2092  0.1217
  246MPD1    C3 3731   3.233   0.254   9.913  0.0557  0.9033 -0.2430
  246MPD1    C4 3732   3.342   0.273   9.993  0.0480  0.1016  0.2128
  246MPD1    C5 3733   3.325   0.316  10.119 -0.3714 -0.2452 -0.5568
  246MPD1     H 3734   3.028   0.282   9.888 -0.1060 -0.7466 -0.0427
  246MPD1    H1 3735   3.432   0.214   9.979 -0.6086 -0.8232 -0.0917
  246MPD1    H2 3736   3.193   0.397  10.264 -0.5779 -1.0982 -0.7510
  246MPD1    H3 3737   3.418   0.334  10.172  0.3317 -1.2966 -1.4171
  246MPD1     N 3738   3.244   0.201   9.782 -0.3293  0.4676  0.5092
  246MPD1    H5 3739   3.159   0.217   9.727 -1.1222 -0.7084  1.4009
  246MPD1    N1 3740   2.967   0.360  10.141 -0.5927 -0.1525 -0.1662
  246MPD1    H6 3741   2.971   0.371  10.242  2.5875  0.5434 -0.3739
  246MPD1    H7 3742   2.896   0.292  10.115 -1.1803  0.9309 -1.3877
  247MPD1     C 3743   0.850   3.344  16.158  0.6151  0.7967 -0.5816
  247MPD1    C1 3744   0.912   3.222  16.175 -0.1508 -0.5428 -0.0558
  247MPD1    C2 3745   0.992   3.176  16.074 -0.9284 -0.2203  0.4077
  247MPD1    C3 3746   1.008   3.255  15.963 -0.1704  0.0306 -0.3541
  247MPD1    C4 3747   0.946   3.377  15.954  0.0558  0.4060  0.5799
  247MPD1    C5 3748   0.867   3.430  16.054  0.7722  0.0024  0.3997
  247MPD1     H 3749   1.041   3.081  16.088 -1.1249 -0.3056  0.5203
  247MPD1    H1 3750   0.957   3.434  15.862 -2.2705 -1.6625 -0.9855
  247MPD1    H2 3751   0.786   3.386  16.235 -0.7696 -0.3138 -1.1157
  247MPD1    H3 3752   0.813   3.523  16.045  0.3649 -0.2782 -0.0525
  247MPD1     N 3753   1.076   3.202  15.852  0.0432  0.3132  0.5040
  247MPD1    H5 3754   1.096   3.267  15.777 -0.4650 -1.4218 -1.1261
  247MPD1    N1 3755   0.903   3.163  16.302  0.2537 -0.3932 -0.5199
  247MPD1    H6 3756   0.806   3.177  16.330  0.2360 -0.2003 -0.6809
  247MPD1    H7 3757   0.917   3.062  16.305 -0.2323 -0.4589 -0.4757
  248MPD1     C 3758   2.435   2.441   0.426  0.3300  0.2155 -0.2041
  248MPD1    C1 3759   2.382   2.482   0.550  0.0015 -0.0269 -0.9645
  248MPD1    C2 3760   2.346   2.615   0.563  0.0633  0.2844 -0.0652
  248MPD1    C3 3761   2.347   2.693   0.445 -0.5968 -0.0058  0.0334
  248MPD1    C4 3762   2.365   2.647   0.323  0.7964  0.4443 -0.0911
  248MPD1    C5 3763   2.423   2.523   0.314 -0.4860  0.0299  0.4661
  248MPD1     H 3764   2.334   2.658   0.661  1.7424 -1.2352  0.8162
  248MPD1    H1 3765   2.360   2.711   0.235 -0.3356 -0.6667 -0.8303
  248MPD1    H2 3766   2.483   2.345   0.409  1.8583  0.8895  0.3567
  248MPD1    H3 3767   2.444   2.488   0.214 -0.7773  1.2939 -0.0457
  248MPD1     N 3768   2.302   2.822   0.468  0.4076 -0.8759  0.3642
  248MPD1    H5 3769   2.289   2.852   0.565  0.3339  0.9862 -0.2212
  248MPD1    N1 3770   2.399   2.407   0.667 -0.4198 -0.1725 -0.4079
  248MPD1    H6 3771   2.327   2.432   0.734  0.7044 -0.8091  1.0154
  248MPD1    H7 3772   2.396   2.308   0.646 -0.6655 -0.1828 -0.3167
  249MPD1     C 3773   3.502   1.834   9.774 -0.1862 -0.1475 -0.1908
  249MPD1    C1 3774   3.483   1.936   9.685 -0.1162  0.0656 -0.2594
  249MPD1    C2 3775   3.587   2.014   9.657  0.0195  0.1832 -0.5569
  249MPD1    C3 3776   3.695   2.029   9.741 -0.3154 -0.1972 -0.4272
  249MPD1    C4 3777   3.702   1.941   9.847  0.8456  0.7026 -0.3007
  249MPD1    C5 3778   3.615   1.838   9.853 -0.4732 -0.4931 -0.4582
  249MPD1     H 3779   3.574   2.080   9.572 -0.9502 -0.1218 -0.6467
  249MPD1    H1 3780   3.789   1.928   9.910 -0.4285  0.8777  1.4881
  249MPD1    H2 3781   3.433   1.751   9.789 -0.7308  0.4730  0.7927
  249MPD1    H3 3782   3.648   1.763   9.924  1.8991  0.6356 -0.3610
  249MPD1     N 3783   3.771   2.143   9.731 -0.2973  0.2978 -0.2234
  249MPD1    H5 3784   3.757   2.209   9.655  0.2310 -1.5575 -1.9187
  249MPD1    N1 3785   3.376   1.921   9.594  0.1406  0.1190  0.0692
  249MPD1    H6 3786   3.354   1.992   9.525  1.8976 -1.7250 -2.3798
  249MPD1    H7 3787   3.290   1.892   9.640 -0.9289  0.7505 -1.5348
  250MPD2     C 3788   1.201   2.005  13.170  0.3703  0.1762  0.4048
  250MPD2    C1 3789   1.079   2.012  13.111  0.1951  0.2850  0.1864
  250MPD2    C2 3790   0.995   1.900  13.096 -0.6428 -0.1312 -0.4492
  250MPD2    C3 3791   1.038   1.774  13.135 -0.5187 -0.0756  0.2433
  250MPD2    C4 3792   1.168   1.768  13.190 -0.6653 -0.3710  0.0843
  250MPD2    C5 3793   1.242   1.879  13.212 -0.2530  0.4825 -0.3680
  250MPD2     H 3794   0.905   1.902  13.035 -0.8624 -1.1772 -0.1664
  250MPD2    H1 3795   1.209   1.671  13.215 -1.9352 -0.7988  0.4830
  250MPD2    H2 3796   1.268   2.091  13.172  0.2585  0.2340  1.3246
  250MPD2    H3 3797   1.335   1.872  13.269  0.3400 -0.6752 -1.4831
  250MPD2     N 3798   0.973   1.648  13.105 -0.0178 -0.3018 -0.1967
  250MPD2    H5 3799   1.020   1.559  13.123  0.1805  0.0188  0.8557
  250MPD2    N1 3800   1.042   2.139  13.068 -0.3394 -0.5319  0.2746
  250MPD2    H7 3801   1.104   2.219  13.079 -3.3299  1.5963  1.7616
  251TMC3    C1 3802   0.908   2.312  12.997 -0.2747 -0.1990  0.1626
  251TMC3    C2 3803   0.779   2.360  13.012  0.8201  0.1661 -0.0763
  251TMC3    C3 3804   0.763   2.499  13.005 -0.3730  0.6475  0.5725
  251TMC3    C4 3805   1.012   2.391  13.000 -0.2286 -0.6899 -0.1304
  251TMC3    C5 3806   0.997   2.527  13.001 -0.0884 -0.0770  0.6025
  251TMC3    C6 3807   0.876   2.584  13.012 -0.6790  0.1911  0.6689
  251TMC3     C 3808   0.923   2.169  13.001  0.1868 -0.0144  0.6351
  251TMC3     O 3809   0.821   2.107  13.006 -0.1499 -0.3449  0.4740
  251TMC3     H 3810   0.696   2.290  13.021  0.9427 -0.1147 -1.0835
  251TMC3    H1 3811   1.111   2.355  12.977  0.0760 -1.0434  1.7566
  251TMC3    H2 3812   0.884   2.692  13.016  0.4707  0.1140  0.4406
  251TMC3    C7 3813   1.123   2.594  13.008  0.4102 -1.1059  0.2974
  251TMC3    C8 3814   0.640   2.560  13.030  0.8965 -0.8406 -0.4601
  251TMC3    O1 3815   1.212   2.532  13.065  0.2409  0.1863 -0.2990
  251TMC3    O2 3816   0.641   2.673  13.082  0.6546 -0.1495 -0.0564
  252TMC3    C1 3817   2.216   1.917   9.774  0.0836  0.5341  0.2076
  252TMC3    C2 3818   2.172   2.046   9.763  0.4417 -0.2079 -0.2278
  252TMC3    C3 3819   2.041   2.075   9.771 -0.0965  0.2300 -0.7493
  252TMC3    C4 3820   2.121   1.818   9.792  0.0885  0.0872 -0.2798
  252TMC3    C5 3821   1.984   1.849   9.794  0.2685  0.1851 -0.2059
  252TMC3    C6 3822   1.953   1.976   9.779  0.2826 -0.1826 -0.4782
  252TMC3     C 3823   2.351   1.885   9.724  0.0634 -0.3230  0.5003
  252TMC3     O 3824   2.436   1.972   9.735  0.2935 -0.4982  0.0506
  252TMC3     H 3825   2.246   2.119   9.731 -1.3512  0.4456 -2.8728
  252TMC3    H1 3826   2.159   1.717   9.804  0.6892  0.6450  2.6267
  252TMC3    H2 3827   1.848   2.003   9.779  0.8765  2.1605  2.7500
  252TMC3    C7 3828   1.871   1.751   9.800 -0.5517 -0.5382 -0.1472
  252TMC3    C8 3829   1.990   2.180   9.684  0.3357  0.9451  0.9740
  252TMC3    O1 3830   1.764   1.799   9.834  0.3206  0.4695 -0.3372
  252TMC3    O2 3831   1.895   2.151   9.615 -0.4025  0.1443 -0.1469
  253MPD2     C 3832   1.998   2.195  15.072 -0.0477 -0.0301 -0.1354
  253MPD2    C1 3833   1.889   2.199  15.155  0.3156 -0.2502 -0.2884
  253MPD2    C2 3834   1.898   2.259  15.283 -0.3353 -0.5749  0.0148
  253MPD2    C3 3835   2.020   2.310  15.322  0.8727 -0.2228 -0.0204
  253MPD2    C4 3836   2.118   2.314  15.229 -0.0296 -0.9792 -0.4521
  253MPD2    C5 3837   2.109   2.252  15.109 -0.6586  0.5447 -0.5926
  253MPD2     H 3838   1.811   2.266  15.346  0.0772  3.2775  0.1405
  253MPD2    H1 3839   2.212   2.361  15.254 -0.8015 -0.7571  2.0952
  253MPD2    H2 3840   1.992   2.147  14.976  1.2915 -1.5448  0.5423
  253MPD2    H3 3841   2.196   2.258  15.045  1.1219 -2.5386  1.4836
  253MPD2     N 3842   2.043   2.377  15.444  0.2671 -0.2624  0.2926
  253MPD2    H5 3843   2.135   2.419  15.453  1.2683 -2.2927 -0.6098
  253MPD2    N1 3844   1.754   2.145  15.129 -1.0182  0.4786 -0.0823
  253MPD2    H7 3845   1.684   2.148  15.203 -1.0458 -0.0477 -0.0853
  254TMC3    C1 3846   2.009   2.420  15.676  0.0772 -0.1307 -0.5264
  254TMC3    C2 3847   1.919   2.439  15.769 -0.5615 -0.1748 -0.8486
  254TMC3    C3 3848   1.928   2.373  15.885  1.7691  0.1105 -0.3441
  254TMC3    C4 3849   2.111   2.331  15.704 -0.3311  0.3003  0.5821
  254TMC3    C5 3850   2.123   2.275  15.828  0.2781  0.2062  0.6783
  254TMC3    C6 3851   2.025   2.290  15.920 -0.6964 -0.1408  0.1557
  254TMC3     C 3852   1.946   2.403  15.545 -0.5313  0.4324 -0.8009
  254TMC3     O 3853   1.824   2.374  15.551 -0.4016  0.4528 -0.7247
  254TMC3     H 3854   1.844   2.512  15.741  0.2346  0.0876 -2.2981
  254TMC3    H1 3855   2.186   2.307  15.629  0.1956 -0.5279  1.3837
  254TMC3    H2 3856   2.037   2.250  16.020  0.1845 -0.0560  0.0828
  254TMC3    C7 3857   2.208   2.163  15.850  1.0776  0.5693  0.1962
  254TMC3    C8 3858   1.817   2.387  15.974 -0.0854 -0.9085 -0.1566
  254TMC3    O1 3859   2.159   2.076  15.921  0.2916  0.0806  0.1987
  254TMC3    O2 3860   1.834   2.346  16.089  0.0186  0.4767 -0.1234
  255MPD2     C 3861   0.325   0.038  10.882 -0.2805  0.2188  0.9350
  255MPD2    C1 3862   0.429   0.063  10.797 -0.1822 -0.1943 -0.4967
  255MPD2    C2 3863   0.551   0.008  10.823 -0.2656  0.3289 -0.1622
  255MPD2    C3 3864   0.578   4.635  10.927  0.3669 -0.3983  0.6657
  255MPD2    C4 3865   0.467   4.610  11.009 -0.3102  0.2379 -0.3314
  255MPD2    C5 3866   0.350   4.674  10.990 -0.7075  0.0419  0.7129
  255MPD2     H 3867   0.630   0.019  10.749  0.6122 -0.2393  0.6831
  255MPD2    H1 3868   0.467   4.532  11.084  1.0835 -0.9088 -1.5229
  255MPD2    H2 3869   0.228   0.084  10.869  0.8753  2.0802 -1.0045
  255MPD2    H3 3870   0.270   4.650  11.059 -2.0347  1.9221 -0.1658
  255MPD2     N 3871   0.718   4.599  10.949 -0.4188 -0.2085 -0.5072
  255MPD2    H5 3872   0.785   4.642  10.885 -1.3261  1.2889 -0.4405
  255MPD2    N1 3873   0.403   0.144  10.685  0.2035 -0.4248 -0.7431
  255MPD2    H7 3874   0.309   0.169  10.655 -0.0397 -0.3135  0.0994
  256TMC3    C1 3875   0.434   0.272  10.488 -0.2860 -0.5694  0.5722
  256TMC3    C2 3876   0.507   0.366  10.417  0.3222 -0.5661 -0.1616
  256TMC3    C3 3877   0.446   0.430  10.313 -0.1870 -0.4874 -0.4466
  256TMC3    C4 3878   0.300   0.257  10.460 -0.2415  0.2465 -0.0989
  256TMC3    C5 3879   0.245   0.326  10.361 -0.5013 -0.1520 -0.3278
  256TMC3    C6 3880   0.311   0.420  10.289 -0.6879 -0.9607 -0.2572
  256TMC3     C 3881   0.494   0.205  10.603  0.6140  0.4362  0.6856
  256TMC3     O 3882   0.614   0.212  10.620  0.5039 -0.4499  0.1747
  256TMC3     H 3883   0.613   0.358  10.438  0.5004 -0.7031 -1.0928
  256TMC3    H1 3884   0.232   0.206  10.527 -0.5438 -0.7209 -1.1603
  256TMC3    H2 3885   0.260   0.474  10.210 -3.0167 -2.2834  0.3525
  256TMC3    C7 3886   0.134   0.261  10.288 -0.1131  0.5832 -0.4385
  256TMC3    C8 3887   0.534   0.465  10.194  0.1450  0.2444  0.0983
  256TMC3    O1 3888   0.106   0.146  10.319 -0.1621 -0.5375 -0.2842
  256TMC3    O2 3889   0.655   0.467  10.206  0.5242  0.1174 -0.2154
  257MPD2     C 3890   4.596   2.206  13.073 -0.1152  0.7223  0.5003
  257MPD2    C1 3891   4.613   2.128  12.953 -0.8383  0.0968  0.8781
  257MPD2    C2 3892   4.625   1.991  12.971  0.2372 -0.0874  0.1200
  257MPD2    C3 3893   4.599   1.936  13.098 -0.2231  0.2716 -0.9572
  257MPD2    C4 3894   4.574   2.016  13.208  0.7352 -0.0062  0.3238
  257MPD2    C5 3895   4.570   2.155  13.197  0.5343 -0.2537 -0.5073
  257MPD2     H 3896   4.658   1.922  12.894  0.1937 -1.0471  0.9515
  257MPD2    H1 3897   4.544   1.973  13.303 -1.2573  0.9012  0.1093
  257MPD2    H2 3898   4.590   2.314  13.067  0.2780  0.8642  2.6778
  257MPD2    H3 3899   4.555   2.219  13.283  0.1847 -0.2324 -0.5811
  257MPD2     N 3900   4.604   1.790  13.111 -1.1447 -0.3779 -0.2701
  257MPD2    H5 3901   4.623   1.727  13.033  1.3667  0.5360 -0.3873
  257MPD2    N1 3902   4.634   2.196  12.823  0.6379 -0.3516 -0.1523
  257MPD2    H7 3903   4.641   2.298  12.822 -1.2205 -0.2149  0.6918
  258TMC3    C1 3904   4.615   1.580  13.232  0.0282  0.2748  0.4974
  258TMC3    C2 3905   4.560   1.502  13.132 -0.6815 -0.2299  0.0913
  258TMC3    C3 3906   4.517   1.375  13.163 -0.1405 -0.5146 -0.3605
  258TMC3    C4 3907   4.630   1.530  13.354 -0.2259  0.4728  0.0856
  258TMC3    C5 3908   4.590   1.404  13.383  0.1098  0.2424  0.5281
  258TMC3    C6 3909   4.525   1.326  13.292 -0.3532 -0.2023  0.2260
  258TMC3     C 3910   4.590   1.727  13.237 -0.3576  0.1741  0.2903
  258TMC3     O 3911   4.550   1.760  13.348  0.0033  0.2268 -0.3221
  258TMC3     H 3912   4.516   1.560  13.052  1.6165  1.0811 -0.2028
  258TMC3    H1 3913   4.649   1.592  13.440 -0.9427 -2.0488  2.0437
  258TMC3    H2 3914   4.468   1.244  13.336 -2.6804  2.0431  1.4539
  258TMC3    C7 3915   4.563   1.382  13.526  0.3688 -0.2083 -0.3297
  258TMC3    C8 3916   4.477   1.287  13.058 -0.5222 -0.5475  0.2199
  258TMC3    O1 3917   4.444   1.388  13.561 -0.1906 -0.1507  0.7308
  258TMC3    O2 3918   4.438   1.179  13.092 -0.1756 -0.3346  0.0034
  259MPD2     C 3919   3.122   3.774   0.352  0.3928 -0.3928  0.7088
  259MPD2    C1 3920   3.186   3.666   0.408  0.1662 -0.2052 -0.2073
  259MPD2    C2 3921   3.300   3.623   0.359 -0.6744 -0.2237  0.1589
  259MPD2    C3 3922   3.357   3.667   0.243 -0.0915  0.2293 -0.8894
  259MPD2    C4 3923   3.302   3.779   0.185 -0.6714 -0.1749 -0.9108
  259MPD2    C5 3924   3.182   3.827   0.234  0.3714 -0.4434 -0.0839
  259MPD2     H 3925   3.345   3.533   0.400 -0.6074 -0.5412 -0.6119
  259MPD2    H1 3926   3.347   3.818   0.094 -0.0283 -0.7155 -0.8251
  259MPD2    H2 3927   3.025   3.806   0.387  0.7310  2.1277 -0.6490
  259MPD2    H3 3928   3.145   3.916   0.185  2.2557  0.4637  0.1696
  259MPD2     N 3929   3.467   3.598   0.189 -0.1094  0.4052 -0.5510
  259MPD2    H5 3930   3.499   3.523   0.249  1.0053  0.2842 -1.3031
  259MPD2    N1 3931   3.124   3.613   0.523  0.4098 -0.0201  0.4582
  259MPD2    H7 3932   3.037   3.651   0.557 -0.6085 -3.1508  1.3191
  260TMC3    C1 3933   3.644   3.524   0.064  0.4760 -0.0269 -0.5472
  260TMC3    C2 3934   3.672   3.464  17.625  1.0674  0.1820 -0.3533
  260TMC3    C3 3935   3.770   3.365  17.629 -0.5508 -0.1138  0.2204
  260TMC3    C4 3936   3.727   3.497   0.178 -0.5280  0.0610 -0.4588
  260TMC3    C5 3937   3.830   3.414   0.163  1.2894  0.1424  0.1844
  260TMC3    C6 3938   3.853   3.342   0.049 -0.7185  0.0563 -0.2985
  260TMC3     C 3939   3.534   3.624   0.075  0.3851 -0.2156  0.3051
  260TMC3     O 3940   3.510   3.701  17.665  0.0010  0.3053  0.0103
  260TMC3     H 3941   3.598   3.468  17.546  1.3364 -0.4276 -0.6371
  260TMC3    H1 3942   3.705   3.530   0.279 -1.6289  0.0886 -0.7118
  260TMC3    H2 3943   3.943   3.282   0.041 -0.6425  0.2206 -0.6391
  260TMC3    C7 3944   3.847   3.326   0.270  0.3950 -0.6576 -0.4168
  260TMC3    C8 3945   3.722   3.238  17.570 -0.0349 -0.1163 -0.0863
  260TMC3    O1 3946   3.950   3.316   0.332 -0.2094 -0.1390  0.1684
  260TMC3    O2 3947   3.651   3.245  17.469  0.3821  0.3866  0.1052
  261MPD2     C 3948   0.396   1.617  12.528  0.4263 -0.3859  0.4079
  261MPD2    C1 3949   0.479   1.687  12.610 -0.3875 -0.7544 -0.2093
  261MPD2    C2 3950   0.525   1.811  12.573  0.2704 -0.3544  0.2535
  261MPD2    C3 3951   0.518   1.865  12.442  0.4493  1.0099 -0.7244
  261MPD2    C4 3952   0.464   1.777  12.349  0.6909  0.0897 -0.3388
  261MPD2    C5 3953   0.402   1.662  12.398 -0.8188  0.0733  0.4963
  261MPD2     H 3954   0.589   1.861  12.645 -0.4221  2.9601 -1.4212
  261MPD2    H1 3955   0.445   1.800  12.245  1.7369  0.2431 -0.4964
  261MPD2    H2 3956   0.353   1.519  12.542  0.1167 -0.2858  0.1539
  261MPD2    H3 3957   0.348   1.610  12.320 -2.2979  0.7967  1.0463
  261MPD2     N 3958   0.572   1.983  12.396  0.4362  0.4468  0.0744
  261MPD2    H5 3959   0.571   1.999  12.295 -0.6265  1.8973  0.3177
  261MPD2    N1 3960   0.543   1.625  12.725  0.7022  0.0223  0.0883
  261MPD2    H7 3961   0.606   1.674  12.788 -1.1014  2.3941  0.0451
  262TMC3    C1 3962   0.671   2.192  12.400  0.0022  0.5287  0.6542
  262TMC3    C2 3963   0.594   2.304  12.379  0.0815 -0.3045  0.1041
  262TMC3    C3 3964   0.648   2.399  12.289  0.0948 -0.1025  0.4271
  262TMC3    C4 3965   0.769   2.156  12.312  0.0854 -0.9615  0.1994
  262TMC3    C5 3966   0.824   2.250  12.230 -0.1285 -1.0075 -0.1213
  262TMC3    C6 3967   0.763   2.376  12.223 -0.0500  0.0875 -0.2339
  262TMC3     C 3968   0.609   2.085  12.474 -0.1428  0.7084  0.4657
  262TMC3     O 3969   0.573   2.096  12.590  0.2278 -0.0088 -0.3343
  262TMC3     H 3970   0.502   2.317  12.435  0.1427  0.6959 -0.0361
  262TMC3    H1 3971   0.804   2.053  12.310  0.0717 -0.9564 -0.3941
  262TMC3    H2 3972   0.814   2.450  12.162 -1.0392 -1.2138 -2.6136
  262TMC3    C7 3973   0.851   2.194  12.098 -0.4117 -0.4924 -0.4147
  262TMC3    C8 3974   0.568   2.482  12.201 -0.9810 -0.0338 -0.2291
  262TMC3    O1 3975   0.903   2.085  12.098 -0.2869  0.2314  0.4318
  262TMC3    O2 3976   0.624   2.536  12.111  0.4821  0.0468 -0.0691
  263MPD2     C 3977   1.338   1.359  11.538  0.1130 -0.4561  0.2767
  263MPD2    C1 3978   1.465   1.374  11.486  0.4527  0.6728 -0.3864
  263MPD2    C2 3979   1.483   1.406  11.347 -0.3150  0.0834  0.7605
  263MPD2    C3 3980   1.365   1.421  11.268  0.3854  0.7482 -0.0641
  263MPD2    C4 3981   1.242   1.405  11.328  0.1802  0.0634 -0.5577
  263MPD2    C5 3982   1.229   1.375  11.460 -0.5511  0.5558 -0.1801
  263MPD2     H 3983   1.585   1.425  11.315 -1.5372  0.1106 -3.1118
  263MPD2    H1 3984   1.150   1.430  11.276 -0.7431  1.0619  1.5782
  263MPD2    H2 3985   1.327   1.348  11.646 -0.3182 -3.3275 -0.0568
  263MPD2    H3 3986   1.128   1.358  11.495  0.2465 -0.4358  1.6447
  263MPD2     N 3987   1.375   1.457  11.137 -0.5380 -0.1321  0.0472
  263MPD2    H5 3988   1.289   1.471  11.084  0.2187 -1.1120 -1.4301
  263MPD2    N1 3989   1.570   1.372  11.574 -0.5150  0.1959  0.3615
  263MPD2    H7 3990   1.544   1.351  11.670 -2.4339 -1.5695 -0.5652
  264TMC3    C1 3991   1.476   1.543  10.953  0.0790  0.0289  0.2842
  264TMC3    C2 3992   1.396   1.655  10.963 -0.0607 -0.6891  0.4640
  264TMC3    C3 3993   1.406   1.742  10.859 -0.4282  0.0893  0.1950
  264TMC3    C4 3994   1.559   1.523  10.851 -0.4816  0.4132  0.0406
  264TMC3    C5 3995   1.577   1.628  10.767 -0.0273  0.2215 -0.3453
  264TMC3    C6 3996   1.492   1.732  10.758  0.0362  0.3734  1.1537
  264TMC3     C 3997   1.491   1.462  11.066 -0.7525  0.1932 -0.4318
  264TMC3     O 3998   1.602   1.420  11.091 -0.0063 -0.8645 -0.1250
  264TMC3     H 3999   1.326   1.668  11.044 -0.0266  4.1700 -0.2589
  264TMC3    H1 4000   1.626   1.438  10.860  0.2531  1.1796  1.8106
  264TMC3    H2 4001   1.503   1.803  10.677  0.9994 -1.7630 -0.5994
  264TMC3    C7 4002   1.706   1.644  10.710 -0.0986  0.0052  0.7236
  264TMC3    C8 4003   1.357   1.877  10.881 -0.8939  0.0552  0.0230
  264TMC3    O1 4004   1.759   1.544  10.666 -0.6365 -0.1093  0.1089
  264TMC3    O2 4005   1.357   1.943  10.777  0.3521  0.5048  0.3066
  265MPD2     C 4006   2.984   1.812  15.677  0.2258 -0.2653  0.9914
  265MPD2    C1 4007   3.008   1.921  15.594  1.2835  0.4056  0.1051
  265MPD2    C2 4008   3.058   1.899  15.467 -0.2887  0.2955 -0.6569
  265MPD2    C3 4009   3.105   1.771  15.431  1.0609  0.3701 -0.0667
  265MPD2    C4 4010   3.084   1.665  15.523  0.3930 -0.4852 -0.0988
  265MPD2    C5 4011   3.031   1.689  15.644  0.4417  0.4695 -0.2154
  265MPD2     H 4012   3.080   1.981  15.401 -0.2576  1.2408  0.5222
  265MPD2    H1 4013   3.103   1.564  15.489 -0.3447 -0.8013  0.4283
  265MPD2    H2 4014   2.940   1.815  15.776 -0.0334  1.8782  0.8179
  265MPD2    H3 4015   3.006   1.600  15.700  1.6686 -0.3875 -1.0483
  265MPD2     N 4016   3.165   1.737  15.307  0.5126 -0.1794 -0.8148
  265MPD2    H5 4017   3.209   1.645  15.306 -0.2642 -0.5535 -1.2371
  265MPD2    N1 4018   2.978   2.053  15.641  0.0903  0.1984 -0.3690
  265MPD2    H7 4019   2.978   2.124  15.568 -2.6067  1.8781  1.2715
  266TMC3    C1 4020   2.932   2.235  15.790 -0.6846 -0.6082  0.7888
  266TMC3    C2 4021   2.957   2.292  15.908 -0.2513  0.5685 -0.9719
  266TMC3    C3 4022   2.970   2.430  15.915  0.2563 -0.5560 -0.2967
  266TMC3    C4 4023   2.884   2.303  15.683 -0.3002  0.3705  0.3740
  266TMC3    C5 4024   2.907   2.439  15.695 -0.4725 -0.2085 -0.5336
  266TMC3    C6 4025   2.950   2.510  15.805  0.0145 -0.4783 -0.3343
  266TMC3     C 4026   2.954   2.093  15.769 -0.7366  0.2947  0.7663
  266TMC3     O 4027   2.965   2.022  15.871  0.0017 -0.1055  0.1808
  266TMC3     H 4028   3.000   2.230  15.985 -0.5216  4.7659  2.5432
  266TMC3    H1 4029   2.854   2.253  15.591  0.9348 -0.2648  0.3218
  266TMC3    H2 4030   2.940   2.617  15.820  0.5123 -0.2347 -1.7822
  266TMC3    C7 4031   2.871   2.514  15.580 -0.4171  0.3812  0.1229
  266TMC3    C8 4032   3.050   2.485  16.020 -0.4930  0.5561  0.8215
  266TMC3    O1 4033   2.835   2.452  15.483 -0.3446 -0.2291  0.6162
  266TMC3    O2 4034   3.110   2.411  16.098 -0.6560 -0.4197  0.5328
  267MPD2     C 4035   1.062   3.438  17.665  0.0900  0.1046  0.4362
  267MPD2    C1 4036   1.073   3.556  17.584  0.1395 -0.4900 -0.1863
  267MPD2    C2 4037   1.025   3.554  17.457 -0.2414  0.3437 -0.0366
  267MPD2    C3 4038   0.981   3.437  17.401  0.5484  0.1745 -0.2117
  267MPD2    C4 4039   0.993   3.323  17.474  0.6457 -0.3411  0.0346
  267MPD2    C5 4040   1.025   3.320  17.603 -0.1679 -0.1776 -0.2464
  267MPD2     H 4041   1.017   3.649  17.405  0.5974 -0.9125 -2.4427
  267MPD2    H1 4042   0.953   3.231  17.433  0.1867  0.2477 -0.8446
  267MPD2    H2 4043   1.085   3.439   0.088  0.5833 -1.7050  0.3599
  267MPD2    H3 4044   1.019   3.228  17.660 -2.0699  0.0445 -0.0828
  267MPD2     N 4045   0.936   3.435  17.268  0.3503 -0.3217 -0.1744
  267MPD2    H5 4046   0.894   3.349  17.234  0.0492  0.1247 -0.9250
  267MPD2    N1 4047   1.137   3.675  17.642  0.2965 -0.2704 -0.1933
  267MPD2    H7 4048   1.163   3.665   0.056  1.0501  0.2195 -0.3456
  268TMC3    C1 4049   1.215   3.905  17.649 -0.1463 -0.5218  0.5771
  268TMC3    C2 4050   1.195   4.024  17.584  0.0408  0.2599  0.1389
  268TMC3    C3 4051   1.217   4.140  17.651 -0.3984 -0.4965 -0.8431
  268TMC3    C4 4052   1.236   3.893   0.100  0.0627  0.7089  0.1320
  268TMC3    C5 4053   1.240   4.019   0.170 -0.2303 -0.1947 -0.2973
  268TMC3    C6 4054   1.238   4.140   0.104 -0.2407 -0.0124 -0.2848
  268TMC3     C 4055   1.155   3.795  17.575  0.3592  0.2910 -0.4315
  268TMC3     O 4056   1.123   3.822  17.463 -0.2218 -0.4819  0.2029
  268TMC3     H 4057   1.189   4.022  17.476  0.8889 -1.6101  0.1288
  268TMC3    H1 4058   1.272   3.807   0.155 -3.8194 -1.2491 -0.3705
  268TMC3    H2 4059   1.266   4.230   0.157  1.0510 -0.0476 -0.9010
  268TMC3    C7 4060   1.260   4.013   0.317 -0.2235  0.0999 -0.4668
  268TMC3    C8 4061   1.148   4.259  17.600  0.6761  0.0222 -0.2527
  268TMC3    O1 4062   1.286   3.905   0.368  0.0952 -0.5244 -0.9339
  268TMC3    O2 4063   1.122   4.349  17.681  0.2516  0.0986  0.6007
  269MPD2     C 4064   0.517   2.398  15.945 -0.5886  0.3700 -0.6212
  269MPD2    C1 4065   0.448   2.372  15.828 -0.5180 -1.1760 -0.3989
  269MPD2    C2 4066   0.481   2.452  15.718 -0.0180 -0.0891 -0.1624
  269MPD2    C3 4067   0.577   2.555  15.732  0.2386 -0.2856  0.0407
  269MPD2    C4 4068   0.634   2.589  15.853  0.9395 -0.1516  0.4717
  269MPD2    C5 4069   0.605   2.504  15.960  0.7964 -0.1016 -0.7468
  269MPD2     H 4070   0.441   2.426  15.621 -0.7589 -0.7668  0.3337
  269MPD2    H1 4071   0.697   2.677  15.856  0.0745  0.4221  1.6884
  269MPD2    H2 4072   0.496   2.336  16.031  0.8110  1.4627  0.5028
  269MPD2    H3 4073   0.651   2.522  16.057 -3.3470  0.9692  1.0429
  269MPD2     N 4074   0.609   2.638  15.619  0.1491  0.2048  0.1421
  269MPD2    H5 4075   0.554   2.618  15.536 -1.6382  2.5831  0.7614
  269MPD2    N1 4076   0.360   2.262  15.830 -0.0694  0.1815 -0.6170
  269MPD2    H7 4077   0.350   2.197  15.907 -1.1723  3.7675  2.2588
  270TMC3    C1 4078   0.231   2.073  15.724 -0.3484  0.2124  1.2529
  270TMC3    C2 4079   0.202   2.014  15.603 -0.3395 -0.1834 -0.3543
  270TMC3    C3 4080   0.185   1.879  15.593  0.0881 -0.4473  0.8368
  270TMC3    C4 4081   0.255   1.995  15.833  0.7155 -0.2758  0.0388
  270TMC3    C5 4082   0.246   1.862  15.824 -0.0946 -0.1262 -0.1362
  270TMC3    C6 4083   0.207   1.801  15.704 -0.0390  0.2462  0.6652
  270TMC3     C 4084   0.299   2.210  15.712 -0.4927 -0.3081  0.2025
  270TMC3     O 4085   0.280   2.261  15.605 -0.1635  0.1330 -0.4146
  270TMC3     H 4086   0.217   2.065  15.509 -0.3528  2.0031  0.8114
  270TMC3    H1 4087   0.278   2.034  15.932  0.2201 -1.2395  0.5318
  270TMC3    H2 4088   0.183   1.696  15.705 -0.9257  0.4519  1.5823
  270TMC3    C7 4089   0.346   1.779  15.896 -0.6980  0.8257  0.6240
  270TMC3    C8 4090   0.254   1.826  15.479  0.1849  0.1322  0.2427
  270TMC3    O1 4091   0.418   1.714  15.820  0.0052 -0.0690  0.0027
  270TMC3    O2 4092   0.208   1.843  15.370 -0.1904  0.4432 -0.3643
  271MPD2     C 4093   0.067   2.222  13.974  0.1277 -0.1900 -0.0491
  271MPD2    C1 4094   4.688   2.158  14.051  0.0649  0.4924 -0.2289
  271MPD2    C2 4095   4.561   2.199  14.034  0.1960 -0.1792 -0.9842
  271MPD2    C3 4096   4.525   2.292  13.933  0.5421  0.3046  0.3129
  271MPD2    C4 4097   4.622   2.336  13.848 -0.9515 -0.0889 -0.2095
  271MPD2    C5 4098   0.027   2.305  13.876 -0.6703  0.2483 -0.2424
  271MPD2     H 4099   4.493   2.152  14.103  0.6894  0.0100 -0.3679
  271MPD2    H1 4100   4.603   2.409  13.771 -0.1522 -0.4697 -0.7553
  271MPD2    H2 4101   0.169   2.185  13.981 -0.1117 -0.6875  0.7907
  271MPD2    H3 4102   0.101   2.354  13.815 -0.1341  0.4629  0.5784
  271MPD2     N 4103   4.387   2.332  13.913  0.5865 -1.0060  0.2944
  271MPD2    H5 4104   4.364   2.392  13.834 -0.9803 -0.5397  1.0928
  271MPD2    N1 4105   0.000   2.056  14.144  0.1438 -0.1919 -0.4802
  271MPD2    H7 4106   4.656   2.033  14.219  0.4268  1.5851  0.3070
  272TMC3    C1 4107   0.148   1.888  14.247 -0.0444 -0.3650  0.1561
  272TMC3    C2 4108   0.262   1.818  14.241 -0.2631 -0.2693  0.0032
  272TMC3    C3 4109   0.297   1.742  14.349  0.0976  0.6080  0.1199
  272TMC3    C4 4110   0.061   1.874  14.358  0.2304 -0.2656  0.4192
  272TMC3    C5 4111   0.103   1.791  14.458 -0.5449  0.6542  0.7480
  272TMC3    C6 4112   0.218   1.721  14.462  0.4012  0.1252  0.2316
  272TMC3     C 4113   0.117   1.976  14.131 -0.0818  0.1775 -0.2470
  272TMC3     O 4114   0.196   1.962  14.035 -0.4325 -0.1465  0.4198
  272TMC3     H 4115   0.322   1.829  14.152 -1.6594 -1.7953 -1.1237
  272TMC3    H1 4116   4.681   1.916  14.368 -0.4781 -1.0607 -3.2845
  272TMC3    H2 4117   0.248   1.659  14.546  0.9556  0.4347  0.2641
  272TMC3    C7 4118   0.018   1.787  14.576 -0.6245  0.5170  0.0574
  272TMC3    C8 4119   0.419   1.669  14.335  0.7406  0.1732 -0.3640
  272TMC3    O1 4120   4.619   1.758  14.572  0.3425 -0.3978 -0.4762
  272TMC3    O2 4121   0.467   1.661  14.221  0.4220  0.4749 -0.2088
  273MPD2     C 4122   1.960   0.220  12.020 -0.3660 -0.2562 -0.3437
  273MPD2    C1 4123   2.079   0.296  11.986  0.1433  0.0166  0.9505
  273MPD2    C2 4124   2.078   0.336  11.854 -0.1419 -0.2526 -0.0418
  273MPD2    C3 4125   1.984   0.307  11.763  0.0385 -0.6980  0.0353
  273MPD2    C4 4126   1.871   0.239  11.802 -0.6592  0.0760  0.9760
  273MPD2    C5 4127   1.860   0.197  11.931 -0.8028  0.4542 -0.0876
  273MPD2     H 4128   2.164   0.392  11.819  0.1739  0.4848  1.9648
  273MPD2    H1 4129   1.792   0.211  11.733  0.0598 -0.7993  0.5115
  273MPD2    H2 4130   1.944   0.181  12.120  1.5265  1.2581  0.5620
  273MPD2    H3 4131   1.787   0.127  11.967 -0.8945  0.2526 -0.6753
  273MPD2     N 4132   2.009   0.331  11.622  0.6523  0.3542  0.0485
  273MPD2    H5 4133   1.946   0.278  11.563 -0.1457 -0.3216  1.5022
  273MPD2    N1 4134   2.178   0.320  12.082 -0.2256  0.6168  0.0245
  273MPD2    H7 4135   2.175   0.252  12.158 -1.7360  0.2305 -0.3827
  274TMC3    C1 4136   2.115   0.417  11.427 -0.0111 -0.3105 -0.3231
  274TMC3    C2 4137   2.051   0.337  11.329 -0.5263  0.1285 -0.5189
  274TMC3    C3 4138   2.074   0.362  11.199 -0.3322  0.6146  0.7836
  274TMC3    C4 4139   2.200   0.515  11.386 -0.6302 -0.2912 -0.0216
  274TMC3    C5 4140   2.219   0.538  11.252 -0.1146 -0.0877 -0.2549
  274TMC3    C6 4141   2.156   0.467  11.152  0.2589 -0.0830  0.1366
  274TMC3     C 4142   2.088   0.430  11.571  0.2375 -0.3554  0.0956
  274TMC3     O 4143   2.123   0.530  11.634 -0.0970 -0.3436  0.3430
  274TMC3     H 4144   2.000   0.252  11.372 -1.5027  1.3576  0.7566
  274TMC3    H1 4145   2.258   0.559  11.465  1.0513  0.6319 -1.7676
  274TMC3    H2 4146   2.201   0.473  11.053 -0.0913 -0.4329 -0.0453
  274TMC3    C7 4147   2.261   0.670  11.215  0.1208 -0.2716 -0.0144
  274TMC3    C8 4148   1.998   0.287  11.105 -0.1502 -0.5816  0.4577
  274TMC3    O1 4149   2.330   0.688  11.114  0.6619  0.1917  0.1562
  274TMC3    O2 4150   1.915   0.207  11.149  0.4966  0.7256 -0.4721
  275MPD2     C 4151   1.390   2.826  14.098 -0.1856  0.5821  0.2294
  275MPD2    C1 4152   1.341   2.865  14.227  0.4175  0.3512 -0.3417
  275MPD2    C2 4153   1.208   2.856  14.252  0.3633 -0.1924  0.0717
  275MPD2    C3 4154   1.121   2.819  14.157 -0.1346  0.2013 -0.2135
  275MPD2    C4 4155   1.169   2.776  14.035  0.0205 -0.0808  0.3916
  275MPD2    C5 4156   1.301   2.776  14.011 -0.3199 -0.0762 -0.2123
  275MPD2     H 4157   1.181   2.896  14.350 -1.9421 -1.7717  0.0863
  275MPD2    H1 4158   1.101   2.752  13.954  1.5071 -2.1855 -0.2212
  275MPD2    H2 4159   1.495   2.823  14.072  0.1889  0.2050  1.8019
  275MPD2    H3 4160   1.346   2.743  13.918 -0.6814 -2.3759  0.4096
  275MPD2     N 4161   0.981   2.806  14.181  0.5373  0.2043 -0.1676
  275MPD2    H5 4162   0.926   2.752  14.115  2.6593 -2.6160  0.3769
  275MPD2    N1 4163   1.423   2.894  14.336 -0.8691  0.4900  0.5648
  275MPD2    H7 4164   1.384   2.892  14.430 -0.8273  0.6834  0.5863
  276TMC3    C1 4165   1.622   2.906  14.459 -0.2512  0.2740 -0.0582
  276TMC3    C2 4166   1.562   2.814  14.544  0.5435  0.1238  0.5244
  276TMC3    C3 4167   1.568   2.834  14.683  0.2046  0.8193 -0.3218
  276TMC3    C4 4168   1.704   3.004  14.506  0.7431  0.4807  0.0073
  276TMC3    C5 4169   1.708   3.016  14.642 -0.1295  0.2121 -0.3021
  276TMC3    C6 4170   1.641   2.938  14.728  0.8974 -0.6926  0.1567
  276TMC3     C 4171   1.554   2.914  14.329 -0.1150 -0.7160  0.7935
  276TMC3     O 4172   1.626   2.939  14.231 -0.3269  0.3365  0.3643
  276TMC3     H 4173   1.498   2.738  14.501 -0.1641  0.7697  0.4103
  276TMC3    H1 4174   1.741   3.081  14.439 -2.3778  1.5298 -0.5310
  276TMC3    H2 4175   1.635   2.961  14.833  0.0509  1.1583 -0.2923
  276TMC3    C7 4176   1.807   3.108  14.698  0.2652 -0.3081 -0.1944
  276TMC3    C8 4177   1.460   2.789  14.768  0.0377 -0.4707  0.0411
  276TMC3    O1 4178   1.775   3.167  14.798  0.3259 -0.1470 -0.3228
  276TMC3    O2 4179   1.431   2.846  14.874 -0.0907 -0.5294  0.7574
  277MPD2     C 4180   4.032   1.964  13.164 -0.5571  0.3364  0.1602
  277MPD2    C1 4181   3.897   1.946  13.175 -0.7212  0.2929  0.2170
  277MPD2    C2 4182   3.834   1.935  13.301  0.0025 -0.5216  0.3565
  277MPD2    C3 4183   3.910   1.937  13.417 -0.5536  0.3980  0.0477
  277MPD2    C4 4184   4.052   1.934  13.407  0.2298  0.2094  0.2446
  277MPD2    C5 4185   4.109   1.950  13.280 -0.1927  0.4918 -0.6081
  277MPD2     H 4186   3.728   1.921  13.320  0.0091 -1.0752 -0.0069
  277MPD2    H1 4187   4.121   1.943  13.491 -2.1906 -1.3012  2.4065
  277MPD2    H2 4188   4.076   1.978  13.066 -0.6814 -1.2809 -0.1224
  277MPD2    H3 4189   4.217   1.944  13.273 -0.1227  0.5836  0.4207
  277MPD2     N 4190   3.842   1.924  13.540 -0.2478  0.2036 -0.5199
  277MPD2    H5 4191   3.741   1.935  13.533 -0.3487 -1.1682 -1.1904
  277MPD2    N1 4192   3.817   1.968  13.056 -0.9326 -0.0768 -0.1113
  277MPD2    H7 4193   3.864   1.997  12.971  2.4325 -1.3354  1.3486
  278TMC3    C1 4194   3.799   1.961  13.768 -0.8253 -0.0166 -0.3883
  278TMC3    C2 4195   3.814   1.885  13.884  0.8154 -0.5149 -0.8616
  278TMC3    C3 4196   3.699   1.831  13.936 -0.1858  0.2677 -0.4118
  278TMC3    C4 4197   3.678   1.996  13.715 -0.6496  0.1634 -0.2040
  278TMC3    C5 4198   3.569   1.956  13.786  0.1184  0.6947 -0.1238
  278TMC3    C6 4199   3.574   1.864  13.884 -0.3723  0.2633 -0.6871
  278TMC3     C 4200   3.896   1.927  13.667  0.4427 -0.5127 -0.1803
  278TMC3     O 4201   4.011   1.904  13.700 -0.4690  0.4897 -0.7684
  278TMC3     H 4202   3.911   1.839  13.901  1.4063  0.8522 -0.5025
  278TMC3    H1 4203   3.664   2.065  13.633  2.0024  0.0669 -0.7326
  278TMC3    H2 4204   3.490   1.810  13.927  0.7255  1.1786  2.6524
  278TMC3    C7 4205   3.453   1.945  13.702  0.0224 -0.5019 -0.0456
  278TMC3    C8 4206   3.714   1.710  14.009 -0.4069 -0.0417  0.0466
  278TMC3    O1 4207   3.474   1.951  13.579  0.1847 -0.3825  0.5914
  278TMC3    O2 4208   3.818   1.695  14.071  0.5514  0.8547 -0.0544
  279MPD2     C 4209   2.003   1.966  17.606  0.1741 -0.1446 -0.7953
  279MPD2    C1 4210   2.067   2.082  17.647  0.2017  0.4681  0.1100
  279MPD2    C2 4211   2.140   2.156  17.557 -0.3629 -0.2918 -0.2292
  279MPD2    C3 4212   2.145   2.120  17.426  0.0763 -0.0685 -0.0770
  279MPD2    C4 4213   2.075   2.008  17.380  0.1855 -0.1901  0.7820
  279MPD2    C5 4214   2.005   1.933  17.473 -0.5272  0.2132 -0.1044
  279MPD2     H 4215   2.197   2.240  17.594 -0.4821 -1.0350  1.6690
  279MPD2    H1 4216   2.076   1.977  17.276 -0.3170 -0.7904  0.9591
  279MPD2    H2 4217   1.937   1.904  17.665  0.7061  1.1933  1.2020
  279MPD2    H3 4218   1.939   1.852  17.443 -1.8761  0.9703  0.7881
  279MPD2     N 4219   2.216   2.193  17.335  0.3707  0.4916 -0.9522
  279MPD2    H5 4220   2.195   2.169  17.238  1.9798  1.1184 -1.4555
  279MPD2    N1 4221   2.043   2.118   0.098 -0.2875 -0.7689 -0.8523
  279MPD2    H7 4222   2.002   2.050   0.160 -0.7495  0.2231 -0.0712
  280TMC3    C1 4223   2.068   2.237   0.298  0.1873  0.8360 -0.1598
  280TMC3    C2 4224   2.056   2.122   0.376 -0.5806 -0.1500  0.7847
  280TMC3    C3 4225   2.047   2.131   0.515  0.3682  1.2431  0.0925
  280TMC3    C4 4226   2.083   2.358   0.367 -0.3319 -0.0015  0.5324
  280TMC3    C5 4227   2.060   2.368   0.505  0.4739 -0.2899 -0.7204
  280TMC3    C6 4228   2.043   2.255   0.580  0.3282 -0.0805  0.0799
  280TMC3     C 4229   2.077   2.243   0.153  1.2195 -0.3714 -0.1224
  280TMC3     O 4230   2.081   2.350   0.091  0.0773  0.4397  0.5060
  280TMC3     H 4231   2.058   2.025   0.329 -1.9353  0.8987 -1.4393
  280TMC3    H1 4232   2.103   2.448   0.311  1.5005 -1.5179 -1.2413
  280TMC3    H2 4233   2.012   2.262   0.684  1.1746 -0.2990  0.3449
  280TMC3    C7 4234   2.045   2.488   0.573 -0.2175  0.3033  0.7310
  280TMC3    C8 4235   1.979   2.015   0.572 -0.0912  0.3034 -0.0103
  280TMC3    O1 4236   2.042   2.481   0.697 -0.5861  0.4628  0.4773
  280TMC3    O2 4237   1.942   1.925   0.497  0.7670  0.0811  0.0074
  281TMC3    C1 4238   1.893   2.722  13.246 -0.0135 -0.4253 -0.1418
  281TMC3    C2 4239   1.872   2.820  13.148 -0.3178 -0.6919  0.1686
  281TMC3    C3 4240   1.822   2.778  13.026  0.1816 -0.0420 -0.3688
  281TMC3    C4 4241   1.865   2.590  13.237 -0.1143  0.5873 -0.0372
  281TMC3    C5 4242   1.813   2.552  13.115 -0.3016 -0.4169  0.5395
  281TMC3    C6 4243   1.799   2.639  13.005  0.3909 -0.5313 -0.1111
  281TMC3     C 4244   1.872   2.783  13.379  0.0400 -0.2336  0.7043
  281TMC3     O 4245   1.957   2.858  13.421 -0.0291 -0.5859  0.2766
  281TMC3     H 4246   1.881   2.924  13.178 -2.0101 -0.9443  1.5242
  281TMC3    H1 4247   1.878   2.528  13.325  1.5455 -0.0716 -0.7500
  281TMC3    H2 4248   1.779   2.600  12.906 -0.8600  0.9321 -0.4464
  281TMC3    C7 4249   1.786   2.412  13.093 -0.4807  0.4168 -0.2228
  281TMC3    C8 4250   1.717   2.861  12.980 -0.2271 -0.8105 -0.2557
  281TMC3    O1 4251   1.799   2.366  12.983 -0.6148 -0.2394 -0.3108
  281TMC3    O2 4252   1.737   2.981  12.974  0.3685  0.1518 -0.3199
  282MPD2     C 4253   3.144   3.629  15.115 -0.2221  1.0468  0.3448
  282MPD2    C1 4254   3.017   3.675  15.139 -0.7197  0.3201 -0.1812
  282MPD2    C2 4255   2.937   3.713  15.036 -0.0485  0.5509 -0.6794
  282MPD2    C3 4256   2.989   3.715  14.908  0.3763 -0.4588 -0.4001
  282MPD2    C4 4257   3.113   3.667  14.876  0.5368  0.5973  0.3220
  282MPD2    C5 4258   3.189   3.622  14.985  0.0359  0.5786 -0.2651
  282MPD2     H 4259   2.839   3.755  15.058  1.0190  1.6537  1.9822
  282MPD2    H1 4260   3.153   3.659  14.776  0.5793  1.5203  0.2655
  282MPD2    H2 4261   3.213   3.598  15.193 -0.5793 -0.7062 -0.0301
  282MPD2    H3 4262   3.286   3.579  14.965  0.4490  1.3746  0.0555
  282MPD2     N 4263   2.908   3.774  14.817  0.6669  0.3696  0.3635
  282MPD2    H5 4264   2.823   3.810  14.860 -2.1059 -1.3637 -3.6532
  282MPD2    N1 4265   2.958   3.690  15.269  0.8703  0.9952 -0.0904
  282MPD2    H7 4266   2.857   3.693  15.277  0.6725 -0.3858 -2.2591
  283TMC3    C1 4267   2.963   3.680  15.511 -0.1587 -0.0345 -0.4195
  283TMC3    C2 4268   3.045   3.709  15.618  0.3275  0.0780  0.0567
  283TMC3    C3 4269   2.985   3.695  15.747  0.5885 -0.5284 -0.3076
  283TMC3    C4 4270   2.840   3.617  15.529 -0.0152  0.1359  0.0596
  283TMC3    C5 4271   2.788   3.609  15.658 -0.1438 -0.2439 -0.0492
  283TMC3    C6 4272   2.865   3.638  15.771 -0.1440  0.3243  0.3758
  283TMC3     C 4273   3.036   3.687  15.383  0.1005  0.3490 -0.2970
  283TMC3     O 4274   3.156   3.699  15.392  0.1339  0.1586  0.1549
  283TMC3     H 4275   3.141   3.754  15.597 -0.1260  0.9364 -0.1708
  283TMC3    H1 4276   2.778   3.584  15.446 -0.5783  1.6725 -0.1190
  283TMC3    H2 4277   2.820   3.630  15.870  0.8338 -0.6881  0.7384
  283TMC3    C7 4278   2.656   3.553  15.686  0.5043  0.2145  0.0553
  283TMC3    C8 4279   3.027   3.805  15.833  0.7620  0.7070  0.6583
  283TMC3    O1 4280   2.607   3.564  15.802 -0.2024  0.1707 -0.3207
  283TMC3    O2 4281   2.993   3.802  15.947  0.2658  0.1108 -0.1143
  284MPD2     C 4282   1.235   3.036  11.825 -0.0581  0.0461  0.2780
  284MPD2    C1 4283   1.368   3.084  11.834 -0.1520  0.8478 -0.6351
  284MPD2    C2 4284   1.455   3.013  11.912 -0.0931 -0.2387 -0.2761
  284MPD2    C3 4285   1.412   2.893  11.972 -0.4452 -0.4705  0.0738
  284MPD2    C4 4286   1.280   2.841  11.951  0.4391  0.1635  0.0679
  284MPD2    C5 4287   1.188   2.926  11.892 -0.2362 -0.4747  0.2064
  284MPD2     H 4288   1.561   3.036  11.905 -0.2461 -0.2513 -2.6762
  284MPD2    H1 4289   1.246   2.752  12.003  1.4600 -0.3926 -0.2106
  284MPD2    H2 4290   1.157   3.088  11.772  0.2855  1.9000  1.5953
  284MPD2    H3 4291   1.084   2.897  11.893 -0.2183 -0.5526 -0.0590
  284MPD2     N 4292   1.495   2.808  12.050 -0.2305  0.3265 -0.5145
  284MPD2    H5 4293   1.466   2.712  12.068 -1.5841  1.2638  2.2966
  284MPD2    N1 4294   1.422   3.200  11.779 -0.0306  0.4581 -0.2829
  284MPD2    H7 4295   1.504   3.242  11.823  0.0253 -1.1367  1.1101
  285TMC3    C1 4296   1.487   3.322  11.589 -0.4394  0.0820  0.1333
  285TMC3    C2 4297   1.529   3.266  11.472 -0.4452 -0.1863 -0.1297
  285TMC3    C3 4298   1.654   3.294  11.434 -0.3798  0.1457  0.1224
  285TMC3    C4 4299   1.561   3.412  11.668 -0.1871  0.6199 -0.2883
  285TMC3    C5 4300   1.691   3.451  11.615 -0.0047  0.3158 -0.2640
  285TMC3    C6 4301   1.741   3.379  11.504 -0.0744 -0.4770  0.3597
  285TMC3     C 4302   1.384   3.238  11.650 -0.6584  0.1230  0.0404
  285TMC3     O 4303   1.315   3.166  11.581 -0.5382  0.0198  0.1120
  285TMC3     H 4304   1.472   3.206  11.402 -0.8438 -0.4821  0.4461
  285TMC3    H1 4305   1.513   3.465  11.749  1.4750  0.6264  0.6903
  285TMC3    H2 4306   1.841   3.405  11.471 -0.1971  0.1882  0.5125
  285TMC3    C7 4307   1.763   3.571  11.663 -0.5105 -0.5560 -0.0378
  285TMC3    C8 4308   1.718   3.191  11.353 -0.8245  0.1176 -1.0046
  285TMC3    O1 4309   1.701   3.678  11.680  0.8391  0.4962 -0.2984
  285TMC3    O2 4310   1.656   3.124  11.273  0.3049 -0.1843  0.1074
  286MPD2     C 4311   1.888   2.392   1.674 -0.4737  0.2613  0.0847
  286MPD2    C1 4312   1.841   2.341   1.560  0.0498 -0.0632 -0.4351
  286MPD2    C2 4313   1.922   2.255   1.492 -0.4633 -0.2165  0.3067
  286MPD2    C3 4314   2.048   2.213   1.551 -0.2956 -0.1779  0.2197
  286MPD2    C4 4315   2.091   2.270   1.666  0.2016  0.1445  1.0735
  286MPD2    C5 4316   2.014   2.363   1.719  0.6333 -0.0617 -0.8625
  286MPD2     H 4317   1.881   2.212   1.401  0.8960 -2.3321  0.7016
  286MPD2    H1 4318   2.181   2.240   1.719 -0.9580 -0.7652  2.5387
  286MPD2    H2 4319   1.839   2.468   1.734 -0.5895  0.8022 -0.6988
  286MPD2    H3 4320   2.029   2.401   1.820  0.5653 -2.7652  0.1478
  286MPD2     N 4321   2.123   2.110   1.494 -0.0901 -0.3528 -0.0619
  286MPD2    H5 4322   2.208   2.091   1.546 -1.5247  0.5387  2.6629
  286MPD2    N1 4323   1.708   2.378   1.516  0.0546  0.0541  0.5401
  286MPD2    H7 4324   1.685   2.376   1.417  1.5477 -0.3298  0.2168
  287TMC3    C1 4325   2.184   1.916   1.379 -0.3518  0.2199  0.3410
  287TMC3    C2 4326   2.198   1.854   1.259 -0.0336  0.1823 -0.2879
  287TMC3    C3 4327   2.292   1.753   1.253  0.1572  0.6568 -0.5329
  287TMC3    C4 4328   2.253   1.878   1.492 -0.3166 -0.0462  1.1592
  287TMC3    C5 4329   2.330   1.770   1.482 -0.5473  0.0122  0.2457
  287TMC3    C6 4330   2.353   1.700   1.367 -0.2183  0.5341  0.0140
  287TMC3     C 4331   2.100   2.032   1.382 -0.0435  0.3445  0.1924
  287TMC3     O 4332   2.021   2.056   1.291 -0.1172 -0.0023 -0.2305
  287TMC3     H 4333   2.137   1.890   1.177 -0.4302  0.2617  0.0360
  287TMC3    H1 4334   2.216   1.913   1.587 -0.5897  2.5956  0.0700
  287TMC3    H2 4335   2.431   1.625   1.364 -0.2968  0.3842  1.7981
  287TMC3    C7 4336   2.407   1.743   1.602  0.4736 -0.0206  1.0367
  287TMC3    C8 4337   2.287   1.658   1.142 -0.4584 -0.0623  0.5435
  287TMC3    O1 4338   2.407   1.827   1.694  0.1893  0.0226  0.0451
  287TMC3    O2 4339   2.320   1.547   1.167  0.4875 -0.1933  0.1672
  288TMC3    C1 4340   3.480   1.524  14.482 -0.5825  0.4311  0.3823
  288TMC3    C2 4341   3.376   1.535  14.569 -0.7129 -0.0189  0.0746
  288TMC3    C3 4342   3.286   1.634  14.546  0.0315  0.7828  0.5127
  288TMC3    C4 4343   3.496   1.617  14.390 -0.0497  0.5165  0.1726
  288TMC3    C5 4344   3.409   1.725  14.379  0.5585  0.0750 -0.7659
  288TMC3    C6 4345   3.294   1.734  14.459  0.8805 -0.2929 -0.1546
  288TMC3     C 4346   3.599   1.459  14.542  0.8809 -0.4915  0.2443
  288TMC3     O 4347   3.704   1.483  14.486  0.2472  0.5616  0.1413
  288TMC3     H 4348   3.368   1.475  14.659  0.5746  0.5965  0.5888
  288TMC3    H1 4349   3.568   1.598  14.312 -0.3252 -0.0799  0.0639
  288TMC3    H2 4350   3.212   1.804  14.454  0.5713 -0.6451 -0.0678
  288TMC3    C7 4351   3.458   1.838  14.304 -0.1814  0.1316  0.6677
  288TMC3    C8 4352   3.181   1.649  14.645 -0.4904  0.2554  0.5391
  288TMC3    O1 4353   3.577   1.851  14.276 -0.4247  0.0681 -0.5618
  288TMC3    O2 4354   3.141   1.762  14.669  0.4556  0.5228 -0.4282
  289MPD2     C 4355   3.538   0.549  14.632 -0.0161 -0.7018  0.4045
  289MPD2    C1 4356   3.518   0.685  14.638  0.8733  0.6738  0.9277
  289MPD2    C2 4357   3.393   0.736  14.614  0.4518 -0.4931 -0.3875
  289MPD2    C3 4358   3.286   0.653  14.590 -0.3678 -0.0282 -0.2474
  289MPD2    C4 4359   3.309   0.517  14.579 -0.4029 -0.0116  0.6382
  289MPD2    C5 4360   3.433   0.468  14.598  0.7347  0.3766  0.5133
  289MPD2     H 4361   3.382   0.844  14.618 -0.3840 -0.5191 -2.0753
  289MPD2    H1 4362   3.238   0.442  14.547 -0.2189  0.5946 -1.1721
  289MPD2    H2 4363   3.633   0.500  14.653 -0.8592 -2.2637  0.5225
  289MPD2    H3 4364   3.453   0.363  14.581  1.6456  0.4384  1.1901
  289MPD2     N 4365   3.157   0.694  14.557 -0.6948  0.3635 -0.4181
  289MPD2    H5 4366   3.090   0.623  14.531  2.2704 -2.6000  0.1763
  289MPD2    N1 4367   3.625   0.772  14.671 -0.0555 -0.1809 -0.4491
  289MPD2    H7 4368   3.715   0.728  14.686  0.6612  1.1490 -0.7872
  290TMC3    C1 4369   2.983   0.838  14.481 -0.1929  0.4986 -0.3697
  290TMC3    C2 4370   2.972   0.953  14.411  0.4914 -0.0679 -0.5380
  290TMC3    C3 4371   2.886   0.958  14.312 -0.0586 -0.1762  0.0013
  290TMC3    C4 4372   2.908   0.723  14.449  0.0951  0.1362  0.1469
  290TMC3    C5 4373   2.818   0.739  14.347 -0.4603 -0.3098  0.2802
  290TMC3    C6 4374   2.811   0.853  14.272 -0.2125  0.7925 -0.0314
  290TMC3     C 4375   3.109   0.820  14.557 -0.4304  0.1408 -0.4042
  290TMC3     O 4376   3.162   0.920  14.596 -0.2244  0.0527 -0.2518
  290TMC3     H 4377   3.045   1.030  14.433 -0.3164  0.5658 -0.1052
  290TMC3    H1 4378   2.904   0.639  14.518 -0.7499  0.2785  0.2741
  290TMC3    H2 4379   2.744   0.852  14.187  0.3313  1.0837 -0.4607
  290TMC3    C7 4380   2.708   0.650  14.325 -0.0235 -0.7952  0.6036
  290TMC3    C8 4381   2.858   1.086  14.251  0.2968  0.3570 -0.2986
  290TMC3    O1 4382   2.614   0.689  14.256  0.7033 -0.4737 -1.0969
  290TMC3    O2 4383   2.828   1.087  14.131  0.0509  0.2679 -0.0142
  291MPD2     C 4384   3.016   0.679   0.389  0.2232 -0.8772  0.3489
  291MPD2    C1 4385   2.929   0.584   0.332  0.0940  1.3705  0.6991
  291MPD2    C2 4386   2.966   0.493   0.231  1.0464 -0.3732 -0.2802
  291MPD2    C3 4387   3.091   0.506   0.180 -0.1523 -0.1608  0.5616
  291MPD2    C4 4388   3.180   0.599   0.231 -0.4148 -0.0140 -0.1312
  291MPD2    C5 4389   3.141   0.680   0.338  0.1780 -0.1079  0.0579
  291MPD2     H 4390   2.883   0.436   0.190 -0.7418  1.5702  0.6330
  291MPD2    H1 4391   3.275   0.630   0.188 -0.1506 -0.9232 -0.2193
  291MPD2    H2 4392   2.985   0.756   0.458 -0.8736 -0.0632 -1.0556
  291MPD2    H3 4393   3.215   0.757   0.357  0.8521 -0.4237 -1.2922
  291MPD2     N 4394   3.139   0.436   0.063  0.2575  0.1072  0.5254
  291MPD2    H5 4395   3.220   0.479   0.020  0.4245 -0.2005  0.5340
  291MPD2    N1 4396   2.791   0.576   0.362 -0.2548  0.0037 -0.5234
  291MPD2    H7 4397   2.733   0.514   0.307 -2.4676  1.0403  0.6151
  292TMC3    C1 4398   2.604   0.579   0.485  0.3252 -0.8837  0.2239
  292TMC3    C2 4399   2.514   0.645   0.566 -0.1438  0.2664 -0.0295
  292TMC3    C3 4400   2.400   0.582   0.607  0.4599  0.1403 -0.4851
  292TMC3    C4 4401   2.585   0.446   0.453  0.4052  0.3427 -0.2793
  292TMC3    C5 4402   2.481   0.389   0.516 -0.1747 -0.0980  0.5121
  292TMC3    C6 4403   2.387   0.450   0.592 -0.8517 -0.0959 -0.5058
  292TMC3     C 4404   2.732   0.631   0.475 -0.4504 -0.2974 -0.4773
  292TMC3     O 4405   2.769   0.719   0.551 -0.1096  0.1116  0.1392
  292TMC3     H 4406   2.525   0.751   0.587  1.3136 -0.5936  3.5200
  292TMC3    H1 4407   2.651   0.389   0.389 -0.5862 -1.8531  0.6721
  292TMC3    H2 4408   2.303   0.397   0.636  0.1836 -1.1987  0.1594
  292TMC3    C7 4409   2.437   0.273   0.445  0.4306 -1.3380  0.7190
  292TMC3    C8 4410   2.317   0.657   0.699 -0.1150  0.2281 -0.9748
  292TMC3    O1 4411   2.529   0.212   0.390 -0.1702  0.1831 -0.1779
  292TMC3    O2 4412   2.377   0.739   0.762 -0.7603  0.6206  0.2203
  293MPD2     C 4413   0.237   1.623  12.872 -0.9310 -0.4455  0.1878
  293MPD2    C1 4414   0.225   1.752  12.870 -0.1459  0.4228  0.1462
  293MPD2    C2 4415   0.218   1.829  12.990 -0.0938  0.7335  0.2507
  293MPD2    C3 4416   0.226   1.763  13.106  0.0131 -0.0317  0.0540
  293MPD2    C4 4417   0.250   1.624  13.110 -0.1955  0.4703 -0.1062
  293MPD2    C5 4418   0.259   1.562  12.993  0.2497  0.0479  0.1454
  293MPD2     H 4419   0.209   1.937  12.994 -0.2235  0.7326  0.0173
  293MPD2    H1 4420   0.250   1.561  13.199 -0.3577 -1.3811 -1.4191
  293MPD2    H2 4421   0.245   1.560  12.784 -0.6085 -0.6519  0.3603
  293MPD2    H3 4422   0.261   1.454  12.981  1.5148 -0.0902  1.6601
  293MPD2     N 4423   0.214   1.846  13.227  0.2939 -0.6103  0.4780
  293MPD2    H5 4424   0.205   1.947  13.219  4.2062 -0.4905 -2.1045
  293MPD2    N1 4425   0.193   1.814  12.745  0.6698 -0.5435 -0.4195
  293MPD2    H7 4426   0.198   1.914  12.727  2.3767 -0.8284 -1.5492
  294TMC3    C1 4427   0.086   1.831  12.539 -0.3027 -0.3697 -0.5097
  294TMC3    C2 4428   4.693   1.798  12.472  0.6408  0.0026 -0.6114
  294TMC3    C3 4429   4.645   1.887  12.377 -0.1018 -0.7742  0.2237
  294TMC3    C4 4430   0.166   1.932  12.494  0.0063  0.2120 -0.2205
  294TMC3    C5 4431   0.119   2.015  12.397  0.0041 -0.2733  0.3147
  294TMC3    C6 4432   4.720   1.994  12.338 -0.5128  0.4855 -0.3726
  294TMC3     C 4433   0.127   1.745  12.643 -0.3967  0.1805  0.0611
  294TMC3     O 4434   0.077   1.635  12.645  0.2839 -0.4878 -0.0498
  294TMC3     H 4435   4.625   1.728  12.518  1.7256  0.8015  2.2396
  294TMC3    H1 4436   0.262   1.949  12.541 -1.3615  1.9775  1.9063
  294TMC3    H2 4437   4.687   2.066  12.264 -0.3064 -1.8941 -2.7478
  294TMC3    C7 4438   0.221   2.081  12.309  0.1551 -0.3024 -0.2403
  294TMC3    C8 4439   4.517   1.855  12.309  0.5538 -0.0392 -0.3585
  294TMC3    O1 4440   0.277   2.183  12.350 -0.0558  0.8723  0.4907
  294TMC3    O2 4441   4.476   1.943  12.235  0.1740 -0.5863  0.5584
  295MPD2     C 4442   0.623   0.671   1.161  0.3415  0.2989  0.5584
  295MPD2    C1 4443   0.529   0.593   1.093  0.3409 -0.4523  0.2569
  295MPD2    C2 4444   0.466   0.496   1.161 -0.0866 -0.1467  0.6163
  295MPD2    C3 4445   0.493   0.477   1.297  0.4360  0.1616  0.1336
  295MPD2    C4 4446   0.599   0.547   1.358  0.4612  1.0439  0.2846
  295MPD2    C5 4447   0.658   0.642   1.286  0.8582  0.1007  0.6240
  295MPD2     H 4448   0.387   0.439   1.112  0.3682  0.2095 -0.5472
  295MPD2    H1 4449   0.633   0.545   1.461  0.6963  2.1706  0.2390
  295MPD2    H2 4450   0.665   0.762   1.121 -1.4103  2.4135  3.5649
  295MPD2    H3 4451   0.729   0.704   1.339 -0.2308  1.7579  0.1299
  295MPD2     N 4452   0.416   0.387   1.370 -0.6271 -0.2642  0.1616
  295MPD2    H5 4453   0.337   0.348   1.320 -2.0242  1.6740  0.8277
  295MPD2    N1 4454   0.511   0.607   0.954 -0.3421 -0.1079  0.4370
  295MPD2    H7 4455   0.448   0.534   0.921  1.8364 -1.2076 -1.2577
  296TMC3    C1 4456   0.343   0.258   1.561 -0.6900 -0.0910 -0.5418
  296TMC3    C2 4457   0.306   0.269   1.694 -0.0429 -0.1958  0.1704
  296TMC3    C3 4458   0.240   0.163   1.748  0.1269 -0.0821  0.0046
  296TMC3    C4 4459   0.303   0.156   1.481 -0.2648  0.5831  0.4250
  296TMC3    C5 4460   0.225   0.055   1.540 -0.2849 -0.9347 -0.2493
  296TMC3    C6 4461   0.194   0.057   1.675  0.1762 -0.5701 -0.2944
  296TMC3     C 4462   0.428   0.368   1.510 -0.5712 -1.0147 -0.5023
  296TMC3     O 4463   0.482   0.435   1.599  0.3263 -0.0607  0.2802
  296TMC3     H 4464   0.334   0.359   1.748  1.9594 -0.8737  0.2439
  296TMC3    H1 4465   0.354   0.133   1.389 -3.5218  0.0832 -1.2636
  296TMC3    H2 4466   0.133   4.697   1.715 -0.4834 -0.5529 -1.2570
  296TMC3    C7 4467   0.208   4.653   1.457 -0.2887  0.3817 -0.0387
  296TMC3    C8 4468   0.183   0.165   1.889  1.4280  0.9489 -0.6246
  296TMC3    O1 4469   0.284   4.637   1.366  0.1001  0.2297 -0.1121
  296TMC3    O2 4470   0.108   0.078   1.930  0.1630 -0.1363  0.5892
  297MPD2     C 4471   1.744   2.764  15.670  0.0909 -0.2293 -0.2491
  297MPD2    C1 4472   1.740   2.817  15.791  0.9425  0.0313  0.6488
  297MPD2    C2 4473   1.863   2.865  15.844  0.3222 -0.1723 -0.4419
  297MPD2    C3 4474   1.978   2.867  15.770 -0.4428  0.2820 -0.2103
  297MPD2    C4 4475   1.965   2.827  15.637 -0.1355  0.5348  0.2212
  297MPD2    C5 4476   1.852   2.771  15.592 -0.2309  0.6284  0.7565
  297MPD2     H 4477   1.853   2.900  15.946 -2.1185 -0.4414 -0.5883
  297MPD2    H1 4478   2.048   2.837  15.568  1.4912  1.4178  2.3259
  297MPD2    H2 4479   1.653   2.736  15.616  1.1008 -0.9375 -1.5833
  297MPD2    H3 4480   1.839   2.742  15.488 -2.9539  1.2060  0.9631
  297MPD2     N 4481   2.095   2.921  15.832 -0.4749  1.0066 -0.2186
  297MPD2    H5 4482   2.088   2.944  15.931 -0.9173 -2.3132  0.5248
  297MPD2    N1 4483   1.624   2.824  15.878  0.7654 -0.1144  0.0106
  297MPD2    H7 4484   1.618   2.894  15.952 -1.0768  2.1726 -2.2889
  298TMC3    C1 4485   1.404   2.768  15.955 -0.0969 -0.0904 -0.3687
  298TMC3    C2 4486   1.311   2.673  15.930 -0.4468 -0.2034 -0.5378
  298TMC3    C3 4487   1.215   2.665  16.021 -0.3490  1.4516 -0.6438
  298TMC3    C4 4488   1.410   2.848  16.066  0.4376 -0.5546 -0.6225
  298TMC3    C5 4489   1.299   2.844  16.145  0.3953  0.4178  0.6101
  298TMC3    C6 4490   1.201   2.747  16.128  0.0909 -0.8224  0.3158
  298TMC3     C 4491   1.513   2.749  15.856 -0.3740  0.0735  0.4139
  298TMC3     O 4492   1.494   2.663  15.766 -0.4917 -0.5034  0.0004
  298TMC3     H 4493   1.307   2.614  15.840 -2.5057 -0.7808 -0.0661
  298TMC3    H1 4494   1.488   2.921  16.086  0.3154 -0.5823 -0.0505
  298TMC3    H2 4495   1.115   2.744  16.193  0.2145  2.0396  0.6283
  298TMC3    C7 4496   1.310   2.885  16.282  0.5250  0.1016  0.1623
  298TMC3    C8 4497   1.105   2.581  15.991 -0.0555  0.1266  0.7020
  298TMC3    O1 4498   1.360   2.992  16.309  0.2292 -0.5287  0.0271
  298TMC3    O2 4499   1.044   2.551  16.089 -0.6943  0.1174 -0.1220
  299MPD2     C 4500   3.405   1.828  10.844  0.0320 -0.0101  0.1288
  299MPD2    C1 4501   3.350   1.914  10.749 -0.0216  0.5439  0.7552
  299MPD2    C2 4502   3.218   1.897  10.717 -0.4516 -0.1607 -0.2688
  299MPD2    C3 4503   3.144   1.794  10.778 -0.2216  0.4080  0.1866
  299MPD2    C4 4504   3.191   1.726  10.884  0.3250 -0.7917 -0.1319
  299MPD2    C5 4505   3.323   1.738  10.910  0.4095 -0.0996  0.7246
  299MPD2     H 4506   3.179   1.959  10.637 -1.7825 -2.2040 -1.2104
  299MPD2    H1 4507   3.129   1.648  10.925  1.1710 -1.1394  0.4800
  299MPD2    H2 4508   3.511   1.826  10.868 -0.4609 -1.0472  2.2259
  299MPD2    H3 4509   3.374   1.676  10.983  1.3849  0.2042  0.3099
  299MPD2     N 4510   3.011   1.765  10.740  0.1297  0.2427  0.0757
  299MPD2    H5 4511   2.955   1.715  10.808 -0.0303  0.7922  0.3453
  299MPD2    N1 4512   3.439   2.009  10.691  0.1322  0.1620  0.2671
  299MPD2    H7 4513   3.534   2.013  10.727 -0.0909 -0.9374  0.9810
  300TMC3    C1 4514   2.807   1.803  10.619  0.3617 -0.4273  0.9951
  300TMC3    C2 4515   2.752   1.829  10.497  0.3652  0.1619  0.3251
  300TMC3    C3 4516   2.641   1.904  10.474 -0.4601 -0.5253  0.4086
  300TMC3    C4 4517   2.746   1.834  10.733 -0.7346  0.2032 -0.1278
  300TMC3    C5 4518   2.623   1.899  10.714 -0.2063  0.0018  0.5318
  300TMC3    C6 4519   2.574   1.937  10.591 -0.6955 -1.0186 -0.0456
  300TMC3     C 4520   2.956   1.805  10.624 -0.0850 -0.7811 -0.5690
  300TMC3     O 4521   3.007   1.861  10.524  0.0500  0.7127  0.7701
  300TMC3     H 4522   2.815   1.803  10.412  0.1723 -2.3522  0.9400
  300TMC3    H1 4523   2.794   1.831  10.830 -1.0782 -2.2736 -0.0244
  300TMC3    H2 4524   2.482   1.994  10.584  0.0087 -0.1413 -2.1610
  300TMC3    C7 4525   2.570   1.960  10.837 -0.3596  0.3203  0.1583
  300TMC3    C8 4526   2.637   1.988  10.363  0.2645 -0.3571 -0.3251
  300TMC3    O1 4527   2.628   1.926  10.937  0.4018 -0.0734 -0.1353
  300TMC3    O2 4528   2.682   1.949  10.255 -0.1695 -0.4533  0.0671
  301MPD2     C 4529   0.511   3.698   1.162  0.4559  0.8708 -0.0922
  301MPD2    C1 4530   0.380   3.642   1.176  0.1940  0.4249  0.5719
  301MPD2    C2 4531   0.367   3.516   1.227  0.0309 -1.8718 -0.0238
  301MPD2    C3 4532   0.471   3.436   1.257  0.3629 -0.5824 -0.0682
  301MPD2    C4 4533   0.597   3.486   1.244  0.5552 -0.7059  0.2794
  301MPD2    C5 4534   0.615   3.617   1.203  0.5134  0.1458  0.3871
  301MPD2     H 4535   0.264   3.488   1.245 -0.3173 -0.7220 -0.2650
  301MPD2    H1 4536   0.687   3.429   1.265 -0.9668 -2.3818  2.2652
  301MPD2    H2 4537   0.542   3.789   1.113 -1.7569  1.4925 -0.3690
  301MPD2    H3 4538   0.718   3.649   1.191  0.4985  0.6903  1.6573
  301MPD2     N 4539   0.460   3.311   1.315 -0.0343  0.5607  0.6675
  301MPD2    H5 4540   0.542   3.252   1.327  0.4001  0.2538 -3.6533
  301MPD2    N1 4541   0.264   3.716   1.164  0.1248  0.2085 -0.5546
  301MPD2    H7 4542   0.177   3.663   1.171 -1.4501  3.0917  1.6332
  302TMC3    C1 4543   0.349   3.142   1.451 -0.0258 -0.2947  0.1819
  302TMC3    C2 4544   0.468   3.088   1.482  0.1143  0.3855 -0.1085
  302TMC3    C3 4545   0.480   2.970   1.549  0.5990  0.6112  0.3209
  302TMC3    C4 4546   0.237   3.081   1.488 -0.0813 -0.3882  0.3681
  302TMC3    C5 4547   0.245   2.968   1.568  0.1793  0.0409 -0.3291
  302TMC3    C6 4548   0.364   2.915   1.602  0.5025  0.4681  0.5248
  302TMC3     C 4549   0.338   3.262   1.363 -0.1053 -0.4242  0.1613
  302TMC3     O 4550   0.226   3.301   1.351 -0.1696  0.0362 -0.2238
  302TMC3     H 4551   0.560   3.137   1.449 -1.0445  1.9434 -1.0305
  302TMC3    H1 4552   0.143   3.129   1.465  1.7037  2.6179 -0.7540
  302TMC3    H2 4553   0.370   2.814   1.641  0.3845 -0.0218 -0.7371
  302TMC3    C7 4554   0.128   2.893   1.610  0.1948  0.0575  0.1494
  302TMC3    C8 4555   0.613   2.931   1.594 -0.1018  0.3931  0.8703
  302TMC3    O1 4556   0.138   2.779   1.652 -0.3566 -0.2120  0.1881
  302TMC3    O2 4557   0.708   2.989   1.537  0.2263 -0.1407  0.0339
  303MPD2     C 4558   1.228   0.948  10.318  0.8939  0.1556 -0.0833
  303MPD2    C1 4559   1.112   1.020  10.306 -0.5260  0.2339 -0.1626
  303MPD2    C2 4560   1.044   1.015  10.186 -0.5582 -0.2062  1.1398
  303MPD2    C3 4561   1.096   0.952  10.074 -0.5002 -0.2089 -0.3475
  303MPD2    C4 4562   1.221   0.895  10.088  0.1877 -0.0124  0.4568
  303MPD2    C5 4563   1.283   0.887  10.211  0.0320  0.6858  0.1737
  303MPD2     H 4564   0.943   1.055  10.194 -1.3076 -2.1734  1.4113
  303MPD2    H1 4565   1.265   0.848  10.001 -1.2654  0.8802 -0.7480
  303MPD2    H2 4566   1.285   0.953  10.411  0.7617 -1.3958  0.0881
  303MPD2    H3 4567   1.373   0.827  10.218  0.6975  1.1937 -3.8231
  303MPD2     N 4568   1.040   0.953   9.943  0.5434  0.2910 -0.3192
  303MPD2    H5 4569   1.097   0.904   9.875 -0.3078 -1.4733  0.2247
  303MPD2    N1 4570   1.053   1.087  10.415 -0.1598 -0.5848  0.6276
  303MPD2    H7 4571   0.970   1.143  10.397  0.1996 -0.9732 -2.3133
  304TMC3    C1 4572   0.981   1.117  10.624  0.1157 -0.3892 -0.0010
  304TMC3    C2 4573   0.945   1.246  10.617  0.6602 -0.2410  0.1073
  304TMC3    C3 4574   0.847   1.297  10.702 -0.3824 -0.7986  0.0191
  304TMC3    C4 4575   0.921   1.032  10.718 -0.2456  0.0538  0.4562
  304TMC3    C5 4576   0.821   1.082  10.799  1.0312 -0.2281  0.2852
  304TMC3    C6 4577   0.783   1.218  10.791  0.3900 -0.0738  0.7103
  304TMC3     C 4578   1.089   1.072  10.539  0.0144 -0.8266 -0.0664
  304TMC3     O 4579   1.172   1.004  10.597 -0.0356  0.4744 -0.3550
  304TMC3     H 4580   0.994   1.302  10.539  0.7790 -0.5666 -0.0514
  304TMC3    H1 4581   0.949   0.928  10.704  0.4711  0.2233  0.5904
  304TMC3    H2 4582   0.708   1.259  10.858  0.4817  1.0651  0.1199
  304TMC3    C7 4583   0.704   0.998  10.803 -0.2695  0.2310 -0.8428
  304TMC3    C8 4584   0.750   1.378  10.623 -0.2991 -0.1582 -0.0289
  304TMC3    O1 4585   0.601   1.059  10.773 -0.5797  0.6479 -0.1776
  304TMC3    O2 4586   0.802   1.439  10.529  0.5816 -0.3657 -0.3996
  305MPD2     C 4587   2.779   4.060  14.193 -0.0379  0.4899  0.4600
  305MPD2    C1 4588   2.918   4.046  14.180  0.5261 -0.1030 -0.4131
  305MPD2    C2 4589   2.975   3.995  14.065  0.2297 -0.3671  0.2694
  305MPD2    C3 4590   2.898   3.977  13.952 -0.2194 -0.4712  0.1106
  305MPD2    C4 4591   2.760   3.978  13.968 -0.9775 -0.1093 -0.1239
  305MPD2    C5 4592   2.701   4.017  14.087 -0.2912  0.8782  0.3131
  305MPD2     H 4593   3.082   3.983  14.058  0.0619 -2.2624  1.0677
  305MPD2    H1 4594   2.697   3.960  13.881 -3.4601 -2.7337  2.2202
  305MPD2    H2 4595   2.736   4.089  14.288 -1.4293  1.6139 -0.5194
  305MPD2    H3 4596   2.594   4.035  14.089 -0.2752  0.9482  0.5214
  305MPD2     N 4597   2.946   3.942  13.829 -0.2327  0.1616  0.0809
  305MPD2    H5 4598   2.890   3.903  13.754  0.2596 -0.4690  0.0439
  305MPD2    N1 4599   2.995   4.075  14.294  0.0791  0.1712  0.4220
  305MPD2    H7 4600   2.950   4.080  14.385 -1.6176  3.6714 -0.6222
  306TMC3    C1 4601   3.201   4.095  14.427  0.2088  0.2348  0.6982
  306TMC3    C2 4602   3.331   4.045  14.416 -0.4248 -0.2870  0.3492
  306TMC3    C3 4603   3.380   3.973  14.519  0.1704  0.2652 -0.5749
  306TMC3    C4 4604   3.134   4.074  14.540  0.4747  0.3869 -0.3765
  306TMC3    C5 4605   3.190   4.018  14.652  0.0033 -0.0444 -0.2187
  306TMC3    C6 4606   3.306   3.948  14.635  0.1028 -0.0768  0.1218
  306TMC3     C 4607   3.132   4.108  14.298 -0.2256  0.5840 -0.9034
  306TMC3     O 4608   3.213   4.122  14.206  0.1705  0.1113 -1.1204
  306TMC3     H 4609   3.394   4.064  14.329 -1.5563 -0.3498 -0.4781
  306TMC3    H1 4610   3.036   4.119  14.545  0.2035 -0.1076 -1.2329
  306TMC3    H2 4611   3.356   3.893  14.714 -0.2213  0.3279  0.6087
  306TMC3    C7 4612   3.148   4.033  14.789 -0.0808 -0.8493  0.2310
  306TMC3    C8 4613   3.454   3.856  14.471  0.4662 -0.6235  0.1892
  306TMC3    O1 4614   3.033   4.074  14.803  0.4801 -0.1582 -0.2467
  306TMC3    O2 4615   3.567   3.876  14.426  0.3262  0.3270 -0.2811
  307MPD2     C 4616   1.345   1.575   0.756 -0.2863 -0.7261  0.6365
  307MPD2    C1 4617   1.230   1.587   0.684 -0.0347 -0.4951 -0.8709
  307MPD2    C2 4618   1.114   1.631   0.744  0.1053  0.3029 -0.0169
  307MPD2    C3 4619   1.112   1.665   0.879  0.2106  0.6023  0.0655
  307MPD2    C4 4620   1.232   1.654   0.947  0.2561 -0.1623 -0.0391
  307MPD2    C5 4621   1.345   1.618   0.887 -0.0727 -0.3522  0.6721
  307MPD2     H 4622   1.021   1.624   0.688  1.2389 -1.1367 -1.7175
  307MPD2    H1 4623   1.246   1.691   1.048 -0.6760  0.2965 -0.0806
  307MPD2    H2 4624   1.441   1.550   0.710 -1.3345 -1.8478 -0.9606
  307MPD2    H3 4625   1.441   1.603   0.936  0.4774 -1.8558 -0.8527
  307MPD2     N 4626   0.990   1.711   0.942 -0.3956  0.3459  0.0177
  307MPD2    H5 4627   0.906   1.723   0.887 -1.3637  0.1390  1.4452
  307MPD2    N1 4628   1.219   1.555   0.548 -0.5353  0.3092  0.1264
  307MPD2    H7 4629   1.134   1.578   0.499 -0.2929 -0.4811 -0.6658
  308TMC3    C1 4630   0.636   1.828   1.015  0.0930 -0.3244 -0.2444
  308TMC3    C2 4631   0.639   1.965   1.023 -0.2053  0.2695 -0.1027
  308TMC3    C3 4632   0.753   2.023   1.078  0.4038 -0.7087 -0.8971
  308TMC3    C4 4633   0.745   1.752   1.042  0.0152 -0.1081  0.1901
  308TMC3    C5 4634   0.853   1.813   1.096 -0.0165 -0.3777 -0.7116
  308TMC3    C6 4635   0.856   1.948   1.131 -0.3742  0.1146 -0.2463
  308TMC3     C 4636   0.562   1.772   0.901  0.2079 -0.5035  0.1451
  308TMC3     O 4637   0.609   1.691   0.825 -0.1427 -0.2883 -0.2217
  308TMC3     H 4638   0.552   2.029   1.018 -0.4627 -0.0661  0.0913
  308TMC3    H1 4639   0.756   1.647   1.019 -1.1407 -0.6418  2.0872
  308TMC3    H2 4640   0.949   1.993   1.165  0.3009 -0.9923 -0.6313
  308TMC3    C7 4641   0.984   1.747   1.079 -0.2201 -0.3402  1.0096
  308TMC3    C8 4642   0.773   2.168   1.058 -0.1872 -0.2079 -0.1232
  308TMC3    O1 4643   1.071   1.768   1.164 -0.7407  0.0261  0.8124
  308TMC3    O2 4644   0.843   2.229   1.136  0.1332  0.2468  0.0783
  309MPD2     C 4645   0.050   2.193  17.179 -0.1168 -0.3484  0.6189
  309MPD2    C1 4646   4.703   2.257  17.082  0.0696 -0.9470  0.0402
  309MPD2    C2 4647   4.584   2.323  17.114  0.4682  0.3330  0.6153
  309MPD2    C3 4648   4.547   2.332  17.248  0.1745 -0.0179 -0.0921
  309MPD2    C4 4649   4.626   2.275  17.340 -0.1524  0.2013 -0.5647
  309MPD2    C5 4650   0.014   2.209  17.311 -0.3507  0.0302 -0.0735
  309MPD2     H 4651   4.524   2.377  17.041  1.9388  1.2475  0.0849
  309MPD2    H1 4652   4.596   2.285  17.444  1.2473  1.8159 -0.2996
  309MPD2    H2 4653   0.128   2.118  17.177  0.7211  0.5434 -0.0109
  309MPD2    H3 4654   0.065   2.150  17.386  2.6350  0.8099 -1.4927
  309MPD2     N 4655   4.420   2.387  17.294 -0.2149 -0.1106 -0.0376
  309MPD2    H5 4656   4.399   2.385  17.394  0.4810  2.1003  0.1498
  309MPD2    N1 4657   0.041   2.259  16.951 -0.2055  0.0706  0.1964
  309MPD2    H7 4658   4.691   2.290  16.884  0.7557  2.4964  0.3290
  310TMC3    C1 4659   0.193   2.239  16.775 -0.2097  0.6835 -0.4424
  310TMC3    C2 4660   0.098   2.255  16.682  0.4628  0.6242  0.4790
  310TMC3    C3 4661   0.126   2.216  16.553 -0.4048 -0.3053  0.2463
  310TMC3    C4 4662   0.321   2.218  16.742 -0.1688  0.1766  0.7480
  310TMC3    C5 4663   0.350   2.182  16.610 -0.0402 -0.2217 -0.3023
  310TMC3    C6 4664   0.255   2.181  16.517  0.3304 -0.2581  0.0858
  310TMC3     C 4665   0.168   2.222  16.913 -0.4258 -0.5233 -0.0899
  310TMC3     O 4666   0.256   2.169  16.978 -0.7489  0.5264 -0.3187
  310TMC3     H 4667   4.712   2.262  16.704  0.6684  0.4932  1.5028
  310TMC3    H1 4668   0.399   2.210  16.817  1.4618 -1.2598 -1.0992
  310TMC3    H2 4669   0.271   2.163  16.411 -1.8969 -1.8279  0.0097
  310TMC3    C7 4670   0.490   2.141  16.584 -0.4889  0.0394  0.2321
  310TMC3    C8 4671   0.065   2.305  16.460  0.4653 -0.7852  0.4280
  310TMC3    O1 4672   0.548   2.085  16.677  0.0539 -0.9735  0.4303
  310TMC3    O2 4673   0.083   2.282  16.340  0.0372  0.3695  0.3474
  311MPD2     C 4674   2.345   3.533  12.730  0.8928 -0.0057  0.0568
  311MPD2    C1 4675   2.323   3.586  12.859 -1.0633 -0.1785 -0.5540
  311MPD2    C2 4676   2.193   3.568  12.907 -0.3639  0.3917  0.5515
  311MPD2    C3 4677   2.096   3.517  12.831  0.2986 -0.3827  0.3909
  311MPD2    C4 4678   2.121   3.462  12.707 -0.5519 -0.3437  0.3509
  311MPD2    C5 4679   2.244   3.477  12.656 -0.6310 -0.7217 -0.2356
  311MPD2     H 4680   2.163   3.625  12.994  0.1367 -1.2360  1.8065
  311MPD2    H1 4681   2.045   3.402  12.656 -0.1370  1.0142 -1.8622
  311MPD2    H2 4682   2.442   3.541  12.682  1.1293 -1.1506  0.3420
  311MPD2    H3 4683   2.260   3.422  12.563 -2.4366 -2.1343  0.2991
  311MPD2     N 4684   1.967   3.515  12.889  0.1373 -0.0656 -0.3185
  311MPD2    H5 4685   1.958   3.542  12.986 -0.2642 -0.0124 -0.3714
  311MPD2    N1 4686   2.423   3.647  12.944 -0.4536 -0.4075  0.1254
  311MPD2    H7 4687   2.406   3.684  13.037 -2.3165 -0.5675 -0.1483
  312TMC3    C1 4688   1.730   3.470  12.915 -0.4639 -0.1945 -1.0514
  312TMC3    C2 4689   1.616   3.416  12.858 -0.4053  0.0174  0.2078
  312TMC3    C3 4690   1.495   3.409  12.924 -1.0942 -0.3392 -0.3686
  312TMC3    C4 4691   1.714   3.520  13.044 -0.8825  0.4478 -0.0814
  312TMC3    C5 4692   1.588   3.512  13.110 -0.4862 -0.1320 -0.5308
  312TMC3    C6 4693   1.472   3.466  13.047  0.5032  0.1329 -0.0719
  312TMC3     C 4694   1.853   3.454  12.836  0.6551  0.3332 -0.3744
  312TMC3     O 4695   1.834   3.371  12.741 -0.0700  0.4977  0.0069
  312TMC3     H 4696   1.612   3.401  12.751  1.0213  1.0236  0.0144
  312TMC3    H1 4697   1.801   3.560  13.096 -1.1698 -0.5251  1.1507
  312TMC3    H2 4698   1.374   3.461  13.094 -0.1432 -0.5865 -1.4712
  312TMC3    C7 4699   1.586   3.546  13.248 -0.9693  0.4889  0.1966
  312TMC3    C8 4700   1.376   3.357  12.860  0.1605  0.0073  0.8449
  312TMC3    O1 4701   1.687   3.579  13.305  0.3276  0.1302 -0.1794
  312TMC3    O2 4702   1.278   3.353  12.932 -0.0687  0.0279  0.1339
  313MPD2     C 4703   2.435   2.611  10.837 -0.5360 -0.5998 -0.0663
  313MPD2    C1 4704   2.322   2.661  10.776 -0.3658  0.0002  0.1799
  313MPD2    C2 4705   2.261   2.582  10.676  0.0515  0.5582  0.5162
  313MPD2    C3 4706   2.316   2.466  10.621  1.1532  0.1005  0.4082
  313MPD2    C4 4707   2.439   2.429  10.676 -0.0993 -0.7357  1.1797
  313MPD2    C5 4708   2.490   2.497  10.783  0.1746  0.7411  0.1093
  313MPD2     H 4709   2.160   2.597  10.639  0.8911  1.6656 -1.3737
  313MPD2    H1 4710   2.488   2.333  10.662  0.6194 -0.3433  0.9738
  313MPD2    H2 4711   2.490   2.652  10.921 -0.8752  0.5397 -0.4113
  313MPD2    H3 4712   2.576   2.463  10.839 -1.2386 -0.0392  1.7798
  313MPD2     N 4713   2.246   2.392  10.521  0.1856 -0.1642  0.5818
  313MPD2    H5 4714   2.159   2.428  10.484  1.9890  1.3392 -2.1846
  313MPD2    N1 4715   2.256   2.779  10.811 -0.5541  0.4794  0.1189
  313MPD2    H7 4716   2.169   2.796  10.761 -0.7948 -1.0413  0.0260
  314TMC3    C1 4717   2.210   2.989  10.897  0.8818 -0.9485 -0.4059
  314TMC3    C2 4718   2.209   3.061  11.015 -0.2216  0.6545  0.3911
  314TMC3    C3 4719   2.123   3.165  11.018  0.2110 -0.3776 -0.7475
  314TMC3    C4 4720   2.146   3.029  10.783  0.7001  0.1241  0.0295
  314TMC3    C5 4721   2.069   3.144  10.791 -0.3197 -0.0277  0.2046
  314TMC3    C6 4722   2.056   3.216  10.909  0.1533  0.1847  0.2319
  314TMC3     C 4723   2.305   2.880  10.890  0.2803  0.3486  0.4845
  314TMC3     O 4724   2.401   2.865  10.965 -0.8706 -0.0456  0.6307
  314TMC3     H 4725   2.249   3.004  11.098 -0.1372 -0.0863 -0.1541
  314TMC3    H1 4726   2.174   2.970  10.697  3.1548  2.1757 -0.5741
  314TMC3    H2 4727   1.986   3.298  10.920 -1.3556 -0.8317 -1.8965
  314TMC3    C7 4728   1.973   3.158  10.681 -0.4219  0.2951 -0.1583
  314TMC3    C8 4729   2.130   3.252  11.139  0.1325  0.2398  0.1688
  314TMC3    O1 4730   1.861   3.208  10.703  0.2582 -0.4225 -0.1712
  314TMC3    O2 4731   2.079   3.362  11.132  1.0264 -0.4924 -0.2257
  315MPD2     C 4732   1.096   2.579   0.517 -0.7391  0.5905  0.8573
  315MPD2    C1 4733   1.226   2.599   0.567  0.2305 -0.2874  0.1631
  315MPD2    C2 4734   1.297   2.698   0.505  0.2935 -0.5308 -0.4686
  315MPD2    C3 4735   1.240   2.783   0.416  0.4222 -0.3000  0.5581
  315MPD2    C4 4736   1.106   2.771   0.382 -0.3444 -0.2137 -0.1362
  315MPD2    C5 4737   1.036   2.664   0.425  0.1591 -0.0701 -0.6871
  315MPD2     H 4738   1.395   2.735   0.533 -0.7326 -0.4918  3.0172
  315MPD2    H1 4739   1.060   2.833   0.305 -0.4432 -0.0611  0.0450
  315MPD2    H2 4740   1.035   2.496   0.551  0.8932 -1.8428 -2.0804
  315MPD2    H3 4741   0.936   2.644   0.390 -0.6922  0.2943  1.5310
  315MPD2     N 4742   1.323   2.882   0.362 -0.0159  0.0965  0.4228
  315MPD2    H5 4743   1.423   2.878   0.376  0.3517  1.1223 -1.8325
  315MPD2    N1 4744   1.301   2.517   0.651 -0.3474 -0.4914 -0.2330
  315MPD2    H7 4745   1.395   2.549   0.674 -0.2040 -1.1144  0.0453
  316TMC3    C1 4746   1.408   3.090   0.280  0.3045  0.8822  0.0682
  316TMC3    C2 4747   1.520   3.056   0.342  0.4438 -0.3402  0.1873
  316TMC3    C3 4748   1.621   3.153   0.353  0.8540 -0.8953 -0.6524
  316TMC3    C4 4749   1.386   3.215   0.226  0.1813 -0.0197  0.3651
  316TMC3    C5 4750   1.486   3.306   0.242  0.3514 -0.1983  0.2837
  316TMC3    C6 4751   1.605   3.277   0.299 -0.4753  0.1760  0.8351
  316TMC3     C 4752   1.294   2.987   0.276  0.4627  0.2011  0.5104
  316TMC3     O 4753   1.185   3.020   0.225  0.7164  0.6030 -0.3720
  316TMC3     H 4754   1.528   2.961   0.393  0.6333 -1.0828 -1.2394
  316TMC3    H1 4755   1.296   3.247   0.175  2.0282  2.3502 -1.4357
  316TMC3    H2 4756   1.687   3.347   0.310  0.4186 -1.0849  2.1182
  316TMC3    C7 4757   1.476   3.441   0.179  0.7176 -0.6082  0.2388
  316TMC3    C8 4758   1.733   3.124   0.443 -0.1180  0.6617 -0.7579
  316TMC3    O1 4759   1.562   3.526   0.210  0.3890  0.4679  0.0272
  316TMC3    O2 4760   1.780   3.228   0.491  0.4335 -0.6057  0.1296
  317MPD2     C 4761   3.783   0.378  12.385 -0.4036  0.2049 -0.4585
  317MPD2    C1 4762   3.892   0.431  12.451  0.0717  0.4097  0.1976
  317MPD2    C2 4763   3.890   0.421  12.590 -0.2485  0.2696 -0.2076
  317MPD2    C3 4764   3.789   0.360  12.658 -0.3709 -0.4821 -0.4620
  317MPD2    C4 4765   3.670   0.327  12.592 -0.1700 -0.1919  0.3935
  317MPD2    C5 4766   3.665   0.349  12.455  0.7508 -0.7706 -0.0658
  317MPD2     H 4767   3.975   0.451  12.650  0.8706 -1.5124 -0.9124
  317MPD2    H1 4768   3.586   0.292  12.650  1.1901 -1.5628  1.5315
  317MPD2    H2 4769   3.759   0.399  12.281  0.0333  2.4061 -0.1251
  317MPD2    H3 4770   3.575   0.331  12.398  0.9700  3.1013 -1.6162
  317MPD2     N 4771   3.799   0.342  12.800 -0.0076 -0.8896 -0.4072
  317MPD2    H5 4772   3.893   0.350  12.837  1.0483 -0.9388 -3.1177
  317MPD2    N1 4773   4.007   0.479  12.389 -0.3267  0.1963 -0.3200
  317MPD2    H7 4774   4.074   0.529  12.447  1.6560 -0.3284 -2.1439
  318TMC3    C1 4775   3.744   0.328  13.034 -0.2321 -0.4712 -0.1520
  318TMC3    C2 4776   3.659   0.272  13.125 -0.0771  1.0262 -0.1300
  318TMC3    C3 4777   3.708   0.254  13.246 -0.8240  0.1963 -0.2770
  318TMC3    C4 4778   3.872   0.361  13.061 -0.0508  0.8372 -0.8418
  318TMC3    C5 4779   3.913   0.327  13.188  0.1653  0.3663  0.1563
  318TMC3    C6 4780   3.842   0.262  13.282 -0.1723 -0.5177  0.5908
  318TMC3     C 4781   3.696   0.317  12.895  0.1830 -0.0291  0.1303
  318TMC3     O 4782   3.574   0.302  12.874  0.3390 -0.0911 -0.1926
  318TMC3     H 4783   3.556   0.249  13.099  0.7147 -0.4051 -2.0474
  318TMC3    H1 4784   3.935   0.415  12.992  1.5165  1.3349  0.9752
  318TMC3    H2 4785   3.875   0.249  13.384  3.4279  3.1417 -0.1065
  318TMC3    C7 4786   4.047   0.376  13.217 -0.2065 -0.0675  0.2323
  318TMC3    C8 4787   3.639   0.135  13.299  0.7883  0.8046 -0.9359
  318TMC3    O1 4788   4.081   0.481  13.163 -0.2074 -0.3994 -0.4485
  318TMC3    O2 4789   3.697   0.066  13.382 -0.4684  0.2883 -0.0922
  319MPD2     C 4790   4.630   1.746  16.154  0.2285 -0.2737  0.4831
  319MPD2    C1 4791   4.569   1.794  16.270 -0.5135  0.4264 -0.2229
  319MPD2    C2 4792   4.434   1.824  16.267  0.1246 -0.4207 -0.1166
  319MPD2    C3 4793   4.355   1.789  16.162 -0.0682 -0.2671 -0.9103
  319MPD2    C4 4794   4.413   1.747  16.045 -0.3992  0.2714 -0.3439
  319MPD2    C5 4795   4.550   1.732  16.047 -0.1458 -0.6251  0.4546
  319MPD2     H 4796   4.400   1.877  16.355  1.6409  0.1134  0.1438
  319MPD2    H1 4797   4.357   1.708  15.960 -0.0410 -1.2235  0.1093
  319MPD2    H2 4798   0.018   1.736  16.142  0.4229 -0.1737  2.0715
  319MPD2    H3 4799   4.594   1.698  15.954 -3.9307 -2.8797 -0.5299
  319MPD2     N 4800   4.214   1.783  16.163 -0.3818  0.0712  1.0461
  319MPD2    H5 4801   4.162   1.758  16.079 -0.2616  0.5302  0.8399
  319MPD2    N1 4802   4.640   1.817  16.388 -0.0643  0.5718  0.0519
  319MPD2    H7 4803   4.591   1.862  16.465 -0.8934 -0.7576  0.3082
  320TMC3    C1 4804   3.998   1.804  16.259  0.2232  0.0477 -0.4329
  320TMC3    C2 4805   3.943   1.860  16.149  0.1914 -0.0094 -0.3755
  320TMC3    C3 4806   3.820   1.837  16.119 -0.3472 -0.4570 -0.1747
  320TMC3    C4 4807   3.930   1.724  16.345  0.2459 -0.1402 -0.2958
  320TMC3    C5 4808   3.801   1.701  16.312  0.6477  0.0352  0.5334
  320TMC3    C6 4809   3.746   1.751  16.193 -0.6902  0.2540 -0.1406
  320TMC3     C 4810   4.143   1.807  16.277  0.3061 -0.1879 -0.1591
  320TMC3     O 4811   4.179   1.802  16.397  0.6180 -0.2603  0.0989
  320TMC3     H 4812   4.000   1.933  16.091 -2.3732  1.6681 -0.7534
  320TMC3    H1 4813   3.986   1.671  16.421  0.4448  0.2546 -0.1665
  320TMC3    H2 4814   3.652   1.702  16.168  0.5314 -0.3801 -3.5040
  320TMC3    C7 4815   3.744   1.577  16.365 -0.4560 -0.7942  0.0476
  320TMC3    C8 4816   3.745   1.944  16.052  0.2225  0.0048 -0.0302
  320TMC3    O1 4817   3.672   1.517  16.285 -0.1045 -0.7480  0.4205
  320TMC3    O2 4818   3.803   2.040  16.002 -0.0860 -0.0897  0.4224
  321TMC3    C1 4819   0.109   1.826  16.538 -0.3430 -0.3746 -0.4786
  321TMC3    C2 4820   0.239   1.788  16.563 -0.0585  0.0415  0.7358
  321TMC3    C3 4821   0.289   1.807  16.698  0.4492 -0.4198  0.5341
  321TMC3    C4 4822   0.029   1.882  16.631 -0.4139 -0.3421 -0.1451
  321TMC3    C5 4823   0.076   1.899  16.757 -0.1788 -1.1960  0.3947
  321TMC3    C6 4824   0.211   1.877  16.787  0.5309  0.1812 -0.1954
  321TMC3     C 4825   0.054   1.790  16.403  0.0227  0.9503  0.0335
  321TMC3     O 4826   0.141   1.760  16.318  0.2356  0.0610  0.1013
  321TMC3     H 4827   0.314   1.761  16.489 -0.9824  0.2591 -0.2860
  321TMC3    H1 4828   4.648   1.916  16.611 -0.1162  0.9143  0.4533
  321TMC3    H2 4829   0.257   1.906  16.880 -0.2900 -1.5105  0.7240
  321TMC3    C7 4830   4.695   1.917  16.855  0.7964  0.4127 -0.0905
  321TMC3    C8 4831   0.403   1.728  16.743  0.6513  0.1565 -0.6142
  321TMC3    O1 4832   4.576   1.942  16.828  0.2688 -0.0840 -0.5448
  321TMC3    O2 4833   0.505   1.721  16.679 -0.0388  0.6483  0.7599
  322MPD2     C 4834   2.791   3.009  13.287  0.2835 -0.6882 -0.2559
  322MPD2    C1 4835   2.817   2.959  13.413  0.3777  0.8757 -0.0783
  322MPD2    C2 4836   2.846   2.822  13.423  0.3409 -0.0980  1.1627
  322MPD2    C3 4837   2.850   2.747  13.305 -0.1350 -0.0420  0.4024
  322MPD2    C4 4838   2.807   2.796  13.184 -0.6516 -0.4143  0.1758
  322MPD2    C5 4839   2.785   2.936  13.175 -0.5326  0.6491  0.5613
  322MPD2     H 4840   2.862   2.785  13.523  0.1307 -1.9261  0.5190
  322MPD2    H1 4841   2.809   2.743  13.089  1.2244 -0.3532  0.1936
  322MPD2    H2 4842   2.784   3.116  13.278  0.1074 -0.7404 -0.7443
  322MPD2    H3 4843   2.784   2.990  13.081  2.4731 -0.5684 -0.1741
  322MPD2     N 4844   2.881   2.613  13.314 -0.2528  0.6156  0.0327
  322MPD2    H5 4845   2.891   2.574  13.407  0.5728  2.6564  0.8040
  322MPD2    N1 4846   2.825   3.053  13.527  0.2769 -0.4751  0.2244
  322MPD2    H7 4847   2.837   3.152  13.511 -1.5937 -0.3930 -0.7146
  323TMC3    C1 4848   2.869   3.125  13.745 -0.0410 -0.6089  0.5080
  323TMC3    C2 4849   2.924   3.245  13.699 -0.0069 -0.2859  0.1912
  323TMC3    C3 4850   2.955   3.339  13.797 -0.1950 -0.0325 -0.0832
  323TMC3    C4 4851   2.844   3.101  13.879  0.2260  0.5882  0.8972
  323TMC3    C5 4852   2.872   3.201  13.971 -0.0034  0.1954 -0.2682
  323TMC3    C6 4853   2.919   3.323  13.929 -0.3434  0.1619  0.2821
  323TMC3     C 4854   2.839   3.009  13.657  0.1166 -0.0424 -0.0311
  323TMC3     O 4855   2.817   2.900  13.714  0.3273  0.2444 -0.0065
  323TMC3     H 4856   2.947   3.266  13.596 -2.1358 -1.8557 -0.6139
  323TMC3    H1 4857   2.815   3.007  13.925  2.6393 -1.1970 -1.2778
  323TMC3    H2 4858   2.946   3.403  13.997 -0.9491  0.1969  0.4810
  323TMC3    C7 4859   2.924   3.165  14.099 -0.5269  0.1986 -0.4634
  323TMC3    C8 4860   3.054   3.437  13.764  0.5034 -0.0963 -0.3216
  323TMC3    O1 4861   2.966   3.052  14.104 -0.6186  0.0816  0.7205
  323TMC3    O2 4862   3.121   3.427  13.661  0.2281 -0.3642 -0.4227
  324MPD2     C 4863   0.179   4.347  14.621 -1.0031  0.7007  0.4245
  324MPD2    C1 4864   0.226   4.453  14.550  0.4161 -0.4316  0.5921
  324MPD2    C2 4865   0.137   4.515  14.462  0.1402 -0.7820 -0.2874
  324MPD2    C3 4866   0.018   4.457  14.436 -0.6052 -0.3771  0.2424
  324MPD2    C4 4867   4.696   4.348  14.497 -0.3163 -0.2115  0.1764
  324MPD2    C5 4868   0.054   4.301  14.599 -0.6523 -0.6687 -0.8703
  324MPD2     H 4869   0.175   4.601  14.409 -0.2044  0.0421  0.8061
  324MPD2    H1 4870   4.602   4.295  14.487 -0.3093 -0.0318 -0.8398
  324MPD2    H2 4871   0.236   4.305  14.703 -0.6653 -2.0623 -1.2382
  324MPD2    H3 4872   0.017   4.227  14.668 -2.0786  0.8598 -0.0025
  324MPD2     N 4873   4.660   4.514  14.329 -0.2807  0.6140 -0.5691
  324MPD2    H5 4874   4.570   4.476  14.303  0.5457  0.8051 -3.6941
  324MPD2    N1 4875   0.358   4.508  14.561  0.1524 -0.0582  0.3024
  324MPD2    H7 4876   0.380   4.587  14.501 -0.6479 -1.0033 -1.2424
  325TMC3    C1 4877   4.584   4.659  14.152 -0.0089 -0.1270 -0.2188
  325TMC3    C2 4878   4.529   4.540  14.104  0.2129 -0.5448  0.7378
  325TMC3    C3 4879   4.407   4.545  14.054  0.2187 -0.0743  0.0254
  325TMC3    C4 4880   4.517   0.058  14.144 -0.0001  0.6600  0.4831
  325TMC3    C5 4881   4.388   0.049  14.102  0.3736  0.1727 -0.1497
  325TMC3    C6 4882   4.322   4.656  14.055 -0.7430  0.5106  0.0956
  325TMC3     C 4883   4.680   4.633  14.263  0.0062 -0.3829 -0.3639
  325TMC3     O 4884   0.016   0.014  14.304  0.0257  0.3944 -0.0696
  325TMC3     H 4885   4.595   4.455  14.088  0.3712 -0.6018  1.7191
  325TMC3    H1 4886   4.550   0.141  14.205 -0.5817  0.5796  0.8988
  325TMC3    H2 4887   4.229   4.662  14.001 -0.4670 -1.0454 -0.5594
  325TMC3    C7 4888   4.312   0.160  14.141  0.6077 -0.1939  0.0927
  325TMC3    C8 4889   4.355   4.418  14.004  0.4963  1.1053  0.1058
  325TMC3    O1 4890   4.372   0.266  14.133 -0.3862  0.0938  0.4970
  325TMC3    O2 4891   4.431   4.336  13.952 -0.8264 -0.2593  0.0438
  326MPD2     C 4892   1.521   0.283  11.354  0.5150 -0.0335  0.0373
  326MPD2    C1 4893   1.523   0.309  11.215 -0.8812  0.0682  0.6310
  326MPD2    C2 4894   1.606   0.404  11.172 -0.4984 -0.0317 -0.9240
  326MPD2    C3 4895   1.682   0.480  11.254  0.1938  0.0325  0.7713
  326MPD2    C4 4896   1.677   0.456  11.389  0.6969 -0.2967 -0.6582
  326MPD2    C5 4897   1.597   0.353  11.441  0.7355 -0.6745 -0.0654
  326MPD2     H 4898   1.611   0.419  11.065 -0.3350  2.8053 -0.4930
  326MPD2    H1 4899   1.745   0.513  11.452  0.8853 -2.1736  0.8201
  326MPD2    H2 4900   1.449   0.212  11.393 -0.4745  2.0794  2.0075
  326MPD2    H3 4901   1.604   0.320  11.544 -0.0023 -1.2570 -0.2034
  326MPD2     N 4902   1.773   0.575  11.209 -0.4911  0.2390 -0.1001
  326MPD2    H5 4903   1.826   0.625  11.279 -1.2808  0.0908  0.6016
  326MPD2    N1 4904   1.447   0.243  11.116  0.3778 -0.9072 -0.2196
  326MPD2    H7 4905   1.454   0.266  11.018 -0.8205  1.0208  0.1469
  327TMC3    C1 4906   1.301   0.098  11.020 -0.0302 -0.6039 -0.3307
  327TMC3    C2 4907   1.200   0.176  10.971 -0.6960  0.7300  0.4867
  327TMC3    C3 4908   1.179   0.208  10.836  0.3288 -0.2330  0.3819
  327TMC3    C4 4909   1.399   0.065  10.930 -0.3384  0.4352  0.5799
  327TMC3    C5 4910   1.388   0.098  10.796 -0.1496  0.2930  0.0896
  327TMC3    C6 4911   1.283   0.167  10.744 -0.7442 -0.1488  0.7313
  327TMC3     C 4912   1.360   0.144  11.139 -0.1110  0.1407 -0.5426
  327TMC3     O 4913   1.320   0.092  11.242  0.1845  0.1525  0.5512
  327TMC3     H 4914   1.120   0.200  11.039 -1.9748  0.8436 -1.0705
  327TMC3    H1 4915   1.489   0.019  10.969  0.7566  2.2011  0.1156
  327TMC3    H2 4916   1.272   0.191  10.639  1.0918 -0.4481  0.4818
  327TMC3    C7 4917   1.506   0.133  10.720 -0.7605  0.2836  0.6614
  327TMC3    C8 4918   1.102   0.334  10.805 -0.0562 -0.5714  0.3595
  327TMC3    O1 4919   1.487   0.179  10.608 -0.4216 -0.5281 -0.3277
  327TMC3    O2 4920   1.111   0.375  10.690 -0.0909 -0.0828 -0.0113
  328MPD2     C 4921   3.672   4.634  16.632  0.3884  0.3655  0.3320
  328MPD2    C1 4922   3.555   4.632  16.707  0.3233 -0.1041  0.4868
  328MPD2    C2 4923   3.483   0.032  16.719  0.3377 -0.3384  0.2190
  328MPD2    C3 4924   3.544   0.154  16.694 -0.4243  1.1719 -0.4644
  328MPD2    C4 4925   3.670   0.157  16.636 -0.2759  0.0275  0.2632
  328MPD2    C5 4926   3.729   0.037  16.601 -0.2830 -0.2885  0.2948
  328MPD2     H 4927   3.386   0.045  16.763  0.0099  1.2343 -0.9868
  328MPD2    H1 4928   3.707   0.251  16.596 -1.5518  1.0518  1.4931
  328MPD2    H2 4929   3.724   4.546  16.597 -1.1579 -1.3115  2.2659
  328MPD2    H3 4930   3.822   0.037  16.546 -1.0360 -0.5093 -0.9965
  328MPD2     N 4931   3.479   0.275  16.708 -0.0120 -0.0419 -0.4814
  328MPD2    H5 4932   3.377   0.269  16.713 -0.1232  1.6536 -0.5935
  328MPD2    N1 4933   3.511   4.510  16.751 -0.3190  0.3974 -0.4414
  328MPD2    H7 4934   3.564   4.425  16.733  0.0027  0.2342  1.2912
  329TMC3    C1 4935   3.340   4.374  16.847  0.1011  0.2329 -0.6957
  329TMC3    C2 4936   3.238   4.372  16.939 -0.1376 -0.4109  0.3649
  329TMC3    C3 4937   3.132   4.296  16.903 -0.5380 -0.1540  0.3215
  329TMC3    C4 4938   3.346   4.292  16.736  0.1990 -0.9207  0.0082
  329TMC3    C5 4939   3.241   4.213  16.710 -0.6787 -0.4440 -0.6252
  329TMC3    C6 4940   3.133   4.218  16.789  0.1878 -0.0655 -0.6241
  329TMC3     C 4941   3.407   4.509  16.841  0.6997  0.8894 -0.0619
  329TMC3     O 4942   3.353   4.595  16.917 -0.6798  0.0630  0.1040
  329TMC3     H 4943   3.253   4.426  17.032  2.0186 -0.1569 -0.1489
  329TMC3    H1 4944   3.426   4.302  16.664 -0.3513 -0.8528 -0.5901
  329TMC3    H2 4945   3.061   4.138  16.776  2.3404 -2.0344 -0.3883
  329TMC3    C7 4946   3.257   4.122  16.601  0.1084 -0.3908  0.9862
  329TMC3    C8 4947   3.001   4.327  16.952 -0.2089 -0.1956 -0.4662
  329TMC3    O1 4948   3.374   4.096  16.571  0.1181 -0.0041  0.2282
  329TMC3    O2 4949   2.906   4.283  16.886  0.2696 -0.2917  0.1162
  330TMC3    C1 4950   1.533   4.244   9.910 -0.2848  0.1062 -0.6579
  330TMC3    C2 4951   1.586   4.117   9.893  1.2035 -0.2059 -0.0466
  330TMC3    C3 4952   1.721   4.108   9.917  0.1887 -0.7767 -0.6834
  330TMC3    C4 4953   1.607   4.346   9.962 -0.6849  0.3771 -0.0792
  330TMC3    C5 4954   1.735   4.329  10.012  0.5407  0.7799 -0.3299
  330TMC3    C6 4955   1.792   4.206   9.977  0.0093 -0.1795 -0.1814
  330TMC3     C 4956   1.390   4.269   9.880 -0.7897  0.5283  0.3288
  330TMC3     O 4957   1.349   4.366   9.938  0.0878 -0.1771 -0.3746
  330TMC3     H 4958   1.517   4.036   9.873 -0.2086  0.7973  0.7277
  330TMC3    H1 4959   1.557   4.438   9.991  1.5704  1.6070 -0.1276
  330TMC3    H2 4960   1.898   4.186   9.987  0.0345 -0.1079 -0.2955
  330TMC3    C7 4961   1.806   4.446  10.023  0.2336 -0.2127 -0.6096
  330TMC3    C8 4962   1.780   3.975   9.913  0.0631 -0.3548 -0.3675
  330TMC3    O1 4963   1.757   4.543   9.966 -0.4785  0.1922 -0.4071
  330TMC3    O2 4964   1.875   3.953   9.982 -0.3695 -0.7907  0.3365
  331MPD2     C 4965   4.037   3.810  12.784 -0.2370  0.7811  0.3643
  331MPD2    C1 4966   4.170   3.795  12.766  0.1572 -0.6844 -0.2895
  331MPD2    C2 4967   4.217   3.670  12.736 -0.7642 -0.2551  1.4205
  331MPD2    C3 4968   4.127   3.564  12.736  0.1776  0.2058  0.0848
  331MPD2    C4 4969   3.989   3.581  12.759 -0.6358  0.3628 -0.1447
  331MPD2    C5 4970   3.946   3.708  12.782 -0.1888 -0.7641  0.0493
  331MPD2     H 4971   4.320   3.646  12.714 -0.6957  1.1977  0.1137
  331MPD2    H1 4972   3.921   3.498  12.747  0.3542 -0.3971 -0.5088
  331MPD2    H2 4973   3.999   3.911  12.794  1.6730  1.2911  2.4700
  331MPD2    H3 4974   3.840   3.729  12.778  0.0018  0.9018  3.1127
  331MPD2     N 4975   4.177   3.442  12.698  0.0930 -0.2522  0.1822
  331MPD2    H5 4976   4.274   3.441  12.670  0.3126 -0.4604  0.9335
  331MPD2    N1 4977   4.253   3.906  12.736  0.3128  0.6577 -0.3386
  331MPD2    H7 4978   4.202   3.994  12.733  0.8055  0.8170 -3.9855
  332TMC3    C1 4979   4.191   3.232  12.627 -0.4079 -0.7959 -0.1613
  332TMC3    C2 4980   4.233   3.287  12.506  0.4060  0.4879 -0.1184
  332TMC3    C3 4981   4.330   3.215  12.441 -0.1177 -0.0643 -0.5117
  332TMC3    C4 4982   4.249   3.121  12.684  0.5351  0.1093  0.1101
  332TMC3    C5 4983   4.359   3.069  12.616  0.0983  0.5233  0.9990
  332TMC3    C6 4984   4.392   3.111  12.490  0.0621  0.7684 -0.8067
  332TMC3     C 4985   4.115   3.323  12.704  0.3982 -0.0563  0.2636
  332TMC3     O 4986   4.001   3.290  12.744  0.4682 -0.3289  0.4833
  332TMC3     H 4987   4.180   3.371  12.461  3.6770  2.0889 -0.9998
  332TMC3    H1 4988   4.224   3.090  12.785 -0.1051  1.9010  0.5044
  332TMC3    H2 4989   4.476   3.071  12.434 -1.2520 -1.9919 -0.8118
  332TMC3    C7 4990   4.438   2.972  12.688 -0.0442  0.5290  0.1298
  332TMC3    C8 4991   4.378   3.265  12.313  0.7747 -0.0350  0.0160
  332TMC3    O1 4992   4.375   2.904  12.769  0.4152 -0.3541 -0.2825
  332TMC3    O2 4993   4.481   3.223  12.270  0.2590 -0.5193  0.6583
  333MPD2     C 4994   4.711   3.031  10.743 -0.1491 -0.2631 -0.2905
  333MPD2    C1 4995   0.117   2.996  10.717 -0.3578 -0.2750  0.4248
  333MPD2    C2 4996   0.160   2.876  10.770  0.0452  0.5174 -0.2311
  333MPD2    C3 4997   0.075   2.792  10.847  0.1774 -0.5111  0.1966
  333MPD2    C4 4998   4.664   2.830  10.858 -0.1017 -0.1033  0.0852
  333MPD2    C5 4999   4.620   2.948  10.807 -0.0559 -0.4604 -0.0792
  333MPD2     H 5000   0.264   2.847  10.757 -0.5392 -1.6892 -0.0641
  333MPD2    H1 5001   4.593   2.772  10.916 -0.1412  0.5527  0.6993
  333MPD2    H2 5002   4.687   3.137  10.736 -0.9001 -0.3163  1.3963
  333MPD2    H3 5003   4.525   2.992  10.837 -0.8457 -1.2475 -1.4177
  333MPD2     N 5004   0.120   2.667  10.894 -0.1597  0.7837 -0.2347
  333MPD2    H5 5005   0.204   2.620  10.862 -1.1189 -1.9062  1.1902
  333MPD2    N1 5006   0.215   3.087  10.666 -0.1217 -0.0695  0.0289
  333MPD2    H7 5007   0.193   3.185  10.678  3.7085  0.3698  3.7486
  334TMC3    C1 5008   0.425   3.177  10.630 -1.1194  0.1291 -0.5547
  334TMC3    C2 5009   0.535   3.186  10.549 -0.5183  0.3082 -0.3802
  334TMC3    C3 5010   0.610   3.301  10.551 -0.4383 -0.5872  0.9419
  334TMC3    C4 5011   0.381   3.290  10.691  0.0190 -0.7385 -0.1086
  334TMC3    C5 5012   0.459   3.398  10.691 -0.2954  0.8478 -0.1652
  334TMC3    C6 5013   0.578   3.410  10.627  0.5298  0.5382 -0.6143
  334TMC3     C 5014   0.343   3.054  10.630  0.7302  0.2144 -0.2312
  334TMC3     O 5015   0.384   2.955  10.575  0.0294 -0.5060 -0.0120
  334TMC3     H 5016   0.561   3.098  10.491 -0.4410 -0.4155  0.7653
  334TMC3    H1 5017   0.291   3.285  10.752 -1.2700 -1.6953 -2.1099
  334TMC3    H2 5018   0.633   3.503  10.623  2.8678 -0.8963 -1.3319
  334TMC3    C7 5019   0.400   3.519  10.751 -0.2206  0.3784 -0.8678
  334TMC3    C8 5020   0.722   3.304  10.456 -0.0936 -1.3101  0.0953
  334TMC3    O1 5021   0.473   3.617  10.759 -0.4162 -0.3554 -0.3147
  334TMC3    O2 5022   0.716   3.238  10.353 -0.6796  0.2925  0.5470
  335TMC3    C1 5023   4.542   0.352   0.166 -0.2009  0.3416  0.1352
  335TMC3    C2 5024   4.431   0.333   0.087 -0.1422  0.5456  0.0686
  335TMC3    C3 5025   4.441   0.371  17.641  0.2926 -0.7632  0.2058
  335TMC3    C4 5026   4.660   0.406   0.120  0.2821  0.2918 -0.0592
  335TMC3    C5 5027   4.660   0.435  17.672 -0.4823  0.3916 -0.0703
  335TMC3    C6 5028   4.551   0.426  17.592  0.3434 -0.0805  0.0061
  335TMC3     C 5029   4.510   0.345   0.304 -0.0419 -0.6746  0.5663
  335TMC3     O 5030   4.407   0.284   0.338  0.5642  0.3750  0.5442
  335TMC3     H 5031   4.334   0.296   0.115 -0.6280  1.2994 -0.6255
  335TMC3    H1 5032   0.023   0.419   0.188 -2.5681 -0.3360  3.5588
  335TMC3    H2 5033   4.553   0.451  17.486 -0.7599 -3.0306 -0.7249
  335TMC3    C7 5034   0.061   0.464  17.602  0.2573  0.2481 -0.1978
  335TMC3    C8 5035   4.334   0.358  17.538  0.0071 -0.0383 -0.2712
  335TMC3    O1 5036   0.067   0.441  17.480  0.1821  1.0329 -0.8980
  335TMC3    O2 5037   4.327   0.438  17.450 -0.3747 -0.0990  0.0814
  336MPD2     C 5038   4.016   3.141  15.950  0.2200 -0.1783  0.2406
  336MPD2    C1 5039   3.939   3.067  15.863  0.1762 -0.5088 -0.2449
  336MPD2    C2 5040   3.914   2.932  15.886  0.0859 -0.4843 -0.2052
  336MPD2    C3 5041   3.970   2.875  15.999  0.9028  0.0577  0.5826
  336MPD2    C4 5042   4.053   2.946  16.079 -0.3957 -1.1142  0.1780
  336MPD2    C5 5043   4.072   3.077  16.056 -0.1959  0.1543 -0.4031
  336MPD2     H 5044   3.866   2.870  15.812  1.5468  0.9734 -2.3562
  336MPD2    H1 5045   4.103   2.909  16.168  0.1893 -0.1276  0.2638
  336MPD2    H2 5046   4.031   3.247  15.937  2.2571 -0.4798  0.1982
  336MPD2    H3 5047   4.118   3.132  16.138 -0.2390  1.1411 -1.0410
  336MPD2     N 5048   3.975   2.739  16.030  0.3238 -0.5410  0.0849
  336MPD2    H5 5049   4.025   2.712  16.114 -2.1593  0.4466  1.9156
  336MPD2    N1 5050   3.881   3.119  15.748 -0.3813 -0.0470  0.5726
  336MPD2    H7 5051   3.817   3.059  15.697 -0.2296  0.0154  0.3126
  337TMC3    C1 5052   3.803   3.263  15.580  0.4862  0.9022  0.0018
  337TMC3    C2 5053   3.677   3.209  15.580 -0.6989 -0.6150 -1.7446
  337TMC3    C3 5054   3.592   3.247  15.472  0.2812  0.1591  1.1517
  337TMC3    C4 5055   3.835   3.363  15.485  0.0449  0.4175 -0.3931
  337TMC3    C5 5056   3.737   3.407  15.394  0.0594 -0.6420  0.1180
  337TMC3    C6 5057   3.616   3.346  15.384  0.8290 -0.0827  0.5218
  337TMC3     C 5058   3.893   3.245  15.696  0.2230  0.6891 -0.1207
  337TMC3     O 5059   3.970   3.331  15.728 -0.2747  0.1690  0.0647
  337TMC3     H 5060   3.635   3.145  15.657 -0.6623  0.3630 -0.9137
  337TMC3    H1 5061   3.929   3.414  15.498  0.3189 -0.5159  1.2426
  337TMC3    H2 5062   3.543   3.385  15.313  0.7923  0.5036  0.8844
  337TMC3    C7 5063   3.777   3.512  15.299 -0.2719 -0.7316 -0.1464
  337TMC3    C8 5064   3.450   3.236  15.506  0.0365  0.4546  0.4891
  337TMC3    O1 5065   3.891   3.504  15.260 -0.3469  0.0859 -0.7052
  337TMC3    O2 5066   3.426   3.198  15.621 -0.7059  0.1597 -0.1390
  338MPD2     C 5067   4.449   2.416   1.180 -0.4497  0.0211 -0.0438
  338MPD2    C1 5068   4.346   2.408   1.084  0.4282  0.6930 -0.0891
  338MPD2    C2 5069   4.223   2.460   1.113 -0.0009  0.3132  0.2763
  338MPD2    C3 5070   4.211   2.519   1.232 -0.2464 -0.9905 -0.2333
  338MPD2    C4 5071   4.314   2.533   1.323 -0.3386  0.7121 -0.5492
  338MPD2    C5 5072   4.434   2.479   1.304 -0.4574 -0.1298 -0.0858
  338MPD2     H 5073   4.134   2.451   1.051  0.7857  0.6846 -0.9081
  338MPD2    H1 5074   4.294   2.586   1.415  0.6542 -0.1902  0.1789
  338MPD2    H2 5075   4.546   2.370   1.166 -0.9283 -0.6594 -1.0902
  338MPD2    H3 5076   4.518   2.488   1.372 -0.2909 -1.4977 -0.1003
  338MPD2     N 5077   4.094   2.585   1.273  0.1470 -0.3458  0.4955
  338MPD2    H5 5078   4.027   2.584   1.197  1.6667  1.0507 -0.8612
  338MPD2    N1 5079   4.363   2.326   0.970  0.0930  0.0142 -0.0890
  338MPD2    H7 5080   4.280   2.305   0.916 -0.2542  1.2321 -0.0281
  339TMC3    C1 5081   3.918   2.685   1.377  0.1609 -0.5386  0.1496
  339TMC3    C2 5082   3.818   2.642   1.452 -0.1825  0.8142  0.1735
  339TMC3    C3 5083   3.686   2.657   1.413 -0.4987  0.8169 -0.4637
  339TMC3    C4 5084   3.889   2.735   1.254 -0.0133 -0.1019 -0.5816
  339TMC3    C5 5085   3.759   2.757   1.214  0.2498 -0.7914  0.9050
  339TMC3    C6 5086   3.655   2.720   1.296  0.0812 -0.1902 -0.1546
  339TMC3     C 5087   4.053   2.632   1.396  0.5472 -0.4365 -0.0461
  339TMC3     O 5088   4.085   2.610   1.515 -0.2892 -0.0654 -0.2141
  339TMC3     H 5089   3.850   2.579   1.535 -0.6496  1.4177  0.8090
  339TMC3    H1 5090   3.964   2.765   1.182  1.3511  0.6372  1.1747
  339TMC3    H2 5091   3.552   2.733   1.264 -0.5899 -0.4255  1.9464
  339TMC3    C7 5092   3.745   2.718   1.077  0.4609 -0.5965  0.6261
  339TMC3    C8 5093   3.576   2.637   1.508  0.1462  0.9621 -0.4094
  339TMC3    O1 5094   3.850   2.691   1.016 -0.3286 -0.0396 -1.2037
  339TMC3    O2 5095   3.464   2.633   1.456 -0.0986  0.4193  0.2687
  340MPD2     C 5096   0.014   0.184   9.792  0.1328  0.4966  0.3958
  340MPD2    C1 5097   0.039   0.092   9.893 -0.0288  0.4065  0.4828
  340MPD2    C2 5098   0.054   0.143  10.027  0.2744 -0.8443  0.1351
  340MPD2    C3 5099   0.049   0.275  10.060  1.0410  0.0629 -0.2403
  340MPD2    C4 5100   0.020   0.368   9.962 -0.3638 -1.0402  0.1504
  340MPD2    C5 5101   0.002   0.315   9.834 -0.4822  0.3704  0.4086
  340MPD2     H 5102   0.086   0.067  10.098  0.6248 -0.9774 -0.1628
  340MPD2    H1 5103   0.027   0.476   9.972 -1.4615 -1.0116  0.6645
  340MPD2    H2 5104   0.019   0.161   9.686  0.0774  2.8207 -0.1047
  340MPD2    H3 5105   4.713   0.392   9.759 -1.6850 -0.0919  0.0888
  340MPD2     N 5106   0.097   0.335  10.178  0.4582 -0.5391 -0.3877
  340MPD2    H5 5107   0.096   0.436  10.182 -3.4543 -0.7659  4.7631
  340MPD2    N1 5108   0.076   4.683   9.853 -0.1740  0.4553 -0.1148
  340MPD2    H7 5109   0.107   4.668   9.757  3.0714  0.4160  0.9515
  341TMC3    C1 5110   0.137   4.456   9.887 -0.2845  0.7047 -0.2981
  341TMC3    C2 5111   0.047   4.349   9.872  0.6813  0.0358  0.3014
  341TMC3    C3 5112   0.095   4.225   9.888 -0.0527 -0.0823  0.5816
  341TMC3    C4 5113   0.271   4.434   9.915 -0.5729 -0.1696  0.1325
  341TMC3    C5 5114   0.311   4.303   9.935 -0.2632  0.2904 -0.2416
  341TMC3    C6 5115   0.224   4.196   9.921 -0.5573  0.0271  0.2655
  341TMC3     C 5116   0.083   4.577   9.948 -0.0067 -1.0944  0.9680
  341TMC3     O 5117   0.030   4.569  10.052 -0.1407 -0.1644 -0.4980
  341TMC3     H 5118   4.662   4.372   9.865  0.5638 -0.7597 -0.5124
  341TMC3    H1 5119   0.336   4.519   9.931 -1.9225  1.2120 -1.7022
  341TMC3    H2 5120   0.277   4.102   9.932  1.1217  0.6827 -2.2434
  341TMC3    C7 5121   0.460   4.270   9.947  0.6192  0.6565 -0.5461
  341TMC3    C8 5122   0.009   4.123   9.849  0.0486  0.0103 -0.4255
  341TMC3    O1 5123   0.498   4.163   9.899  0.5229  0.6130  0.1380
  341TMC3    O2 5124   4.614   4.153   9.833  0.7511 -0.5838 -0.0117
  342MPD2     C 5125   2.036   3.744  17.295  0.9259  0.2114 -0.3335
  342MPD2    C1 5126   2.161   3.710  17.336 -0.0748  0.2205  0.1666
  342MPD2    C2 5127   2.234   3.809  17.402  0.7322 -0.3229 -0.5334
  342MPD2    C3 5128   2.179   3.928  17.446  0.0171 -0.3651  0.2473
  342MPD2    C4 5129   2.052   3.955  17.401  0.0023 -0.3669 -0.0867
  342MPD2    C5 5130   1.989   3.866  17.321 -0.2347 -0.1065  0.4145
  342MPD2     H 5131   2.335   3.786  17.432 -0.6758 -1.2749  3.4914
  342MPD2    H1 5132   2.011   4.052  17.423 -0.3888 -0.3292 -0.9908
  342MPD2    H2 5133   1.970   3.682  17.234 -1.4933  1.0534  1.4185
  342MPD2    H3 5134   1.886   3.881  17.291 -0.5562 -0.3361  1.3939
  342MPD2     N 5135   2.244   4.027  17.526 -0.1122  1.0791  0.1747
  342MPD2    H5 5136   2.189   4.101  17.568 -1.4145 -0.8297  1.8427
  342MPD2    N1 5137   2.215   3.578  17.325 -0.1012 -0.7909  0.3372
  342MPD2    H7 5138   2.309   3.569  17.364  0.1087  0.0886  0.0245
  343TMC3    C1 5139   2.240   3.346  17.280 -0.4150  0.3653 -0.4957
  343TMC3    C2 5140   2.357   3.351  17.216  1.0063  0.1465  0.0723
  343TMC3    C3 5141   2.431   3.238  17.197 -0.4879 -0.2609  0.0290
  343TMC3    C4 5142   2.168   3.228  17.295  0.6019  0.3760  0.2519
  343TMC3    C5 5143   2.242   3.114  17.269  0.3267 -0.6281 -0.2395
  343TMC3    C6 5144   2.373   3.116  17.221  0.5254  0.2374 -0.3828
  343TMC3     C 5145   2.150   3.465  17.289 -0.2578  0.5162 -0.0927
  343TMC3     O 5146   2.032   3.449  17.273  0.2739 -0.5745  0.3175
  343TMC3     H 5147   2.403   3.450  17.218  2.4422 -0.4783 -1.3380
  343TMC3    H1 5148   2.069   3.228  17.341  0.7566 -1.4111  0.6043
  343TMC3    H2 5149   2.425   3.022  17.206 -2.6525 -1.3958 -1.1006
  343TMC3    C7 5150   2.203   2.982  17.316 -0.9452 -0.6787 -0.4372
  343TMC3    C8 5151   2.576   3.250  17.157  0.5918 -0.0389  0.1007
  343TMC3    O1 5152   2.086   2.951  17.317  0.8900  0.6287 -0.2094
  343TMC3    O2 5153   2.641   3.351  17.183 -0.8156 -0.7017 -0.2904
  344MPD2     C 5154   3.484   2.753  10.204 -0.3084  0.2816  0.7242
  344MPD2    C1 5155   3.599   2.697  10.249 -0.5336  0.3582  0.2826
  344MPD2    C2 5156   3.716   2.755  10.214 -0.1631  1.5639 -0.1404
  344MPD2    C3 5157   3.725   2.862  10.135  0.2415 -0.4459  0.0476
  344MPD2    C4 5158   3.601   2.908  10.078  0.0926 -0.2809  0.3290
  344MPD2    C5 5159   3.484   2.860  10.123  0.0044  0.0673 -0.1581
  344MPD2     H 5160   3.808   2.729  10.265  0.2499  1.0408 -1.1421
  344MPD2    H1 5161   3.604   2.988  10.005  0.1284 -1.2732 -0.7732
  344MPD2    H2 5162   3.385   2.718  10.230  0.4710 -3.5880 -1.5067
  344MPD2    H3 5163   3.391   2.893  10.078 -0.7512 -0.1514  1.2299
  344MPD2     N 5164   3.839   2.936  10.096  0.4593 -0.0787 -0.1223
  344MPD2    H5 5165   3.830   2.982  10.006 -0.3499 -1.0168 -0.5160
  344MPD2    N1 5166   3.616   2.582  10.331  0.1197  0.3681  0.1450
  344MPD2    H7 5167   3.711   2.558  10.356 -0.1812  0.1859  1.0857
  345TMC3    C1 5168   4.058   2.998  10.082 -0.4547  0.5529 -0.3672
  345TMC3    C2 5169   4.181   2.998  10.144  0.1763  0.2793  0.0875
  345TMC3    C3 5170   4.269   3.088  10.103 -0.1602  0.3752 -0.6778
  345TMC3    C4 5171   4.021   3.098   9.998  0.4157 -0.1837  0.1691
  345TMC3    C5 5172   4.115   3.190   9.965 -0.2497 -0.1531 -0.9492
  345TMC3    C6 5173   4.249   3.187  10.012 -0.2027 -0.0821 -0.0372
  345TMC3     C 5174   3.959   2.918  10.154  0.0621  0.0792  0.0248
  345TMC3     O 5175   4.001   2.842  10.240 -0.1959 -0.0632  0.9665
  345TMC3     H 5176   4.200   2.927  10.223 -1.9248 -1.7732 -1.2422
  345TMC3    H1 5177   3.919   3.119   9.966  0.0606 -1.9929  0.0877
  345TMC3    H2 5178   4.327   3.257   9.983  0.6250  0.0684  2.5557
  345TMC3    C7 5179   4.086   3.293   9.875  0.4981 -0.7382 -1.1980
  345TMC3    C8 5180   4.398   3.087  10.186 -0.4837  0.0765 -0.5905
  345TMC3    O1 5181   4.152   3.396   9.881 -0.0201  0.0880 -0.1598
  345TMC3    O2 5182   4.392   3.047  10.302 -0.2549  0.1675  0.6342
  346MPD2     C 5183   3.144   4.701  14.230  0.4667  0.4766  0.3361
  346MPD2    C1 5184   3.257   0.061  14.202  0.7752 -0.0643  0.1320
  346MPD2    C2 5185   3.334   0.098  14.310 -0.1407 -0.2596  0.0465
  346MPD2    C3 5186   3.312   0.043  14.437  0.2644  0.7353  0.4997
  346MPD2    C4 5187   3.204   4.677  14.457  0.2201  0.2238  0.0659
  346MPD2    C5 5188   3.123   4.643  14.352  0.0025 -0.0335  0.7075
  346MPD2     H 5189   3.419   0.158  14.281 -1.5224  0.7242 -1.9276
  346MPD2    H1 5190   3.193   4.629  14.554  2.2871  1.0006  0.6694
  346MPD2    H2 5191   3.078   4.665  14.152 -0.0193 -2.7050  2.2110
  346MPD2    H3 5192   3.040   4.574  14.365 -0.4856  0.2248 -1.0194
  346MPD2     N 5193   3.410   0.071  14.543  0.8450 -0.4279  0.1861
  346MPD2    H5 5194   3.499   0.104  14.507 -0.5061  3.0148 -0.0073
  346MPD2    N1 5195   3.299   0.102  14.071  0.5114 -0.6194  0.8491
  346MPD2    H7 5196   3.383   0.158  14.068 -0.3041  0.4311 -2.8793
  347TMC3    C1 5197   3.526   0.050  14.753  0.2752 -0.3093  0.4093
  347TMC3    C2 5198   3.638   0.105  14.708  0.0093  1.1888  0.9084
  347TMC3    C3 5199   3.758   0.083  14.780  0.4908  0.3673 -0.1954
  347TMC3    C4 5200   3.533   4.702  14.875 -0.4670 -0.3464  0.6424
  347TMC3    C5 5201   3.649   4.702  14.944  0.6894  0.0828 -0.9532
  347TMC3    C6 5202   3.765   0.039  14.912  0.7749  0.0463 -0.8628
  347TMC3     C 5203   3.402   0.040  14.683  0.3648  0.1696 -0.1667
  347TMC3     O 5204   3.308   4.706  14.737 -0.3217  0.6844 -0.0137
  347TMC3     H 5205   3.631   0.146  14.608 -2.0805 -0.6501  0.2782
  347TMC3    H1 5206   3.449   4.645  14.914 -1.2782 -0.8920 -1.8958
  347TMC3    H2 5207   3.853   0.038  14.974  0.4184  0.1604 -0.3578
  347TMC3    C7 5208   3.657   4.606  15.052  0.4592 -0.4287  0.1581
  347TMC3    C8 5209   3.871   0.162  14.728 -0.1214  0.2736 -0.0046
  347TMC3    O1 5210   3.576   4.513  15.034  0.4996 -0.0717 -0.0594
  347TMC3    O2 5211   3.928   0.236  14.809  0.0176  0.4021  0.7591
  348MPD2     C 5212   2.084   4.278  12.532  0.8819  0.1123 -0.5198
  348MPD2    C1 5213   2.188   4.353  12.484  0.3232  0.5189 -0.5638
  348MPD2    C2 5214   2.167   4.413  12.360 -0.2425 -0.5241  0.8359
  348MPD2    C3 5215   2.037   4.416  12.301  0.4957 -0.3867 -0.2162
  348MPD2    C4 5216   1.939   4.341  12.361 -0.1109  0.2473  0.5475
  348MPD2    C5 5217   1.958   4.270  12.477  0.5011 -0.6309 -0.1144
  348MPD2     H 5218   2.247   4.475  12.319 -0.4867  1.0040  2.6917
  348MPD2    H1 5219   1.839   4.339  12.318 -0.2334  0.9317  0.8166
  348MPD2    H2 5220   2.102   4.207  12.613 -0.9931 -3.1703 -2.9936
  348MPD2    H3 5221   1.877   4.217  12.527 -1.0572  2.3853  0.5474
  348MPD2     N 5222   2.015   4.486  12.178 -0.8721  0.0825 -0.4164
  348MPD2    H5 5223   2.100   4.524  12.137  0.0148  0.3175  1.6498
  348MPD2    N1 5224   2.313   4.362  12.548  0.0083  0.0563 -0.2291
  348MPD2    H7 5225   2.387   4.407  12.495 -0.3888  0.2898 -0.5895
  349TMC3    C1 5226   2.477   4.359  12.699 -0.7789  0.4112  0.4887
  349TMC3    C2 5227   2.540   4.241  12.710 -0.2059 -0.1213  0.2345
  349TMC3    C3 5228   2.638   4.213  12.615  1.0307 -0.2983  0.2307
  349TMC3    C4 5229   2.522   4.459  12.607 -0.2556 -0.4536  0.9870
  349TMC3    C5 5230   2.635   4.438  12.526  0.1723  0.1549  0.2899
  349TMC3    C6 5231   2.692   4.307  12.532 -0.0017 -0.3050 -0.3363
  349TMC3     C 5232   2.335   4.344  12.680 -0.6172 -0.0280 -0.0819
  349TMC3     O 5233   2.257   4.304  12.764  0.4319  0.1018  0.1784
  349TMC3     H 5234   2.489   4.159  12.760  0.6478 -1.3032 -0.8286
  349TMC3    H1 5235   2.474   4.557  12.605  1.4956  0.4074  1.2249
  349TMC3    H2 5236   2.756   4.283  12.448  0.1082  2.6881 -1.1074
  349TMC3    C7 5237   2.606   4.487  12.389  0.1887  0.6534  0.5025
  349TMC3    C8 5238   2.677   4.074  12.604 -0.1513  0.2897  0.2194
  349TMC3    O1 5239   2.489   4.490  12.357 -0.2245 -0.4837  0.3795
  349TMC3    O2 5240   2.610   3.995  12.668 -0.6703 -0.0384 -0.4778
  350MPD2     C 5241   2.246   1.446   9.990  0.1444  0.3928  0.6665
  350MPD2    C1 5242   2.123   1.462  10.060  0.5133 -0.4497  0.2233
  350MPD2    C2 5243   2.084   1.583  10.114 -0.0497  0.1878  0.3339
  350MPD2    C3 5244   2.168   1.694  10.103 -0.0610 -0.3018 -0.1819
  350MPD2    C4 5245   2.284   1.672  10.030  0.8687 -0.6764 -0.2298
  350MPD2    C5 5246   2.322   1.551   9.980  0.7075 -0.0917  0.1027
  350MPD2     H 5247   1.990   1.603  10.164  0.9005  1.9520  1.3851
  350MPD2    H1 5248   2.364   1.745  10.021 -0.4201  0.7075 -0.4941
  350MPD2    H2 5249   2.285   1.354   9.948 -1.1002 -0.4920  1.4475
  350MPD2    H3 5250   2.424   1.540   9.945  1.8000  0.6575  3.0218
  350MPD2     N 5251   2.132   1.818  10.158  0.0213 -0.0355 -0.5392
  350MPD2    H5 5252   2.042   1.804  10.204  0.9950  0.6806  1.5878
  350MPD2    N1 5253   2.028   1.358  10.061  0.4845 -0.8173 -0.2478
  350MPD2    H7 5254   1.936   1.384  10.094  0.3538 -0.8914 -0.5550
  351TMC3    C1 5255   1.943   1.130  10.020  0.0195  0.3388 -0.6426
  351TMC3    C2 5256   1.977   0.996   9.999  0.7582 -0.2527  0.2518
  351TMC3    C3 5257   1.878   0.904   9.974  0.0744  0.3785  0.0037
  351TMC3    C4 5258   1.813   1.173  10.033 -0.3875 -0.1751  0.5284
  351TMC3    C5 5259   1.715   1.081  10.002  0.2367  0.3793 -0.8042
  351TMC3    C6 5260   1.747   0.948   9.970 -0.4943  0.6941  0.3718
  351TMC3     C 5261   2.059   1.220  10.033 -0.1415  0.0835  0.3717
  351TMC3     O 5262   2.172   1.177  10.008  0.3281  0.0673 -0.2153
  351TMC3     H 5263   2.076   0.954  10.012  1.3466  1.3657  0.8341
  351TMC3    H1 5264   1.787   1.277  10.049  2.1635  0.5328  0.0325
  351TMC3    H2 5265   1.661   0.884   9.952  0.4634 -0.1616 -1.0677
  351TMC3    C7 5266   1.571   1.121  10.008 -0.0943 -0.2946  0.0006
  351TMC3    C8 5267   1.898   0.763   9.942 -0.1131 -0.5577  0.7306
  351TMC3    O1 5268   1.498   1.041   9.955 -0.0923  0.1448  0.4620
  351TMC3    O2 5269   1.791   0.703   9.919 -0.2118  0.1397  0.0189
  352MPD2     C 5270   4.592   0.018   1.178  0.2167  0.3107 -0.2659
  352MPD2    C1 5271   4.674   4.684   1.078  0.4790 -0.1462 -0.5703
  352MPD2    C2 5272   4.706   4.549   1.090  0.2345 -0.1319  0.1977
  352MPD2    C3 5273   4.661   4.463   1.188  0.2233  0.3002 -1.1570
  352MPD2    C4 5274   4.590   4.525   1.289 -0.2916  0.0133 -0.4686
  352MPD2    C5 5275   4.553   4.658   1.278  0.1519 -0.5514 -0.3747
  352MPD2     H 5276   0.047   4.513   1.009 -1.1909  0.7981 -1.2766
  352MPD2    H1 5277   4.557   4.478   1.380  2.0598  2.5572  1.6989
  352MPD2    H2 5278   4.572   0.124   1.174 -1.4124 -0.0056 -0.4635
  352MPD2    H3 5279   4.491   4.709   1.351  0.5603  1.5227 -1.4823
  352MPD2     N 5280   4.680   4.326   1.210  0.5749  0.7659 -0.7990
  352MPD2    H5 5281   4.642   4.271   1.286  0.5927  0.6840 -0.8501
  352MPD2    N1 5282   4.710   0.057   0.974 -0.4739 -0.0461  0.4389
  352MPD2    H7 5283   4.685   0.155   0.986  2.4291  0.8139 -0.6388
  353TMC3    C1 5284   0.031   4.114   1.141  0.6108  0.0146 -0.8101
  353TMC3    C2 5285   0.138   4.047   1.095 -0.5531  0.1685  1.1709
  353TMC3    C3 5286   0.132   3.909   1.120  0.6074 -0.0656 -0.0417
  353TMC3    C4 5287   4.638   4.067   1.194 -0.0924 -0.7987 -0.3608
  353TMC3    C5 5288   4.635   3.931   1.206 -0.0163 -0.0618 -0.4664
  353TMC3    C6 5289   0.027   3.851   1.185 -0.0082 -0.5107 -0.3528
  353TMC3     C 5290   0.030   4.253   1.119 -0.5577  0.2717 -0.4452
  353TMC3     O 5291   0.083   4.289   1.012 -0.0528  0.2660  0.0967
  353TMC3     H 5292   0.226   4.097   1.058 -1.0275  0.0460 -0.1244
  353TMC3    H1 5293   4.548   4.121   1.222  1.2640  0.8034  0.8948
  353TMC3    H2 5294   0.011   3.744   1.196 -1.3312 -0.2373  0.4140
  353TMC3    C7 5295   4.513   3.866   1.255 -0.0306 -0.4403  0.3403
  353TMC3    C8 5296   0.265   3.853   1.138 -0.0957  0.6024  0.5060
  353TMC3    O1 5297   4.509   3.744   1.237  0.1185 -0.1661  0.2758
  353TMC3    O2 5298   0.359   3.926   1.114 -0.1292  0.2883 -0.5386
  354TMC3    C1 5299   1.509   0.494  13.496  0.5155 -0.5561 -0.4471
  354TMC3    C2 5300   1.459   0.611  13.447 -0.3095 -0.2669 -0.0194
  354TMC3    C3 5301   1.475   0.636  13.312  0.1042 -0.0614 -0.3320
  354TMC3    C4 5302   1.569   0.398  13.423  0.2264  0.3049  0.0809
  354TMC3    C5 5303   1.598   0.433  13.294  0.1740  0.9384  0.4048
  354TMC3    C6 5304   1.548   0.553  13.235 -0.1457  0.8592 -0.2082
  354TMC3     C 5305   1.462   0.455  13.631 -0.6822  0.1472  0.3567
  354TMC3     O 5306   1.383   0.529  13.689  0.6290  0.2847 -0.1948
  354TMC3     H 5307   1.401   0.682  13.505  0.6798 -0.3597  1.0995
  354TMC3    H1 5308   1.625   0.316  13.465  1.0556 -0.3026 -2.1990
  354TMC3    H2 5309   1.574   0.582  13.134  1.7601 -1.3543 -0.3439
  354TMC3    C7 5310   1.717   0.365  13.229 -0.0715 -0.6349 -0.0444
  354TMC3    C8 5311   1.477   0.775  13.269 -0.2301 -0.1655  0.1772
  354TMC3    O1 5312   1.741   0.256  13.274  0.1829  0.2802 -0.4922
  354TMC3    O2 5313   1.507   0.789  13.150 -0.5623  0.6516 -1.4358
  355MPD2     C 5314   1.342   1.706  11.721  0.3733  0.3034 -0.1116
  355MPD2    C1 5315   1.430   1.721  11.616 -0.3027  0.1725 -0.2796
  355MPD2    C2 5316   1.568   1.721  11.638 -0.4118  0.7174 -0.4471
  355MPD2    C3 5317   1.623   1.712  11.764 -0.4333 -0.1902 -0.2764
  355MPD2    C4 5318   1.537   1.687  11.871 -0.0870 -0.5390 -0.3838
  355MPD2    C5 5319   1.399   1.676  11.848 -0.0169  0.1496  0.1889
  355MPD2     H 5320   1.635   1.731  11.553  0.3791 -0.3434  0.0646
  355MPD2    H1 5321   1.571   1.660  11.971  2.9579 -4.5487 -2.4990
  355MPD2    H2 5322   1.235   1.703  11.709  0.3140 -1.3531  0.8640
  355MPD2    H3 5323   1.340   1.646  11.934 -0.2893  1.1486  0.3496
  355MPD2     N 5324   1.763   1.723  11.798 -0.1565  0.7072 -0.9158
  355MPD2    H5 5325   1.788   1.712  11.895 -0.8526 -0.6415 -0.8870
  355MPD2    N1 5326   1.356   1.732  11.489  0.2011 -0.4273  0.1199
  355MPD2    H7 5327   1.258   1.709  11.477 -0.2567  0.7346  1.5165
  356TMC3    C1 5328   1.990   1.767  11.755  0.0112 -0.1499 -0.2713
  356TMC3    C2 5329   2.076   1.790  11.652  1.1591 -0.2757 -0.2309
  356TMC3    C3 5330   2.163   1.896  11.660  0.0237  0.3406  0.2750
  356TMC3    C4 5331   1.996   1.843  11.873 -0.2250  0.4928 -0.2859
  356TMC3    C5 5332   2.091   1.949  11.880  0.0847 -0.8087  0.3065
  356TMC3    C6 5333   2.173   1.982  11.775 -0.0412 -0.2006  0.2575
  356TMC3     C 5334   1.860   1.731  11.701  0.1686 -0.1713  0.1064
  356TMC3     O 5335   1.858   1.722  11.579 -0.1277 -0.4203 -0.4060
  356TMC3     H 5336   2.076   1.721  11.568 -2.0175  0.9797 -1.2370
  356TMC3    H1 5337   1.926   1.824  11.954 -0.9887 -0.9098 -1.2746
  356TMC3    H2 5338   2.233   2.072  11.771 -0.1342 -0.0637  1.7721
  356TMC3    C7 5339   2.094   2.015  12.002 -0.2864  0.4835  0.3106
  356TMC3    C8 5340   2.253   1.916  11.555 -0.0801 -0.3412 -0.7148
  356TMC3    O1 5341   2.021   1.970  12.088 -0.3893  0.6515  0.8125
  356TMC3    O2 5342   2.226   1.845  11.454  0.0370 -0.4037 -0.0534
  357MPD2     C 5343   1.406   2.188   1.247 -0.2116 -0.3397  0.4871
  357MPD2    C1 5344   1.391   2.142   1.372 -0.0962 -0.2549 -0.1059
  357MPD2    C2 5345   1.261   2.135   1.415 -0.0258 -0.2403 -0.0441
  357MPD2    C3 5346   1.151   2.168   1.338  0.0501  0.1784 -0.1370
  357MPD2    C4 5347   1.173   2.203   1.203 -0.0548  0.3116 -0.2293
  357MPD2    C5 5348   1.300   2.214   1.166  1.5063 -0.1345 -0.3085
  357MPD2     H 5349   1.250   2.098   1.516 -1.8856  1.2178  0.2955
  357MPD2    H1 5350   1.096   2.234   1.133 -1.8814 -2.3723  0.6088
  357MPD2    H2 5351   1.508   2.179   1.213 -0.7968 -2.2034 -0.7885
  357MPD2    H3 5352   1.308   2.241   1.061  0.8621  0.7195 -0.1459
  357MPD2     N 5353   1.013   2.155   1.373 -0.1559  0.1675 -0.3107
  357MPD2    H5 5354   0.949   2.197   1.306  0.2022  2.9184  1.0818
  357MPD2    N1 5355   1.498   2.087   1.444 -0.3718  1.1872 -0.4245
  357MPD2    H7 5356   1.575   2.060   1.384  0.2039  1.5362  0.1500
  358TMC3    C1 5357   1.612   1.958   1.620 -0.6143 -0.3718  0.2550
  358TMC3    C2 5358   1.630   1.852   1.534 -0.0029  0.6988  0.1899
  358TMC3    C3 5359   1.754   1.792   1.524 -0.3438 -0.5200 -0.3064
  358TMC3    C4 5360   1.720   1.994   1.704 -0.6089 -0.3371 -0.1734
  358TMC3    C5 5361   1.839   1.928   1.700  0.3900 -0.3520  0.6336
  358TMC3    C6 5362   1.859   1.818   1.613 -0.9053  0.0393  0.2789
  358TMC3     C 5363   1.506   2.049   1.579  0.0727  0.2389  0.2240
  358TMC3     O 5364   1.424   2.072   1.664 -0.1841 -0.0914  0.1746
  358TMC3     H 5365   1.547   1.824   1.470  0.7678  0.5143 -0.7355
  358TMC3    H1 5366   1.691   2.074   1.771 -1.3030  0.0377 -0.9173
  358TMC3    H2 5367   1.960   1.793   1.584 -1.4971 -0.7810 -1.1011
  358TMC3    C7 5368   1.941   1.949   1.799 -0.2116 -0.2968  0.1038
  358TMC3    C8 5369   1.761   1.693   1.416 -0.7824 -0.0742 -0.5411
  358TMC3    O1 5370   2.052   1.901   1.779 -0.6935  0.1773  0.3387
  358TMC3    O2 5371   1.680   1.700   1.319 -0.4823 -0.0738  0.8069
  359MPD2     C 5372   2.378   0.065  12.739 -0.1491 -0.6065  0.2220
  359MPD2    C1 5373   2.316   0.054  12.613  0.6327 -0.5135 -0.1749
  359MPD2    C2 5374   2.195   4.707  12.604  0.3118  0.4572  0.5906
  359MPD2    C3 5375   2.131   4.653  12.710 -0.4251 -0.5633 -0.0547
  359MPD2    C4 5376   2.194   4.665  12.832 -0.0979 -0.3123  0.0899
  359MPD2    C5 5377   2.315   0.005  12.843  0.2289  0.1666 -0.2327
  359MPD2     H 5378   2.151   4.687  12.507 -0.8230  3.1197  0.5431
  359MPD2    H1 5379   2.145   4.623  12.919  0.6307  3.1606  2.1902
  359MPD2    H2 5380   2.466   0.127  12.751 -0.8727  0.8389 -1.8737
  359MPD2    H3 5381   2.362   0.017  12.940  0.0865 -0.6336 -0.0686
  359MPD2     N 5382   2.004   4.595  12.698 -0.0365  0.3606 -0.0317
  359MPD2    H5 5383   1.960   4.559  12.783 -1.4710 -1.6180 -1.6163
  359MPD2    N1 5384   2.361   0.123  12.498  0.0414 -0.6004  0.1408
  359MPD2    H7 5385   2.305   0.111  12.415 -0.4859  0.0187  0.4059
  360TMC3    C1 5386   2.493   0.266  12.356  0.6593 -0.2127  0.4621
  360TMC3    C2 5387   2.614   0.308  12.325  0.0149 -0.2955 -0.0260
  360TMC3    C3 5388   2.616   0.390  12.219 -0.2205 -0.3384 -0.7594
  360TMC3    C4 5389   2.380   0.301  12.291 -0.0239 -0.3685  0.1393
  360TMC3    C5 5390   2.392   0.367  12.167  0.5962 -0.1431 -0.5067
  360TMC3    C6 5391   2.515   0.413  12.128  0.7480  0.4514  0.1056
  360TMC3     C 5392   2.469   0.210  12.486  0.3129  0.6637  0.4184
  360TMC3     O 5393   2.543   0.255  12.575 -0.1361  0.1298 -0.3156
  360TMC3     H 5394   2.698   0.286  12.390 -0.3394 -0.2101  0.4588
  360TMC3    H1 5395   2.283   0.297  12.338 -0.8289  1.4170 -1.3547
  360TMC3    H2 5396   2.521   0.464  12.033  3.0107  0.3158  0.1913
  360TMC3    C7 5397   2.287   0.402  12.076  0.3756 -0.3344  0.6985
  360TMC3    C8 5398   2.744   0.442  12.185  0.0990  0.3480  0.0851
  360TMC3    O1 5399   2.305   0.487  11.986 -0.8490 -0.6239  0.2490
  360TMC3    O2 5400   2.754   0.563  12.160 -0.2910  0.3352  0.0643
  361MPD2     C 5401   3.115   3.822  16.805  0.2719  0.1442  0.5592
  361MPD2    C1 5402   3.128   3.877  16.930  0.0568  0.6035 -0.4016
  361MPD2    C2 5403   3.253   3.871  16.994 -0.3748  0.4199  0.4213
  361MPD2    C3 5404   3.358   3.795  16.939  0.1594  0.2246  0.1494
  361MPD2    C4 5405   3.336   3.744  16.814  0.3534 -1.1362 -0.0253
  361MPD2    C5 5406   3.219   3.763  16.744  0.1818  0.1093 -0.3193
  361MPD2     H 5407   3.250   3.913  17.094  0.8990  1.2055  0.1319
  361MPD2    H1 5408   3.407   3.681  16.760 -0.8724  0.5870 -3.6683
  361MPD2    H2 5409   3.028   3.824  16.741  1.3606 -0.2972 -0.9492
  361MPD2    H3 5410   3.208   3.717  16.646 -2.2530  0.1383 -0.0538
  361MPD2     N 5411   3.470   3.750  17.010  0.1754 -0.0768  0.0136
  361MPD2    H5 5412   3.533   3.686  16.963 -1.5251 -0.9228 -1.0999
  361MPD2    N1 5413   3.027   3.944  17.003 -0.2466 -0.3781 -0.4171
  361MPD2    H7 5414   3.049   4.003  17.083 -3.0049  0.6071 -0.3876
  362TMC3    C1 5415   2.793   4.030  17.017  0.1270  0.0002  0.2940
  362TMC3    C2 5416   2.822   4.080  17.140 -0.2379 -0.1464 -0.4365
  362TMC3    C3 5417   2.751   4.188  17.180 -0.2216 -0.1583 -0.1835
  362TMC3    C4 5418   2.685   4.070  16.948  0.7952  0.5893 -0.3071
  362TMC3    C5 5419   2.614   4.179  16.988  0.7388  0.3686  0.3883
  362TMC3    C6 5420   2.656   4.251  17.099 -0.8584  0.3716  0.1119
  362TMC3     C 5421   2.892   3.940  16.961 -0.1791  0.1541  0.2492
  362TMC3     O 5422   2.849   3.889  16.861  0.1562  0.1027 -0.1546
  362TMC3     H 5423   2.901   4.029  17.194 -1.2196  0.4912  1.6061
  362TMC3    H1 5424   2.691   4.046  16.843  1.7240 -2.1193  0.3627
  362TMC3    H2 5425   2.610   4.347  17.121 -0.4162  0.2122  1.7001
  362TMC3    C7 5426   2.529   4.244  16.882  0.3231  0.4996  0.4704
  362TMC3    C8 5427   2.819   4.270  17.283  0.2098 -0.2607  0.6403
  362TMC3    O1 5428   2.502   4.362  16.900 -0.2732  0.5237  0.3840
  362TMC3    O2 5429   2.934   4.235  17.313 -0.7023 -0.5049  0.6477
  363TMC3    C1 5430   1.444   4.686   8.964  0.3258 -0.4703 -0.3617
  363TMC3    C2 5431   1.545   0.026   9.030 -0.1280  0.9192  0.5772
  363TMC3    C3 5432   1.564   0.158   9.006  0.5165  1.1512  0.1165
  363TMC3    C4 5433   1.356   0.038   8.892 -0.8007  0.2180  0.8848
  363TMC3    C5 5434   1.368   0.169   8.886  0.4478  0.1050 -0.1583
  363TMC3    C6 5435   1.475   0.233   8.941 -0.0963 -0.7180  0.7102
  363TMC3     C 5436   1.436   4.542   8.976 -0.1265 -0.8415 -0.0164
  363TMC3     O 5437   1.398   4.471   8.884  0.4996 -0.4756  0.3444
  363TMC3     H 5438   1.615   4.688   9.089  0.1837 -0.8497 -1.5481
  363TMC3    H1 5439   1.274   4.704   8.847  0.9946  0.4804 -2.6697
  363TMC3    H2 5440   1.488   0.340   8.931 -0.7695 -0.7534 -0.5416
  363TMC3    C7 5441   1.250   0.241   8.835  0.2501  1.1663  0.0050
  363TMC3    C8 5442   1.675   0.217   9.075  0.7931  0.3935 -0.1007
  363TMC3    O1 5443   1.156   0.173   8.808  0.3074  0.3058  0.1932
  363TMC3    O2 5444   1.675   0.337   9.079 -0.0593  0.1758  0.2736
  364MPD2     C 5445   1.118   0.816  10.959  0.0259 -0.1785  0.8672
  364MPD2    C1 5446   1.194   0.751  10.864 -0.5101 -0.6874 -0.1217
  364MPD2    C2 5447   1.168   0.615  10.839 -0.4019 -1.0278 -0.5807
  364MPD2    C3 5448   1.086   0.544  10.921 -0.0312 -0.5377  0.1170
  364MPD2    C4 5449   1.012   0.612  11.013 -0.8344 -0.5634  0.3179
  364MPD2    C5 5450   1.018   0.748  11.019  0.0476  0.0771  0.0327
  364MPD2     H 5451   1.230   0.562  10.767  0.7035  0.4838 -0.7445
  364MPD2    H1 5452   0.944   0.556  11.076 -0.5586 -1.1265  0.1097
  364MPD2    H2 5453   1.137   0.919  10.983 -0.9431  0.4300 -0.9526
  364MPD2    H3 5454   0.957   0.797  11.094 -2.0211 -0.5473 -1.2589
  364MPD2     N 5455   1.069   0.405  10.914 -0.2836 -0.3345 -0.5096
  364MPD2    H5 5456   1.034   0.365  11.000 -0.6510  1.5190  0.1941
  364MPD2    N1 5457   1.291   0.828  10.794 -0.0163 -1.3199  0.1508
  364MPD2    H7 5458   1.288   0.929  10.802  1.2656 -1.1726 -1.3570
  365TMC3    C1 5459   1.446   0.880  10.614  0.7785  0.2634 -0.3062
  365TMC3    C2 5460   1.532   0.834  10.516  0.7018 -1.4640 -0.0858
  365TMC3    C3 5461   1.596   0.925  10.440  0.5413 -0.3259  0.0037
  365TMC3    C4 5462   1.442   1.011  10.646 -0.3253  0.3136 -0.3266
  365TMC3    C5 5463   1.503   1.104  10.563 -0.1668 -0.4422 -0.2439
  365TMC3    C6 5464   1.581   1.063  10.459 -0.9562 -0.4673  0.4637
  365TMC3     C 5465   1.374   0.772  10.691 -0.2362  0.5983  0.7583
  365TMC3     O 5466   1.413   0.659  10.680  0.6913  0.3291  0.0993
  365TMC3     H 5467   1.548   0.727  10.506 -0.0935 -1.7511  1.7079
  365TMC3    H1 5468   1.393   1.050  10.735  0.9315 -0.8309  0.8679
  365TMC3    H2 5469   1.625   1.133  10.390 -3.2514  0.4014 -0.1125
  365TMC3    C7 5470   1.454   1.237  10.551 -0.2284  0.0527 -0.0489
  365TMC3    C8 5471   1.716   0.891  10.362  0.2667 -0.0762 -0.3085
  365TMC3    O1 5472   1.486   1.296  10.445  0.5269 -0.0199 -0.0884
  365TMC3    O2 5473   1.808   0.970  10.364  0.2041  0.1820 -0.1301
  366MPD2     C 5474   3.366   2.226  15.415 -0.7551  0.1167 -0.3915
  366MPD2    C1 5475   3.456   2.292  15.333  0.7439  0.2537  0.3233
  366MPD2    C2 5476   3.543   2.219  15.254  0.2281  0.0062 -0.1282
  366MPD2    C3 5477   3.546   2.088  15.260 -0.4812  0.3571 -0.1134
  366MPD2    C4 5478   3.458   2.017  15.336 -0.3905  0.5349 -0.0300
  366MPD2    C5 5479   3.368   2.091  15.413 -0.0416 -0.4604  0.1925
  366MPD2     H 5480   3.617   2.265  15.188  1.1982  0.9841  1.6483
  366MPD2    H1 5481   3.470   1.910  15.348 -0.4809  0.8567  2.8749
  366MPD2    H2 5482   3.292   2.275  15.477  0.7702 -0.3360  1.8063
  366MPD2    H3 5483   3.298   2.039  15.476 -0.5203 -1.2202 -0.9680
  366MPD2     N 5484   3.641   2.014  15.185 -0.1150 -0.2967  0.4402
  366MPD2    H5 5485   3.708   2.066  15.129  0.1836  0.9733  1.9760
  366MPD2    N1 5486   3.457   2.435  15.329  0.0093  0.6127 -0.1346
  366MPD2    H7 5487   3.539   2.477  15.287  1.4152 -2.3394 -0.4034
  367TMC3    C1 5488   3.404   2.655  15.374 -0.2724  0.0660  0.7212
  367TMC3    C2 5489   3.533   2.679  15.391 -0.4984  0.3385  0.9072
  367TMC3    C3 5490   3.589   2.799  15.365  0.6885 -0.0973 -0.7271
  367TMC3    C4 5491   3.324   2.755  15.336  0.0638 -0.4666 -0.0462
  367TMC3    C5 5492   3.379   2.872  15.301  0.8160  0.0354  0.0697
  367TMC3    C6 5493   3.507   2.901  15.314 -0.0910  0.5018  0.1407
  367TMC3     C 5494   3.357   2.521  15.377  0.6384  0.0533 -0.5337
  367TMC3     O 5495   3.236   2.500  15.372  0.4774 -0.5580  0.3277
  367TMC3     H 5496   3.592   2.602  15.441 -1.3046 -1.7889 -1.4264
  367TMC3    H1 5497   3.216   2.754  15.323 -0.0573 -0.1158  0.9415
  367TMC3    H2 5498   3.553   2.985  15.263  0.5167 -0.8787 -1.5704
  367TMC3    C7 5499   3.333   2.936  15.180 -1.0542  0.3594  0.3675
  367TMC3    C8 5500   3.704   2.833  15.447 -0.1750 -0.6241 -0.1518
  367TMC3    O1 5501   3.348   3.056  15.158 -0.4122 -0.0112 -0.0302
  367TMC3    O2 5502   3.703   2.785  15.561 -0.3180  0.5912 -0.0974
  368MPD2     C 5503   0.323   3.579  12.674 -0.5709 -0.0113  0.6316
  368MPD2    C1 5504   0.399   3.665  12.749 -0.9693 -0.4831  0.0717
  368MPD2    C2 5505   0.532   3.666  12.729 -0.2376  0.6201 -0.6483
  368MPD2    C3 5506   0.600   3.572  12.653  0.2436 -0.5575 -0.3615
  368MPD2    C4 5507   0.524   3.480  12.592 -1.4535  0.4988 -0.3344
  368MPD2    C5 5508   0.388   3.488  12.601 -0.0942 -0.5237  0.2810
  368MPD2     H 5509   0.589   3.747  12.773  0.6002  0.5833 -1.6618
  368MPD2    H1 5510   0.560   3.399  12.529  0.0143  0.8468  0.0547
  368MPD2    H2 5511   0.215   3.591  12.671 -0.5367  0.5655  1.5720
  368MPD2    H3 5512   0.327   3.426  12.537  1.1512 -1.4612  0.0062
  368MPD2     N 5513   0.732   3.573  12.615  0.0722 -0.1030  0.4428
  368MPD2    H5 5514   0.763   3.531  12.528 -1.8349 -0.0840 -0.2374
  368MPD2    N1 5515   0.326   3.765  12.815 -0.1269  0.0686  0.8521
  368MPD2    H7 5516   0.225   3.759  12.806 -0.0737 -0.2556  0.4402
  369TMC3    C1 5517   0.286   3.967  12.928 -0.6826 -0.2294 -0.5831
  369TMC3    C2 5518   0.320   4.101  12.946 -0.3065 -0.2106  1.0062
  369TMC3    C3 5519   0.245   4.184  13.023 -0.6536 -0.5387 -0.4377
  369TMC3    C4 5520   0.168   3.926  12.988  0.2773 -0.0963 -0.8672
  369TMC3    C5 5521   0.086   4.018  13.039  0.0351 -0.1457  0.3299
  369TMC3    C6 5522   0.119   4.147  13.056  0.1493 -0.0953 -0.0225
  369TMC3     C 5523   0.382   3.880  12.866 -0.0745  0.5839 -0.3197
  369TMC3     O 5524   0.489   3.933  12.846  0.0743 -0.2124 -0.3900
  369TMC3     H 5525   0.415   4.138  12.910 -1.2712  1.6302  0.3444
  369TMC3    H1 5526   0.139   3.822  12.988 -0.4105  0.0963 -0.9021
  369TMC3    H2 5527   0.060   4.212  13.120  0.4942  0.5067 -0.3163
  369TMC3    C7 5528   4.692   3.969  13.117  0.0891  0.3080  0.2702
  369TMC3    C8 5529   0.259   4.317  12.980 -1.0804  0.2987 -0.3523
  369TMC3    O1 5530   4.658   4.036  13.213 -0.3557 -0.5520  0.1142
  369TMC3    O2 5531   0.367   4.375  12.981  0.6844  0.1292 -0.4492
  370TMC3    C1 5532   4.503   0.093  16.180  0.3128 -0.2243  0.3933
  370TMC3    C2 5533   4.397   0.058  16.260  0.0828  0.0789  0.3681
  370TMC3    C3 5534   4.348   4.646  16.251 -0.1277  0.2067 -0.0919
  370TMC3    C4 5535   4.565   0.007  16.093  0.4898 -0.4442 -0.8655
  370TMC3    C5 5536   4.509   4.602  16.086 -0.0011  0.3358  0.4533
  370TMC3    C6 5537   4.402   4.560  16.164 -0.3814  0.8598  0.8331
  370TMC3     C 5538   4.594   0.158  16.274  0.0298  0.1193  0.4546
  370TMC3     O 5539   4.559   0.156  16.392 -0.3722  0.2669  0.3497
  370TMC3     H 5540   4.353   0.122  16.335 -0.1461  0.4705 -0.1000
  370TMC3    H1 5541   4.655   0.028  16.036  1.0212  1.7692  0.7949
  370TMC3    H2 5542   4.360   4.461  16.151  0.6797  0.7950 -1.9857
  370TMC3    C7 5543   4.512   4.542  15.956  0.2400  0.6100  0.1431
  370TMC3    C8 5544   4.330   4.593  16.378 -0.7054 -0.3832  0.8135
  370TMC3    O1 5545   4.540   4.614  15.861  0.0196 -0.4168  0.2288
  370TMC3    O2 5546   4.252   4.499  16.378  0.3562 -0.1905 -0.1178
  371TMC3    C1 5547   0.714   2.793  15.470 -0.8895  0.2207 -0.0802
  371TMC3    C2 5548   0.611   2.880  15.458  0.3238  0.0028  0.3571
  371TMC3    C3 5549   0.639   3.001  15.405 -0.5795  0.2217  0.5644
  371TMC3    C4 5550   0.843   2.822  15.430 -0.1546  0.3304  0.6529
  371TMC3    C5 5551   0.864   2.941  15.366 -0.5459 -0.1839  0.2916
  371TMC3    C6 5552   0.762   3.033  15.348  0.1512  0.5090 -0.3631
  371TMC3     C 5553   0.713   2.724  15.603  0.1448 -0.7688 -0.1459
  371TMC3     O 5554   0.814   2.738  15.666  0.7878 -0.5210 -0.0823
  371TMC3     H 5555   0.524   2.864  15.522 -0.4496  2.7885  0.0031
  371TMC3    H1 5556   0.928   2.759  15.455 -0.0955  0.2364  0.2290
  371TMC3    H2 5557   0.788   3.138  15.340  1.4464  0.1234 -1.2701
  371TMC3    C7 5558   1.002   2.972  15.344  0.0879  0.2783  0.5969
  371TMC3    C8 5559   0.553   3.118  15.438 -0.9787  0.2134  0.3800
  371TMC3    O1 5560   1.077   2.877  15.325  0.4158  0.7191 -0.1058
  371TMC3    O2 5561   0.509   3.124  15.552 -0.2482 -0.5603  0.5587
  372MPD2     C 5562   0.221   3.898  13.426  0.8670  0.0654  1.0350
  372MPD2    C1 5563   0.351   3.857  13.475  0.2545  0.0074  0.5737
  372MPD2    C2 5564   0.351   3.760  13.581  0.1482 -0.4958  0.9077
  372MPD2    C3 5565   0.234   3.711  13.636  0.4668 -0.4698 -0.2034
  372MPD2    C4 5566   0.112   3.760  13.591  0.2503 -0.2648 -0.1609
  372MPD2    C5 5567   0.108   3.846  13.489 -0.0966  0.1243  0.6806
  372MPD2     H 5568   0.446   3.721  13.617 -0.2445 -0.2617  2.1944
  372MPD2    H1 5569   0.028   3.728  13.653  0.0941 -0.4281 -0.4572
  372MPD2    H2 5570   0.208   3.983  13.359  2.8635  0.2339  0.8397
  372MPD2    H3 5571   0.014   3.892  13.462 -0.8231 -1.8900 -0.1439
  372MPD2     N 5572   0.241   3.604  13.735 -0.0266 -0.8131  0.6555
  372MPD2    H5 5573   0.335   3.580  13.766  1.2748  2.0766 -1.1329
  372MPD2    N1 5574   0.472   3.913  13.427  0.3865  0.3060  0.2112
  372MPD2    H7 5575   0.556   3.892  13.480  0.6488  2.1658  0.5138
  373TMC3    C1 5576   0.168   3.447  13.894  0.2876 -0.0261  0.2556
  373TMC3    C2 5577   0.111   3.475  14.014 -0.1906 -0.8008 -0.0663
  373TMC3    C3 5578   0.197   3.449  14.122 -0.3928  0.1787 -0.2004
  373TMC3    C4 5579   0.288   3.383  13.875 -0.0651 -0.4146  0.3084
  373TMC3    C5 5580   0.368   3.367  13.982  0.5354 -0.2451 -0.6720
  373TMC3    C6 5581   0.331   3.398  14.108 -0.7303  0.5313 -0.2941
  373TMC3     C 5582   0.130   3.536  13.794  0.0089  0.1468 -1.0489
  373TMC3     O 5583   0.011   3.540  13.761  0.1912  0.4944 -0.4603
  373TMC3     H 5584   0.014   3.523  14.017 -0.7070 -1.6717 -2.6006
  373TMC3    H1 5585   0.315   3.357  13.774 -0.3636  0.4336  0.0052
  373TMC3    H2 5586   0.396   3.404  14.195 -1.1033 -1.6496  0.1185
  373TMC3    C7 5587   0.498   3.310  13.957  0.4862  0.9627  0.6809
  373TMC3    C8 5588   0.189   3.545  14.233  0.5488  0.0834 -1.0328
  373TMC3    O1 5589   0.508   3.255  13.853  0.3559  0.1210  0.4195
  373TMC3    O2 5590   0.289   3.549  14.303  0.6276 -0.2291  0.1606
  374TMC3    C1 5591   1.877   3.510  10.264 -0.2139 -0.0178  0.2655
  374TMC3    C2 5592   1.808   3.625  10.296 -0.1943 -0.5136 -0.3650
  374TMC3    C3 5593   1.709   3.656  10.203  0.7363 -0.0361 -0.1730
  374TMC3    C4 5594   1.844   3.419  10.167 -0.2892 -0.1428 -0.1760
  374TMC3    C5 5595   1.736   3.452  10.087 -0.3385 -0.6045  0.4174
  374TMC3    C6 5596   1.669   3.571  10.104 -0.4574 -1.2324 -0.7844
  374TMC3     C 5597   1.996   3.479  10.343  0.5086  0.0944 -0.2496
  374TMC3     O 5598   2.099   3.444  10.288 -0.3357  0.0228  0.3023
  374TMC3     H 5599   1.848   3.693  10.371  0.3800 -1.4338  0.1607
  374TMC3    H1 5600   1.912   3.337  10.149 -0.8367 -0.0990 -2.3688
  374TMC3    H2 5601   1.577   3.595  10.051 -0.1388  0.3376 -0.6199
  374TMC3    C7 5602   1.677   3.357  10.002 -0.7703  0.3539  0.2905
  374TMC3    C8 5603   1.643   3.788  10.212 -0.5028  0.2720 -0.3718
  374TMC3    O1 5604   1.751   3.271   9.951  0.6173 -0.2187 -0.1648
  374TMC3    O2 5605   1.544   3.809  10.142  0.2717 -0.1550  0.0281
  375MPD2     C 5606   1.204   4.534  17.302 -0.1393 -0.5306 -0.5166
  375MPD2    C1 5607   1.151   4.604  17.191 -0.8165  1.0164 -0.6415
  375MPD2    C2 5608   1.214   4.591  17.066 -0.4686 -0.6614 -0.7526
  375MPD2    C3 5609   1.312   4.495  17.041  0.4811  0.1874 -0.8030
  375MPD2    C4 5610   1.358   4.420  17.152 -0.3088  0.2040 -0.2887
  375MPD2    C5 5611   1.304   4.439  17.276  0.5775 -0.0044  0.0692
  375MPD2     H 5612   1.166   4.645  16.985 -0.1411 -0.1432 -0.5995
  375MPD2    H1 5613   1.441   4.351  17.142 -0.1806  0.5297 -1.5908
  375MPD2    H2 5614   1.161   4.542  17.401  0.7829  1.1375 -0.2511
  375MPD2    H3 5615   1.350   4.393  17.363  1.6005  1.2725  0.2076
  375MPD2     N 5616   1.384   4.488  16.926  1.0302 -0.2995 -0.2326
  375MPD2    H5 5617   1.471   4.436  16.920  1.2621 -0.0377  1.0394
  375MPD2    N1 5618   1.046   4.693  17.195  0.3763 -0.1993 -0.2965
  375MPD2    H7 5619   1.011   0.004  17.105 -0.8469 -1.5685 -0.2833
  376TMC3    C1 5620   1.453   4.529  16.697  0.0444  0.2262  0.4361
  376TMC3    C2 5621   1.588   4.562  16.715 -0.6408 -0.1461  0.2960
  376TMC3    C3 5622   1.662   4.576  16.595 -0.8056 -0.0876 -0.2874
  376TMC3    C4 5623   1.392   4.507  16.574  0.3824  0.2720 -0.4922
  376TMC3    C5 5624   1.473   4.530  16.464 -0.2554 -0.5849 -0.5451
  376TMC3    C6 5625   1.603   4.562  16.472  0.6147  0.6043 -0.4808
  376TMC3     C 5626   1.360   4.559  16.807 -0.3286 -0.1962  0.3902
  376TMC3     O 5627   1.266   4.627  16.770  0.1073 -0.7722  0.1347
  376TMC3     H 5628   1.619   4.606  16.809 -0.7048  1.2411 -0.3338
  376TMC3    H1 5629   1.285   4.498  16.559  0.3821 -1.0053  0.2866
  376TMC3    H2 5630   1.653   4.622  16.397  0.7352 -0.0266 -0.9059
  376TMC3    C7 5631   1.412   4.555  16.333  0.9361 -0.1680 -0.0215
  376TMC3    C8 5632   1.787   4.644  16.589 -0.1215 -0.0658 -0.4352
  376TMC3    O1 5633   1.473   4.631  16.260 -0.1332 -0.6909  0.3087
  376TMC3    O2 5634   1.849   4.646  16.484 -0.0077  0.2934  0.7374
  377MPD2     C 5635   4.134   0.108  12.353 -0.5987  0.8387 -0.4329
  377MPD2    C1 5636   4.174   0.063  12.473 -0.3895  0.6523 -0.2267
  377MPD2    C2 5637   4.074   0.031  12.571 -0.5596 -0.4291  0.3071
  377MPD2    C3 5638   3.940   0.032  12.539  0.1335  1.1792 -1.1492
  377MPD2    C4 5639   3.907   0.087  12.418 -0.3867  0.1154 -0.4852
  377MPD2    C5 5640   3.997   0.126  12.329  0.1861  0.8903  0.2553
  377MPD2     H 5641   4.103   4.717  12.670 -1.3838  1.2885  1.1466
  377MPD2    H1 5642   3.802   0.089  12.390 -0.5779 -1.9725  0.1131
  377MPD2    H2 5643   4.204   0.124  12.272  0.0759 -0.2152 -0.0618
  377MPD2    H3 5644   3.962   0.160  12.232  1.3199  1.1229 -0.0743
  377MPD2     N 5645   3.833   4.706  12.627 -0.0483 -0.3266 -0.3730
  377MPD2    H5 5646   3.741   4.710  12.584  0.0933 -0.7049 -0.7108
  377MPD2    N1 5647   4.308   0.042  12.498  0.4438  0.0551  1.0416
  377MPD2    H7 5648   4.378   0.067  12.429 -1.5824  1.0082 -0.6808
  378TMC3    C1 5649   4.670   0.026  12.411  0.5925 -0.1726 -0.3231
  378TMC3    C2 5650   4.563   0.065  12.496  0.9393 -0.3298  0.0779
  378TMC3    C3 5651   4.510   4.688  12.579 -0.0204  0.6979  0.1313
  378TMC3    C4 5652   0.009   4.622  12.424 -0.4432  0.5144  0.2051
  378TMC3    C5 5653   4.679   4.528  12.509 -0.9915  0.7963  0.1088
  378TMC3    C6 5654   4.566   4.563  12.579  0.2327 -0.8508 -0.1024
  378TMC3     C 5655   4.634   0.062  12.283  0.5414  1.1193  0.1742
  378TMC3     O 5656   4.584   0.175  12.286 -0.1917 -0.3306  0.1932
  378TMC3     H 5657   4.528   0.168  12.501 -1.6874 -1.3081  1.6243
  378TMC3    H1 5658   0.097   4.605  12.363  0.1669  1.6258  0.7884
  378TMC3    H2 5659   4.522   4.489  12.646  0.4898  0.2967  1.3110
  378TMC3    C7 5660   0.025   4.398  12.533  0.1643 -0.4470 -0.4751
  378TMC3    C8 5661   4.367   4.707  12.611  0.6310 -0.0289  0.0818
  378TMC3    O1 5662   4.714   4.342  12.638  0.4933  0.2204 -0.6381
  378TMC3    O2 5663   4.321   4.643  12.707  0.4333  0.3627  0.0094
  379MPD2     C 5664   4.629   2.757  16.304 -0.0350  0.0557  0.4511
  379MPD2    C1 5665   4.613   2.635  16.252 -0.1668 -0.2133 -0.0650
  379MPD2    C2 5666   4.640   2.526  16.329 -0.5189  0.4393 -0.6005
  379MPD2    C3 5667   4.708   2.536  16.446 -0.3797 -0.4008 -0.6046
  379MPD2    C4 5668   0.002   2.668  16.499 -0.1266 -0.1629 -0.9844
  379MPD2    C5 5669   4.679   2.776  16.425 -0.3329  0.4410  0.0642
  379MPD2     H 5670   4.612   2.430  16.287  0.1095  0.5700 -1.3133
  379MPD2    H1 5671   0.047   2.691  16.595  0.1577 -0.7844 -0.9672
  379MPD2    H2 5672   4.603   2.842  16.242  2.8666  1.9234  1.7677
  379MPD2    H3 5673   4.708   2.876  16.456 -0.3232  0.3886  0.2263
  379MPD2     N 5674   0.033   2.426  16.515  0.1582 -0.2867 -0.0709
  379MPD2    H5 5675   0.050   2.441  16.614  0.8495 -2.6987  0.1525
  379MPD2    N1 5676   4.555   2.630  16.125 -0.0565  0.0074  0.4459
  379MPD2    H7 5677   4.550   2.717  16.073  1.5107 -1.5603 -2.3101
  380TMC3    C1 5678   4.424   2.548  15.949  0.1750 -0.3492 -0.2437
  380TMC3    C2 5679   4.389   2.437  15.878 -0.3310 -0.5342  0.4887
  380TMC3    C3 5680   4.310   2.456  15.764 -0.2863  0.8280 -0.6701
  380TMC3    C4 5681   4.387   2.677  15.916  0.7248  0.1518 -0.2595
  380TMC3    C5 5682   4.305   2.691  15.804 -0.4192  0.2337  0.8051
  380TMC3    C6 5683   4.272   2.582  15.729 -0.0258  0.6372  0.9816
  380TMC3     C 5684   4.494   2.521  16.072 -0.0010  0.1067 -0.8411
  380TMC3     O 5685   4.478   2.405  16.112  0.5573  0.9243  0.2534
  380TMC3     H 5686   4.425   2.337  15.903  2.4938  0.2215 -0.4996
  380TMC3    H1 5687   4.410   2.758  15.984  1.4410  0.4989 -0.9204
  380TMC3    H2 5688   4.194   2.584  15.654  0.4636  0.8882  0.4853
  380TMC3    C7 5689   4.258   2.818  15.762 -0.6189 -0.2488  0.0385
  380TMC3    C8 5690   4.302   2.359  15.656 -0.0343  1.1533 -0.2417
  380TMC3    O1 5691   4.333   2.914  15.779 -1.0528 -0.2152 -0.2351
  380TMC3    O2 5692   4.196   2.367  15.595 -0.5408 -0.4714  0.2899
  381TMC3    C1 5693   3.997   4.101  16.115  0.0007 -0.7002  0.2265
  381TMC3    C2 5694   4.102   4.195  16.123 -0.9299 -0.1947 -0.7182
  381TMC3    C3 5695   4.171   4.200  16.247  0.3445 -0.4317  0.1752
  381TMC3    C4 5696   3.940   4.041  16.220 -1.3081  1.0760  0.4690
  381TMC3    C5 5697   3.997   4.068  16.345  0.2160 -0.0324 -0.2727
  381TMC3    C6 5698   4.117   4.132  16.352  0.0874 -0.2559  0.2883
  381TMC3     C 5699   3.987   4.014  15.997  0.1463  0.9375 -0.1552
  381TMC3     O 5700   3.888   3.943  15.982  0.6714  0.0175 -0.1802
  381TMC3     H 5701   4.140   4.238  16.031 -0.1753  2.6047  0.8712
  381TMC3    H1 5702   3.857   3.972  16.206  0.4924 -0.9993  0.1694
  381TMC3    H2 5703   4.169   4.134  16.446  1.1393 -0.4293 -0.2867
  381TMC3    C7 5704   3.935   4.000  16.462  0.2974  0.1402 -0.0547
  381TMC3    C8 5705   4.315   4.194  16.226  0.9129 -0.3813  0.0366
  381TMC3    O1 5706   3.867   3.897  16.444 -0.1092 -0.2921 -0.2451
  381TMC3    O2 5707   4.338   4.159  16.112 -0.2537  0.0035  0.4637
  382MPD2     C 5708   4.166   1.210  17.525  0.2328  0.2017  0.0986
  382MPD2    C1 5709   4.033   1.246  17.524  0.5546 -0.5445  0.0783
  382MPD2    C2 5710   3.937   1.160  17.473 -0.0566  0.6134  0.1465
  382MPD2    C3 5711   3.983   1.042  17.416 -0.1033  0.0903 -0.1032
  382MPD2    C4 5712   4.116   1.011  17.411  0.4949 -0.0449  0.0821
  382MPD2    C5 5713   4.210   1.092  17.465 -0.1238  0.8125 -1.0713
  382MPD2     H 5714   3.835   1.195  17.483 -0.1312  0.6030 -0.5184
  382MPD2    H1 5715   4.151   0.909  17.397  1.6387  0.2099  0.9754
  382MPD2    H2 5716   4.248   1.274  17.557  0.8131  0.2682 -1.5216
  382MPD2    H3 5717   4.315   1.064  17.464 -0.4471 -0.3700 -2.1765
  382MPD2     N 5718   3.897   0.940  17.371  0.6026  0.6537  0.3213
  382MPD2    H5 5719   3.939   0.851  17.347 -1.3021  0.4921 -2.3341
  382MPD2    N1 5720   3.982   1.361  17.592 -0.0122 -0.4654  0.1544
  382MPD2    H7 5721   3.888   1.393  17.570 -0.2365 -1.6145 -0.5609
  383TMC3    C1 5722   3.705   0.810  17.354  0.5224  0.4268  0.4291
  383TMC3    C2 5723   3.586   0.797  17.281 -0.4363  0.8941 -0.3631
  383TMC3    C3 5724   3.538   0.672  17.271  0.0825  0.2586 -0.4488
  383TMC3    C4 5725   3.777   0.700  17.394 -0.7516  0.6875  1.0259
  383TMC3    C5 5726   3.714   0.578  17.387 -0.5416 -0.7164  0.0166
  383TMC3    C6 5727   3.600   0.562  17.316  0.0602 -0.0233 -0.3206
  383TMC3     C 5728   3.760   0.943  17.372  0.1278  0.2475 -0.3051
  383TMC3     O 5729   3.679   1.035  17.382 -0.3453 -1.2484 -0.9357
  383TMC3     H 5730   3.536   0.886  17.244  1.9508  1.5710 -1.9077
  383TMC3    H1 5731   3.855   0.714  17.469  1.1510  0.3612 -0.8997
  383TMC3    H2 5732   3.552   0.464  17.314 -0.2036  0.1272 -1.6243
  383TMC3    C7 5733   3.754   0.463  17.468  1.1613  1.0412  0.1092
  383TMC3    C8 5734   3.415   0.653  17.188  0.3922 -0.3738  0.0162
  383TMC3    O1 5735   3.696   0.358  17.451  0.4711  0.4698 -0.1588
  383TMC3    O2 5736   3.359   0.755  17.158 -0.1023  0.6838  0.0294
  384MPD2     C 5737   0.960   2.607  11.813 -0.4197 -1.1192  1.4015
  384MPD2    C1 5738   1.000   2.596  11.941 -0.1590 -0.3311 -0.5978
  384MPD2    C2 5739   1.075   2.487  11.982  0.0356 -0.2718  0.6861
  384MPD2    C3 5740   1.125   2.393  11.891  0.2420  0.2084  0.0524
  384MPD2    C4 5741   1.076   2.396  11.765  0.3087  0.4626  0.3029
  384MPD2    C5 5742   0.994   2.503  11.729 -0.0022 -0.2158 -0.8474
  384MPD2     H 5743   1.101   2.479  12.087  0.0224  2.2626  0.8650
  384MPD2    H1 5744   1.085   2.320  11.688  1.3954  1.6840 -0.7709
  384MPD2    H2 5745   0.897   2.689  11.781  2.5382  0.7543  0.3846
  384MPD2    H3 5746   0.956   2.500  11.628 -0.9036  0.3363 -0.5235
  384MPD2     N 5747   1.194   2.276  11.926  0.2985  0.3833 -0.4407
  384MPD2    H5 5748   1.198   2.197  11.862 -3.1431 -1.3368  1.4771
  384MPD2    N1 5749   0.966   2.684  12.043  0.3490 -0.1681 -0.2792
  384MPD2    H7 5750   0.999   2.660  12.136 -1.1893  0.1300  0.3557
  385TMC3    C1 5751   1.276   2.107  12.084 -0.0708  0.3209 -0.5346
  385TMC3    C2 5752   1.196   2.007  12.030  0.5164  0.3325 -0.6757
  385TMC3    C3 5753   1.174   1.895  12.106  0.2889  0.2582  0.0422
  385TMC3    C4 5754   1.323   2.095  12.209 -0.5206  0.1156 -0.4727
  385TMC3    C5 5755   1.287   1.988  12.286 -0.1224  0.0841 -0.0999
  385TMC3    C6 5756   1.220   1.884  12.234 -0.2867  0.2892 -0.3543
  385TMC3     C 5757   1.246   2.248  12.052 -0.4441  0.5732 -0.5914
  385TMC3     O 5758   1.246   2.323  12.149 -0.0916 -0.1262  0.6826
  385TMC3     H 5759   1.133   2.019  11.943 -0.9144 -2.3079 -0.0225
  385TMC3    H1 5760   1.390   2.169  12.251 -0.2786 -0.3784  0.0177
  385TMC3    H2 5761   1.186   1.810  12.305 -1.7624 -0.9225 -2.3189
  385TMC3    C7 5762   1.249   2.037  12.421 -0.5449  0.9054  0.2760
  385TMC3    C8 5763   1.074   1.793  12.060 -0.0498 -0.2333 -0.2307
  385TMC3    O1 5764   1.233   1.954  12.510 -0.7833  0.1912  0.0208
  385TMC3    O2 5765   1.034   1.722  12.156 -0.0403  0.1595  0.0273
  386TMC3    C1 5766   1.217   4.408  12.079  0.1428  0.2544  0.0148
  386TMC3    C2 5767   1.124   4.326  12.015  0.2016  0.3646 -0.1293
  386TMC3    C3 5768   1.005   4.377  11.973  0.2644 -0.5341  0.0368
  386TMC3    C4 5769   1.186   4.543  12.102  0.5504  0.1883  0.1058
  386TMC3    C5 5770   1.061   4.581  12.068  0.4057 -0.0133  0.2730
  386TMC3    C6 5771   0.971   4.506  12.006  0.1588 -0.3016 -0.5627
  386TMC3     C 5772   1.350   4.361  12.126  0.1246 -0.0047  0.0361
  386TMC3     O 5773   1.427   4.452  12.157 -0.4809  0.0506 -0.0671
  386TMC3     H 5774   1.147   4.220  12.004 -0.4881  0.2790 -0.7265
  386TMC3    H1 5775   1.253   4.607  12.157  0.8020  0.9527 -1.0992
  386TMC3    H2 5776   0.873   4.542  11.976  0.4015 -1.3178 -2.5903
  386TMC3    C7 5777   1.022   4.717  12.105 -0.2517 -0.1501 -0.7793
  386TMC3    C8 5778   0.930   4.310  11.871  0.3578 -0.1154 -0.8003
  386TMC3    O1 5779   1.067   0.048  12.210 -0.0806  0.0762  0.1712
  386TMC3    O2 5780   0.819   4.358  11.855 -0.6942 -0.4402  0.4371
  387MPD2     C 5781   3.214   4.480   9.599 -0.2695  0.4675 -0.1499
  387MPD2    C1 5782   3.303   4.514   9.699  0.6466 -0.3568  0.2542
  387MPD2    C2 5783   3.433   4.461   9.690 -0.1933 -0.6326  0.3597
  387MPD2    C3 5784   3.474   4.378   9.589  0.6625 -0.5269  0.2964
  387MPD2    C4 5785   3.386   4.350   9.486 -0.0507 -0.5935  0.1478
  387MPD2    C5 5786   3.256   4.396   9.493 -0.1827 -0.2317  0.1969
  387MPD2     H 5787   3.500   4.476   9.774 -0.1777 -1.5378  0.5197
  387MPD2    H1 5788   3.412   4.294   9.397 -1.1329  1.6443 -1.5743
  387MPD2    H2 5789   3.110   4.514   9.602  0.3373  2.3816 -0.4687
  387MPD2    H3 5790   3.189   4.362   9.416 -0.3639 -0.4010  0.4279
  387MPD2     N 5791   3.603   4.328   9.594  0.0446  0.9827 -0.0972
  387MPD2    H5 5792   3.663   4.350   9.673  0.5228 -1.4906  0.2264
  387MPD2    N1 5793   3.265   4.573   9.818 -0.1710 -0.1882 -0.1192
  387MPD2    H7 5794   3.332   4.574   9.894  0.8790  0.8212 -1.0602
  388TMC3    C1 5795   3.116   4.610   9.990 -0.5546 -0.2953 -0.6789
  388TMC3    C2 5796   3.008   4.680  10.043 -0.0232 -1.0759 -0.6236
  388TMC3    C3 5797   3.011   4.696  10.178 -0.4760  0.2346  0.5238
  388TMC3    C4 5798   3.224   4.561  10.063 -0.0879  0.5590 -0.5600
  388TMC3    C5 5799   3.219   4.589  10.194  0.3575 -0.4655 -1.1539
  388TMC3    C6 5800   3.114   4.655  10.260  0.1758 -0.2511  0.1660
  388TMC3     C 5801   3.138   4.624   9.846  0.3141  0.0814 -0.1753
  388TMC3     O 5802   3.048   4.657   9.773 -0.2332 -0.1835  0.5538
  388TMC3     H 5803   2.941   0.012   9.976  2.5455 -0.0647 -2.3820
  388TMC3    H1 5804   3.268   4.467  10.029  0.3118  1.0979 -1.5287
  388TMC3    H2 5805   3.108   4.656  10.368 -2.2064  1.0777  0.0126
  388TMC3    C7 5806   3.318   4.523  10.279 -0.8100  0.1005 -0.5932
  388TMC3    C8 5807   2.898   0.031  10.247  0.1896 -0.2153 -0.3216
  388TMC3    O1 5808   3.272   4.473  10.385 -0.5461 -0.3931  0.0321
  388TMC3    O2 5809   2.892   0.030  10.369  0.2991 -0.1626 -0.2111
  389MPD2     C 5810   3.049   2.933  11.124  0.6242 -0.2197 -0.5529
  389MPD2    C1 5811   2.965   2.851  11.054  0.1717  0.3232 -0.6933
  389MPD2    C2 5812   2.855   2.798  11.118  0.2709  1.1086 -0.4297
  389MPD2    C3 5813   2.832   2.825  11.253 -0.4690 -0.2701 -0.1676
  389MPD2    C4 5814   2.914   2.919  11.318  0.2515 -0.2350 -0.1675
  389MPD2    C5 5815   3.026   2.968  11.252  0.7195  0.4374  0.4913
  389MPD2     H 5816   2.777   2.741  11.069  0.5514  1.3280 -1.1273
  389MPD2    H1 5817   2.899   2.947  11.422  0.2777 -2.3583  0.4251
  389MPD2    H2 5818   3.133   2.987  11.083  0.0936  0.7293 -0.3948
  389MPD2    H3 5819   3.099   3.037  11.291  1.3722  0.3197 -0.5259
  389MPD2     N 5820   2.715   2.786  11.320  0.5640 -0.6203  0.2505
  389MPD2    H5 5821   2.708   2.828  11.413  1.2956 -1.5200  0.7154
  389MPD2    N1 5822   2.984   2.837  10.914  0.1870 -0.0193 -0.1911
  389MPD2    H7 5823   3.062   2.888  10.874 -0.0829  0.8463  0.3827
  390TMC3    C1 5824   2.518   2.678  11.378 -0.2773  0.5363  0.2532
  390TMC3    C2 5825   2.450   2.562  11.377  0.6394  1.0169 -0.6995
  390TMC3    C3 5826   2.373   2.545  11.485  0.4126 -0.0219 -0.0674
  390TMC3    C4 5827   2.509   2.771  11.485  0.5347  0.4019  0.0681
  390TMC3    C5 5828   2.429   2.744  11.588  0.0766  0.2442  0.3034
  390TMC3    C6 5829   2.355   2.633  11.591 -0.6405  0.1273 -0.9950
  390TMC3     C 5830   2.622   2.698  11.273  0.5701 -0.7165  0.2002
  390TMC3     O 5831   2.625   2.630  11.172  0.2551 -0.0608  0.7541
  390TMC3     H 5832   2.452   2.475  11.312 -2.9132 -0.6070  1.3259
  390TMC3    H1 5833   2.530   2.876  11.467  0.1155  0.7208  1.4265
  390TMC3    H2 5834   2.270   2.633  11.657  0.9908  1.8007  1.1080
  390TMC3    C7 5835   2.445   2.825  11.707 -0.5562  0.7111  0.6709
  390TMC3    C8 5836   2.278   2.429  11.485  0.1307  0.3365 -0.1626
  390TMC3    O1 5837   2.468   2.942  11.701  0.9870  0.0654 -0.6536
  390TMC3    O2 5838   2.249   2.373  11.378 -0.5721  0.0499 -0.5098
  391MPD2     C 5839   1.675   4.287  11.520  0.2642 -0.2632 -1.2645
  391MPD2    C1 5840   1.798   4.349  11.509 -0.0930  0.9226  1.0839
  391MPD2    C2 5841   1.860   4.352  11.387 -0.2961  0.5470 -0.3064
  391MPD2    C3 5842   1.801   4.290  11.279 -0.0753  0.8475 -0.7467
  391MPD2    C4 5843   1.677   4.234  11.297  0.6272  0.2613  0.5277
  391MPD2    C5 5844   1.613   4.230  11.419  0.6030  0.3024  0.4103
  391MPD2     H 5845   1.949   4.410  11.366 -0.9503  1.3160 -0.9992
  391MPD2    H1 5846   1.626   4.177  11.221  0.5881 -0.3426  1.0064
  391MPD2    H2 5847   1.632   4.282  11.620  0.8389  2.4049 -0.8666
  391MPD2    H3 5848   1.524   4.172  11.441 -2.3368  2.9532 -4.5605
  391MPD2     N 5849   1.863   4.303  11.150 -0.1409 -0.3273  0.2181
  391MPD2    H5 5850   1.952   4.351  11.158  0.5922 -1.6378 -0.0874
  391MPD2    N1 5851   1.846   4.413  11.631  0.4530  0.4558  0.9251
  391MPD2    H7 5852   1.790   4.385  11.711 -0.6550  0.2543  0.0918
  392TMC3    C1 5853   1.905   4.281  10.921  0.2046  0.1005  0.1613
  392TMC3    C2 5854   1.852   4.287  10.790 -0.0431  0.4525  0.1587
  392TMC3    C3 5855   1.942   4.315  10.696  0.2238 -0.1688  0.6689
  392TMC3    C4 5856   2.038   4.292  10.953  0.1148  0.3248  0.0609
  392TMC3    C5 5857   2.121   4.317  10.851 -0.3255 -0.1865  0.2490
  392TMC3    C6 5858   2.071   4.337  10.725  0.4593  0.2164  0.1548
  392TMC3     C 5859   1.807   4.258  11.035 -0.2146 -0.0010  0.0858
  392TMC3     O 5860   1.694   4.221  11.004 -0.4992 -0.1091  0.3154
  392TMC3     H 5861   1.746   4.287  10.771  0.0538  2.0480 -0.3806
  392TMC3    H1 5862   2.095   4.272  11.043 -0.5676 -1.0977  0.1901
  392TMC3    H2 5863   2.133   4.366  10.641  0.9165  0.3509  0.5417
  392TMC3    C7 5864   2.257   4.358  10.885  0.1548  0.2324 -0.2239
  392TMC3    C8 5865   1.906   4.260  10.563 -0.3467  0.4121 -0.7319
  392TMC3    O1 5866   2.294   4.365  11.003  0.2575  0.1053 -0.4232
  392TMC3    O2 5867   1.996   4.219  10.494  0.2540  0.4009 -0.0549
  393TMC3    C1 5868   1.015   2.018  10.456  0.7335  0.4862 -0.1812
  393TMC3    C2 5869   0.954   1.957  10.560  0.3747 -0.0312  0.1846
  393TMC3    C3 5870   0.997   1.979  10.691 -0.2385  0.0327  0.3972
  393TMC3    C4 5871   1.117   2.100  10.478  0.4677 -0.7290  0.5748
  393TMC3    C5 5872   1.154   2.129  10.606  0.0302 -0.9511 -0.3267
  393TMC3    C6 5873   1.098   2.066  10.713  0.4426 -0.0370  0.2405
  393TMC3     C 5874   0.934   2.043  10.333  0.2397  0.3151  0.0508
  393TMC3     O 5875   0.976   2.128  10.255 -0.5102 -0.2172  0.5684
  393TMC3     H 5876   0.878   1.881  10.552  1.3262 -1.0307  0.6118
  393TMC3    H1 5877   1.154   2.155  10.393 -3.8203  0.1470 -0.7474
  393TMC3    H2 5878   1.137   2.095  10.810  0.0075  0.7774  0.1770
  393TMC3    C7 5879   1.247   2.230  10.627  0.1059 -0.7826 -0.6021
  393TMC3    C8 5880   0.918   1.919  10.794  0.4099 -0.7492 -0.8669
  393TMC3    O1 5881   1.233   2.305  10.721 -0.1204 -0.0534  0.0015
  393TMC3    O2 5882   0.881   1.805  10.772 -0.7059  0.3761 -0.5395
  394TMC3    C1 5883   2.957   2.769  10.681  0.3826 -0.1808  0.2019
  394TMC3    C2 5884   2.867   2.724  10.589 -0.1888 -0.2858  0.2380
  394TMC3    C3 5885   2.898   2.751  10.456 -0.1332  0.5013  0.2043
  394TMC3    C4 5886   3.085   2.828  10.652  0.7385  0.2654 -0.3457
  394TMC3    C5 5887   3.100   2.853  10.518  0.1748  0.7778  0.2638
  394TMC3    C6 5888   3.011   2.820  10.427  0.4212  0.2137  0.0822
  394TMC3     C 5889   2.917   2.757  10.823  0.9492  0.3563 -0.4754
  394TMC3     O 5890   2.818   2.685  10.838  0.4855  0.6465  0.6048
  394TMC3     H 5891   2.769   2.686  10.617 -0.6213  1.1368  0.6544
  394TMC3    H1 5892   3.163   2.846  10.725  0.9151 -0.0305 -0.4586
  394TMC3    H2 5893   3.044   2.823  10.324 -0.1385  1.0955 -0.0709
  394TMC3    C7 5894   3.236   2.891  10.471  0.1788  0.7159  0.2462
  394TMC3    C8 5895   2.849   2.672  10.347 -0.2605  0.5863 -0.1589
  394TMC3    O1 5896   3.245   2.946  10.367 -0.6919 -0.0169  0.0092
  394TMC3    O2 5897   2.897   2.692  10.235  0.0844  0.3811 -0.4481
  395TMC3    C1 5898   2.229   4.622  15.003 -0.2495  0.8944  0.3112
  395TMC3    C2 5899   2.152   4.641  14.888 -0.3399 -0.2269  0.1678
  395TMC3    C3 5900   2.213   4.694  14.777 -0.0402 -0.0618 -0.2398
  395TMC3    C4 5901   2.358   4.662  15.013 -0.3673  0.3063  0.2592
  395TMC3    C5 5902   2.412   0.006  14.906  0.2371  0.6868  0.4018
  395TMC3    C6 5903   2.343   0.019  14.789  0.0358 -0.1656 -0.2463
  395TMC3     C 5904   2.146   4.612  15.125  0.3221  0.4747  0.1214
  395TMC3     O 5905   2.055   4.687  15.126 -0.1326  0.1414 -0.3702
  395TMC3     H 5906   2.048   4.611  14.889  0.0526 -1.4298  2.5056
  395TMC3    H1 5907   2.393   4.671  15.115 -0.4923 -0.4361  0.3630
  395TMC3    H2 5908   2.383   0.077  14.707  0.3266  0.5306  0.3870
  395TMC3    C7 5909   2.496   0.132  14.934  0.3585  0.5622  0.0493
  395TMC3    C8 5910   2.128   0.039  14.677  0.2984  0.8207 -0.0504
  395TMC3    O1 5911   2.503   0.230  14.861  0.5263 -0.6015  0.1195
  395TMC3    O2 5912   2.164   0.150  14.634 -0.1702  0.3663 -0.0456
  396MPD2     C 5913   2.057   1.353  16.923  0.4623 -0.5056 -0.1192
  396MPD2    C1 5914   2.162   1.433  16.956 -0.5261 -0.2826 -0.7830
  396MPD2    C2 5915   2.243   1.485  16.856  0.5511  0.0761 -0.4978
  396MPD2    C3 5916   2.218   1.464  16.724  0.2148 -0.0839 -0.5213
  396MPD2    C4 5917   2.118   1.379  16.688  0.5674  0.3843 -0.3587
  396MPD2    C5 5918   2.037   1.328  16.789  0.0616 -0.8251 -0.4453
  396MPD2     H 5919   2.328   1.549  16.878 -1.1360  2.1756 -0.0964
  396MPD2    H1 5920   2.089   1.344  16.590  1.0968 -2.6314  0.5901
  396MPD2    H2 5921   1.999   1.302  16.999  0.5418 -1.5827 -0.7715
  396MPD2    H3 5922   1.949   1.270  16.763 -0.5377  0.5732 -1.5464
  396MPD2     N 5923   2.313   1.515  16.630 -0.0764  0.5380  0.7121
  396MPD2    H5 5924   2.402   1.548  16.664  1.0863  0.0605 -1.9053
  396MPD2    N1 5925   2.192   1.439  17.097 -0.6368  0.1008  1.0411
  396MPD2    H7 5926   2.146   1.374  17.160  2.5434  1.3742  4.6805
  397TMC3    C1 5927   2.349   1.413  17.258  0.4478  0.4013  0.3313
  397TMC3    C2 5928   2.448   1.338  17.207  0.5397  0.4297  0.2562
  397TMC3    C3 5929   2.439   1.199  17.211  0.1353 -0.7541 -0.4887
  397TMC3    C4 5930   2.256   1.348  17.338  0.8070  0.1247  0.1234
  397TMC3    C5 5931   2.252   1.212  17.352 -0.4943 -0.0741 -0.1817
  397TMC3    C6 5932   2.343   1.135  17.282 -0.1175  0.7989  0.7849
  397TMC3     C 5933   2.306   1.498  17.146 -0.4681 -0.1574  0.5662
  397TMC3     O 5934   2.380   1.584  17.097 -0.1550 -0.4604  0.1922
  397TMC3     H 5935   2.497   1.392  17.127 -0.2328 -0.8885 -1.1177
  397TMC3    H1 5936   2.166   1.402  17.367  0.8092 -0.1761  0.6928
  397TMC3    H2 5937   2.324   1.028  17.273 -1.5298  1.0793  0.4320
  397TMC3    C7 5938   2.181   1.165  17.463  0.4773 -0.0718  0.0426
  397TMC3    C8 5939   2.458   1.143  17.074  0.1384 -0.3128 -0.6280
  397TMC3    O1 5940   2.113   1.245  17.528 -0.2966  0.3703  0.0884
  397TMC3    O2 5941   2.393   1.043  17.055 -0.0417 -0.0696 -0.5626
  398MPD2     C 5942   4.577   2.484   0.128  0.2841  0.4793  0.0486
  398MPD2    C1 5943   4.630   2.366   0.165  0.4614 -0.5912 -0.2058
  398MPD2    C2 5944   0.039   2.355   0.207  0.5139  0.1348  0.0547
  398MPD2    C3 5945   0.122   2.458   0.199  0.3687  0.2360  0.6381
  398MPD2    C4 5946   0.073   2.579   0.163  0.0079 -0.1234 -0.2444
  398MPD2    C5 5947   4.660   2.592   0.134 -0.6772 -0.2769  0.5379
  398MPD2     H 5948   0.070   2.260   0.248  2.8323  1.8769  2.3791
  398MPD2    H1 5949   0.132   2.669   0.150  1.4838 -1.1954 -0.8986
  398MPD2    H2 5950   4.478   2.500   0.087  0.2776 -1.2832 -0.6181
  398MPD2    H3 5951   4.610   2.686   0.114  1.1612  0.6030  0.0902
  398MPD2     N 5952   0.256   2.426   0.223  0.0287 -0.2828  0.0511
  398MPD2    H5 5953   0.275   2.331   0.253  1.0125 -0.1833 -0.2540
  398MPD2    N1 5954   4.561   2.241   0.145 -0.1206  0.0869 -0.3499
  398MPD2    H7 5955   4.601   2.160   0.190 -1.1783  1.9790  4.0036
  399TMC3    C1 5956   4.398   2.079   0.074 -0.3264  0.2760  0.2040
  399TMC3    C2 5957   4.327   2.027  17.658  0.9866  0.1176  0.2398
  399TMC3    C3 5958   4.309   1.894  17.659 -0.3579 -0.5916  0.7555
  399TMC3    C4 5959   4.441   1.994   0.176 -0.1942  0.9464  0.2707
  399TMC3    C5 5960   4.419   1.856   0.171 -0.4636 -0.0750  0.0585
  399TMC3    C6 5961   4.346   1.799   0.071  0.2946 -0.1003  0.0712
  399TMC3     C 5962   4.445   2.219   0.070 -0.4565 -0.6376 -0.5336
  399TMC3     O 5963   4.396   2.298  17.677  0.4326  0.0548 -0.7497
  399TMC3     H 5964   4.307   2.093  17.575 -1.5733  1.4432  1.8944
  399TMC3    H1 5965   4.493   2.031   0.264 -0.7933  1.1726  0.5308
  399TMC3    H2 5966   4.302   1.700   0.080  0.3498  0.1481  3.0555
  399TMC3    C7 5967   4.485   1.763   0.266 -0.0543 -0.6028 -0.5152
  399TMC3    C8 5968   4.244   1.837  17.550  0.3775  0.3871 -0.3162
  399TMC3    O1 5969   4.472   1.803   0.383  0.2593  0.0477  0.7310
  399TMC3    O2 5970   4.166   1.901  17.477  0.2983 -0.4850 -1.4410
  400TMC3    C1 5971   3.446   0.506  16.724 -1.2358  0.4815  0.1972
  400TMC3    C2 5972   3.317   0.506  16.677  0.2362 -0.3615 -0.4326
  400TMC3    C3 5973   3.243   0.621  16.689  0.4575 -0.9085  0.1577
  400TMC3    C4 5974   3.500   0.618  16.779 -0.9110 -0.0259  0.3485
  400TMC3    C5 5975   3.419   0.727  16.798 -0.3799 -0.2263 -0.8407
  400TMC3    C6 5976   3.288   0.728  16.753  0.0532 -0.7869 -0.3834
  400TMC3     C 5977   3.536   0.395  16.721  0.7869  0.1623 -0.1603
  400TMC3     O 5978   3.652   0.416  16.744 -0.4983  0.0991 -0.0778
  400TMC3     H 5979   3.291   0.419  16.618  0.4137 -2.1447  2.0915
  400TMC3    H1 5980   3.604   0.620  16.810 -0.6872 -2.4132 -0.2211
  400TMC3    H2 5981   3.227   0.817  16.757  0.6826 -0.3746 -0.0211
  400TMC3    C7 5982   3.476   0.860  16.818 -0.3131 -0.4928  0.7654
  400TMC3    C8 5983   3.120   0.637  16.607 -0.7635 -0.1988 -0.7003
  400TMC3    O1 5984   3.404   0.957  16.783  0.3747  0.1333 -0.1602
  400TMC3    O2 5985   3.081   0.749  16.598 -0.5256 -0.3436 -0.1225
  401MPD2     C 5986   1.336   0.054   0.294  0.7756 -0.3011 -0.0838
  401MPD2    C1 5987   1.416   0.016   0.397 -0.0112  0.1267  0.2360
  401MPD2    C2 5988   1.480   4.610   0.395 -0.2876 -0.5668 -0.0470
  401MPD2    C3 5989   1.466   4.527   0.286 -0.4586 -0.2374 -0.4955
  401MPD2    C4 5990   1.388   4.567   0.185 -0.3348  0.1391  0.2132
  401MPD2    C5 5991   1.325   4.686   0.190  0.1841 -0.4447  0.4397
  401MPD2     H 5992   1.545   4.580   0.476 -1.3020  0.2118  1.0551
  401MPD2    H1 5993   1.373   4.514   0.092 -1.0114 -1.0579  0.9938
  401MPD2    H2 5994   1.279   0.146   0.282  0.9883 -0.2605 -0.7799
  401MPD2    H3 5995   1.258   4.713   0.109  1.3130  0.4857 -0.1847
  401MPD2     N 5996   1.532   4.402   0.298  0.8152  0.0335 -0.1967
  401MPD2    H5 5997   1.577   4.383   0.386  1.4660  1.9991 -0.0909
  401MPD2    N1 5998   1.435   0.099   0.506 -0.3467 -0.7260  0.0144
  401MPD2    H7 5999   1.509   0.069   0.569 -1.7629 -0.8648  1.6190
  402TMC3    C1 6000   1.587   4.176   0.257 -0.2096 -0.0692 -0.3512
  402TMC3    C2 6001   1.590   4.146   0.389  0.3929  0.4029 -0.5204
  402TMC3    C3 6002   1.650   4.030   0.432 -0.2562 -0.1154  0.6794
  402TMC3    C4 6003   1.633   4.085   0.168  0.2002 -0.3367 -0.7384
  402TMC3    C5 6004   1.678   3.964   0.211 -0.2585 -1.0658 -0.0007
  402TMC3    C6 6005   1.689   3.931   0.344  0.0283 -0.7102 -0.2100
  402TMC3     C 6006   1.534   4.306   0.206 -0.5425  0.6216  0.5665
  402TMC3     O 6007   1.506   4.307   0.087  0.1920 -0.5287 -0.6136
  402TMC3     H 6008   1.554   4.219   0.461 -1.2210  0.5420 -1.4711
  402TMC3    H1 6009   1.618   4.099   0.061  1.7159  0.7457 -0.8050
  402TMC3    H2 6010   1.725   3.837   0.383 -1.1795 -0.9807  0.2828
  402TMC3    C7 6011   1.759   3.881   0.121  0.4585 -0.2595 -0.4025
  402TMC3    C8 6012   1.696   4.020   0.571  0.0825  0.2944 -0.2528
  402TMC3    O1 6013   1.757   3.913   0.001  0.2742  0.3531  0.4148
  402TMC3    O2 6014   1.743   3.910   0.599 -0.5178  0.0859  0.0287
  403MPD2     C 6015   4.603   2.527  13.524  0.4076 -0.2110 -0.2138
  403MPD2    C1 6016   4.719   2.458  13.551 -1.0782  0.0755  0.1274
  403MPD2    C2 6017   0.112   2.523  13.594 -0.3297 -0.2772 -0.4467
  403MPD2    C3 6018   0.098   2.654  13.627  0.7665  0.4456 -0.7184
  403MPD2    C4 6019   4.701   2.732  13.602 -0.6857 -0.0973 -0.0235
  403MPD2    C5 6020   4.602   2.658  13.548  0.5512 -0.5212 -0.3031
  403MPD2     H 6021   0.205   2.476  13.625  0.1306  0.9172  0.0001
  403MPD2    H1 6022   4.686   2.836  13.628  0.7261 -0.0151  0.4874
  403MPD2    H2 6023   4.512   2.484  13.483 -1.3257  3.9586 -0.7571
  403MPD2    H3 6024   4.507   2.707  13.530 -0.6299 -2.1915  1.4911
  403MPD2     N 6025   0.204   2.707  13.697 -0.3166 -0.2507  0.5376
  403MPD2    H5 6026   0.273   2.645  13.737  0.5134 -0.7419 -1.6612
  403MPD2    N1 6027   4.717   2.319  13.533  0.1555  0.3296 -0.2314
  403MPD2    H7 6028   4.624   2.282  13.519  0.6072 -0.1365 -1.9710
  404TMC3    C1 6029   0.088   2.092  13.529  0.0255 -0.4125 -0.3210
  404TMC3    C2 6030   0.015   2.030  13.626 -0.2392  0.5239 -0.2261
  404TMC3    C3 6031   0.021   1.893  13.638  0.0839 -0.2060 -0.0733
  404TMC3    C4 6032   0.162   2.025  13.434 -0.4492 -0.7442  0.0960
  404TMC3    C5 6033   0.172   1.884  13.459  0.4021  0.1192  0.1655
  404TMC3    C6 6034   0.108   1.825  13.558  0.1793  0.4907  0.0409
  404TMC3     C 6035   0.107   2.234  13.535 -1.9782  0.9843 -0.1077
  404TMC3     O 6036   0.225   2.265  13.526  0.0041 -0.6643 -0.3104
  404TMC3     H 6037   4.671   2.097  13.683 -1.7149 -1.1275  0.0374
  404TMC3    H1 6038   0.225   2.073  13.360 -0.1649 -1.3144 -0.0304
  404TMC3    H2 6039   0.132   1.722  13.581  2.0421  0.7966 -0.5546
  404TMC3    C7 6040   0.232   1.796  13.356 -0.4516 -0.2832 -0.3779
  404TMC3    C8 6041   4.701   1.824  13.761 -0.5693  0.9019  0.1415
  404TMC3    O1 6042   0.264   1.685  13.390  0.1874 -0.0772 -0.0526
  404TMC3    O2 6043   0.028   1.712  13.771  0.3427 -0.4680  0.3706
  405MPD2     C 6044   0.080   2.635  15.116 -0.8194 -0.5051 -0.0881
  405MPD2    C1 6045   0.099   2.600  14.988 -0.6895  0.0686  0.3037
  405MPD2    C2 6046   0.100   2.695  14.889  0.9268 -0.2275 -0.3335
  405MPD2    C3 6047   0.074   2.823  14.926  0.5137 -0.1881  0.5980
  405MPD2    C4 6048   0.044   2.858  15.052 -0.2972 -1.0777  0.0331
  405MPD2    C5 6049   0.058   2.765  15.148  0.0830  0.1101 -0.6937
  405MPD2     H 6050   0.132   2.681  14.786  0.8992 -1.5839 -0.1572
  405MPD2    H1 6051   0.013   2.957  15.084 -0.2703 -0.2033 -2.6781
  405MPD2    H2 6052   0.093   2.565  15.198  0.1812 -0.1208  0.0833
  405MPD2    H3 6053   0.048   2.789  15.253  1.1981 -0.4465 -0.4559
  405MPD2     N 6054   0.074   2.918  14.821 -0.0739 -0.4906 -0.3554
  405MPD2    H5 6055   0.109   2.881  14.733 -1.7345 -1.6232 -0.5283
  405MPD2    N1 6056   0.112   2.465  14.954  0.7405 -0.1583  0.2389
  405MPD2    H7 6057   0.101   2.390  15.021 -2.3441  1.0543  1.0908
  406TMC3    C1 6058   4.637   3.258  14.556  0.2815  0.0203 -0.6832
  406TMC3    C2 6059   4.631   3.176  14.447  0.5677  0.3045 -0.2736
  406TMC3    C3 6060   4.690   3.059  14.465 -0.7192  0.4871 -0.7772
  406TMC3    C4 6061   4.701   3.232  14.673  0.4095 -1.4369  0.1202
  406TMC3    C5 6062   0.044   3.111  14.691 -0.4216 -0.3199  0.3574
  406TMC3    C6 6063   0.039   3.038  14.578  0.4390 -0.3845 -0.6437
  406TMC3     C 6064   4.554   3.377  14.558  0.5449 -0.1713 -0.4887
  406TMC3     O 6065   4.562   3.451  14.649 -0.3631 -0.6160 -0.2693
  406TMC3     H 6066   4.572   3.193  14.357  0.9507 -1.5565 -0.8801
  406TMC3    H1 6067   4.709   3.301  14.756 -0.1794 -2.0013  0.6470
  406TMC3    H2 6068   0.106   2.953  14.571  1.8482  0.6563  0.1949
  406TMC3    C7 6069   0.038   3.053  14.822  0.0391  0.3391 -0.4901
  406TMC3    C8 6070   4.654   2.947  14.373  0.4413  0.2073 -0.2122
  406TMC3    O1 6071   4.719   3.117  14.917  0.2064  0.0170 -0.8140
  406TMC3    O2 6072   4.591   2.975  14.272 -0.3790  0.1053  0.2007
  407MPD2     C 6073   3.277   3.816   9.318  0.4941 -0.2736  0.1307
  407MPD2    C1 6074   3.385   3.890   9.364  0.2175 -0.9296 -0.2254
  407MPD2    C2 6075   3.396   3.950   9.489  0.1716 -1.0165 -0.0264
  407MPD2    C3 6076   3.279   3.953   9.564  0.2364 -0.1009  0.0265
  407MPD2    C4 6077   3.164   3.886   9.515 -0.0436 -0.2101  0.1296
  407MPD2    C5 6078   3.171   3.811   9.404 -0.3458 -0.0826 -0.0975
  407MPD2     H 6079   3.491   3.989   9.524  0.4104  0.4574 -2.3052
  407MPD2    H1 6080   3.070   3.882   9.570 -0.4906  0.4922 -0.5910
  407MPD2    H2 6081   3.276   3.767   9.221  0.6718 -2.6150  1.2968
  407MPD2    H3 6082   3.079   3.763   9.373 -0.3299  0.5956 -1.1982
  407MPD2     N 6083   3.267   4.019   9.686 -0.3910 -0.5517  0.2636
  407MPD2    H5 6084   3.176   4.018   9.731 -0.2999  0.3210  0.4619
  407MPD2    N1 6085   3.504   3.900   9.290  0.3562 -0.6616 -0.3038
  407MPD2    H7 6086   3.568   3.971   9.323 -0.0967 -0.8374  0.9810
  408TMC3    C1 6087   3.658   3.900   9.117 -0.4053  0.0103  0.4126
  408TMC3    C2 6088   3.767   3.830   9.067  0.1143 -0.6778 -0.2007
  408TMC3    C3 6089   3.876   3.894   9.025  0.6241 -0.6938 -0.2184
  408TMC3    C4 6090   3.667   4.033   9.131  0.1951  0.1378  0.1187
  408TMC3    C5 6091   3.775   4.096   9.086  0.7560  0.0319 -0.1036
  408TMC3    C6 6092   3.885   4.029   9.041 -0.0284  0.6026  0.0746
  408TMC3     C 6093   3.533   3.839   9.171 -0.5000  0.2551 -0.5974
  408TMC3     O 6094   3.492   3.742   9.117 -0.4135 -0.1550  0.5650
  408TMC3     H 6095   3.758   3.722   9.060 -2.2986 -0.5146  0.2449
  408TMC3    H1 6096   3.585   4.093   9.168  0.3044  0.7625 -0.6356
  408TMC3    H2 6097   3.974   4.086   9.015  0.0783 -0.0194 -0.9355
  408TMC3    C7 6098   3.774   4.235   9.118 -0.2148 -0.6595  0.4666
  408TMC3    C8 6099   3.996   3.810   9.013 -0.2307 -0.6467 -0.2012
  408TMC3    O1 6100   3.671   4.297   9.087 -0.9466  0.2023  0.6178
  408TMC3    O2 6101   3.978   3.697   8.975  0.0141 -0.2033 -0.5213
  409MPD2     C 6102   2.078   0.425  17.252  0.3105  0.2454 -0.4610
  409MPD2    C1 6103   2.201   0.460  17.309  0.8677  0.0961  0.5036
  409MPD2    C2 6104   2.283   0.545  17.239 -0.4133  0.4945  0.1239
  409MPD2    C3 6105   2.261   0.575  17.108  0.1381 -0.1790 -0.5717
  409MPD2    C4 6106   2.145   0.525  17.048 -0.2688 -0.2795  0.0899
  409MPD2    C5 6107   2.052   0.451  17.119 -0.0848 -0.8743 -0.0465
  409MPD2     H 6108   2.361   0.592  17.299 -0.6861 -0.0237  0.8923
  409MPD2    H1 6109   2.123   0.544  16.943 -0.5179 -2.0211 -0.1738
  409MPD2    H2 6110   2.010   0.353  17.296  0.3350 -0.0855 -0.9657
  409MPD2    H3 6111   1.959   0.410  17.079 -0.2441 -1.4475  0.9166
  409MPD2     N 6112   2.361   0.633  17.024  0.3645  0.1676 -0.1868
  409MPD2    H5 6113   2.330   0.667  16.933 -1.4857  0.8553  0.6874
  409MPD2    N1 6114   2.241   0.429  17.440  0.6310  0.0471  0.0461
  409MPD2    H7 6115   2.330   0.472  17.466  1.2496 -0.0611 -1.9093
  410TMC3    C1 6116   2.588   0.714  16.979  0.8817  0.5485 -0.8679
  410TMC3    C2 6117   2.716   0.684  17.002  0.1896  0.2605 -0.3780
  410TMC3    C3 6118   2.812   0.737  16.919 -0.0540  0.1155  0.0711
  410TMC3    C4 6119   2.553   0.800  16.875  0.3106  0.4134  0.3135
  410TMC3    C5 6120   2.656   0.860  16.802  0.7006 -0.1378 -0.1978
  410TMC3    C6 6121   2.785   0.832  16.828  0.4321  0.4478  0.1422
  410TMC3     C 6122   2.492   0.643  17.064 -0.0759 -0.0010 -0.2434
  410TMC3     O 6123   2.548   0.587  17.159  0.2319 -0.2563 -0.8432
  410TMC3     H 6124   2.753   0.635  17.091  1.4780  0.5789 -0.7411
  410TMC3    H1 6125   2.453   0.837  16.856 -0.1454 -1.6955 -1.4518
  410TMC3    H2 6126   2.869   0.850  16.761 -0.4929 -1.4309 -1.5234
  410TMC3    C7 6127   2.608   0.881  16.666  0.5580 -0.1780 -0.0206
  410TMC3    C8 6128   2.951   0.697  16.943 -0.0239  0.0101  0.1558
  410TMC3    O1 6129   2.497   0.834  16.640  0.0508 -0.0992  0.0792
  410TMC3    O2 6130   3.036   0.785  16.945 -0.0896  0.1595  0.4667
  411MPD2     C 6131   2.599   1.173  14.590  0.0118  0.0028  0.1179
  411MPD2    C1 6132   2.541   1.237  14.481  0.0132  0.0528 -0.8174
  411MPD2    C2 6133   2.506   1.154  14.375 -0.8198  0.0985 -0.2794
  411MPD2    C3 6134   2.515   1.017  14.375 -0.2163  0.0439 -0.5527
  411MPD2    C4 6135   2.563   0.954  14.484 -0.7900  0.3476 -0.1150
  411MPD2    C5 6136   2.614   1.038  14.584 -0.1870  0.4285  0.3592
  411MPD2     H 6137   2.468   1.201  14.285  1.1369  2.0699 -0.0871
  411MPD2    H1 6138   2.582   0.848  14.490  0.4242  0.6457  1.2561
  411MPD2    H2 6139   2.643   1.222  14.676  0.4781  0.5652 -0.4503
  411MPD2    H3 6140   2.662   0.992  14.669 -0.2003  2.1358  1.2968
  411MPD2     N 6141   2.464   0.933  14.270  0.1675 -0.9305 -0.5615
  411MPD2    H5 6142   2.474   0.833  14.286  1.1533 -0.6412  0.6012
  411MPD2    N1 6143   2.514   1.370  14.500  0.0834 -0.5686 -0.7835
  411MPD2    H7 6144   2.556   1.422  14.577 -1.0253 -1.1408  0.1997
  412TMC3    C1 6145   2.344   0.869  14.080 -0.2025 -0.6890 -0.4889
  412TMC3    C2 6146   2.253   0.803  14.156  0.3063 -0.7508  0.5680
  412TMC3    C3 6147   2.150   0.734  14.091 -0.2817 -0.5112  0.2864
  412TMC3    C4 6148   2.337   0.874  13.944  0.0841 -0.6700  0.7854
  412TMC3    C5 6149   2.229   0.817  13.883 -0.3539 -0.2825  0.0531
  412TMC3    C6 6150   2.132   0.750  13.953  0.0026  0.3249 -0.0872
  412TMC3     C 6151   2.413   0.975  14.150  0.6404  0.8329  0.3986
  412TMC3     O 6152   2.405   1.087  14.097 -0.1597 -0.1146 -0.0538
  412TMC3     H 6153   2.260   0.790  14.264  2.1405  1.5307  0.7125
  412TMC3    H1 6154   2.397   0.948  13.892  0.0223 -0.8350  0.4771
  412TMC3    H2 6155   2.036   0.725  13.908 -0.3447  0.8434  0.3571
  412TMC3    C7 6156   2.180   0.880  13.763 -0.1844 -0.4216  0.1993
  412TMC3    C8 6157   2.025   0.727  14.160  0.5780  0.0213 -0.2645
  412TMC3    O1 6158   2.067   0.843  13.730 -0.3886 -0.4498 -0.1248
  412TMC3    O2 6159   1.992   0.842  14.190  0.0516  0.1878 -0.4586
  413MPD2     C 6160   4.364   4.171  15.292 -1.1830 -0.2288  0.2397
  413MPD2    C1 6161   4.290   4.061  15.275 -0.7373  0.0546 -0.6947
  413MPD2    C2 6162   4.354   3.939  15.255 -0.2518 -0.0714  0.3899
  413MPD2    C3 6163   4.494   3.934  15.238 -0.3717  0.1345  0.3612
  413MPD2    C4 6164   4.562   4.051  15.244 -0.2562  0.0371  0.1115
  413MPD2    C5 6165   4.501   4.169  15.267 -0.1117 -0.6687  0.7414
  413MPD2     H 6166   4.295   3.848  15.259 -1.2232  0.4604 -1.5767
  413MPD2    H1 6167   4.671   4.048  15.246 -0.1971  1.8823 -0.6019
  413MPD2    H2 6168   4.333   4.269  15.325  1.9382  0.9441 -0.2753
  413MPD2    H3 6169   4.561   4.259  15.267 -0.5100 -0.3990 -1.6341
  413MPD2     N 6170   4.563   3.809  15.240 -0.4385  0.0127  0.4787
  413MPD2    H5 6171   4.503   3.728  15.250  1.7230 -1.4589  1.4936
  413MPD2    N1 6172   4.154   4.073  15.292 -0.8584  0.2727  1.1185
  413MPD2    H7 6173   4.123   4.163  15.324  0.3167  0.2622  2.2921
  414TMC3    C1 6174   0.006   3.636  15.215  0.1456 -0.6983 -0.1240
  414TMC3    C2 6175   4.678   3.567  15.321  0.4437 -0.2324  0.4229
  414TMC3    C3 6176   4.700   3.432  15.310 -0.3017  0.5571  0.0830
  414TMC3    C4 6177   0.092   3.586  15.123  0.0664  0.6078 -0.6664
  414TMC3    C5 6178   0.115   3.451  15.118 -0.0983 -0.7975  0.5711
  414TMC3    C6 6179   0.062   3.366  15.212  0.5446 -0.6690 -0.2001
  414TMC3     C 6180   4.699   3.790  15.205 -0.2465  0.3322  0.2549
  414TMC3     O 6181   0.066   3.864  15.158 -0.5103 -0.1810  0.0913
  414TMC3     H 6182   4.594   3.601  15.380  0.9805 -0.7285  1.4775
  414TMC3    H1 6183   0.144   3.651  15.054  1.6280 -1.9841 -1.9414
  414TMC3    H2 6184   0.094   3.263  15.221  4.1335  0.5553  0.8702
  414TMC3    C7 6185   0.230   3.412  15.038 -0.6205 -0.0526 -0.2706
  414TMC3    C8 6186   4.647   3.346  15.413 -0.1008  0.2703 -0.3507
  414TMC3    O1 6187   0.308   3.499  14.997  0.0182 -0.3073 -0.2972
  414TMC3    O2 6188   4.631   3.395  15.524  0.3312 -0.0867 -0.2446
  415TMC3    C1 6189   0.864   0.951   9.791 -0.3078 -0.0496  1.0193
  415TMC3    C2 6190   0.944   0.922   9.685 -0.2459  0.0076 -0.5932
  415TMC3    C3 6191   0.896   0.861   9.576  0.3121  0.4355 -0.1769
  415TMC3    C4 6192   0.731   0.918   9.785  0.0237 -0.0244 -0.8302
  415TMC3    C5 6193   0.679   0.862   9.673  0.6252 -0.3011 -0.4722
  415TMC3    C6 6194   0.759   0.829   9.567  0.1537  0.7813  0.3911
  415TMC3     C 6195   0.918   1.007   9.911  0.3355 -0.2149  0.0979
  415TMC3     O 6196   0.845   1.067   9.986 -0.6580 -0.0480  0.2137
  415TMC3     H 6197   1.044   0.963   9.683  0.3634 -1.4630 -0.0313
  415TMC3    H1 6198   0.670   0.949   9.870 -0.5882  1.8084 -1.9392
  415TMC3    H2 6199   0.719   0.783   9.477  1.7998 -1.1638  0.6541
  415TMC3    C7 6200   0.538   0.824   9.666 -0.2741  0.6428 -0.2199
  415TMC3    C8 6201   0.981   0.836   9.461 -0.2333  0.1522 -0.1798
  415TMC3    O1 6202   0.482   0.803   9.558 -0.0562  0.0179 -0.1248
  415TMC3    O2 6203   0.920   0.816   9.356 -0.2756 -0.2653 -0.1787
  416MPD2     C 6204   2.258   1.171  11.335 -0.0237  0.5062  0.8396
  416MPD2    C1 6205   2.189   1.095  11.432 -0.3465 -0.4486 -0.2758
  416MPD2    C2 6206   2.175   0.955  11.420  0.4686 -0.0815 -0.4792
  416MPD2    C3 6207   2.230   0.889  11.311 -0.0726  0.3914  0.2985
  416MPD2    C4 6208   2.319   0.963  11.227 -0.1143  0.5194 -0.4699
  416MPD2    C5 6209   2.317   1.100  11.235 -0.3822 -0.2451 -0.0771
  416MPD2     H 6210   2.114   0.903  11.493  1.4200  0.2014  0.5144
  416MPD2    H1 6211   2.365   0.923  11.137  0.5660 -0.7997  0.4666
  416MPD2    H2 6212   2.257   1.280  11.335  0.2642  0.5075  2.0631
  416MPD2    H3 6213   2.370   1.162  11.164 -1.6252  0.1319 -0.6749
  416MPD2     N 6214   2.206   0.754  11.307  0.4211 -0.4187 -0.0416
  416MPD2    H5 6215   2.143   0.713  11.375 -0.6219  0.4379 -0.4779
  416MPD2    N1 6216   2.117   1.170  11.527 -0.0760 -0.3247  0.2536
  416MPD2    H7 6217   2.107   1.269  11.510 -1.5651 -0.1522  2.1168
  417TMC3    C1 6218   1.955   1.201  11.693  0.1375 -0.3314 -0.1144
  417TMC3    C2 6219   1.933   1.207  11.829  0.0026 -0.1073  0.5300
  417TMC3    C3 6220   1.829   1.288  11.865 -0.3417  0.6703 -0.9382
  417TMC3    C4 6221   1.888   1.282  11.599 -0.2410 -0.1231  0.3484
  417TMC3    C5 6222   1.788   1.362  11.644 -0.8783 -0.2580 -0.6817
  417TMC3    C6 6223   1.752   1.363  11.778  0.1944 -0.8574  0.5177
  417TMC3     C 6224   2.060   1.115  11.640 -0.1135  0.0850 -0.0547
  417TMC3     O 6225   2.082   1.011  11.699  0.3547 -0.0598  0.0736
  417TMC3     H 6226   1.982   1.135  11.893  2.3023 -0.7517 -1.9703
  417TMC3    H1 6227   1.905   1.264  11.493 -0.1167  1.3596  0.1116
  417TMC3    H2 6228   1.665   1.420  11.809  1.7722  1.3907  0.8220
  417TMC3    C7 6229   1.699   1.413  11.544 -0.2577  0.0105  0.0375
  417TMC3    C8 6230   1.781   1.271  12.001  0.0014  0.0537  0.4794
  417TMC3    O1 6231   1.750   1.455  11.440  0.4938  0.4258 -0.0138
  417TMC3    O2 6232   1.717   1.360  12.058 -0.0185  0.1364  0.9976
  418TMC3    C1 6233   0.578   2.251   0.159  0.7458 -0.0295 -0.1371
  418TMC3    C2 6234   0.485   2.340   0.125  0.1662 -0.2564 -0.4424
  418TMC3    C3 6235   0.479   2.458   0.196  0.5128 -0.2145 -0.3294
  418TMC3    C4 6236   0.662   2.264   0.265 -0.1111  0.4803 -0.1764
  418TMC3    C5 6237   0.642   2.370   0.347 -0.4418 -0.0402  0.3352
  418TMC3    C6 6238   0.555   2.467   0.309 -0.3010  0.6624 -0.8276
  418TMC3     C 6239   0.623   2.171   0.048 -0.0157  0.5330 -0.1592
  418TMC3     O 6240   0.584   2.213  17.621  0.0590 -0.3395 -0.2860
  418TMC3     H 6241   0.422   2.318   0.040 -1.0274  0.4609  0.2559
  418TMC3    H1 6242   0.735   2.190   0.295  0.4918  1.2726  0.3051
  418TMC3    H2 6243   0.535   2.551   0.374  0.7760  0.2376  0.0453
  418TMC3    C7 6244   0.701   2.363   0.474  0.1596  0.1020 -0.3368
  418TMC3    C8 6245   0.354   2.522   0.199 -0.3608  0.4623 -0.5191
  418TMC3    O1 6246   0.764   2.263   0.504 -0.1966 -0.0168 -0.5703
  418TMC3    O2 6247   0.345   2.645   0.187  0.0370 -0.3000 -0.0283
  419MPD2     C 6248   4.665   0.872  12.317 -0.1513  0.4065  0.1241
  419MPD2    C1 6249   4.524   0.877  12.336 -0.1155  0.2411 -0.3440
  419MPD2    C2 6250   4.461   0.865  12.458  0.0279  0.2414 -0.1217
  419MPD2    C3 6251   4.542   0.846  12.566  0.2460  0.4136 -0.2964
  419MPD2    C4 6252   4.678   0.828  12.556  0.0552  0.3999  0.3111
  419MPD2    C5 6253   0.015   0.845  12.431 -0.3468  0.2488 -0.2875
  419MPD2     H 6254   4.354   0.883  12.465  0.1937  1.4750 -0.7962
  419MPD2    H1 6255   0.020   0.810  12.642 -0.2009  0.1483  0.4425
  419MPD2    H2 6256   0.003   0.897  12.229  0.2734  3.5622  1.2815
  419MPD2    H3 6257   0.120   0.821  12.420  0.2450  2.7746 -0.1930
  419MPD2     N 6258   4.470   0.840  12.687 -0.0696  0.5022 -0.4573
  419MPD2    H5 6259   4.372   0.862  12.673 -0.6140  0.0400  2.6178
  419MPD2    N1 6260   4.445   0.910  12.220 -0.7011 -0.1270  0.7260
  419MPD2    H7 6261   4.347   0.932  12.233 -0.3008  1.4870  0.9462
  420TMC3    C1 6262   4.406   0.815  12.904 -0.0671 -0.9584  0.2757
  420TMC3    C2 6263   4.286   0.779  12.866 -0.3206  0.2698 -0.4595
  420TMC3    C3 6264   4.189   0.764  12.962  0.6258  0.0693 -0.2481
  420TMC3    C4 6265   4.429   0.846  13.035 -0.8643  0.4190 -0.3389
  420TMC3    C5 6266   4.326   0.828  13.127 -0.3512  0.4101 -0.2267
  420TMC3    C6 6267   4.204   0.784  13.099 -0.4278 -0.7495 -0.1428
  420TMC3     C 6268   4.519   0.810  12.811 -0.2650  0.0764 -0.6702
  420TMC3     O 6269   4.634   0.819  12.850  0.3140 -0.5036  0.4693
  420TMC3     H 6270   4.266   0.736  12.769  0.3438 -1.1837  0.0476
  420TMC3    H1 6271   4.528   0.861  13.076 -1.3797  0.4318  0.8865
  420TMC3    H2 6272   4.131   0.759  13.175  0.2117  3.3003  1.8210
  420TMC3    C7 6273   4.346   0.855  13.272 -0.7518  0.1149  0.1962
  420TMC3    C8 6274   4.057   0.740  12.911 -0.2157 -0.2163  0.1736
  420TMC3    O1 6275   4.261   0.800  13.347  0.0222  0.0309  0.2092
  420TMC3    O2 6276   4.050   0.740  12.790 -0.4418 -0.3192 -0.5788
  421TMC3    C1 6277   0.335   2.839  13.827 -0.2662  0.2724  0.0875
  421TMC3    C2 6278   0.318   2.892  13.947  0.0201 -0.2876 -0.6569
  421TMC3    C3 6279   0.428   2.927  14.020  0.0592 -0.0225 -0.2107
  421TMC3    C4 6280   0.453   2.796  13.785 -0.3773 -0.2648  0.4022
  421TMC3    C5 6281   0.564   2.828  13.859  0.7210 -0.3896  0.1847
  421TMC3    C6 6282   0.557   2.888  13.980 -0.0591  0.4384  0.2076
  421TMC3     C 6283   0.230   2.836  13.735  0.2629  0.5531  0.5731
  421TMC3     O 6284   0.163   2.937  13.721  0.5925 -0.6681  0.3606
  421TMC3     H 6285   0.222   2.928  13.983  0.9994  0.6977  0.9488
  421TMC3    H1 6286   0.464   2.742  13.691  3.1312 -2.2164  1.9421
  421TMC3    H2 6287   0.642   2.911  14.043 -0.1903  0.5366  0.3492
  421TMC3    C7 6288   0.687   2.741  13.847 -0.4922  0.6474 -0.1954
  421TMC3    C8 6289   0.408   2.960  14.155 -0.8432 -0.1462 -0.2638
  421TMC3    O1 6290   0.770   2.763  13.934  0.0349 -0.0680  0.3589
  421TMC3    O2 6291   0.302   2.926  14.204 -0.3746  0.7175 -0.3019
  422TMC3    C1 6292   2.857   3.818  13.049  1.2679 -0.3293  0.0743
  422TMC3    C2 6293   2.820   3.846  13.181 -1.2576 -0.2638 -0.1614
  422TMC3    C3 6294   2.687   3.824  13.211  0.1361  0.5104  0.4960
  422TMC3    C4 6295   2.765   3.768  12.956 -0.0718  0.1008 -0.2312
  422TMC3    C5 6296   2.645   3.723  13.003  0.7189 -0.0796 -0.6420
  422TMC3    C6 6297   2.606   3.745  13.133  0.0842  0.1492  0.2732
  422TMC3     C 6298   2.950   3.909  12.990 -0.1932 -0.3029  1.0268
  422TMC3     O 6299   3.071   3.900  13.013 -0.2141  0.2382 -0.5201
  422TMC3     H 6300   2.879   3.909  13.246  0.9100 -0.6135 -1.8017
  422TMC3    H1 6301   2.813   3.751  12.861  0.6901 -1.1365  0.3860
  422TMC3    H2 6302   2.502   3.734  13.162 -0.4029  1.2801 -0.9991
  422TMC3    C7 6303   2.551   3.674  12.901  0.6268 -0.3662  0.1378
  422TMC3    C8 6304   2.637   3.916  13.309  0.8420 -0.7016  0.4026
  422TMC3    O1 6305   2.596   3.666  12.787  0.0853 -0.2477 -0.5870
  422TMC3    O2 6306   2.710   3.977  13.392  0.4204  0.5972 -0.0659
  423MPD2     C 6307   0.208   0.185   0.163  0.4287 -0.0913 -0.6039
  423MPD2    C1 6308   0.105   0.127   0.232 -0.0023 -0.0733 -0.1524
  423MPD2    C2 6309   0.018   0.041   0.174  0.2311 -0.1605 -0.1999
  423MPD2    C3 6310   0.032   0.012   0.038  0.1680  0.2243 -0.7972
  423MPD2    C4 6311   0.136   0.067  17.654  0.2560  0.2707  0.1302
  423MPD2    C5 6312   0.215   0.158   0.034 -0.6426  0.4752  0.1542
  423MPD2     H 6313   4.654   0.009   0.233  0.7130 -0.1499  0.4940
  423MPD2    H1 6314   0.146   0.053  17.547  0.0446 -0.0401  0.1513
  423MPD2    H2 6315   0.277   0.253   0.211  0.6015  0.5111 -1.6974
  423MPD2    H3 6316   0.289   0.208  17.655 -2.0416  0.1153 -1.7635
  423MPD2     N 6317   4.686   4.627  17.652 -0.1821 -0.6001 -0.3799
  423MPD2    H5 6318   0.006   4.595  17.565 -1.8266 -0.9585 -1.0031
  423MPD2    N1 6319   0.083   0.154   0.371  0.8948 -1.1224 -0.1415
  423MPD2    H7 6320   0.017   0.093   0.418  0.6813  1.2969  2.7227
  424TMC3    C1 6321   0.112   0.255   0.577 -0.1081 -0.3229 -0.4555
  424TMC3    C2 6322   0.095   0.137   0.639  0.1468  0.3722 -0.4215
  424TMC3    C3 6323   0.081   0.145   0.778  0.6141 -0.7453 -0.3798
  424TMC3    C4 6324   0.108   0.380   0.638 -0.0609 -0.3819  0.6845
  424TMC3    C5 6325   0.111   0.376   0.771 -0.1096  0.8239  0.6144
  424TMC3    C6 6326   0.115   0.258   0.845 -0.3876  0.2532 -0.6443
  424TMC3     C 6327   0.138   0.264   0.439  0.1511 -0.4331  0.5075
  424TMC3     O 6328   0.188   0.365   0.394 -0.1922 -0.2753  0.3609
  424TMC3     H 6329   0.069   0.043   0.591 -1.3730 -0.1658  1.4263
  424TMC3    H1 6330   0.106   0.476   0.588  0.0652 -1.0579 -0.6250
  424TMC3    H2 6331   0.138   0.258   0.951  0.2700  0.9208 -0.7900
  424TMC3    C7 6332   0.143   0.505   0.833  0.1031 -0.2623 -0.2645
  424TMC3    C8 6333   0.054   0.028   0.860  0.0685 -0.9121  0.0869
  424TMC3    O1 6334   0.200   0.592   0.772 -0.5335  0.0516  0.1709
  424TMC3    O2 6335   0.090   4.639   0.814  0.3881 -0.1687 -0.1029
  425MPD2     C 6336   3.221   4.141   0.015  0.3597 -0.6697 -0.5584
  425MPD2    C1 6337   3.133   4.059  17.624 -0.0217  0.4291  0.2855
  425MPD2    C2 6338   2.993   4.088  17.627 -0.1447 -0.7819 -0.0264
  425MPD2    C3 6339   2.944   4.190   0.020  0.3598 -0.2344  0.1502
  425MPD2    C4 6340   3.033   4.274   0.079 -0.2681 -0.1416  0.1413
  425MPD2    C5 6341   3.168   4.248   0.083 -0.6035  0.8133  0.3483
  425MPD2     H 6342   2.927   4.029  17.565  0.7148 -0.9935 -0.7353
  425MPD2    H1 6343   2.991   4.352   0.141  0.1988  1.0088 -0.9763
  425MPD2    H2 6344   3.329   4.147   0.014  0.3074  0.1624 -0.6218
  425MPD2    H3 6345   3.235   4.309   0.142 -0.3550 -0.2522  1.1624
  425MPD2     N 6346   2.808   4.206   0.017  0.1694 -0.4666  0.6217
  425MPD2    H5 6347   2.757   4.124  17.670 -0.7068  1.7582 -3.9694
  425MPD2    N1 6348   3.184   3.956  17.544  0.9702 -0.0849 -1.2432
  425MPD2    H7 6349   3.280   3.927  17.560  1.3303  1.8653  0.0953
  426TMC3    C1 6350   3.185   3.758  17.413 -0.4161 -0.3162 -0.4687
  426TMC3    C2 6351   3.165   3.712  17.288 -0.2238  0.2296 -0.1202
  426TMC3    C3 6352   3.215   3.589  17.257  0.0904 -0.3934 -0.2891
  426TMC3    C4 6353   3.236   3.669  17.509  0.5300 -0.6075  0.1435
  426TMC3    C5 6354   3.285   3.544  17.475  0.1685  0.7848  0.1020
  426TMC3    C6 6355   3.279   3.507  17.347 -0.0235 -0.0103 -0.4515
  426TMC3     C 6356   3.111   3.884  17.448  0.4690 -0.4057 -0.4352
  426TMC3     O 6357   3.020   3.919  17.367  0.1307  0.1550 -0.4397
  426TMC3     H 6358   3.124   3.767  17.204  0.0365 -0.1790 -0.5122
  426TMC3    H1 6359   3.237   3.700  17.613  0.6029 -0.7605  0.1879
  426TMC3    H2 6360   3.312   3.409  17.314  1.2997 -0.3565  1.9516
  426TMC3    C7 6361   3.267   3.436  17.576 -0.4576 -0.5559 -0.7323
  426TMC3    C8 6362   3.177   3.527  17.129  0.5720  0.4790 -0.5920
  426TMC3    O1 6363   3.343   3.342  17.558 -0.1139  0.0528  0.7487
  426TMC3    O2 6364   3.259   3.454  17.071  0.3185  0.2407  0.0784
  427MPD2     C 6365   1.542   1.296  14.787  0.5372 -0.6505 -0.1334
  427MPD2    C1 6366   1.507   1.212  14.892  0.4610 -0.2999  0.2004
  427MPD2    C2 6367   1.389   1.239  14.957  0.2352  0.1824 -0.7726
  427MPD2    C3 6368   1.300   1.343  14.919 -0.4736  0.3989  0.1251
  427MPD2    C4 6369   1.340   1.424  14.814  0.4405 -0.3031  0.4043
  427MPD2    C5 6370   1.457   1.400  14.751  0.4932 -0.1317 -0.1314
  427MPD2     H 6371   1.370   1.175  15.043  2.0232  0.6803 -0.0160
  427MPD2    H1 6372   1.276   1.508  14.789  0.7804 -1.1065 -3.2041
  427MPD2    H2 6373   1.632   1.294  14.727  0.5773 -4.1938  0.0949
  427MPD2    H3 6374   1.493   1.476  14.683 -0.0965  0.4196  0.1736
  427MPD2     N 6375   1.177   1.376  14.982  0.6751 -0.1499  0.8636
  427MPD2    H5 6376   1.122   1.452  14.945 -0.9407 -1.8642 -0.2447
  427MPD2    N1 6377   1.591   1.117  14.949 -0.7418 -0.4856 -0.1391
  427MPD2    H7 6378   1.569   1.086  15.043 -0.4776  2.6740  0.9804
  428TMC3    C1 6379   1.791   1.006  15.000  0.3638 -0.2495 -0.2078
  428TMC3    C2 6380   1.728   0.925  15.082 -0.2385  0.2486 -0.3192
  428TMC3    C3 6381   1.811   0.870  15.172  0.5156  0.0970 -0.1512
  428TMC3    C4 6382   1.925   1.025  14.988  0.2813 -0.3977  0.3709
  428TMC3    C5 6383   2.007   0.963  15.082  0.3607  0.0567  0.0642
  428TMC3    C6 6384   1.950   0.888  15.176 -0.7051 -1.0109 -0.5803
  428TMC3     C 6385   1.712   1.079  14.901  0.0804 -0.6256  0.0899
  428TMC3     O 6386   1.767   1.105  14.799 -0.1102  0.0747 -0.2655
  428TMC3     H 6387   1.627   0.889  15.069 -0.0993 -0.5448  0.7999
  428TMC3    H1 6388   1.968   1.083  14.906  0.9393 -3.2676 -1.3324
  428TMC3    H2 6389   2.006   0.837  15.253  0.5889  0.9179 -0.2587
  428TMC3    C7 6390   2.123   1.025  15.126  0.6898  0.0800  0.5645
  428TMC3    C8 6391   1.761   0.779  15.271 -0.0380  0.4000  0.1084
  428TMC3    O1 6392   2.147   1.008  15.242 -0.3202 -0.0950 -0.2692
  428TMC3    O2 6393   1.838   0.684  15.284 -0.6415 -0.0140 -0.1697
  429MPD2     C 6394   3.050   1.578  17.467 -0.5890  0.1287  0.4480
  429MPD2    C1 6395   3.117   1.467  17.419 -0.2962  0.5240  0.0733
  429MPD2    C2 6396   3.204   1.477  17.310 -0.5850  0.1211 -0.3342
  429MPD2    C3 6397   3.228   1.597  17.258 -0.4539 -0.2459  0.0348
  429MPD2    C4 6398   3.170   1.714  17.316 -0.0235 -0.2684  0.2301
  429MPD2    C5 6399   3.069   1.703  17.411  0.1715  0.1261  0.1550
  429MPD2     H 6400   3.266   1.393  17.279  0.2466  1.0439 -1.1730
  429MPD2    H1 6401   3.183   1.818  17.289 -2.2862  0.2966  1.3284
  429MPD2    H2 6402   2.986   1.570  17.555  0.4567 -0.8120  1.1225
  429MPD2    H3 6403   3.013   1.790  17.441 -4.1460 -2.7513  0.3979
  429MPD2     N 6404   3.325   1.608  17.157 -0.2333  0.2678  0.5502
  429MPD2    H5 6405   3.334   1.517  17.111 -0.1484 -0.4845  2.0556
  429MPD2    N1 6406   3.112   1.333  17.470  0.9019 -0.5545  0.3636
  429MPD2    H7 6407   3.184   1.266  17.447  1.1041 -0.1924 -0.0567
  430TMC3    C1 6408   3.417   1.691  16.962 -0.5289  0.1874  0.1025
  430TMC3    C2 6409   3.341   1.731  16.856  0.5230  0.8254 -0.7240
  430TMC3    C3 6410   3.339   1.656  16.741  0.9805  0.4880 -0.1468
  430TMC3    C4 6411   3.490   1.572  16.960  0.6533 -0.9617 -0.2881
  430TMC3    C5 6412   3.498   1.509  16.842 -0.0043 -0.0182 -0.4546
  430TMC3    C6 6413   3.423   1.546  16.732 -0.7500  0.2246  0.3471
  430TMC3     C 6414   3.355   1.722  17.087  0.1940  0.0022 -0.4437
  430TMC3     O 6415   3.304   1.829  17.101 -0.0721  0.1185  0.2237
  430TMC3     H 6416   3.291   1.826  16.859 -2.2264 -0.6291 -0.9965
  430TMC3    H1 6417   3.530   1.529  17.051 -1.2866  0.3173  1.1608
  430TMC3    H2 6418   3.438   1.494  16.638 -1.0384 -0.6318  0.7737
  430TMC3    C7 6419   3.544   1.374  16.844  1.3176  0.4485  0.2118
  430TMC3    C8 6420   3.228   1.663  16.652  0.0089  0.0736 -0.1864
  430TMC3    O1 6421   3.491   1.301  16.759  0.2651  0.1433 -0.2484
  430TMC3    O2 6422   3.184   1.557  16.615 -0.1872  0.1927 -0.7831
  431MPD2     C 6423   4.280   1.716  12.208  0.4834  0.0301 -0.3896
  431MPD2    C1 6424   4.401   1.654  12.236  0.7004 -0.6012  0.3834
  431MPD2    C2 6425   4.416   1.520  12.199 -0.4495 -0.3225 -0.0245
  431MPD2    C3 6426   4.309   1.453  12.132 -0.3767  0.7129 -0.2267
  431MPD2    C4 6427   4.191   1.519  12.104 -0.7467  0.1571  0.5693
  431MPD2    C5 6428   4.179   1.649  12.147 -0.2798  0.8725  0.1480
  431MPD2     H 6429   4.514   1.478  12.217 -0.3014 -1.0570 -2.5866
  431MPD2    H1 6430   4.109   1.462  12.063 -1.4648  0.7250  1.2299
  431MPD2    H2 6431   4.264   1.818  12.239  2.4446  1.0259 -2.6303
  431MPD2    H3 6432   4.085   1.702  12.134 -0.4896  0.2066 -1.0520
  431MPD2     N 6433   4.330   1.329  12.076  0.0411 -0.0508 -0.9341
  431MPD2    H5 6434   4.403   1.268  12.113 -1.4000 -0.6261  0.9748
  431MPD2    N1 6435   4.498   1.720  12.308 -0.5098 -0.2410 -0.4082
  431MPD2    H7 6436   4.579   1.665  12.337  0.1316  0.6070 -0.6091
  432TMC3    C1 6437   4.291   1.152  11.920 -0.4372 -1.4516  0.0608
  432TMC3    C2 6438   4.316   1.125  11.790 -0.0463 -0.0367 -1.1976
  432TMC3    C3 6439   4.388   1.015  11.765 -0.0964  0.3229  0.9082
  432TMC3    C4 6440   4.317   1.063  12.020 -0.6353  0.1590 -0.3700
  432TMC3    C5 6441   4.390   0.949  11.988  0.0509  0.0292 -0.1372
  432TMC3    C6 6442   4.424   0.923  11.860 -0.3500  0.3320  0.2343
  432TMC3     C 6443   4.265   1.293  11.961 -0.6063 -0.8974 -0.4162
  432TMC3     O 6444   4.208   1.370  11.881 -0.2657 -0.3289  0.3997
  432TMC3     H 6445   4.301   1.202  11.716 -1.6508  1.3760  0.5935
  432TMC3    H1 6446   4.292   1.092  12.121 -2.3237 -0.3790 -0.6298
  432TMC3    H2 6447   4.470   0.828  11.834 -0.4402 -0.6240  3.5517
  432TMC3    C7 6448   4.478   0.894  12.084 -0.4885  0.2737 -0.5366
  432TMC3    C8 6449   4.456   1.006  11.642 -0.3540 -0.5367  0.0472
  432TMC3    O1 6450   4.582   0.851  12.036 -0.0490  1.1052  0.0970
  432TMC3    O2 6451   4.385   1.006  11.542 -0.6639 -0.1043 -0.1643
  433MPD2     C 6452   3.101   4.609  10.905 -0.0476 -0.4346  0.3408
  433MPD2    C1 6453   3.033   4.517  10.977  0.2850 -0.4202  0.1191
  433MPD2    C2 6454   3.044   4.532  11.119  0.0160 -0.6258  0.1586
  433MPD2    C3 6455   3.119   4.636  11.179 -1.0375 -0.0158  0.5940
  433MPD2    C4 6456   3.176   0.014  11.105 -0.1250 -0.7187 -0.6512
  433MPD2    C5 6457   3.162   4.716  10.968  0.4230 -0.4324  0.3361
  433MPD2     H 6458   2.999   4.466  11.192 -0.9336 -2.4128 -2.0379
  433MPD2    H1 6459   3.224   0.102  11.146 -1.9341 -0.3788  0.7440
  433MPD2    H2 6460   3.097   4.604  10.796 -0.0184  0.9028  0.2830
  433MPD2    H3 6461   3.224   0.059  10.906 -0.3674 -2.0222 -2.0897
  433MPD2     N 6462   3.132   4.627  11.320  0.1853  0.4269  0.2895
  433MPD2    H5 6463   3.082   4.553  11.369 -0.2589 -0.7125 -1.8867
  433MPD2    N1 6464   2.964   4.409  10.916 -0.9078 -0.2958  0.0784
  433MPD2    H7 6465   2.951   4.409  10.815  0.0688 -0.8346 -0.0380
  434TMC3    C1 6466   2.877   4.188  10.904  0.6174  0.2140 -0.6412
  434TMC3    C2 6467   2.916   4.069  10.966  0.1282  0.3421  0.8090
  434TMC3    C3 6468   2.986   3.975  10.890  0.3759 -0.4460  0.1285
  434TMC3    C4 6469   2.877   4.201  10.769 -0.0931 -0.5293 -0.7142
  434TMC3    C5 6470   2.920   4.097  10.695  0.2260 -0.4623 -0.7218
  434TMC3    C6 6471   2.988   3.984  10.751 -0.9443  0.1841 -0.6631
  434TMC3     C 6472   2.915   4.303  10.985 -0.2747 -0.9266 -0.1294
  434TMC3     O 6473   2.917   4.286  11.104 -0.6108  0.0464  0.0112
  434TMC3     H 6474   2.916   4.063  11.074 -2.5307 -3.8753  0.5597
  434TMC3    H1 6475   2.812   4.278  10.730 -0.1776 -0.1514  0.1790
  434TMC3    H2 6476   3.049   3.909  10.701  0.4294  0.4556  0.5873
  434TMC3    C7 6477   2.880   4.095  10.554  0.6563 -0.0154 -0.0584
  434TMC3    C8 6478   3.065   3.874  10.965  0.0826 -0.5228 -0.2806
  434TMC3    O1 6479   2.811   4.191  10.523 -0.2963 -0.5735  0.3812
  434TMC3    O2 6480   3.100   3.906  11.081  0.0868 -0.2244 -0.2784
  435MPD2     C 6481   0.042   4.514  15.393 -0.4975  0.8219 -0.1615
  435MPD2    C1 6482   0.024   4.540  15.528  0.4679  0.3644  0.3023
  435MPD2    C2 6483   0.085   4.458  15.617 -0.1796 -0.6992 -0.0903
  435MPD2    C3 6484   0.163   4.352  15.571  0.9443 -0.7454 -0.0526
  435MPD2    C4 6485   0.188   4.330  15.433  0.2244 -1.0468 -0.2856
  435MPD2    C5 6486   0.126   4.417  15.349  0.8139  0.2744  0.0961
  435MPD2     H 6487   0.064   4.464  15.723  2.0181  1.1479  0.2326
  435MPD2    H1 6488   0.250   4.257  15.383  0.4140 -0.0076 -1.5696
  435MPD2    H2 6489   4.715   4.575  15.317 -0.5332 -0.7691 -1.4041
  435MPD2    H3 6490   0.146   4.397  15.244 -0.0171  1.4005 -0.2725
  435MPD2     N 6491   0.207   4.259  15.675  0.0604 -0.1039  0.5725
  435MPD2    H5 6492   0.192   4.288  15.771  1.7122  2.0103  0.1864
  435MPD2    N1 6493   4.656   4.634  15.590 -0.0530  0.0835 -0.8738
  435MPD2    H7 6494   4.665   4.629  15.691  0.9081  1.1781 -0.9120
  436TMC3    C1 6495   4.464   0.223  15.788 -0.0632 -0.2690 -1.1142
  436TMC3    C2 6496   4.542   0.141  15.715  0.5050  0.2993  0.3374
  436TMC3    C3 6497   4.483   0.073  15.612  0.6702  0.2211  0.2451
  436TMC3    C4 6498   4.336   0.252  15.748  0.3345 -0.1648 -0.2451
  436TMC3    C5 6499   4.289   0.183  15.639  0.7857  0.4402  0.0340
  436TMC3    C6 6500   4.359   0.090  15.572  0.2028  0.6616  0.1160
  436TMC3     C 6501   4.532   0.291  15.895 -0.1413 -0.4314  0.1877
  436TMC3     O 6502   4.652   0.280  15.907 -0.1724  0.1424  0.1998
  436TMC3     H 6503   4.646   0.124  15.742  0.1662 -1.8725  0.3127
  436TMC3    H1 6504   4.277   0.325  15.803 -0.8345 -0.7482 -0.7344
  436TMC3    H2 6505   4.321   0.035  15.487 -0.5693 -1.3177  1.7354
  436TMC3    C7 6506   4.158   0.207  15.579 -0.4268 -0.0876 -0.4858
  436TMC3    C8 6507   4.562   4.711  15.525  0.2912 -0.9785  0.0271
  436TMC3    O1 6508   4.105   0.119  15.511 -0.1259  0.1140  0.0100
  436TMC3    O2 6509   4.515   4.698  15.414 -0.0967 -0.0891  0.0676
  437TMC3    C1 6510   3.526   2.187  12.413  0.2553  0.3580  0.1710
  437TMC3    C2 6511   3.400   2.178  12.364 -0.3858 -0.5945  0.7698
  437TMC3    C3 6512   3.384   2.243  12.244  0.0718  0.1141  0.2270
  437TMC3    C4 6513   3.634   2.239  12.347  0.7905  0.7511 -0.0635
  437TMC3    C5 6514   3.617   2.296  12.228 -0.2547 -0.2953 -0.3389
  437TMC3    C6 6515   3.493   2.298  12.176  0.4034 -0.1832 -0.4869
  437TMC3     C 6516   3.562   2.076  12.488 -0.1310 -0.0549  0.0513
  437TMC3     O 6517   3.677   2.062  12.529 -0.2439 -0.4711  0.5182
  437TMC3     H 6518   3.317   2.133  12.419  0.0014 -0.8664  1.1313
  437TMC3    H1 6519   3.730   2.225  12.397  0.6785  0.5235  0.0935
  437TMC3    H2 6520   3.474   2.340  12.078 -1.1979  1.6061  0.6009
  437TMC3    C7 6521   3.724   2.369  12.159  0.0595  0.7967  0.8788
  437TMC3    C8 6522   3.254   2.236  12.180  0.0956  0.3831 -0.3677
  437TMC3    O1 6523   3.686   2.462  12.088 -0.0858  0.2509 -0.2779
  437TMC3    O2 6524   3.244   2.203  12.066  0.9402  0.2858 -0.1644
  438MPD2     C 6525   0.739   2.411  16.633 -0.2653  0.4166 -0.7967
  438MPD2    C1 6526   0.823   2.353  16.731  0.5611  0.1163  0.2133
  438MPD2    C2 6527   0.772   2.343  16.861 -0.1445  0.0237 -0.5733
  438MPD2    C3 6528   0.653   2.408  16.888 -0.5057  0.0420 -0.0148
  438MPD2    C4 6529   0.579   2.476  16.797  0.0325  0.1553 -0.0966
  438MPD2    C5 6530   0.624   2.484  16.667 -0.5794 -0.3183  0.1561
  438MPD2     H 6531   0.833   2.283  16.927 -0.6271  2.3733  2.0173
  438MPD2    H1 6532   0.486   2.524  16.829  0.2600  0.5947 -0.0899
  438MPD2    H2 6533   0.778   2.430  16.534  1.0691 -0.6158 -0.4713
  438MPD2    H3 6534   0.566   2.531  16.589 -1.0862  1.7580  1.7900
  438MPD2     N 6535   0.602   2.398  17.013  0.3935 -0.7977 -0.3208
  438MPD2    H5 6536   0.507   2.427  17.030  0.6463 -0.3692  0.3506
  438MPD2    N1 6537   0.948   2.291  16.697  0.5724 -0.0441 -0.5841
  438MPD2    H7 6538   0.991   2.239  16.774 -1.6609  0.7337  1.1984
  439TMC3    C1 6539   1.150   2.247  16.571 -0.0128  0.2253  0.1989
  439TMC3    C2 6540   1.225   2.275  16.458  0.3007 -0.6440 -0.3827
  439TMC3    C3 6541   1.349   2.218  16.453 -0.1941  0.2599  0.1135
  439TMC3    C4 6542   1.205   2.180  16.678  0.4080 -0.2331  0.1796
  439TMC3    C5 6543   1.330   2.132  16.666 -0.1422  0.3090  0.6001
  439TMC3    C6 6544   1.408   2.155  16.556 -0.2677  0.2793  0.5932
  439TMC3     C 6545   1.016   2.312  16.580 -0.7396  0.2343  0.8282
  439TMC3     O 6546   0.990   2.388  16.487  0.1666  0.0166  0.3168
  439TMC3     H 6547   1.180   2.337  16.382 -0.0602 -1.0533 -0.5055
  439TMC3    H1 6548   1.146   2.160  16.767 -1.0324  0.0095 -0.7214
  439TMC3    H2 6549   1.502   2.106  16.537 -1.1306 -0.8653 -0.7520
  439TMC3    C7 6550   1.405   2.105  16.786  0.5969  0.4500  0.4557
  439TMC3    C8 6551   1.432   2.239  16.334  0.8769  0.3230 -0.0597
  439TMC3    O1 6552   1.526   2.129  16.786 -0.3348 -0.0000 -0.2351
  439TMC3    O2 6553   1.556   2.239  16.355 -0.9690  0.1348  0.2532
  440MPD2     C 6554   3.562   2.723  14.989 -0.5461 -0.2853  0.3653
  440MPD2    C1 6555   3.662   2.813  15.023 -0.7797  0.8571 -0.7418
  440MPD2    C2 6556   3.781   2.768  15.074  0.1362 -0.1383 -0.3870
  440MPD2    C3 6557   3.798   2.636  15.098 -0.4178  0.7538  0.5142
  440MPD2    C4 6558   3.697   2.543  15.073  0.7597 -0.5031 -0.4238
  440MPD2    C5 6559   3.578   2.590  15.016 -0.0848 -0.4014 -0.6995
  440MPD2     H 6560   3.861   2.842  15.080  0.2362 -0.1283 -1.7050
  440MPD2    H1 6561   3.704   2.439  15.102 -0.5531 -0.6842 -0.7631
  440MPD2    H2 6562   3.474   2.742  14.929 -0.3932  1.6767  0.7538
  440MPD2    H3 6563   3.495   2.525  14.990 -0.6562  0.7407 -1.6958
  440MPD2     N 6564   3.916   2.583  15.157 -0.2370  0.2488  0.1174
  440MPD2    H5 6565   3.912   2.490  15.196 -0.0453  0.4904  0.7027
  440MPD2    N1 6566   3.649   2.945  14.983 -0.3044  0.1583 -0.3634
  440MPD2    H7 6567   3.588   2.962  14.903 -2.2133 -1.1855  0.7924
  441TMC3    C1 6568   4.143   2.568  15.224  0.0901 -0.7884  0.1458
  441TMC3    C2 6569   4.247   2.637  15.276 -0.4633  0.1247 -0.2146
  441TMC3    C3 6570   4.360   2.573  15.299 -0.0821 -0.3022  1.0239
  441TMC3    C4 6571   4.155   2.439  15.180 -0.0511 -0.6717 -0.1341
  441TMC3    C5 6572   4.271   2.377  15.204 -0.0049  0.4064 -0.7363
  441TMC3    C6 6573   4.377   2.445  15.251 -0.2621 -0.5659  0.2152
  441TMC3     C 6574   4.032   2.657  15.188  0.2104  0.2284  0.3293
  441TMC3     O 6575   4.063   2.772  15.163 -0.6651 -0.2764 -0.4784
  441TMC3     H 6576   4.235   2.735  15.321  1.1177 -0.6795  1.9325
  441TMC3    H1 6577   4.069   2.406  15.122  0.7547 -2.0230 -0.5657
  441TMC3    H2 6578   4.478   2.412  15.276 -0.8599 -0.4736  2.7646
  441TMC3    C7 6579   4.296   2.249  15.132 -0.8773 -0.0663  0.0801
  441TMC3    C8 6580   4.449   2.642  15.390  0.4401  0.8607 -0.6071
  441TMC3    O1 6581   4.256   2.246  15.019  0.1479  0.0794 -0.1417
  441TMC3    O2 6582   4.507   2.573  15.469  0.2166  0.7371 -0.2525
  442MPD2     C 6583   2.610   3.195  16.669  0.0480 -0.0390  0.2488
  442MPD2    C1 6584   2.471   3.193  16.627  0.2260  0.7482  0.2407
  442MPD2    C2 6585   2.434   3.139  16.505 -0.0140 -0.0259  0.2224
  442MPD2    C3 6586   2.538   3.092  16.417  0.4215 -0.3034  0.6394
  442MPD2    C4 6587   2.669   3.098  16.455 -0.1351  0.3833 -0.7634
  442MPD2    C5 6588   2.700   3.145  16.581  0.0573 -0.3144  0.3107
  442MPD2     H 6589   2.330   3.129  16.475  0.3580 -0.4015 -0.9552
  442MPD2    H1 6590   2.755   3.068  16.396 -1.2886  1.0779 -2.7986
  442MPD2    H2 6591   2.652   3.251  16.752 -2.0365  0.6841  0.8187
  442MPD2    H3 6592   2.808   3.148  16.594  0.2072 -0.4462 -0.9296
  442MPD2     N 6593   2.507   3.054  16.282  0.4353 -0.5253  0.0910
  442MPD2    H5 6594   2.579   3.015  16.223 -0.6783 -1.3077 -0.7519
  442MPD2    N1 6595   2.364   3.249  16.700 -0.1124  0.7684  0.2576
  442MPD2    H7 6596   2.270   3.242  16.662 -0.0387 -0.2603  0.2743
  443TMC3    C1 6597   2.262   3.383  16.871 -0.1140 -0.1264 -0.4818
  443TMC3    C2 6598   2.276   3.508  16.924 -0.1027  0.3682  0.5633
  443TMC3    C3 6599   2.165   3.570  16.969  0.2188  0.2662  0.0895
  443TMC3    C4 6600   2.146   3.305  16.875 -0.0559 -0.3016 -0.0274
  443TMC3    C5 6601   2.044   3.368  16.943  0.4797 -0.0783 -0.0434
  443TMC3    C6 6602   2.044   3.503  16.987  0.3158  0.4356 -0.7696
  443TMC3     C 6603   2.380   3.330  16.809 -0.2774  0.2214  0.4070
  443TMC3     O 6604   2.490   3.372  16.839  0.0609  0.2098 -0.2859
  443TMC3     H 6605   2.363   3.572  16.912  1.5583 -2.0388 -0.2868
  443TMC3    H1 6606   2.136   3.205  16.834 -1.3717 -0.0803 -0.2462
  443TMC3    H2 6607   1.957   3.551  17.029 -0.4282  0.5959 -2.5022
  443TMC3    C7 6608   1.931   3.289  16.969 -0.2951 -0.1400  0.1134
  443TMC3    C8 6609   2.141   3.698  16.908 -0.6210 -0.2426  0.0591
  443TMC3    O1 6610   1.904   3.204  16.887 -0.1284  0.0004 -0.1911
  443TMC3    O2 6611   2.043   3.761  16.951  0.2878  0.2096  0.0725
  444MPD2     C 6612   2.849   3.190  17.086 -0.2741 -0.0690 -0.3284
  444MPD2    C1 6613   2.742   3.124  17.037 -0.7911 -0.5197  0.9444
  444MPD2    C2 6614   2.766   3.036  16.931 -0.0624  0.4557  0.0067
  444MPD2    C3 6615   2.886   3.009  16.870  0.5911 -0.1090  0.1988
  444MPD2    C4 6616   2.984   3.090  16.918  0.1068 -0.5285 -0.0500
  444MPD2    C5 6617   2.964   3.172  17.027 -0.2343 -0.1752  0.2582
  444MPD2     H 6618   2.678   2.987  16.890  1.0536 -1.5496  0.0106
  444MPD2    H1 6619   3.082   3.080  16.871 -0.3017  0.1942 -1.0598
  444MPD2    H2 6620   2.858   3.256  17.171  1.4157 -0.9491  0.1787
  444MPD2    H3 6621   3.051   3.228  17.057  1.3937 -1.2630 -2.4426
  444MPD2     N 6622   2.907   2.890  16.786 -0.0073  0.3261 -0.3034
  444MPD2    H5 6623   2.831   2.824  16.779 -0.2876  0.3528  2.3767
  444MPD2    N1 6624   2.609   3.142  17.081 -0.6690  0.8187 -0.4560
  444MPD2    H7 6625   2.534   3.085  17.041 -1.9001  0.8736  1.7748
  445TMC3    C1 6626   3.012   2.734  16.646 -0.1833 -0.3433  0.3011
  445TMC3    C2 6627   2.900   2.702  16.570 -0.0859  0.1440 -0.2102
  445TMC3    C3 6628   2.922   2.587  16.495  0.1307 -0.2728 -0.0069
  445TMC3    C4 6629   3.135   2.665  16.644 -0.3547  0.2986 -0.8562
  445TMC3    C5 6630   3.145   2.554  16.567 -0.1461 -0.8026  0.3701
  445TMC3    C6 6631   3.046   2.516  16.487  0.2911  0.0907  0.2065
  445TMC3     C 6632   3.027   2.851  16.725 -0.1292  0.6799 -0.0581
  445TMC3     O 6633   3.137   2.906  16.723 -0.1470 -0.7651 -0.5165
  445TMC3     H 6634   2.808   2.759  16.561 -1.1180 -1.5413 -0.3476
  445TMC3    H1 6635   3.220   2.713  16.692 -0.8715 -2.6573  3.0224
  445TMC3    H2 6636   3.060   2.430  16.423  1.2484  0.5247 -0.1588
  445TMC3    C7 6637   3.280   2.521  16.518 -0.0891 -0.3559  0.1705
  445TMC3    C8 6638   2.835   2.574  16.384 -0.1139 -0.2240  0.3022
  445TMC3    O1 6639   3.294   2.450  16.419  0.5109 -0.3955  0.2302
  445TMC3    O2 6640   2.777   2.675  16.346  0.3893  0.6703  0.8807
  446MPD2     C 6641   2.861   3.931  11.574  0.3936 -0.0308  0.1286
  446MPD2    C1 6642   2.801   3.997  11.472 -0.1327  0.6703  0.2442
  446MPD2    C2 6643   2.877   4.058  11.378  0.5103 -0.5944 -0.4179
  446MPD2    C3 6644   3.012   4.069  11.390  0.0473  0.3990 -0.0147
  446MPD2    C4 6645   3.072   4.009  11.496  0.4083  0.1408  0.4662
  446MPD2    C5 6646   2.995   3.940  11.589  0.7259  1.2581  0.3625
  446MPD2     H 6647   2.826   4.100  11.291 -0.7739  1.5266  1.3632
  446MPD2    H1 6648   3.176   4.009  11.527  0.2459 -0.7750  1.0012
  446MPD2    H2 6649   2.813   3.881  11.658  2.4091 -1.4745  0.4107
  446MPD2    H3 6650   3.036   3.877  11.667 -0.2158 -0.0191 -0.1852
  446MPD2     N 6651   3.078   4.150  11.297  0.0648  0.3525 -0.1656
  446MPD2    H5 6652   3.020   4.190  11.224 -1.6790  2.4436  2.3683
  446MPD2    N1 6653   2.661   3.987  11.447  0.3345  0.5580  0.4300
  446MPD2    H7 6654   2.626   4.011  11.354  0.3376  1.6375  0.7072
  447TMC3    C1 6655   3.250   4.259  11.186  0.4610 -0.2404 -0.0773
  447TMC3    C2 6656   3.228   4.217  11.057 -0.6737  0.0811 -0.0450
  447TMC3    C3 6657   3.270   4.291  10.955 -0.2710  0.3177  0.4569
  447TMC3    C4 6658   3.329   4.374  11.216 -0.1561  0.0397  0.1550
  447TMC3    C5 6659   3.380   4.437  11.102 -0.5196  0.1603  0.3210
  447TMC3    C6 6660   3.334   4.405  10.976  0.3092 -0.4685  0.6978
  447TMC3     C 6661   3.214   4.179  11.298 -0.5380 -0.4108  0.3789
  447TMC3     O 6662   3.302   4.125  11.362  0.1387 -0.0036 -0.3922
  447TMC3     H 6663   3.169   4.126  11.054  1.7452 -1.4487 -1.2676
  447TMC3    H1 6664   3.372   4.392  11.314 -0.6541 -0.9044  0.5446
  447TMC3    H2 6665   3.370   4.465  10.893  0.3436  0.4580  1.3870
  447TMC3    C7 6666   3.505   4.510  11.110 -0.1768 -0.3522  0.4109
  447TMC3    C8 6667   3.251   4.250  10.814  0.1843 -0.2080  0.4673
  447TMC3    O1 6668   3.536   4.565  11.217  0.3295  0.7479  0.5347
  447TMC3    O2 6669   3.252   4.338  10.732 -0.2033 -0.7378  0.0128
  448TMC3    C1 6670   0.596   4.298  16.710  0.1857  0.8540 -0.0411
  448TMC3    C2 6671   0.663   4.184  16.676 -0.5653 -0.5456  0.0651
  448TMC3    C3 6672   0.759   4.139  16.765  0.2988  0.7593  0.4953
  448TMC3    C4 6673   0.622   4.374  16.816 -0.4222  0.0154  0.0207
  448TMC3    C5 6674   0.727   4.336  16.901  0.2868  0.2855 -0.2372
  448TMC3    C6 6675   0.784   4.214  16.881 -0.0530 -0.4201 -0.1978
  448TMC3     C 6676   0.492   4.339  16.622  0.6545  0.3689  0.7363
  448TMC3     O 6677   0.497   4.307  16.506  0.1089  0.3634 -0.3145
  448TMC3     H 6678   0.628   4.127  16.591 -2.0762  4.0822 -2.4089
  448TMC3    H1 6679   0.581   4.475  16.819 -0.0366  0.1546  0.8004
  448TMC3    H2 6680   0.864   4.176  16.943  0.6034 -1.1785 -1.4951
  448TMC3    C7 6681   0.722   4.397  17.036 -0.2852  0.0255 -0.2878
  448TMC3    C8 6682   0.838   4.018  16.744  1.0305  0.0093 -0.4749
  448TMC3    O1 6683   0.640   4.479  17.062 -0.4099 -0.2050 -0.4222
  448TMC3    O2 6684   0.925   3.994  16.828 -0.2649  0.1280 -0.3348
  449MPD2     C 6685   2.548   2.588  13.435  0.4101 -0.9239 -0.6475
  449MPD2    C1 6686   2.468   2.477  13.423 -0.8525  0.1408 -0.1352
  449MPD2    C2 6687   2.406   2.426  13.535  0.3863 -0.1377 -0.3157
  449MPD2    C3 6688   2.424   2.488  13.655  0.4266  0.1300  0.8134
  449MPD2    C4 6689   2.496   2.602  13.662  0.5114  0.2085  0.3242
  449MPD2    C5 6690   2.555   2.651  13.554  0.4249 -0.0692  0.6432
  449MPD2     H 6691   2.347   2.335  13.531  1.2048 -0.7133  0.7673
  449MPD2    H1 6692   2.502   2.654  13.757  1.0147 -1.6937  1.3308
  449MPD2    H2 6693   2.596   2.621  13.344  0.1062 -1.6942 -1.0855
  449MPD2    H3 6694   2.610   2.744  13.550  1.1630 -0.4746  1.1931
  449MPD2     N 6695   2.348   2.437  13.763 -0.8177 -0.3158 -0.3949
  449MPD2    H5 6696   2.298   2.352  13.738  1.3145 -1.1242 -1.9185
  449MPD2    N1 6697   2.445   2.406  13.305 -0.1367 -0.4147 -0.5372
  449MPD2    H7 6698   2.375   2.334  13.320 -0.3751  0.2216  1.4394
  450TMC3    C1 6699   2.448   2.324  13.086  0.2808 -0.4592  0.7231
  450TMC3    C2 6700   2.546   2.241  13.042 -0.2326  0.2552  0.1290
  450TMC3    C3 6701   2.510   2.108  13.035 -0.6915 -0.5171  0.2537
  450TMC3    C4 6702   2.323   2.277  13.115  0.2055 -0.3360 -0.1937
  450TMC3    C5 6703   2.295   2.148  13.115  0.0005  0.2815  0.3402
  450TMC3    C6 6704   2.381   2.065  13.069  0.4394  0.4307  0.0608
  450TMC3     C 6705   2.503   2.423  13.182 -0.5710 -0.3441  0.4889
  450TMC3     O 6706   2.597   2.493  13.150  0.4581 -0.1837 -0.0451
  450TMC3     H 6707   2.648   2.275  13.029  1.0107 -3.7508 -0.3473
  450TMC3    H1 6708   2.242   2.344  13.141  1.4678  0.3482  1.9893
  450TMC3    H2 6709   2.368   1.959  13.082 -1.2793  0.5494 -0.7549
  450TMC3    C7 6710   2.236   2.117  13.248  0.0690  0.3487  0.5885
  450TMC3    C8 6711   2.607   1.999  13.050 -0.3963 -0.5647 -0.6902
  450TMC3    O1 6712   2.262   2.197  13.337 -0.4068  0.3185  0.1509
  450TMC3    O2 6713   2.563   1.892  13.095 -0.6104  0.4333  0.2732
  451MPD2     C 6714   4.020   1.900   2.285 -0.0859  0.6669  0.2765
  451MPD2    C1 6715   4.028   2.002   2.197 -0.4623 -0.2252  0.0648
  451MPD2    C2 6716   4.150   2.044   2.148 -0.1577  0.0465  0.0939
  451MPD2    C3 6717   4.264   1.977   2.184  0.1120 -0.3007 -0.3199
  451MPD2    C4 6718   4.253   1.864   2.268 -0.5568 -0.2921 -0.0974
  451MPD2    C5 6719   4.128   1.831   2.318 -0.0201 -0.2263  0.6432
  451MPD2     H 6720   4.163   2.128   2.082  2.6386  0.4923  1.1908
  451MPD2    H1 6721   4.341   1.808   2.298  1.4940  3.1342  0.2341
  451MPD2    H2 6722   3.927   1.861   2.325 -0.3947  1.7412  0.5880
  451MPD2    H3 6723   4.115   1.741   2.377 -1.6088 -0.9102 -0.7591
  451MPD2     N 6724   4.394   1.999   2.129  0.1143 -0.6477  0.1051
  451MPD2    H5 6725   4.472   1.941   2.161  1.1366  0.9577  0.5292
  451MPD2    N1 6726   3.905   2.068   2.163  0.5215  0.1357 -0.7028
  451MPD2    H7 6727   3.824   2.018   2.197  0.5192  0.2571 -0.5350
  452TMC3    C1 6728   4.558   2.069   1.970 -0.4103  0.2445 -0.0455
  452TMC3    C2 6729   4.654   2.004   2.037  0.1818  0.6427  0.2770
  452TMC3    C3 6730   0.048   1.973   1.970 -0.0248 -0.6344  0.2562
  452TMC3    C4 6731   4.571   2.123   1.841  0.7695 -0.5872 -0.5363
  452TMC3    C5 6732   4.684   2.093   1.777 -0.2273  0.2839 -0.3503
  452TMC3    C6 6733   0.068   2.018   1.842 -0.2071 -0.3736 -0.0067
  452TMC3     C 6734   4.423   2.086   2.026 -0.1087  0.3864  0.0066
  452TMC3     O 6735   4.347   2.154   1.955  0.5584  0.2468  0.3538
  452TMC3     H 6736   4.639   1.967   2.137 -1.0485  1.0368  0.2347
  452TMC3    H1 6737   4.484   2.148   1.781  0.4195  1.0651  0.6662
  452TMC3    H2 6738   0.165   1.986   1.808 -0.0006 -0.9920  1.1505
  452TMC3    C7 6739   4.682   2.076   1.638  0.2101  1.0981 -0.4274
  452TMC3    C8 6740   0.151   1.892   2.034  0.0520 -0.5140  0.0215
  452TMC3    O1 6741   0.047   1.999   1.592  0.4422  0.1219  0.4441
  452TMC3    O2 6742   0.115   1.800   2.108 -1.5709 -0.3952 -0.1703
  453TMC3    C1 6743   0.424   3.148  11.687 -0.6540 -0.4572 -0.3644
  453TMC3    C2 6744   0.372   3.042  11.752 -0.2874  0.3507  0.4807
  453TMC3    C3 6745   0.305   2.946  11.678  0.1208 -0.6771  0.8307
  453TMC3    C4 6746   0.412   3.163  11.554  0.0224 -0.3833  0.6363
  453TMC3    C5 6747   0.346   3.069  11.481 -1.3703  0.3571  0.4780
  453TMC3    C6 6748   0.296   2.958  11.539 -0.2462  0.5601  0.4166
  453TMC3     C 6749   0.488   3.258  11.763 -1.2609  0.2700  0.7619
  453TMC3     O 6750   0.573   3.325  11.709 -0.1078 -0.1751  0.7699
  453TMC3     H 6751   0.376   3.032  11.859  0.5858 -0.6952  0.3474
  453TMC3    H1 6752   0.472   3.237  11.502 -0.8560 -0.1770 -0.0796
  453TMC3    H2 6753   0.233   2.897  11.475 -1.6108 -0.3192  2.5917
  453TMC3    C7 6754   0.362   3.070  11.332  0.4209 -0.1243  0.0490
  453TMC3    C8 6755   0.247   2.829  11.745  0.7993  0.1286  0.3577
  453TMC3    O1 6756   0.327   2.965  11.280  0.2179  0.1953 -0.1143
  453TMC3    O2 6757   0.158   2.781  11.678 -0.4885  1.1961 -0.2440
  454MPD2     C 6758   3.636   2.841  16.287  0.3056 -0.7871  0.3464
  454MPD2    C1 6759   3.600   2.909  16.172 -0.1506  0.6753  0.7391
  454MPD2    C2 6760   3.548   3.032  16.192 -0.5490 -0.3334 -0.3437
  454MPD2    C3 6761   3.537   3.095  16.310  0.4525  0.3527 -0.2291
  454MPD2    C4 6762   3.589   3.030  16.419  0.3549  0.4086  0.3019
  454MPD2    C5 6763   3.629   2.901  16.411 -1.0026 -0.2275  0.5932
  454MPD2     H 6764   3.487   3.065  16.109  0.7135 -0.7211 -1.4059
  454MPD2    H1 6765   3.589   3.089  16.510  0.9835  1.8993 -0.6688
  454MPD2    H2 6766   3.674   2.740  16.275  1.9467 -0.3797  2.2447
  454MPD2    H3 6767   3.666   2.849  16.499 -1.1920 -1.7051 -0.1874
  454MPD2     N 6768   3.457   3.214  16.325  0.3760  0.4854 -0.0309
  454MPD2    H5 6769   3.435   3.238  16.421 -2.2526 -2.5311  0.1077
  454MPD2    N1 6770   3.605   2.855  16.041 -0.6014  0.2935  0.9714
  454MPD2    H7 6771   3.593   2.918  15.963 -2.0818 -1.1025  0.0792
  455TMC3    C1 6772   3.293   3.359  16.251  0.0969  0.9638 -0.0548
  455TMC3    C2 6773   3.275   3.401  16.383  0.4700 -0.0139 -0.0590
  455TMC3    C3 6774   3.157   3.373  16.449 -0.2021 -0.5351  0.1353
  455TMC3    C4 6775   3.198   3.288  16.194 -0.3161 -0.1117 -0.0938
  455TMC3    C5 6776   3.082   3.250  16.267 -0.1708 -0.4148  0.2247
  455TMC3    C6 6777   3.061   3.295  16.398  0.2431  0.8972 -0.1953
  455TMC3     C 6778   3.418   3.305  16.221 -0.2427  0.8233 -0.3270
  455TMC3     O 6779   3.443   3.294  16.103 -0.1612  0.2321  0.3109
  455TMC3     H 6780   3.346   3.469  16.428  2.0605 -1.0929 -0.8999
  455TMC3    H1 6781   3.221   3.238  16.101 -0.6558  2.2337 -1.4402
  455TMC3    H2 6782   2.980   3.249  16.454 -0.3660  0.2454 -1.6116
  455TMC3    C7 6783   3.043   3.111  16.243 -0.0790  0.1010  0.2628
  455TMC3    C8 6784   3.141   3.417  16.593  0.2367 -0.3146 -0.9085
  455TMC3    O1 6785   2.940   3.092  16.187 -0.3808  0.2103 -0.4658
  455TMC3    O2 6786   3.245   3.416  16.658 -0.0939  0.3990  0.1433
  456MPD2     C 6787   1.159   2.696  16.572 -0.0710  0.8299 -0.1175
  456MPD2    C1 6788   1.213   2.809  16.506 -0.4363  0.1174  0.5216
  456MPD2    C2 6789   1.206   2.935  16.561 -0.1271 -0.3970  0.3323
  456MPD2    C3 6790   1.162   2.951  16.690 -0.0191  0.0119  0.7780
  456MPD2    C4 6791   1.106   2.837  16.750 -0.4452 -1.1005  0.2955
  456MPD2    C5 6792   1.107   2.712  16.695 -0.0962  0.2210 -0.2633
  456MPD2     H 6793   1.244   3.023  16.511  1.1154 -0.1361  1.7435
  456MPD2    H1 6794   1.062   2.837  16.849 -4.3451  1.3712 -1.4805
  456MPD2    H2 6795   1.168   2.597  16.529 -2.4314  0.3521  0.4754
  456MPD2    H3 6796   1.068   2.626  16.748 -0.9603  1.1889  0.6605
  456MPD2     N 6797   1.178   3.075  16.756 -0.1668  0.2475 -0.5240
  456MPD2    H5 6798   1.209   3.150  16.695 -0.8444 -1.2470 -2.7393
  456MPD2    N1 6799   1.255   2.787  16.364 -0.2963 -0.3464  0.2360
  456MPD2    H7 6800   1.221   2.699  16.327  0.7220  0.2177 -2.0678
  457TMC3    C1 6801   1.178   3.221  16.944 -0.2717  0.0642  0.7431
  457TMC3    C2 6802   1.125   3.321  16.861 -0.5882  0.2301 -0.5537
  457TMC3    C3 6803   1.145   3.450  16.908 -0.5807 -0.2419  0.3125
  457TMC3    C4 6804   1.259   3.247  17.055 -0.7566 -0.6190  0.1789
  457TMC3    C5 6805   1.268   3.377  17.093 -0.2807 -0.5322  0.5467
  457TMC3    C6 6806   1.214   3.483  17.018  0.1914 -0.0310  0.1524
  457TMC3     C 6807   1.184   3.084  16.893  0.3029 -0.0260  1.0939
  457TMC3     O 6808   1.183   2.998  16.979  0.0384 -0.8354 -0.5068
  457TMC3     H 6809   1.050   3.293  16.787 -0.1599 -2.0585 -0.1354
  457TMC3    H1 6810   1.317   3.170  17.104  1.2734  0.3101 -0.7674
  457TMC3    H2 6811   1.228   3.587  17.043  1.0877 -0.4235  1.3099
  457TMC3    C7 6812   1.300   3.379  17.236  0.0834  0.1974 -0.1366
  457TMC3    C8 6813   1.084   3.559  16.836  0.1685 -0.8448  0.2778
  457TMC3    O1 6814   1.296   3.277  17.309  0.1176  0.2509  0.6572
  457TMC3    O2 6815   1.084   3.666  16.896  0.2729 -0.1161 -0.0290
  458MPD2     C 6816   4.182   2.589  12.174 -0.5596  0.1882 -0.4158
  458MPD2    C1 6817   4.192   2.465  12.236 -0.4277 -0.6476 -0.4327
  458MPD2    C2 6818   4.082   2.379  12.238  0.3298  0.1438  0.6273
  458MPD2    C3 6819   3.962   2.425  12.190 -0.1342  0.5956 -0.1429
  458MPD2    C4 6820   3.956   2.555  12.136  0.9370  0.2479  0.3475
  458MPD2    C5 6821   4.062   2.636  12.134 -0.1772 -0.0043 -0.0763
  458MPD2     H 6822   4.084   2.279  12.280  1.3206 -0.6601 -1.3468
  458MPD2    H1 6823   3.867   2.597  12.092 -0.3972 -0.7570  2.0719
  458MPD2    H2 6824   4.271   2.651  12.180 -0.7267  0.3231  0.6005
  458MPD2    H3 6825   4.052   2.739  12.101  0.5071 -0.0170 -0.3349
  458MPD2     N 6826   3.851   2.342  12.209 -0.1144 -0.0720  0.3280
  458MPD2    H5 6827   3.857   2.257  12.265  0.9253  0.9094  1.7248
  458MPD2    N1 6828   4.318   2.434  12.289 -0.1041  0.0577  0.1402
  458MPD2    H7 6829   4.382   2.513  12.291  0.0059 -0.0295  0.1361
  459TMC3    C1 6830   4.483   2.317  12.411  0.1525 -0.0085  0.1122
  459TMC3    C2 6831   4.567   2.421  12.397  0.2447 -0.2023  0.1883
  459TMC3    C3 6832   4.667   2.428  12.489 -0.0245  0.0243 -0.0191
  459TMC3    C4 6833   4.498   2.222  12.511  0.3183 -0.3085  0.1844
  459TMC3    C5 6834   4.600   2.229  12.595 -0.1623  0.2580  0.1251
  459TMC3    C6 6835   4.688   2.333  12.586  0.4120  0.0261 -0.1677
  459TMC3     C 6836   4.349   2.312  12.353  0.6932 -0.4885  0.3270
  459TMC3     O 6837   4.278   2.215  12.374  0.4457  0.1785  0.0651
  459TMC3     H 6838   4.553   2.496  12.320  2.0382  0.7589  0.8073
  459TMC3    H1 6839   4.422   2.147  12.530  0.7978 -1.2686 -1.6505
  459TMC3    H2 6840   0.054   2.320  12.650  1.8527  0.1128 -2.0974
  459TMC3    C7 6841   4.606   2.136  12.704  0.0538 -0.2219  0.4909
  459TMC3    C8 6842   0.053   2.525  12.465 -0.2190  0.3594 -0.5528
  459TMC3    O1 6843   4.557   2.023  12.684  0.0640 -0.3078 -0.1874
  459TMC3    O2 6844   0.166   2.489  12.490  0.1468  0.1333 -0.6780
  460MPD2     C 6845   3.349   3.919  10.699 -0.7072  0.3358 -0.0002
  460MPD2    C1 6846   3.310   4.047  10.682  0.3320  0.4618 -0.3325
  460MPD2    C2 6847   3.292   4.099  10.557  0.5256  0.5231  0.1095
  460MPD2    C3 6848   3.303   4.017  10.445  0.5844 -0.3988 -0.1831
  460MPD2    C4 6849   3.338   3.885  10.458  0.4423 -0.1755  0.6233
  460MPD2    C5 6850   3.355   3.834  10.590 -0.2478  0.2908  0.0684
  460MPD2     H 6851   3.271   4.205  10.544 -1.2063  0.1831  0.1273
  460MPD2    H1 6852   3.345   3.809  10.381  0.7221  2.7286 -2.2474
  460MPD2    H2 6853   3.356   3.878  10.799 -2.4451  1.9760  0.8104
  460MPD2    H3 6854   3.375   3.728  10.607 -0.5390  0.1977 -0.1708
  460MPD2     N 6855   3.289   4.071  10.321  0.4204 -0.0980 -0.8318
  460MPD2    H5 6856   3.263   4.169  10.313  0.4538  0.1407  1.7751
  460MPD2    N1 6857   3.289   4.120  10.800 -0.0092  0.6689 -0.0977
  460MPD2    H7 6858   3.314   4.073  10.886  2.3155 -0.8152 -1.5733
  461TMC3    C1 6859   3.288   4.106  10.080 -0.2158  0.6765 -0.7967
  461TMC3    C2 6860   3.368   4.097   9.975 -0.7465  0.0989  0.6525
  461TMC3    C3 6861   3.326   4.152   9.863  0.8610 -0.0053  0.2621
  461TMC3    C4 6862   3.172   4.182  10.082 -0.0630 -0.1067 -0.4530
  461TMC3    C5 6863   3.130   4.238   9.963 -1.0819  0.3890  0.5848
  461TMC3    C6 6864   3.215   4.228   9.853 -0.7502  0.2497 -0.7054
  461TMC3     C 6865   3.306   4.011  10.191  0.3371 -0.3996  0.1137
  461TMC3     O 6866   3.351   3.899  10.163 -0.3041  0.4204  0.0741
  461TMC3     H 6867   3.442   4.018   9.965 -2.8945 -1.8498  0.1688
  461TMC3    H1 6868   3.106   4.175  10.168 -1.1805  0.6410 -1.2503
  461TMC3    H2 6869   3.185   4.257   9.753 -0.6102 -0.1403 -0.8593
  461TMC3    C7 6870   2.989   4.277   9.941 -0.5106  0.3977 -0.1267
  461TMC3    C8 6871   3.366   4.068   9.758  0.5667 -1.2033  0.0212
  461TMC3    O1 6872   2.947   4.286   9.825  0.3057 -0.3248  0.0713
  461TMC3    O2 6873   3.487   4.050   9.751  0.7471  0.2046 -0.5645
  462TMC3    C1 6874   3.059   0.506  17.368 -1.1483 -0.5251 -0.4620
  462TMC3    C2 6875   2.958   0.439  17.301  0.6249  0.7759  0.5025
  462TMC3    C3 6876   2.924   0.323  17.357 -0.6500 -0.0537  0.1946
  462TMC3    C4 6877   3.132   0.464  17.474 -0.1409  0.2092  0.4057
  462TMC3    C5 6878   3.084   0.343  17.532 -0.1728  0.1362  0.1827
  462TMC3    C6 6879   2.991   0.266  17.464 -0.0908  0.3244  0.0094
  462TMC3     C 6880   3.050   0.651  17.366 -0.6303 -0.5412 -0.7506
  462TMC3     O 6881   3.151   0.716  17.374  0.3723 -0.3255 -0.0236
  462TMC3     H 6882   2.920   0.473  17.205 -2.0490  1.2683  1.7480
  462TMC3    H1 6883   3.210   0.529  17.514  1.3140 -0.1622 -1.8242
  462TMC3    H2 6884   2.933   0.193  17.520  2.7549 -2.4650 -0.6834
  462TMC3    C7 6885   3.075   0.333  17.678 -0.0807 -0.0166  0.3865
  462TMC3    C8 6886   2.853   0.238  17.274  0.6316  0.3460 -0.0739
  462TMC3    O1 6887   2.998   0.252   0.039 -0.3446 -0.3934 -0.6562
  462TMC3    O2 6888   2.756   0.292  17.217 -0.3458  0.1247 -0.4835
  463MPD2     C 6889   4.220   3.245   1.760 -0.2463 -0.5238 -0.5436
  463MPD2    C1 6890   4.133   3.344   1.751 -1.0037 -0.3943  0.5560
  463MPD2    C2 6891   4.179   3.475   1.751 -0.0541 -0.6309 -0.1233
  463MPD2    C3 6892   4.313   3.506   1.767 -0.0960 -0.1572  0.1913
  463MPD2    C4 6893   4.405   3.403   1.777 -1.1422  0.1556 -0.0524
  463MPD2    C5 6894   4.355   3.274   1.767 -0.2334 -0.2743  0.9473
  463MPD2     H 6895   4.105   3.554   1.744  0.9719  0.4326  0.9845
  463MPD2    H1 6896   4.511   3.426   1.778 -0.9076 -0.8149 -1.4179
  463MPD2    H2 6897   4.183   3.144   1.768  0.6700 -0.8090  0.1149
  463MPD2    H3 6898   4.426   3.192   1.769  0.3671  0.2642  1.4962
  463MPD2     N 6899   4.362   3.636   1.783  0.0453  0.0722 -0.1137
  463MPD2    H5 6900   4.462   3.648   1.771 -0.1754  0.9615 -1.1123
  463MPD2    N1 6901   3.996   3.321   1.729  0.1860 -0.3008  0.0408
  463MPD2    H7 6902   3.936   3.400   1.706  0.2453 -1.0472 -2.6124
  464TMC3    C1 6903   3.784   3.217   1.684 -0.0567 -0.0477 -0.4746
  464TMC3    C2 6904   3.714   3.322   1.740  0.3942 -0.3133  0.2078
  464TMC3    C3 6905   3.582   3.330   1.708  0.2077 -0.2963 -0.1527
  464TMC3    C4 6906   3.727   3.113   1.618 -0.1498  0.1506  0.0392
  464TMC3    C5 6907   3.595   3.132   1.584  0.0001  0.1757 -0.1286
  464TMC3    C6 6908   3.515   3.230   1.637 -0.0125 -0.1627 -0.3916
  464TMC3     C 6909   3.927   3.203   1.709 -0.5108  0.0881 -0.3686
  464TMC3     O 6910   3.969   3.087   1.708  0.8643 -0.5777 -0.1874
  464TMC3     H 6911   3.764   3.400   1.795 -0.8743  1.0444 -0.5673
  464TMC3    H1 6912   3.782   3.038   1.563 -1.4143  0.0136 -1.0472
  464TMC3    H2 6913   3.411   3.236   1.608  0.0954  2.8355 -0.1800
  464TMC3    C7 6914   3.544   3.046   1.492 -0.1426 -1.1259  0.0067
  464TMC3    C8 6915   3.498   3.442   1.728  1.0514 -0.8214  0.4120
  464TMC3    O1 6916   3.576   2.930   1.512 -0.3402 -0.0518  0.0038
  464TMC3    O2 6917   3.413   3.456   1.642  0.5819 -0.2043 -0.2726
  465MPD2     C 6918   4.444   2.539  16.637  0.2717  0.3137 -0.0870
  465MPD2    C1 6919   4.424   2.630  16.740  0.4203 -0.8258  0.4959
  465MPD2    C2 6920   4.315   2.713  16.732 -0.1129  0.3752  0.1774
  465MPD2    C3 6921   4.219   2.693  16.636  0.0126  0.1710 -0.8904
  465MPD2    C4 6922   4.245   2.603  16.531 -0.3889 -0.0843 -0.6636
  465MPD2    C5 6923   4.359   2.530  16.533  0.1691  0.0753  0.4756
  465MPD2     H 6924   4.302   2.798  16.799 -2.6152  1.3018 -1.4759
  465MPD2    H1 6925   4.175   2.585  16.450 -1.0384 -2.0535  0.3562
  465MPD2    H2 6926   4.530   2.474  16.630  0.2629  0.3287 -0.3224
  465MPD2    H3 6927   4.387   2.460  16.456  0.4167  1.3240 -0.5652
  465MPD2     N 6928   4.123   2.793  16.630 -0.7652  0.0547  0.2212
  465MPD2    H5 6929   4.112   2.847  16.715 -1.4673  2.4927 -1.4138
  465MPD2    N1 6930   4.512   2.643  16.843 -0.3841 -0.4537 -0.1868
  465MPD2    H7 6931   4.486   2.708  16.916 -0.9181  0.8975 -1.5937
  466TMC3    C1 6932   3.878   3.061  16.728 -0.1760 -0.5391  0.2640
  466TMC3    C2 6933   3.867   3.163  16.632 -0.0145  0.8188  0.2624
  466TMC3    C3 6934   3.900   3.130  16.507  0.1346  0.3351 -0.0176
  466TMC3    C4 6935   3.902   2.931  16.688  0.7058  0.9245  0.8776
  466TMC3    C5 6936   3.938   2.913  16.558 -0.2578 -0.2419  0.5390
  466TMC3    C6 6937   3.937   3.007  16.461  0.1166 -0.3433  1.0827
  466TMC3     C 6938   3.938   3.099  16.853  0.1489  0.3191  0.1232
  466TMC3     O 6939   4.004   3.005  16.894  0.4857  0.4073 -0.3749
  466TMC3     H 6940   3.849   3.263  16.669 -4.1944 -1.0007  3.0915
  466TMC3    H1 6941   3.917   2.848  16.756 -0.6975 -1.0430 -1.2134
  466TMC3    H2 6942   3.971   2.993  16.359 -2.0047  1.1831  0.1573
  466TMC3    C7 6943   4.033   2.809  16.524 -0.2149  0.1388 -0.8569
  466TMC3    C8 6944   3.937   3.240  16.417  0.4466 -0.2541 -0.3344
  466TMC3    O1 6945   4.034   2.779  16.407  0.3585 -0.8469  0.5778
  466TMC3    O2 6946   3.907   3.227  16.299  0.8306 -0.4212  0.3765
  467TMC3    C1 6947   1.617   1.896  13.887 -0.2531 -0.5641  0.1579
  467TMC3    C2 6948   1.590   1.995  13.794  0.0825 -0.0254 -0.1822
  467TMC3    C3 6949   1.491   1.980  13.700  0.0556  0.5834  0.1003
  467TMC3    C4 6950   1.540   1.781  13.885  0.5051 -0.1326 -0.3733
  467TMC3    C5 6951   1.431   1.775  13.794  0.3324 -0.6014 -0.4562
  467TMC3    C6 6952   1.406   1.867  13.700 -0.3372 -1.2425  0.2410
  467TMC3     C 6953   1.762   1.872  13.907  0.1826  0.4302 -0.6552
  467TMC3     O 6954   1.832   1.969  13.924 -0.1918  0.4869 -0.2715
  467TMC3     H 6955   1.654   2.082  13.796 -2.6618  1.9866 -1.1947
  467TMC3    H1 6956   1.544   1.708  13.965 -1.3372  0.5681  0.3526
  467TMC3    H2 6957   1.326   1.856  13.628  0.1227  0.6619 -0.5483
  467TMC3    C7 6958   1.376   1.644  13.778 -1.1298 -0.7823  0.0447
  467TMC3    C8 6959   1.505   2.066  13.588 -0.1577 -0.0927  0.0246
  467TMC3    O1 6960   1.464   1.558  13.778 -0.3650  0.6989  0.4574
  467TMC3    O2 6961   1.504   2.183  13.610  0.4417  0.3611  0.5282
  468MPD2     C 6962   0.030   3.804  10.972 -0.2317  0.7490  0.0765
  468MPD2    C1 6963   0.163   3.819  10.966  0.5823  0.3551 -0.0490
  468MPD2    C2 6964   0.246   3.717  10.903 -0.6225 -0.1756 -0.2373
  468MPD2    C3 6965   0.188   3.619  10.828  0.1768 -0.2149  0.2376
  468MPD2    C4 6966   0.048   3.607  10.832  0.7098  0.8245 -0.0120
  468MPD2    C5 6967   4.695   3.698  10.902 -0.0678  0.4224  0.0677
  468MPD2     H 6968   0.352   3.724  10.921 -0.7998  1.3539  0.1874
  468MPD2    H1 6969   4.717   3.524  10.785 -0.5886  1.4621  0.2689
  468MPD2    H2 6970   4.682   3.879  11.010 -1.2868 -0.8762  1.3650
  468MPD2    H3 6971   4.587   3.688  10.905  0.2306 -3.0428 -0.8353
  468MPD2     N 6972   0.263   3.517  10.765 -0.6676 -0.3679  0.6795
  468MPD2    H5 6973   0.217   3.437  10.724  0.4285 -0.8327  0.3571
  468MPD2    N1 6974   0.230   3.917  11.036  0.0681 -0.1284  0.5564
  468MPD2    H7 6975   0.331   3.913  11.034  0.0674  0.6398 -1.4372
  469TMC3    C1 6976   0.275   4.102  11.171  0.1536 -0.4717  0.3901
  469TMC3    C2 6977   0.382   4.043  11.229  0.4536  0.2928 -0.2893
  469TMC3    C3 6978   0.461   4.113  11.316  0.0273 -0.3158 -0.2281
  469TMC3    C4 6979   0.240   4.232  11.199 -0.3095  0.3683  0.4277
  469TMC3    C5 6980   0.315   4.305  11.287 -0.4383  0.2273  0.0859
  469TMC3    C6 6981   0.430   4.248  11.342 -0.6208  1.0146  0.5615
  469TMC3     C 6982   0.178   4.035  11.084 -0.3325 -0.0558 -0.2841
  469TMC3     O 6983   0.064   4.078  11.070  0.3782  0.4518 -0.1798
  469TMC3     H 6984   0.397   3.937  11.211  1.8559  0.8070 -2.1437
  469TMC3    H1 6985   0.167   4.282  11.136 -1.2728 -0.4875  0.8491
  469TMC3    H2 6986   0.501   4.319  11.381 -0.9118  2.0120 -0.7110
  469TMC3    C7 6987   0.263   4.436  11.326  0.6207 -0.5459  1.1496
  469TMC3    C8 6988   0.585   4.049  11.362  0.0474 -1.1253 -0.0794
  469TMC3    O1 6989   0.199   4.492  11.239  0.4636 -0.6118 -0.1515
  469TMC3    O2 6990   0.617   3.950  11.298 -0.7690  0.0662 -0.3620
  470TMC3    C1 6991   2.614   0.802   1.133  0.3914  0.3916  0.3781
  470TMC3    C2 6992   2.604   0.932   1.104  0.5372  0.0299 -0.2125
  470TMC3    C3 6993   2.562   1.024   1.201  0.1998 -0.3221 -0.8865
  470TMC3    C4 6994   2.583   0.758   1.265 -0.5519 -0.3756 -0.7523
  470TMC3    C5 6995   2.553   0.855   1.362  0.7194  0.0100 -0.0210
  470TMC3    C6 6996   2.549   0.987   1.334  0.1311 -1.0214  0.2225
  470TMC3     C 6997   2.646   0.714   1.024  0.5186  0.8754  0.1608
  470TMC3     O 6998   2.729   0.765   0.948 -0.1680  0.9805  0.2005
  470TMC3     H 6999   2.635   0.959   1.004 -1.5031 -2.0729 -1.4154
  470TMC3    H1 7000   2.604   0.656   1.296 -0.7183 -0.1711  0.0279
  470TMC3    H2 7001   2.535   1.068   1.405 -1.4620 -1.7104  0.7017
  470TMC3    C7 7002   2.572   0.821   1.505 -0.2350 -0.2397  0.3702
  470TMC3    C8 7003   2.582   1.168   1.196  0.2770 -0.2671  0.3118
  470TMC3    O1 7004   2.631   0.719   1.536  0.0050 -0.1065 -0.1708
  470TMC3    O2 7005   2.603   1.239   1.290 -0.1025  0.6889 -0.1172
  471MPD2     C 7006   2.923   1.866  16.290  0.2384 -0.4360 -0.5849
  471MPD2    C1 7007   2.945   1.736  16.328 -0.2942 -0.4113  0.2897
  471MPD2    C2 7008   3.018   1.715  16.442  0.4322 -0.2432 -0.5276
  471MPD2    C3 7009   3.082   1.813  16.512 -0.2817  0.0050  0.2919
  471MPD2    C4 7010   3.063   1.940  16.463  0.1719  0.5557  0.2731
  471MPD2    C5 7011   2.977   1.968  16.363  0.3906 -0.2996 -0.7394
  471MPD2     H 7012   3.046   1.613  16.466  1.3220  0.2342  0.4622
  471MPD2    H1 7013   3.116   2.023  16.510  0.6159 -0.1163  0.9584
  471MPD2    H2 7014   2.869   1.898  16.202 -1.3696 -1.5953 -0.0187
  471MPD2    H3 7015   2.977   2.069  16.322 -1.6782 -0.4471 -1.1250
  471MPD2     N 7016   3.181   1.788  16.612 -0.2491 -0.4683 -0.2629
  471MPD2    H5 7017   3.237   1.867  16.643  1.0908 -1.3600 -0.4022
  471MPD2    N1 7018   2.915   1.621  16.257  0.3548 -0.2421  0.2774
  471MPD2    H7 7019   2.947   1.530  16.288  0.8957 -0.5950 -1.2906
  472TMC3    C1 7020   2.878   1.501  16.055 -0.5818  0.0234 -0.0659
  472TMC3    C2 7021   2.802   1.489  15.944 -0.3187  0.5086 -0.1356
  472TMC3    C3 7022   2.787   1.362  15.892 -0.1000  0.0854  0.3658
  472TMC3    C4 7023   2.968   1.405  16.090  0.0555 -0.0486  0.3779
  472TMC3    C5 7024   2.953   1.276  16.037  0.1227  0.6842  0.2445
  472TMC3    C6 7025   2.865   1.254  15.932  0.3908  0.1481  0.3352
  472TMC3     C 7026   2.865   1.624  16.130 -0.6485 -0.0426  0.5793
  472TMC3     O 7027   2.793   1.715  16.077  0.2340 -0.1688 -0.7625
  472TMC3     H 7028   2.750   1.577  15.907  0.8431  0.1531 -2.6133
  472TMC3    H1 7029   3.035   1.418  16.174  0.4824  1.0480 -0.1266
  472TMC3    H2 7030   2.847   1.162  15.878  0.1792  0.3975 -0.0251
  472TMC3    C7 7031   2.931   1.182  16.145  0.4054  0.9546 -0.3095
  472TMC3    C8 7032   2.650   1.328  15.880  0.1192  0.6854  0.2950
  472TMC3    O1 7033   3.004   1.194  16.242 -0.0563  0.1907 -0.1254
  472TMC3    O2 7034   2.614   1.230  15.942  0.6031 -0.5314 -0.9036
  473MPD2     C 7035   2.182   4.025  14.167  0.6691  0.9601 -0.3043
  473MPD2    C1 7036   2.278   4.088  14.093 -0.4650  0.4847 -0.6983
  473MPD2    C2 7037   2.374   4.159  14.161  0.8569 -0.9798 -0.5858
  473MPD2    C3 7038   2.382   4.151  14.298  0.1768 -0.3506 -0.9496
  473MPD2    C4 7039   2.288   4.081  14.370  0.1217 -0.7812 -0.5142
  473MPD2    C5 7040   2.183   4.024  14.303  0.3720 -0.1391 -0.0316
  473MPD2     H 7041   2.451   4.212  14.105  1.6814 -0.8027  0.7220
  473MPD2    H1 7042   2.298   4.081  14.478 -1.7801  0.1399 -0.3432
  473MPD2    H2 7043   2.096   3.982  14.117  0.9330 -1.9677  1.8097
  473MPD2    H3 7044   2.107   3.976  14.364 -0.2160  3.7889  2.3047
  473MPD2     N 7045   2.477   4.227  14.377 -1.0442 -0.4760 -0.8522
  473MPD2    H5 7046   2.489   4.204  14.475 -0.7623 -0.8455 -0.9721
  473MPD2    N1 7047   2.272   4.105  13.958  0.2586  0.3242 -0.1221
  473MPD2    H7 7048   2.345   4.165  13.919 -0.7709  1.2451 -0.6214
  474TMC3    C1 7049   2.604   4.405  14.441  0.3958  0.1380 -0.0740
  474TMC3    C2 7050   2.582   4.538  14.463 -0.2917  0.2221 -0.1038
  474TMC3    C3 7051   2.679   4.603  14.536 -0.1740  0.1234  1.3904
  474TMC3    C4 7052   2.717   4.344  14.483  0.2020  0.5349 -0.3157
  474TMC3    C5 7053   2.802   4.410  14.567  0.1713 -0.0759  0.1310
  474TMC3    C6 7054   2.797   4.545  14.580 -0.3286  0.5777  0.3176
  474TMC3     C 7055   2.541   4.339  14.324 -0.6784  0.1369 -0.5265
  474TMC3     O 7056   2.522   4.410  14.230  0.5184 -0.0581  0.3560
  474TMC3     H 7057   2.498   4.586  14.415 -1.4650 -0.5664  1.1572
  474TMC3    H1 7058   2.750   4.244  14.459 -1.5675 -0.4096  1.1973
  474TMC3    H2 7059   2.882   4.599  14.620  0.2318  0.8950 -1.2959
  474TMC3    C7 7060   2.935   4.360  14.570 -0.0805 -0.3696 -0.5728
  474TMC3    C8 7061   2.677   0.027  14.543  0.0983 -0.8227  0.7249
  474TMC3    O1 7062   2.992   4.350  14.463 -0.0432 -0.4321 -0.7909
  474TMC3    O2 7063   2.769   0.082  14.600  0.1319 -0.2156 -0.3362
  475MPD2     C 7064   1.675   2.475  10.512 -0.7442  0.2590 -0.2710
  475MPD2    C1 7065   1.669   2.350  10.451 -0.0796 -0.4256  1.0172
  475MPD2    C2 7066   1.554   2.274  10.434  0.2778 -0.3343 -0.0453
  475MPD2    C3 7067   1.443   2.318  10.506 -0.7504  0.4170 -0.9839
  475MPD2    C4 7068   1.448   2.443  10.569 -0.2195  0.1331 -0.3698
  475MPD2    C5 7069   1.560   2.521  10.567 -0.3013  0.8117  0.2685
  475MPD2     H 7070   1.547   2.178  10.385 -1.4205  0.4133 -1.2773
  475MPD2    H1 7071   1.359   2.482  10.616  1.0349  2.4271  0.0872
  475MPD2    H2 7072   1.763   2.538  10.510 -0.0801 -0.7033 -1.5866
  475MPD2    H3 7073   1.558   2.607  10.633  0.9840  1.7004 -0.8479
  475MPD2     N 7074   1.336   2.229  10.521  0.1864  0.0471 -0.1113
  475MPD2    H5 7075   1.329   2.151  10.457  1.6958 -0.6023  0.5094
  475MPD2    N1 7076   1.790   2.308  10.407 -1.0151 -0.2160 -0.8232
  475MPD2    H7 7077   1.864   2.374  10.431 -0.1634 -0.7159 -2.0306
  476TMC3    C1 7078   1.967   2.163  10.325  0.2300 -0.7775 -0.6422
  476TMC3    C2 7079   1.998   2.061  10.243  0.2669 -0.0068 -0.1795
  476TMC3    C3 7080   2.140   2.037  10.232  0.3243  0.5936 -0.0476
  476TMC3    C4 7081   2.062   2.239  10.397  0.3673 -1.4774  0.2192
  476TMC3    C5 7082   2.190   2.224  10.369 -0.5224 -0.0598  0.2391
  476TMC3    C6 7083   2.233   2.124  10.284 -0.2744 -0.6016  0.2103
  476TMC3     C 7084   1.826   2.193  10.335  0.1642  0.7569 -0.6355
  476TMC3     O 7085   1.744   2.106  10.307  0.1819  0.4426  0.0150
  476TMC3     H 7086   1.922   2.008  10.187 -0.5675 -0.3298  1.2464
  476TMC3    H1 7087   2.035   2.282  10.493  0.6894 -3.4574  1.2030
  476TMC3    H2 7088   2.339   2.104  10.277 -0.6942 -2.1638 -1.9423
  476TMC3    C7 7089   2.280   2.264  10.479  1.0979 -0.4353  0.6182
  476TMC3    C8 7090   2.201   1.932  10.148  0.2783 -0.5478 -0.2658
  476TMC3    O1 7091   2.365   2.188  10.524 -0.5634  0.6457  0.0815
  476TMC3    O2 7092   2.315   1.955  10.101 -0.2826  0.8009  0.0834
  477MPD2     C 7093   4.201   3.439  11.427  0.4884  0.1629 -0.1797
  477MPD2    C1 7094   4.109   3.415  11.528 -1.2574  0.3373  1.1861
  477MPD2    C2 7095   4.144   3.320  11.618 -0.0227  0.2996 -0.5257
  477MPD2    C3 7096   4.266   3.256  11.620  0.1506  0.4277  0.4813
  477MPD2    C4 7097   4.355   3.279  11.524  0.7796 -0.2158  0.8288
  477MPD2    C5 7098   4.320   3.368  11.426  0.7876 -0.2803 -0.8331
  477MPD2     H 7099   4.082   3.285  11.700  0.1185 -1.8944 -1.3624
  477MPD2    H1 7100   4.456   3.243  11.516  1.3219  1.3603  0.5139
  477MPD2    H2 7101   4.191   3.505  11.342  4.2785  1.0254  0.0331
  477MPD2    H3 7102   4.390   3.380  11.343  1.2819 -1.0930 -0.5298
  477MPD2     N 7103   4.285   3.156  11.712 -0.3623  0.2972 -0.2456
  477MPD2    H5 7104   4.200   3.142  11.767  0.0508 -0.6552  0.1642
  477MPD2    N1 7105   3.978   3.473  11.518  0.1652 -0.3165 -0.6147
  477MPD2    H7 7106   3.961   3.524  11.432 -0.3320  3.5456  1.8032
  478TMC3    C1 7107   3.758   3.532  11.572 -0.0049 -0.1618  0.5069
  478TMC3    C2 7108   3.672   3.581  11.667 -0.3531  0.3003  0.3212
  478TMC3    C3 7109   3.561   3.643  11.621  0.3015  0.5098 -0.2495
  478TMC3    C4 7110   3.716   3.506  11.448 -0.9994 -0.1109 -0.0091
  478TMC3    C5 7111   3.599   3.570  11.402  0.2396  0.8377  0.0841
  478TMC3    C6 7112   3.524   3.650  11.485 -0.5526  0.1094  0.1800
  478TMC3     C 7113   3.884   3.473  11.614  0.2956  0.8701 -0.9895
  478TMC3     O 7114   3.894   3.445  11.733  0.0661  0.2621 -0.4459
  478TMC3     H 7115   3.698   3.588  11.772  0.5622 -2.3865  0.2594
  478TMC3    H1 7116   3.770   3.445  11.377 -1.4812 -0.7687  0.1963
  478TMC3    H2 7117   3.423   3.677  11.457 -0.8284 -1.1956 -0.0669
  478TMC3    C7 7118   3.554   3.531  11.270  0.8294 -0.4995  0.1014
  478TMC3    C8 7119   3.479   3.712  11.724 -0.4232  0.4156 -1.0431
  478TMC3    O1 7120   3.601   3.433  11.217 -0.0204 -0.6815 -0.2974
  478TMC3    O2 7121   3.452   3.646  11.824 -0.3562  0.0607 -1.0761
  479MPD2     C 7122   2.310   1.285  14.957  0.2909 -0.3561 -0.1953
  479MPD2    C1 7123   2.263   1.213  15.063 -0.4781  0.2856 -0.1502
  479MPD2    C2 7124   2.337   1.214  15.180 -0.4287 -0.4747 -0.2383
  479MPD2    C3 7125   2.448   1.300  15.190 -0.4223 -0.0002  0.1510
  479MPD2    C4 7126   2.494   1.363  15.079  0.2900 -0.3928  0.4115
  479MPD2    C5 7127   2.423   1.355  14.966 -0.4536  0.2177  0.5245
  479MPD2     H 7128   2.304   1.157  15.266  0.1589  0.9115  0.9046
  479MPD2    H1 7129   2.570   1.439  15.094 -0.7907  0.6107  0.7688
  479MPD2    H2 7130   2.264   1.267  14.860 -0.2118 -1.4367  0.2487
  479MPD2    H3 7131   2.470   1.403  14.881  0.8474  0.4546  1.3730
  479MPD2     N 7132   2.527   1.336  15.304 -0.2563  0.7289  0.3472
  479MPD2    H5 7133   2.614   1.386  15.287 -0.0616  0.4092  0.4010
  479MPD2    N1 7134   2.159   1.121  15.041  0.9227  0.0412 -0.8488
  479MPD2    H7 7135   2.101   1.124  14.957  0.3627  1.3789 -0.4062
  480TMC3    C1 7136   2.223   1.254  15.667 -0.1478 -0.2422  0.3164
  480TMC3    C2 7137   2.131   1.342  15.613 -0.4213 -0.1163 -0.4710
  480TMC3    C3 7138   2.161   1.414  15.497 -0.6017 -0.6116  0.1360
  480TMC3    C4 7139   2.339   1.226  15.598  0.6306  0.0416 -0.6558
  480TMC3    C5 7140   2.368   1.295  15.484 -0.0870 -0.6995  0.9264
  480TMC3    C6 7141   2.278   1.387  15.432 -0.1601  0.3706 -0.5979
  480TMC3     C 7142   2.187   1.151  15.761  1.0119 -0.0076  0.8892
  480TMC3     O 7143   2.270   1.061  15.773 -0.5892 -0.3868 -0.5289
  480TMC3     H 7144   2.040   1.373  15.665  0.3776 -0.8264  1.3580
  480TMC3    H1 7145   2.415   1.156  15.631  1.5720  1.4611  0.1976
  480TMC3    H2 7146   2.316   1.447  15.350 -2.0334  1.2288 -0.8231
  480TMC3    C7 7147   2.507   1.301  15.436  0.6886 -0.3594  0.2469
  480TMC3    C8 7148   2.050   1.445  15.411 -1.1236  0.4687  0.6619
  480TMC3    O1 7149   2.602   1.264  15.503 -0.2392  0.2451 -0.6202
  480TMC3    O2 7150   1.931   1.439  15.456  0.3643 -0.6260  0.2010
  481MPD2     C 7151   4.590   0.716  14.548 -0.1786 -0.3053  0.0330
  481MPD2    C1 7152   4.458   0.688  14.512 -0.0980 -0.0031 -0.3906
  481MPD2    C2 7153   4.376   0.653  14.623 -0.0832  0.3358 -0.3409
  481MPD2    C3 7154   4.421   0.649  14.760  0.5826  0.5495 -0.1680
  481MPD2    C4 7155   4.559   0.671  14.774 -0.1708  0.6443  0.4463
  481MPD2    C5 7156   4.645   0.706  14.674 -0.6004  0.2708 -0.4699
  481MPD2     H 7157   4.271   0.632  14.608 -0.4930  0.8890  1.8353
  481MPD2    H1 7158   4.604   0.663  14.872 -0.4210  1.6192  0.6391
  481MPD2    H2 7159   4.646   0.747  14.461 -3.0628 -1.7751 -2.3549
  481MPD2    H3 7160   0.027   0.729  14.701  0.1042 -0.9199 -2.1353
  481MPD2     N 7161   4.343   0.618  14.874  0.1150 -0.1613  0.1109
  481MPD2    H5 7162   4.395   0.597  14.959 -1.6719 -1.4387  0.8961
  481MPD2    N1 7163   4.415   0.704  14.380 -0.3676 -0.1013  0.5214
  481MPD2    H7 7164   4.482   0.710  14.304 -2.1512 -3.0385 -1.2637
  482TMC3    C1 7165   4.278   0.716  14.195 -0.4325  0.5671 -0.0898
  482TMC3    C2 7166   4.159   0.668  14.137  0.3111 -0.3479  0.4981
  482TMC3    C3 7167   4.134   0.696  14.007  0.3246  0.2860  0.8682
  482TMC3    C4 7168   4.383   0.757  14.118  0.1396  0.3810  0.0772
  482TMC3    C5 7169   4.356   0.770  13.981 -0.0614  0.0836 -0.1702
  482TMC3    C6 7170   4.229   0.754  13.928  0.4856  0.1020 -0.4411
  482TMC3     C 7171   4.283   0.709  14.338  0.2251 -0.0725 -0.4091
  482TMC3     O 7172   4.178   0.697  14.397 -0.1536 -0.2670 -0.4204
  482TMC3     H 7173   4.075   0.635  14.198  0.8439  1.6003  2.2552
  482TMC3    H1 7174   4.476   0.801  14.150 -1.6890  2.2620  2.7440
  482TMC3    H2 7175   4.210   0.799  13.831  0.4915  0.5621 -0.2273
  482TMC3    C7 7176   4.468   0.824  13.901  0.4216  0.0385 -0.1715
  482TMC3    C8 7177   4.022   0.643  13.938 -0.1163 -0.5520 -0.2914
  482TMC3    O1 7178   4.568   0.867  13.953  0.4657  0.5376  0.6450
  482TMC3    O2 7179   3.943   0.583  14.010  0.0792  0.6300 -0.3785
  483TMC3    C1 7180   1.450   0.273   0.644  0.0449  0.5796 -0.1765
  483TMC3    C2 7181   1.505   0.395   0.649  0.2361 -0.2554  0.6286
  483TMC3    C3 7182   1.570   0.414   0.766 -0.2909 -0.2155 -0.1721
  483TMC3    C4 7183   1.457   0.175   0.738  0.3082 -0.1326  0.8508
  483TMC3    C5 7184   1.515   0.208   0.855  0.3207  0.1576 -0.1706
  483TMC3    C6 7185   1.580   0.328   0.872  0.3173 -0.7862  0.2752
  483TMC3     C 7186   1.399   0.230   0.521  0.0244 -0.1332  0.6584
  483TMC3     O 7187   1.349   0.311   0.446  0.1491  0.1517 -0.4966
  483TMC3     H 7188   1.508   0.455   0.558 -1.2211 -1.8579 -0.4694
  483TMC3    H1 7189   1.403   0.082   0.729 -0.6982  0.6095 -0.8267
  483TMC3    H2 7190   1.638   0.352   0.960 -1.7708  2.5355  0.7445
  483TMC3    C7 7191   1.570   0.098   0.927  0.4286 -0.1654  0.1913
  483TMC3    C8 7192   1.683   0.501   0.747  0.1472 -0.2063 -0.1015
  483TMC3    O1 7193   1.606   0.000   0.858 -0.4211  0.0521  0.5273
  483TMC3    O2 7194   1.708   0.537   0.633  0.0595  0.1836  0.4652
  484MPD2     C 7195   0.008   2.849  12.293  0.7507 -0.0625 -0.0988
  484MPD2    C1 7196   0.080   2.751  12.364  0.7582 -0.1241  0.0328
  484MPD2    C2 7197   0.224   2.755  12.353  0.3273 -0.3978  0.3461
  484MPD2    C3 7198   0.296   2.860  12.298 -0.5663 -0.0605  0.5369
  484MPD2    C4 7199   0.219   2.947  12.230  0.2420 -0.4376 -0.0841
  484MPD2    C5 7200   0.085   2.939  12.223  0.5908  0.8428  0.2891
  484MPD2     H 7201   0.274   2.674  12.404  3.6095  0.4199 -1.6186
  484MPD2    H1 7202   0.259   3.030  12.172  0.8459 -0.1535  0.7355
  484MPD2    H2 7203   4.622   2.854  12.273  0.3078 -2.2462  1.6700
  484MPD2    H3 7204   0.025   3.011  12.168 -1.3695 -1.0395 -0.0630
  484MPD2     N 7205   0.442   2.872  12.293 -0.5204  0.0694 -0.1837
  484MPD2    H5 7206   0.483   2.951  12.244  1.5218 -0.7801  0.1641
  484MPD2    N1 7207   0.001   2.641  12.407  0.6001  0.0566  0.7418
  484MPD2    H7 7208   4.621   2.652  12.400  0.4699 -0.2790  2.2757
  485TMC3    C1 7209   0.670   2.808  12.316  0.8101  0.4565  0.0451
  485TMC3    C2 7210   0.762   2.749  12.402 -0.7664 -0.1351 -0.3404
  485TMC3    C3 7211   0.896   2.751  12.382  0.4921  0.1935 -0.4652
  485TMC3    C4 7212   0.707   2.854  12.194 -0.4943 -0.2590  0.2094
  485TMC3    C5 7213   0.842   2.841  12.172 -0.5361  0.6173 -0.6044
  485TMC3    C6 7214   0.934   2.813  12.268  0.6403 -0.0857  0.8116
  485TMC3     C 7215   0.527   2.787  12.352 -0.4546  0.3916 -0.4377
  485TMC3     O 7216   0.499   2.702  12.439  0.4242 -0.4833  0.8407
  485TMC3     H 7217   0.723   2.701  12.491 -0.2398 -0.7871 -0.4565
  485TMC3    H1 7218   0.633   2.878  12.118  0.8050 -1.4589 -1.4368
  485TMC3    H2 7219   1.039   2.806  12.241  0.5633  1.4760  0.1524
  485TMC3    C7 7220   0.873   2.792  12.040  0.0957  0.4602 -0.3455
  485TMC3    C8 7221   0.965   2.629  12.396  0.4651 -0.0065  0.0113
  485TMC3    O1 7222   0.808   2.826  11.943  0.4885  0.5675  0.4094
  485TMC3    O2 7223   1.048   2.610  12.304 -0.4919  0.4066  0.6850
  486MPD2     C 7224   1.946   1.238  13.022  0.7025 -0.1352  0.4090
  486MPD2    C1 7225   1.957   1.230  12.888 -0.2421  0.0290  0.4213
  486MPD2    C2 7226   1.919   1.339  12.809  0.0092 -0.0909 -0.6608
  486MPD2    C3 7227   1.878   1.458  12.868  0.5143 -0.6375 -0.3410
  486MPD2    C4 7228   1.848   1.463  13.004 -0.0975  0.0708 -0.2852
  486MPD2    C5 7229   1.881   1.349  13.079 -0.8065  0.0683  0.1770
  486MPD2     H 7230   1.933   1.334  12.702 -0.3112  2.0407 -0.8125
  486MPD2    H1 7231   1.799   1.545  13.055  1.3375 -1.5975  3.7507
  486MPD2    H2 7232   1.993   1.165  13.086  1.5665 -0.1835 -0.2795
  486MPD2    H3 7233   1.888   1.357  13.187 -0.5778 -0.0229  0.1692
  486MPD2     N 7234   1.848   1.567  12.786 -0.5300  0.1802 -0.2433
  486MPD2    H5 7235   1.872   1.570  12.687 -0.2138 -1.4385 -0.2208
  486MPD2    N1 7236   2.031   1.128  12.834 -0.5689 -0.1456  0.4324
  486MPD2    H7 7237   2.071   1.062  12.900 -0.0679 -1.0671 -0.7767
  487TMC3    C1 7238   2.135   0.996  12.674  0.3302  0.0965  0.5601
  487TMC3    C2 7239   2.061   0.877  12.645 -0.6878 -0.2973 -0.0806
  487TMC3    C3 7240   2.119   0.764  12.680  0.3920 -0.3087 -0.3791
  487TMC3    C4 7241   2.237   0.992  12.767  0.0483  0.1134 -0.2404
  487TMC3    C5 7242   2.281   0.870  12.816 -0.0895 -0.5109 -0.3469
  487TMC3    C6 7243   2.224   0.752  12.776 -0.0649  0.2275  0.1510
  487TMC3     C 7244   2.043   1.102  12.701  0.6436 -0.1412  0.8310
  487TMC3     O 7245   1.971   1.124  12.611  0.4179  0.4697 -0.0033
  487TMC3     H 7246   1.965   0.882  12.595 -0.1849 -1.8302 -1.2025
  487TMC3    H1 7247   2.287   1.083  12.797 -2.8844  1.7607 -0.3507
  487TMC3    H2 7248   2.281   0.660  12.767 -1.5736 -0.7550  0.7783
  487TMC3    C7 7249   2.278   0.881  12.959 -0.4358 -0.7528 -0.0905
  487TMC3    C8 7250   2.020   0.658  12.720  0.5150 -0.3817 -0.2406
  487TMC3    O1 7251   2.221   0.979  13.001  0.0706 -0.1756 -0.0153
  487TMC3    O2 7252   1.901   0.692  12.713 -0.0250 -0.5277  0.5280
  488MPD2     C 7253   1.815   2.784  16.186 -0.6618  0.3043  0.3334
  488MPD2    C1 7254   1.783   2.898  16.256  0.2986  0.5529  0.8224
  488MPD2    C2 7255   1.698   2.897  16.364 -0.1131 -0.1199  0.3758
  488MPD2    C3 7256   1.648   2.779  16.411 -0.5034 -0.0721  0.1978
  488MPD2    C4 7257   1.667   2.663  16.332  0.3508 -0.0642  1.0108
  488MPD2    C5 7258   1.751   2.665  16.223  0.0064 -0.3167  0.3440
  488MPD2     H 7259   1.678   2.984  16.426  0.6386  0.1606  0.2353
  488MPD2    H1 7260   1.644   2.564  16.370  1.1354 -1.4328 -2.0558
  488MPD2    H2 7261   1.881   2.778  16.100 -0.2799  0.9629  0.5810
  488MPD2    H3 7262   1.766   2.571  16.171 -0.0141 -0.9194  1.4291
  488MPD2     N 7263   1.588   2.781  16.543  0.1184  0.6331  0.2941
  488MPD2    H5 7264   1.603   2.864  16.600  0.1777  0.7006  0.1817
  488MPD2    N1 7265   1.836   3.026  16.226 -0.4606 -0.4978  0.3369
  488MPD2    H7 7266   1.793   3.100  16.281 -2.4558 -2.4741  1.4430
  489TMC3    C1 7267   1.479   2.688  16.738  0.0369 -0.1412  0.1950
  489TMC3    C2 7268   1.486   2.809  16.800  0.0976  0.3833 -1.0633
  489TMC3    C3 7269   1.451   2.828  16.929  0.3884  0.1686  0.0784
  489TMC3    C4 7270   1.445   2.577  16.813  0.2922  0.1803 -0.0848
  489TMC3    C5 7271   1.434   2.602  16.949 -0.7195 -0.8298  0.2271
  489TMC3    C6 7272   1.427   2.728  17.009  0.9900  0.8837  0.3126
  489TMC3     C 7273   1.525   2.666  16.596  0.6884  0.5130 -0.6584
  489TMC3     O 7274   1.493   2.558  16.544  0.7898 -0.5296 -0.1404
  489TMC3     H 7275   1.495   2.897  16.737  1.3851  1.2050  0.2689
  489TMC3    H1 7276   1.439   2.475  16.774  1.9785 -0.9408  2.6174
  489TMC3    H2 7277   1.385   2.744  17.108  0.2202 -0.4697  0.2168
  489TMC3    C7 7278   1.405   2.488  17.032 -0.1306 -0.5594 -0.0501
  489TMC3    C8 7279   1.541   2.934  16.974 -0.0151 -0.1548 -0.6176
  489TMC3    O1 7280   1.364   2.387  16.976 -0.2107  0.3774 -0.6564
  489TMC3    O2 7281   1.623   2.969  16.890  0.6721 -0.4565 -0.0974
  490MPD2     C 7282   2.740   2.864  17.322 -0.1063 -0.1948  0.6817
  490MPD2    C1 7283   2.739   2.732  17.358 -0.1511  0.0596 -0.1519
  490MPD2    C2 7284   2.838   2.686  17.441  0.1752 -0.4472 -0.3476
  490MPD2    C3 7285   2.928   2.776  17.499  0.3465 -0.2397  0.0412
  490MPD2    C4 7286   2.923   2.909  17.467 -0.0718  0.7070 -0.0025
  490MPD2    C5 7287   2.826   2.955  17.380  0.2239  0.7387 -0.5249
  490MPD2     H 7288   2.832   2.580  17.464  0.5023 -0.2975  0.4029
  490MPD2    H1 7289   2.977   2.991  17.514  1.7663  1.2017 -2.9337
  490MPD2    H2 7290   2.658   2.898  17.260  1.0463  1.0108 -0.1743
  490MPD2    H3 7291   2.811   3.061  17.364  0.1326  1.0873  1.7748
  490MPD2     N 7292   3.034   2.751  17.591  0.3078  0.1870  0.5584
  490MPD2    H5 7293   3.093   2.830  17.616  0.4103  0.4670 -0.5677
  490MPD2    N1 7294   2.648   2.637  17.303 -0.1307 -0.3050 -0.3309
  490MPD2    H7 7295   2.639   2.549  17.352  0.5489 -1.1499 -1.7299
  491TMC3    C1 7296   2.486   2.540  17.167 -0.8779 -0.0074 -0.9742
  491TMC3    C2 7297   2.427   2.478  17.270 -0.0986 -0.9109 -0.3706
  491TMC3    C3 7298   2.370   2.360  17.245 -0.9653 -0.7667  0.2523
  491TMC3    C4 7299   2.488   2.486  17.043 -0.5164  0.9897 -1.2180
  491TMC3    C5 7300   2.437   2.359  17.027  0.5597  0.1011 -0.8271
  491TMC3    C6 7301   2.360   2.300  17.120  0.0285 -0.8462 -0.1122
  491TMC3     C 7302   2.576   2.654  17.190 -0.3884 -0.2647 -0.3708
  491TMC3     O 7303   2.601   2.724  17.093  0.1723 -0.1120  0.4228
  491TMC3     H 7304   2.407   2.535  17.360  0.6459 -2.0877  0.5486
  491TMC3    H1 7305   2.555   2.528  16.969  2.1722  0.2246  0.7496
  491TMC3    H2 7306   2.333   2.196  17.110 -0.5029 -0.7589  0.4266
  491TMC3    C7 7307   2.478   2.289  16.910  0.8093  0.5395  0.1361
  491TMC3    C8 7308   2.311   2.288  17.361  0.6242  0.0011 -0.4627
  491TMC3    O1 7309   2.461   2.170  16.915  0.4339 -0.2139  0.1865
  491TMC3    O2 7310   2.365   2.321  17.467  0.5626  0.1778  0.0318
  492MPD2     C 7311   3.758   2.585  11.039  0.3048 -0.2122 -0.0332
  492MPD2    C1 7312   3.684   2.467  11.031  0.1283 -0.4387  0.3260
  492MPD2    C2 7313   3.624   2.422  11.145  0.3299  0.0475  0.1092
  492MPD2    C3 7314   3.621   2.491  11.261  0.5063  0.4848 -0.1444
  492MPD2    C4 7315   3.690   2.608  11.269 -0.0697 -0.1592 -0.1866
  492MPD2    C5 7316   3.759   2.651  11.159 -0.3861  0.6028  0.3164
  492MPD2     H 7317   3.576   2.325  11.137 -0.7271  0.5398  0.5083
  492MPD2    H1 7318   3.699   2.671  11.356  1.2164 -0.4513 -0.0986
  492MPD2    H2 7319   3.816   2.644  10.968  0.5916 -0.4655 -0.0065
  492MPD2    H3 7320   3.809   2.747  11.161 -0.4935  0.6026  2.5749
  492MPD2     N 7321   3.548   2.441  11.372 -0.0982  0.4087  0.0845
  492MPD2    H5 7322   3.564   2.494  11.457  1.9688  2.2715 -1.4512
  492MPD2    N1 7323   3.667   2.394  10.913 -0.3978  0.2865 -0.0374
  492MPD2    H7 7324   3.602   2.315  10.912 -2.1819  1.7726 -0.6182
  493TMC3    C1 7325   3.647   2.369  10.689  0.8295 -0.0377 -0.5064
  493TMC3    C2 7326   3.649   2.437  10.570 -0.2764  0.2113 -0.5585
  493TMC3    C3 7327   3.554   2.413  10.479 -0.1222  0.4278 -0.6026
  493TMC3    C4 7328   3.567   2.261  10.707  0.9184 -0.0059  0.4448
  493TMC3    C5 7329   3.490   2.216  10.598 -0.9328  0.7933 -0.3512
  493TMC3    C6 7330   3.469   2.303  10.490 -0.2974  0.2079  0.8665
  493TMC3     C 7331   3.719   2.433  10.795 -0.3925  0.0024 -0.6005
  493TMC3     O 7332   3.817   2.500  10.770  0.6737 -0.1550 -0.0265
  493TMC3     H 7333   3.717   2.521  10.561 -1.3388  1.2534  1.1063
  493TMC3    H1 7334   3.559   2.219  10.807  0.3722 -2.6772 -0.7176
  493TMC3    H2 7335   3.401   2.275  10.410  0.6821  0.3553 -0.0190
  493TMC3    C7 7336   3.401   2.105  10.606  0.2857 -0.1723  0.4801
  493TMC3    C8 7337   3.514   2.519  10.395 -0.3061  0.8636  0.2471
  493TMC3    O1 7338   3.310   2.106  10.527  0.3628 -0.4844 -0.2575
  493TMC3    O2 7339   3.396   2.515  10.361  0.6230  0.0054 -0.6683
  494TMC3    C1 7340   3.370   3.842   0.695 -0.7594 -0.8512 -0.0296
  494TMC3    C2 7341   3.431   3.717   0.696 -0.3990 -0.0144 -0.4816
  494TMC3    C3 7342   3.523   3.691   0.603 -0.0628 -0.4574  0.0400
  494TMC3    C4 7343   3.399   3.927   0.596  0.1275 -0.5389  0.1552
  494TMC3    C5 7344   3.495   3.894   0.499  0.3114 -0.0915  0.2976
  494TMC3    C6 7345   3.555   3.772   0.495  0.0104  0.3926 -0.7761
  494TMC3     C 7346   3.264   3.861   0.791 -0.3354  0.0549 -0.3124
  494TMC3     O 7347   3.272   3.807   0.898  0.7803 -0.0273 -0.4775
  494TMC3     H 7348   3.393   3.634   0.754 -1.1221  0.9177  0.3658
  494TMC3    H1 7349   3.362   4.027   0.612 -0.1267 -0.4504 -0.9871
  494TMC3    H2 7350   3.645   3.742   0.443 -0.3189 -0.6741 -0.7144
  494TMC3    C7 7351   3.544   3.980   0.398  0.6319  0.3064 -0.0471
  494TMC3    C8 7352   3.592   3.567   0.606 -0.0265 -0.2874  0.6922
  494TMC3    O1 7353   3.650   3.953   0.341 -0.2800 -0.0838 -0.9772
  494TMC3    O2 7354   3.618   3.516   0.495 -0.4151 -0.0130 -0.3385
  495TMC3    C1 7355   2.366   1.563  14.469 -0.3409 -0.1486  0.4956
  495TMC3    C2 7356   2.263   1.603  14.381  0.3206 -0.3382  0.5626
  495TMC3    C3 7357   2.133   1.610  14.417  0.3902  0.0284  0.3350
  495TMC3    C4 7358   2.330   1.537  14.593 -0.1738  0.1575 -0.5246
  495TMC3    C5 7359   2.193   1.546  14.625  0.7387 -0.1921  0.9754
  495TMC3    C6 7360   2.099   1.586  14.542 -0.0158 -0.5540  0.3438
  495TMC3     C 7361   2.427   1.439  14.414 -0.9418  0.1842 -0.3016
  495TMC3     O 7362   2.377   1.399  14.309  0.0758 -0.3493 -0.4046
  495TMC3     H 7363   2.301   1.632  14.284  0.5400  2.1672  1.3711
  495TMC3    H1 7364   2.405   1.513  14.668  0.4894  1.6717 -0.6952
  495TMC3    H2 7365   1.992   1.591  14.562 -0.1370  0.2167 -0.4731
  495TMC3    C7 7366   2.162   1.554  14.765  0.7226 -0.9408  0.1759
  495TMC3    C8 7367   2.042   1.563  14.311  0.1736 -0.3904  0.4725
  495TMC3    O1 7368   2.255   1.580  14.847 -0.2305 -0.2797 -0.0638
  495TMC3    O2 7369   1.925   1.587  14.330  0.2180  0.6768 -0.2923
  496MPD2     C 7370   4.501   1.439  14.982  0.8003  0.2124  0.5667
  496MPD2    C1 7371   4.535   1.376  15.097 -0.0084  0.0820 -0.1397
  496MPD2    C2 7372   4.428   1.352  15.184  0.3669  0.4252 -0.2600
  496MPD2    C3 7373   4.305   1.401  15.162 -0.2494  1.1513 -1.0079
  496MPD2    C4 7374   4.271   1.456  15.039  0.6107 -0.1151 -0.7965
  496MPD2    C5 7375   4.368   1.469  14.944 -0.4959  0.0754 -0.4153
  496MPD2     H 7376   4.448   1.298  15.276  1.2107 -0.5808 -1.0436
  496MPD2    H1 7377   4.170   1.488  15.018 -0.5114 -1.7425  2.1732
  496MPD2    H2 7378   4.580   1.457  14.909 -0.5284 -2.3418 -1.5127
  496MPD2    H3 7379   4.347   1.507  14.845  2.3754  2.4873 -0.1122
  496MPD2     N 7380   4.196   1.392  15.251  0.2050 -0.0765 -0.1709
  496MPD2    H5 7381   4.105   1.424  15.219  1.2505  1.0040 -2.0606
  496MPD2    N1 7382   4.671   1.340  15.120 -0.0377  0.1408 -0.2256
  496MPD2    H7 7383   4.716   1.328  15.030 -1.3125  0.4540 -0.9092
  497TMC3    C1 7384   4.085   1.333  15.447 -0.4696 -0.0995 -1.0105
  497TMC3    C2 7385   3.978   1.289  15.381  0.7762 -0.3206 -0.7758
  497TMC3    C3 7386   3.871   1.262  15.459 -0.4214 -0.0974  0.6358
  497TMC3    C4 7387   4.091   1.363  15.581 -0.2036 -0.1932 -0.3471
  497TMC3    C5 7388   3.977   1.328  15.656 -0.1477 -0.4290 -0.1249
  497TMC3    C6 7389   3.866   1.276  15.593 -0.6844  0.6696 -0.0642
  497TMC3     C 7390   4.208   1.351  15.381 -0.4381 -0.5520 -0.0160
  497TMC3     O 7391   4.303   1.335  15.456  0.1049 -0.1551  0.1759
  497TMC3     H 7392   3.972   1.292  15.273  3.3068  1.6613 -0.8800
  497TMC3    H1 7393   4.164   1.427  15.628  0.4599 -1.1342 -0.1000
  497TMC3    H2 7394   3.771   1.259  15.643  0.5824  0.4285  2.2678
  497TMC3    C7 7395   3.982   1.345  15.799 -0.0575  0.6144 -0.0339
  497TMC3    C8 7396   3.770   1.189  15.399  0.0520 -0.5194 -0.3475
  497TMC3    O1 7397   3.875   1.356  15.859  0.0876 -0.2173  0.1624
  497TMC3    O2 7398   3.651   1.208  15.430  0.0941 -0.8519  0.6447
  498MPD2     C 7399   1.439   0.730   9.247  0.0997  0.1610 -0.2773
  498MPD2    C1 7400   1.460   0.770   9.375  1.1212  0.6830  0.1834
  498MPD2    C2 7401   1.354   0.808   9.449  0.1711 -0.7052 -0.9708
  498MPD2    C3 7402   1.220   0.800   9.402 -0.1019 -0.4113 -1.0179
  498MPD2    C4 7403   1.204   0.756   9.273 -0.4194 -0.4132  0.2132
  498MPD2    C5 7404   1.316   0.727   9.197 -0.5951 -0.1752  0.2132
  498MPD2     H 7405   1.364   0.839   9.552 -0.1808  0.5561 -1.3196
  498MPD2    H1 7406   1.109   0.732   9.228  0.4697  0.8617 -2.3455
  498MPD2    H2 7407   1.521   0.704   9.181 -2.3613  0.2035 -3.3590
  498MPD2    H3 7408   1.300   0.707   9.091 -2.8502  2.6949 -0.0029
  498MPD2     N 7409   1.120   0.840   9.490  0.0569 -0.1062  0.1526
  498MPD2    H5 7410   1.155   0.857   9.583  0.1585  1.6080 -0.2040
  498MPD2    N1 7411   1.585   0.788   9.437 -0.2075  0.1779 -0.1462
  498MPD2    H7 7412   1.596   0.843   9.521  4.6813  0.5909 -1.0357
  499TMC3    C1 7413   1.820   0.799   9.458 -0.1344  0.2998  0.2356
  499TMC3    C2 7414   1.934   0.725   9.465  0.5331  0.4177 -0.2053
  499TMC3    C3 7415   2.048   0.771   9.532 -0.0057  0.3540 -0.2208
  499TMC3    C4 7416   1.811   0.919   9.519 -0.4107  0.6033 -0.5038
  499TMC3    C5 7417   1.922   0.955   9.591  0.0261  0.3110  0.8722
  499TMC3    C6 7418   2.044   0.891   9.593 -0.1706 -0.1199 -0.1709
  499TMC3     C 7419   1.704   0.745   9.385 -0.7090  0.1521 -0.6056
  499TMC3     O 7420   1.725   0.656   9.305 -0.3293  0.0296  0.2476
  499TMC3     H 7421   1.940   0.629   9.415  0.2569  1.6343 -2.5828
  499TMC3    H1 7422   1.719   0.974   9.504 -0.8968 -0.4859 -1.4912
  499TMC3    H2 7423   2.127   0.932   9.649  0.5493 -3.2667  1.0661
  499TMC3    C7 7424   1.927   1.092   9.648  0.1212  0.8411 -0.6212
  499TMC3    C8 7425   2.177   0.708   9.529  0.4048 -0.4809 -1.3783
  499TMC3    O1 7426   2.030   1.135   9.705  0.2679 -0.3107  0.0285
  499TMC3    O2 7427   2.256   0.761   9.604  0.6623  0.2429 -0.1310
  500MPD2     C 7428   3.047   3.019   9.730  0.2757 -0.1899 -0.4041
  500MPD2    C1 7429   2.983   3.125   9.791 -0.1814  0.1098  0.5323
  500MPD2    C2 7430   2.843   3.130   9.797 -1.0784 -0.4571  1.2642
  500MPD2    C3 7431   2.769   3.046   9.717 -0.2005  0.4301  0.0645
  500MPD2    C4 7432   2.841   2.952   9.642 -0.3493  0.3917 -0.4533
  500MPD2    C5 7433   2.971   2.933   9.660 -0.4755  0.1769  0.6707
  500MPD2     H 7434   2.796   3.210   9.854 -0.4558  2.1256 -1.8660
  500MPD2    H1 7435   2.782   2.869   9.606  1.4674 -1.1191  0.0768
  500MPD2    H2 7436   3.154   3.006   9.742  0.3304 -1.0059 -1.8321
  500MPD2    H3 7437   3.017   2.843   9.623 -2.8505 -1.9849  2.9561
  500MPD2     N 7438   2.630   3.046   9.711 -0.5450  0.1038 -0.6284
  500MPD2    H5 7439   2.580   2.970   9.665 -1.5573  1.2187 -1.3792
  500MPD2    N1 7440   3.044   3.220   9.872 -0.0667 -0.0834  0.1242
  500MPD2    H7 7441   2.990   3.291   9.921 -0.0099 -0.8678  1.3135
  501TMC3    C1 7442   3.217   3.339   9.981 -0.3008  0.3090  0.3210
  501TMC3    C2 7443   3.137   3.449   9.993  0.4954 -0.2901 -0.5354
  501TMC3    C3 7444   3.178   3.539  10.087 -0.6671 -0.7924  0.2990
  501TMC3    C4 7445   3.325   3.315  10.065  0.1224  0.0313 -0.0064
  501TMC3    C5 7446   3.351   3.405  10.157  0.1077 -0.0364 -0.0887
  501TMC3    C6 7447   3.282   3.521  10.174 -0.5490  0.1214  0.4687
  501TMC3     C 7448   3.179   3.223   9.903  0.4520  0.1104  0.2103
  501TMC3     O 7449   3.266   3.145   9.873 -0.2535  0.5580 -0.2375
  501TMC3     H 7450   3.052   3.475   9.932 -0.7319  1.0369  1.7527
  501TMC3    H1 7451   3.379   3.221  10.060 -0.0087 -0.1062  1.2313
  501TMC3    H2 7452   3.302   3.592  10.254  1.3553 -0.1248  0.2063
  501TMC3    C7 7453   3.440   3.369  10.269 -0.4967 -0.2134  0.0688
  501TMC3    C8 7454   3.063   3.596  10.155 -0.9954  0.0308  0.0856
  501TMC3    O1 7455   3.469   3.251  10.282 -0.0467 -0.3581  0.7726
  501TMC3    O2 7456   3.067   3.567  10.273  0.5154 -0.0215 -0.4461
  502TMC3    C1 7457   1.586   2.042  15.013 -0.3152  0.4618  0.3916
  502TMC3    C2 7458   1.519   2.048  14.893 -0.3222 -0.0206 -0.2442
  502TMC3    C3 7459   1.386   2.056  14.899  0.5092 -0.5515  0.5829
  502TMC3    C4 7460   1.521   2.017  15.133 -0.3797 -0.2745  0.1669
  502TMC3    C5 7461   1.383   2.006  15.132  0.3049 -0.2931  0.6717
  502TMC3    C6 7462   1.318   2.020  15.013 -0.1303 -0.3269 -0.1391
  502TMC3     C 7463   1.722   2.085  15.009 -0.3613 -0.1952  0.3543
  502TMC3     O 7464   1.786   2.073  14.908 -0.8189 -0.8089 -0.3513
  502TMC3     H 7465   1.572   2.087  14.807 -0.6365 -1.2075 -0.9698
  502TMC3    H1 7466   1.573   1.996  15.226  1.7305 -0.5935 -1.0703
  502TMC3    H2 7467   1.212   1.995  15.005  0.1132 -1.3915 -0.0296
  502TMC3    C7 7468   1.314   1.971  15.253  0.5380  0.0754 -0.5227
  502TMC3    C8 7469   1.332   2.158  14.818 -0.1360  0.6244  0.1118
  502TMC3    O1 7470   1.383   1.948  15.353 -0.0290  0.8401 -0.0680
  502TMC3    O2 7471   1.396   2.184  14.720  0.6696  0.1222 -0.0399
  503MPD2     C 7472   3.630   3.046  17.032  0.3976 -0.1455  0.2907
  503MPD2    C1 7473   3.715   3.082  17.137  0.1057 -0.2202  0.2943
  503MPD2    C2 7474   3.793   2.987  17.198 -0.0335  0.0330 -0.9264
  503MPD2    C3 7475   3.786   2.856  17.156 -0.0434 -0.0045 -0.5804
  503MPD2    C4 7476   3.699   2.817  17.050  0.9009  0.4552 -0.3635
  503MPD2    C5 7477   3.619   2.918  16.993  0.1044 -0.2390 -0.4666
  503MPD2     H 7478   3.856   3.015  17.281  0.7084  1.3038 -1.9154
  503MPD2    H1 7479   3.688   2.718  17.007 -0.1371 -0.2877  1.6154
  503MPD2    H2 7480   3.563   3.117  16.985  0.2447 -1.0186 -0.8066
  503MPD2    H3 7481   3.551   2.900  16.911  1.5028  1.6474 -2.0255
  503MPD2     N 7482   3.861   2.758  17.226  0.2721  0.5373  0.1274
  503MPD2    H5 7483   3.917   2.789  17.305 -2.0282  2.5198  0.9731
  503MPD2    N1 7484   3.723   3.216  17.182 -0.2974  0.7884 -0.2752
  503MPD2    H7 7485   3.788   3.239  17.257  0.6439 -0.5893 -0.6738
  504TMC3    C1 7486   4.005   2.586  17.257 -0.2509  0.2018  0.6925
  504TMC3    C2 7487   3.985   2.574  17.385 -0.2867  0.8924 -0.3626
  504TMC3    C3 7488   4.074   2.508  17.469 -0.3900  0.6285 -0.3443
  504TMC3    C4 7489   4.115   2.527  17.194  0.2689 -0.2882  0.7729
  504TMC3    C5 7490   4.200   2.467  17.282 -1.0513 -0.3293  0.0839
  504TMC3    C6 7491   4.190   2.455  17.414 -0.7368 -0.3541 -0.0708
  504TMC3     C 7492   3.898   2.636  17.177 -1.0194  0.7721  0.2103
  504TMC3     O 7493   3.886   2.596  17.063  0.9182  0.2925 -0.0150
  504TMC3     H 7494   3.890   2.597  17.431 -0.1739  0.0628  0.2709
  504TMC3    H1 7495   4.140   2.544  17.090  1.6021 -0.0434  1.1326
  504TMC3    H2 7496   4.255   2.386  17.466 -0.1258  0.8569  0.7541
  504TMC3    C7 7497   4.313   2.405  17.214  0.0542  0.5996  0.4205
  504TMC3    C8 7498   4.014   2.436  17.580  0.0683  0.0523  0.2343
  504TMC3    O1 7499   4.299   2.372  17.098  0.3500 -0.3703  0.0925
  504TMC3    O2 7500   3.892   2.423  17.579  0.2383 -0.0249 -0.4862
  505MPD2     C 7501   0.307   1.334  10.352 -0.6224  0.4447 -0.2579
  505MPD2    C1 7502   0.302   1.241  10.458  0.5609  0.2001  0.4935
  505MPD2    C2 7503   0.406   1.246  10.549  0.4013 -0.2310  0.0364
  505MPD2    C3 7504   0.514   1.333  10.542 -0.2732  0.6217 -0.3118
  505MPD2    C4 7505   0.513   1.414  10.430 -0.5309 -0.5734 -0.1090
  505MPD2    C5 7506   0.415   1.417  10.337  0.9007  0.1648  0.2473
  505MPD2     H 7507   0.402   1.166  10.622 -1.0706  0.1809  0.4044
  505MPD2    H1 7508   0.597   1.481  10.414 -1.2020  0.6612  1.5152
  505MPD2    H2 7509   0.224   1.342  10.283 -1.1526  0.3878  0.3744
  505MPD2    H3 7510   0.421   1.483  10.251  0.2821  0.9024  0.7578
  505MPD2     N 7511   0.621   1.320  10.633  0.0005 -0.3330 -0.0878
  505MPD2    H5 7512   0.614   1.249  10.705  2.9760  0.5675  1.1017
  505MPD2    N1 7513   0.188   1.151  10.464 -0.0861  0.8699 -0.1376
  505MPD2    H7 7514   0.133   1.146  10.379  1.9551  2.2677 -1.5294
  506TMC3    C1 7515   0.094   0.933  10.532  0.3148  0.0623 -0.2281
  506TMC3    C2 7516   0.099   0.893  10.399  0.4876 -0.2350  0.2943
  506TMC3    C3 7517   0.107   0.758  10.371  0.1638 -0.4525  0.4973
  506TMC3    C4 7518   0.086   0.843  10.634  0.3818 -0.1647  0.4783
  506TMC3    C5 7519   0.087   0.710  10.602  0.0783 -0.0435  0.1553
  506TMC3    C6 7520   0.091   0.669  10.472  0.2719 -0.6572 -0.0530
  506TMC3     C 7521   0.173   1.053  10.568 -0.1282  0.2023 -0.6778
  506TMC3     O 7522   0.235   1.040  10.673 -0.5274  0.4242  0.3022
  506TMC3     H 7523   0.108   0.971  10.324 -0.7565 -0.3219  0.0606
  506TMC3    H1 7524   0.075   0.880  10.735 -1.0059  3.0778 -0.8831
  506TMC3    H2 7525   0.076   0.562  10.460  0.2129 -0.6321 -0.2054
  506TMC3    C7 7526   0.175   0.625  10.686 -0.2246 -0.2697 -0.4856
  506TMC3    C8 7527   0.100   0.723  10.229 -0.1474  0.2670 -0.6608
  506TMC3    O1 7528   0.179   0.505  10.680  0.3075  0.2076 -0.3097
  506TMC3    O2 7529   0.072   0.607  10.198  0.0234 -0.0015  0.6830
  507TMC3    C1 7530   4.635   2.130  14.800  0.2249  0.7632 -0.2107
  507TMC3    C2 7531   4.632   2.115  14.666  0.2326  0.3894 -0.2856
  507TMC3    C3 7532   0.013   2.168  14.601 -0.3241  0.0119  0.4796
  507TMC3    C4 7533   0.008   2.205  14.870 -0.1274  0.9928  0.2996
  507TMC3    C5 7534   0.104   2.277  14.803 -0.0442 -0.3474  0.1728
  507TMC3    C6 7535   0.115   2.237  14.671  0.2573  0.5490 -0.6107
  507TMC3     C 7536   4.524   2.077  14.870 -0.2093 -0.5625 -0.8237
  507TMC3     O 7537   4.537   2.066  14.992  0.1565  0.1664  0.3225
  507TMC3     H 7538   4.567   2.045  14.615  0.9891 -3.1489  3.5354
  507TMC3    H1 7539   4.718   2.217  14.978 -2.1091  3.1761 -0.1424
  507TMC3    H2 7540   0.202   2.284  14.625  0.7972 -0.7953 -0.9632
  507TMC3    C7 7541   0.110   2.421  14.823 -0.0007  0.2599 -0.2428
  507TMC3    C8 7542   4.686   2.236  14.480 -0.8656  0.2187 -0.3476
  507TMC3    O1 7543   0.143   2.471  14.718  0.1457 -0.8223  0.0758
  507TMC3    O2 7544   4.624   2.173  14.395  0.1696  0.0044  0.1692
  508MPD2     C 7545   1.076   4.470  16.201  0.7495 -0.7236 -0.1274
  508MPD2    C1 7546   1.192   4.542  16.213  0.6570 -0.0559  0.1413
  508MPD2    C2 7547   1.212   4.660  16.138  0.0021  0.1987 -0.2623
  508MPD2    C3 7548   1.118   4.695  16.045  0.1377 -0.2055 -0.7288
  508MPD2    C4 7549   1.002   4.621  16.037  0.6231  0.3876 -0.3838
  508MPD2    C5 7550   0.979   4.513  16.120 -0.5059  1.1500  0.7820
  508MPD2     H 7551   1.295   0.007  16.156  1.0306 -1.1552 -0.0081
  508MPD2    H1 7552   0.911   4.642  15.982  0.5592  0.9123 -0.0809
  508MPD2    H2 7553   1.056   4.381  16.260 -0.0729  1.3700  2.7795
  508MPD2    H3 7554   0.884   4.461  16.124 -0.1611  0.2779 -2.1230
  508MPD2     N 7555   1.135   0.102  15.977 -0.3809 -0.1214  0.4349
  508MPD2    H5 7556   1.202   0.166  16.018 -0.0067 -1.2099  1.4970
  508MPD2    N1 7557   1.286   4.499  16.318  0.2634 -0.4209  0.1722
  508MPD2    H7 7558   1.252   4.427  16.381 -1.2136 -0.8758 -1.1610
  509TMC3    C1 7559   1.034   0.466  15.697  0.3776 -0.4784 -0.3412
  509TMC3    C2 7560   1.068   0.564  15.794  0.3328  0.0000  0.2072
  509TMC3    C3 7561   1.104   0.517  15.924 -0.3261  0.1145  0.8137
  509TMC3    C4 7562   1.017   0.336  15.730  0.3499 -0.0906  0.1446
  509TMC3    C5 7563   1.063   0.291  15.850 -1.1007 -0.0882  0.0096
  509TMC3    C6 7564   1.118   0.382  15.947 -0.4174 -0.4478 -0.1592
  509TMC3     C 7565   0.998   0.508  15.561  0.9961 -0.8952  0.3408
  509TMC3     O 7566   0.997   0.411  15.482  0.4156  0.2263  0.2275
  509TMC3     H 7567   1.087   0.667  15.767 -2.2590  0.5390  0.4939
  509TMC3    H1 7568   0.980   0.261  15.662 -0.5655  1.5312 -1.1464
  509TMC3    H2 7569   1.158   0.350  16.042  3.2867  0.9310 -1.2639
  509TMC3    C7 7570   1.060   0.145  15.867 -1.0351  0.5700  0.1589
  509TMC3    C8 7571   1.191   0.591  16.015 -0.4688  0.1925 -0.4007
  509TMC3    O1 7572   1.006   0.073  15.782 -0.7042  0.2330 -0.5686
  509TMC3    O2 7573   1.291   0.529  16.053  0.3721 -0.2793  0.0019
  510MPD2     C 7574   3.398   2.104  14.627  0.3403 -0.2806 -0.2266
  510MPD2    C1 7575   3.478   2.016  14.680 -1.0021  0.2469 -0.1814
  510MPD2    C2 7576   3.613   2.006  14.646 -0.3232 -0.0808 -0.4329
  510MPD2    C3 7577   3.667   2.099  14.559 -0.5531 -0.2120  0.0719
  510MPD2    C4 7578   3.579   2.179  14.489  0.5522  0.2826 -0.5523
  510MPD2    C5 7579   3.447   2.186  14.530  0.6203  0.7043  0.6286
  510MPD2     H 7580   3.686   1.940  14.692 -0.9714 -1.0614 -0.8201
  510MPD2    H1 7581   3.602   2.252  14.412  1.3832  0.1112 -0.4697
  510MPD2    H2 7582   3.295   2.119  14.657  0.9881  2.0782  0.7893
  510MPD2    H3 7583   3.374   2.245  14.476 -0.2381 -2.1234 -1.2803
  510MPD2     N 7584   3.806   2.105  14.531  0.3993 -0.2837  0.2973
  510MPD2    H5 7585   3.865   2.034  14.573 -1.7394 -0.7795  2.4494
  510MPD2    N1 7586   3.426   1.932  14.785  0.8971  0.3384  0.0633
  510MPD2    H7 7587   3.335   1.950  14.828  0.7040  0.9841 -0.6229
  511TMC3    C1 7588   3.422   1.756  14.945  0.0567  0.3392 -0.4583
  511TMC3    C2 7589   3.343   1.823  15.029  0.2924 -0.2169  0.4294
  511TMC3    C3 7590   3.256   1.749  15.099 -0.2991 -0.8105 -0.2411
  511TMC3    C4 7591   3.424   1.621  14.928  0.1578 -0.1638  0.3501
  511TMC3    C5 7592   3.334   1.549  15.010 -0.6211  0.2001 -0.2043
  511TMC3    C6 7593   3.243   1.610  15.093 -0.7903  0.3933 -0.4941
  511TMC3     C 7594   3.490   1.823  14.838 -0.2168 -0.7912  0.3572
  511TMC3     O 7595   3.593   1.767  14.796 -0.6623  0.2080  1.0452
  511TMC3     H 7596   3.344   1.930  15.041 -0.7082 -0.1713  0.1302
  511TMC3    H1 7597   3.488   1.570  14.857  0.8349  1.7158 -0.3985
  511TMC3    H2 7598   3.177   1.558  15.162  1.8013  0.3645  1.9481
  511TMC3    C7 7599   3.304   1.412  14.972  0.4282 -0.1472 -0.4151
  511TMC3    C8 7600   3.174   1.813  15.195  0.6322 -0.1597 -0.0438
  511TMC3    O1 7601   3.349   1.385  14.860 -0.4054 -0.7216  0.0585
  511TMC3    O2 7602   3.143   1.927  15.169 -0.1699  0.0898 -0.1387
  512TMC3    C1 7603   3.272   0.978  13.581  0.9404 -0.4144 -0.2464
  512TMC3    C2 7604   3.344   1.042  13.681 -0.2567 -0.4913  0.5919
  512TMC3    C3 7605   3.326   1.002  13.811  0.4760  0.1083  0.8271
  512TMC3    C4 7606   3.187   0.881  13.609 -0.9737  0.0599  0.2635
  512TMC3    C5 7607   3.155   0.854  13.741 -0.6386  0.1164  0.0731
  512TMC3    C6 7608   3.222   0.915  13.843 -0.6557  0.3535 -0.1525
  512TMC3     C 7609   3.330   0.967  13.446 -0.0411 -0.7939 -0.2927
  512TMC3     O 7610   3.297   0.875  13.373 -0.3055 -0.2146  0.4370
  512TMC3     H 7611   3.444   1.082  13.670 -0.2161 -0.9356 -0.6322
  512TMC3    H1 7612   3.137   0.821  13.534 -0.0190 -0.5965  0.1562
  512TMC3    H2 7613   3.204   0.896  13.948 -1.3483  2.0239  0.0234
  512TMC3    C7 7614   3.028   0.802  13.771 -0.7980  0.4923  0.0130
  512TMC3    C8 7615   3.406   1.051  13.921 -0.7853  0.3506  0.0503
  512TMC3    O1 7616   2.979   0.831  13.880 -0.8172  0.3057  0.0737
  512TMC3    O2 7617   3.417   0.974  14.017  0.4620  0.2844 -0.0607
  513MPD2     C 7618   0.172   1.107  12.934  0.6213 -0.3278 -0.3457
  513MPD2    C1 7619   0.304   1.133  12.936  0.3076  0.9554 -0.1717
  513MPD2    C2 7620   0.362   1.199  13.041  0.1750  0.6499  0.3303
  513MPD2    C3 7621   0.283   1.228  13.151  0.1014  0.1884  0.2464
  513MPD2    C4 7622   0.149   1.198  13.157 -0.3287  0.0553 -0.4265
  513MPD2    C5 7623   0.097   1.143  13.044  0.0095 -0.0093  0.4141
  513MPD2     H 7624   0.467   1.228  13.050  0.2673 -0.3109  2.3297
  513MPD2    H1 7625   0.088   1.216  13.245  1.1013 -1.4517  0.8674
  513MPD2    H2 7626   0.132   1.057  12.846 -0.5729  2.2996 -1.2650
  513MPD2    H3 7627   4.710   1.130  13.044  0.0409 -0.3148  1.3074
  513MPD2     N 7628   0.350   1.287  13.265 -0.3755  0.4523 -0.1244
  513MPD2    H5 7629   0.450   1.303  13.257 -0.3504 -0.0276 -0.8311
  513MPD2    N1 7630   0.394   1.109  12.834  0.2638 -0.0742 -0.5116
  513MPD2    H7 7631   0.490   1.127  12.863  0.2938  2.5608 -2.2006
  514TMC3    C1 7632   0.502   0.990  12.654 -0.1777  0.2626  0.3622
  514TMC3    C2 7633   0.508   0.856  12.632 -0.1834 -0.8007  0.1293
  514TMC3    C3 7634   0.616   0.786  12.670 -0.0690 -0.2967 -0.6529
  514TMC3    C4 7635   0.607   1.056  12.714  0.1748 -0.3919 -0.0846
  514TMC3    C5 7636   0.703   0.975  12.772  0.6160 -0.8790 -0.6193
  514TMC3    C6 7637   0.708   0.839  12.754  0.2181  0.1366 -0.1495
  514TMC3     C 7638   0.377   1.034  12.719  0.8189 -0.4860 -0.4045
  514TMC3     O 7639   0.278   0.972  12.686  0.2741  0.1406  0.6284
  514TMC3     H 7640   0.426   0.810  12.578 -0.4600 -0.1328 -0.0255
  514TMC3    H1 7641   0.615   1.164  12.710 -1.6998 -0.1764  2.0871
  514TMC3    H2 7642   0.791   0.779  12.788  2.0193  1.9996 -1.2861
  514TMC3    C7 7643   0.730   1.033  12.901  0.4578  0.5879  0.1205
  514TMC3    C8 7644   0.657   0.683  12.578  0.1264  0.2613 -0.7455
  514TMC3    O1 7645   0.651   1.115  12.935  0.0414 -0.4038  0.3477
  514TMC3    O2 7646   0.724   0.591  12.619 -0.2287 -0.4124  0.2573
  515MPD2     C 7647   2.095   2.937  15.021 -1.3564 -0.3275 -0.3267
  515MPD2    C1 7648   2.171   2.927  14.905  0.2700  0.3181  0.1645
  515MPD2    C2 7649   2.289   2.997  14.888 -0.6535  0.8725  0.0536
  515MPD2    C3 7650   2.337   3.077  14.986 -0.5736 -0.0515 -0.6742
  515MPD2    C4 7651   2.264   3.081  15.105 -0.3798 -0.0591  0.5456
  515MPD2    C5 7652   2.152   3.012  15.120 -0.2671 -0.4147  0.0367
  515MPD2     H 7653   2.343   2.996  14.794  0.2210  0.7850  0.5616
  515MPD2    H1 7654   2.294   3.139  15.192 -3.0647  0.6417  0.9957
  515MPD2    H2 7655   2.001   2.889  15.044 -1.4412 -0.3743 -0.7721
  515MPD2    H3 7656   2.102   3.010  15.216 -0.2793 -2.1103  0.0017
  515MPD2     N 7657   2.461   3.149  14.971 -0.1541 -0.0979 -0.1155
  515MPD2    H5 7658   2.493   3.208  15.047 -0.5285 -0.0230 -0.0160
  515MPD2    N1 7659   2.143   2.832  14.799 -0.0874  0.2881 -0.1570
  515MPD2    H7 7660   2.222   2.819  14.737 -0.9897  0.8586 -1.4313
  516TMC3    C1 7661   2.029   2.701  14.642  0.4436  0.1531 -0.3862
  516TMC3    C2 7662   2.143   2.731  14.565 -0.7627  0.4986  0.3734
  516TMC3    C3 7663   2.187   2.627  14.481 -0.2365  0.2971  0.1503
  516TMC3    C4 7664   1.965   2.583  14.636  0.5055  0.0884 -0.2151
  516TMC3    C5 7665   2.010   2.484  14.560 -0.4693 -0.3574  0.0322
  516TMC3    C6 7666   2.116   2.506  14.477 -0.4638 -0.1564  0.5955
  516TMC3     C 7667   2.022   2.768  14.768 -0.0157 -0.7856 -0.1188
  516TMC3     O 7668   1.920   2.760  14.833 -0.0529  0.1037  0.1340
  516TMC3     H 7669   2.181   2.833  14.557 -0.7769  0.5628  1.1467
  516TMC3    H1 7670   1.877   2.558  14.694 -0.4940  1.3124 -1.2148
  516TMC3    H2 7671   2.163   2.427  14.420  0.3435  0.9749 -0.3006
  516TMC3    C7 7672   1.974   2.345  14.585 -0.0618 -0.3928 -0.1444
  516TMC3    C8 7673   2.255   2.662  14.363  0.3407 -0.3798  0.3749
  516TMC3    O1 7674   1.915   2.331  14.691  0.1144  0.0840  0.5254
  516TMC3    O2 7675   2.236   2.594  14.261 -0.2856  0.3320  0.8213
  517MPD2     C 7676   2.147   4.692   0.163 -0.4065  0.0550  0.7196
  517MPD2    C1 7677   2.259   4.657   0.235  0.2963  0.1402 -0.9005
  517MPD2    C2 7678   2.317   0.039   0.315 -0.3458 -0.0843 -0.3881
  517MPD2    C3 7679   2.250   0.161   0.339  0.9384 -0.7489 -0.0566
  517MPD2    C4 7680   2.131   0.188   0.279 -1.1673 -0.1687 -0.1643
  517MPD2    C5 7681   2.083   0.092   0.187 -0.0712  0.1776 -0.3599
  517MPD2     H 7682   2.407   0.014   0.370  0.9097 -0.5133 -2.6357
  517MPD2    H1 7683   2.079   0.283   0.276  1.4420  1.1899 -2.1908
  517MPD2    H2 7684   2.101   4.630   0.087 -1.3798  1.9699 -0.2399
  517MPD2    H3 7685   1.996   0.115   0.126  0.4310 -0.6478 -1.4005
  517MPD2     N 7686   2.300   0.264   0.419  0.1506  0.4463  0.5843
  517MPD2    H5 7687   2.236   0.337   0.446  0.5601  1.7023 -1.8438
  517MPD2    N1 7688   2.324   4.531   0.213 -0.7385 -0.6545  1.1306
  517MPD2    H7 7689   2.409   4.514   0.265 -1.7551 -0.7974  2.7654
  518TMC3    C1 7690   2.370   4.329   0.104 -0.1652  0.6242  0.4387
  518TMC3    C2 7691   2.327   4.234   0.016 -0.4627  0.4660 -0.4677
  518TMC3    C3 7692   2.419   4.167  17.620 -0.2961  0.0539 -0.8499
  518TMC3    C4 7693   2.499   4.351   0.127 -0.3731 -0.2655  0.3486
  518TMC3    C5 7694   2.590   4.280   0.049  0.1271  0.4579  0.1901
  518TMC3    C6 7695   2.554   4.189  17.631 -0.1631 -0.8114 -0.9449
  518TMC3     C 7696   2.275   4.429   0.140 -0.6172  0.2166 -0.0409
  518TMC3     O 7697   2.160   4.418   0.099 -0.1210 -0.4525  0.4521
  518TMC3     H 7698   2.222   4.215   0.003 -0.3105  0.3350 -1.4644
  518TMC3    H1 7699   2.535   4.440   0.177 -1.3058  0.3224 -0.0352
  518TMC3    H2 7700   2.630   4.155  17.561  2.1525  2.2307  0.0904
  518TMC3    C7 7701   2.728   4.295   0.086  1.0380  0.2603  0.0589
  518TMC3    C8 7702   2.383   4.049  17.540  0.8312  0.0029  0.4765
  518TMC3    O1 7703   2.756   4.368   0.176 -0.2169 -0.2962 -0.0256
  518TMC3    O2 7704   2.480   3.980  17.500  1.0405  0.3093 -0.0672
  519MPD2     C 7705   3.831   3.107  14.079 -0.0865  0.1772 -0.2698
  519MPD2    C1 7706   3.775   3.026  13.979  0.3519  0.1304 -0.4944
  519MPD2    C2 7707   3.826   2.905  13.941 -0.1848  0.4381 -0.4260
  519MPD2    C3 7708   3.934   2.858  14.009 -0.6147 -0.8689  0.9082
  519MPD2    C4 7709   3.991   2.942  14.098 -0.3179  0.5132  0.2182
  519MPD2    C5 7710   3.942   3.064  14.134 -0.3224  1.2113 -0.4427
  519MPD2     H 7711   3.781   2.850  13.859  0.9358 -0.0926 -0.6814
  519MPD2    H1 7712   4.087   2.914  14.142  0.8554  1.2192 -1.8751
  519MPD2    H2 7713   3.799   3.204  14.117 -1.5822 -0.2925 -0.3294
  519MPD2    H3 7714   3.986   3.124  14.213 -0.1831 -0.8691  1.0796
  519MPD2     N 7715   3.996   2.731  13.989 -0.8356  0.1862  0.2829
  519MPD2    H5 7716   4.085   2.719  14.036  0.6612  2.6795 -1.8653
  519MPD2    N1 7717   3.662   3.075  13.915 -0.3797  0.3957  0.4318
  519MPD2    H7 7718   3.618   3.157  13.958 -0.9763  0.9099 -1.1388
  520TMC3    C1 7719   4.031   2.533  13.861  0.0446 -0.2619  0.2807
  520TMC3    C2 7720   3.983   2.466  13.754 -0.0516  0.6130 -0.4371
  520TMC3    C3 7721   4.018   2.332  13.740 -0.1274  0.0495 -0.2501
  520TMC3    C4 7722   4.120   2.470  13.947 -0.2764  0.1503 -0.1389
  520TMC3    C5 7723   4.156   2.337  13.924  0.2725 -0.0993 -0.2708
  520TMC3    C6 7724   4.114   2.271  13.815  0.3578  0.1815 -0.1871
  520TMC3     C 7725   3.943   2.640  13.902 -0.2750 -0.3858 -0.7563
  520TMC3     O 7726   3.828   2.630  13.864 -0.1560  0.0039 -0.3393
  520TMC3     H 7727   3.916   2.517  13.686 -1.2811  0.0297  0.3492
  520TMC3    H1 7728   4.148   2.515  14.041 -2.0737  0.6815  0.1487
  520TMC3    H2 7729   4.142   2.166  13.814 -1.1674 -0.2211 -0.6846
  520TMC3    C7 7730   4.278   2.284  13.979 -0.0906  0.4828  0.0788
  520TMC3    C8 7731   3.980   2.279  13.611  0.9844 -0.1259 -0.0901
  520TMC3    O1 7732   4.267   2.185  14.050  0.3728 -0.2780 -0.2606
  520TMC3    O2 7733   4.070   2.239  13.542 -0.0292  0.0485 -0.0476
  521MPD2     C 7734   0.363   0.613   0.062  0.1282 -0.5879 -0.9109
  521MPD2    C1 7735   0.289   0.544  17.653  0.4374  0.0827 -0.0647
  521MPD2    C2 7736   0.353   0.481  17.546 -0.6962  0.4716  0.0155
  521MPD2    C3 7737   0.487   0.480  17.537 -0.2806 -0.7149  0.0044
  521MPD2    C4 7738   0.561   0.552  17.629  0.1749 -0.3770  0.3779
  521MPD2    C5 7739   0.495   0.625   0.044  0.2244  0.0590  0.1490
  521MPD2     H 7740   0.297   0.418  17.478  1.8774 -0.2980 -1.3686
  521MPD2    H1 7741   0.669   0.560  17.630  0.1472 -0.0566  1.4376
  521MPD2    H2 7742   0.321   0.663   0.148  1.1240  1.1308 -1.4139
  521MPD2    H3 7743   0.557   0.672   0.119  1.1623 -0.7791 -0.1046
  521MPD2     N 7744   0.538   0.392  17.441 -0.1361  0.4471  0.0729
  521MPD2    H5 7745   0.471   0.334  17.392  1.7018  0.2468 -2.1957
  521MPD2    N1 7746   0.147   0.534  17.678 -0.0557 -0.0743  0.8610
  521MPD2    H7 7747   0.122   0.562   0.088 -0.7160  2.1215  0.0097
  522TMC3    C1 7748   0.695   0.251  17.336  0.5202 -0.4950 -0.4019
  522TMC3    C2 7749   0.807   0.172  17.369  0.3266  0.8020  0.3513
  522TMC3    C3 7750   0.863   0.094  17.274 -0.4420 -0.0989 -0.0503
  522TMC3    C4 7751   0.648   0.270  17.208  0.3617  0.2567 -0.3836
  522TMC3    C5 7752   0.704   0.181  17.118  0.2734 -0.2223 -0.9196
  522TMC3    C6 7753   0.801   0.092  17.155 -0.3707 -0.3177 -0.4388
  522TMC3     C 7754   0.672   0.359  17.429 -0.5987  0.2600 -1.4536
  522TMC3     O 7755   0.766   0.399  17.495 -0.8034  0.6312  0.1188
  522TMC3     H 7756   0.837   0.169  17.473 -0.4823  1.9493  0.6131
  522TMC3    H1 7757   0.586   0.358  17.196  2.1949  1.6922  0.6165
  522TMC3    H2 7758   0.832   0.018  17.082 -3.7042 -1.7237 -0.4614
  522TMC3    C7 7759   0.710   0.228  16.976  0.0246 -0.6312  0.0804
  522TMC3    C8 7760   0.977   0.010  17.308  0.0779  0.4731  0.1087
  522TMC3    O1 7761   0.785   0.166  16.903  0.6061 -0.0717 -0.5094
  522TMC3    O2 7762   1.014   0.011  17.424 -0.1802 -0.4529 -0.1560
  523MPD2     C 7763   2.737   4.410  10.176 -0.2119 -0.1103  0.5410
  523MPD2    C1 7764   2.789   4.380  10.058 -0.7308 -0.0649  0.0614
  523MPD2    C2 7765   2.705   4.389   9.946  0.3206  0.8506 -0.0865
  523MPD2    C3 7766   2.576   4.444   9.956 -0.4843  0.0282  0.4950
  523MPD2    C4 7767   2.529   4.492  10.077 -0.1551 -0.2528 -0.1938
  523MPD2    C5 7768   2.613   4.468  10.187  0.1099  0.4201 -0.0694
  523MPD2     H 7769   2.739   4.363   9.846  0.6146 -1.0439  0.5073
  523MPD2    H1 7770   2.430   4.533  10.093  0.2006  0.8781 -0.8846
  523MPD2    H2 7771   2.795   4.393  10.266  0.2252  2.0925  0.6953
  523MPD2    H3 7772   2.571   4.493  10.283 -2.2244 -0.0393 -0.9615
  523MPD2     N 7773   2.487   4.446   9.846  0.1875  0.1533  0.4793
  523MPD2    H5 7774   2.405   4.506   9.844  1.7898  2.2262 -2.6727
  523MPD2    N1 7775   2.924   4.327  10.054 -0.3555  0.6877  0.2905
  523MPD2    H7 7776   2.981   4.325  10.139  0.2816  0.2369 -0.1455
  524TMC3    C1 7777   2.420   4.382   9.625 -0.3052 -0.2438  0.0227
  524TMC3    C2 7778   2.392   4.272   9.550  0.7597  0.9378  0.7840
  524TMC3    C3 7779   2.302   4.300   9.448  0.5821  0.4388  0.1809
  524TMC3    C4 7780   2.374   4.509   9.606 -0.5213 -0.5718 -0.5672
  524TMC3    C5 7781   2.305   4.532   9.487 -0.4883  0.4329  0.7201
  524TMC3    C6 7782   2.254   4.426   9.410 -0.5073  0.1140  0.4636
  524TMC3     C 7783   2.509   4.367   9.732  0.2387  0.1993  0.5821
  524TMC3     O 7784   2.568   4.259   9.731  0.7636  0.0998  0.1336
  524TMC3     H 7785   2.402   4.174   9.597 -1.8875 -0.0168 -0.6517
  524TMC3    H1 7786   2.414   4.592   9.662  0.3709 -1.4524  0.0935
  524TMC3    H2 7787   2.193   4.448   9.324  1.3096 -0.6621 -1.0302
  524TMC3    C7 7788   2.238   4.659   9.470  0.0918 -0.1905  0.3222
  524TMC3    C8 7789   2.276   4.190   9.357  0.2209 -0.4143 -0.9376
  524TMC3    O1 7790   2.241   0.010   9.569 -0.7612 -0.0730  0.5026
  524TMC3    O2 7791   2.183   4.198   9.282  0.3839 -0.6018  0.3735
  525MPD2     C 7792   0.358   2.120  14.379 -0.0833  0.0137  0.1559
  525MPD2    C1 7793   0.478   2.141  14.442  0.5532 -0.3155 -0.7673
  525MPD2    C2 7794   0.561   2.241  14.394  0.6584 -0.5862  0.6582
  525MPD2    C3 7795   0.505   2.337  14.317  0.5723  0.0419 -0.3527
  525MPD2    C4 7796   0.381   2.312  14.252 -0.3761  0.2188  0.5408
  525MPD2    C5 7797   0.306   2.212  14.290 -0.5762 -0.1750  0.3705
  525MPD2     H 7798   0.660   2.256  14.437  0.1552  2.8540  0.5886
  525MPD2    H1 7799   0.332   2.386  14.189 -2.7161  0.0725  2.1951
  525MPD2    H2 7800   0.294   2.037  14.407 -1.1300  0.1392 -1.8719
  525MPD2    H3 7801   0.206   2.202  14.250 -1.0696 -0.6882  1.7115
  525MPD2     N 7802   0.572   2.457  14.305  0.1136 -0.0415  0.7046
  525MPD2    H5 7803   0.650   2.461  14.369 -0.1097  1.4036  0.8858
  525MPD2    N1 7804   0.532   2.054  14.536 -0.2218  0.9005  0.8512
  525MPD2    H7 7805   0.626   2.071  14.572  0.2401  0.1749 -0.0289
  526TMC3    C1 7806   0.560   1.875  14.683  0.2259  0.3247  1.0497
  526TMC3    C2 7807   0.513   1.820  14.801 -0.8855  0.7705 -0.3335
  526TMC3    C3 7808   0.611   1.782  14.894  0.1301 -0.3937 -0.5319
  526TMC3    C4 7809   0.692   1.867  14.648  0.3381  0.1880  0.2166
  526TMC3    C5 7810   0.778   1.819  14.745 -0.0779 -0.8948  0.3852
  526TMC3    C6 7811   0.742   1.784  14.868 -0.3554  0.4856 -0.7326
  526TMC3     C 7812   0.464   1.956  14.601  0.2402 -0.2224  0.2423
  526TMC3     O 7813   0.344   1.936  14.612 -0.5089 -0.1466 -0.3798
  526TMC3     H 7814   0.408   1.823  14.827 -0.3846  2.0769  1.4461
  526TMC3    H1 7815   0.719   1.896  14.548  0.5952  2.6185  0.9997
  526TMC3    H2 7816   0.818   1.736  14.929 -0.5693  1.8271  0.5822
  526TMC3    C7 7817   0.924   1.848  14.725 -0.5292  0.0941  0.0200
  526TMC3    C8 7818   0.555   1.758  15.026  0.4769 -0.9398  0.5112
  526TMC3    O1 7819   0.985   1.893  14.821 -0.4830  0.2250  0.8344
  526TMC3    O2 7820   0.435   1.770  15.042  0.0939 -1.0859  0.4689
  527MPD2     C 7821   0.124   0.798   1.258 -0.0800 -0.0923  0.5599
  527MPD2    C1 7822   0.077   0.669   1.289  0.0691  0.1757 -0.1780
  527MPD2    C2 7823   0.067   0.570   1.197  0.8544 -0.3090 -0.7282
  527MPD2    C3 7824   0.117   0.597   1.066 -0.6488 -0.0474 -0.3109
  527MPD2    C4 7825   0.176   0.718   1.039 -0.5870  0.1955  0.5236
  527MPD2    C5 7826   0.163   0.816   1.129  0.1968  0.4216  1.1483
  527MPD2     H 7827   0.015   0.478   1.223  2.6233 -1.2935 -0.6687
  527MPD2    H1 7828   0.216   0.737   0.940  0.0569 -0.8211  0.5893
  527MPD2    H2 7829   0.127   0.881   1.327 -1.8751 -3.2792  4.5339
  527MPD2    H3 7830   0.214   0.907   1.100 -3.0176  2.0901  0.8629
  527MPD2     N 7831   0.100   0.496   0.969  0.4667 -0.0506 -0.6279
  527MPD2    H5 7832   0.052   0.414   1.005  0.5413  0.3237  0.3407
  527MPD2    N1 7833   0.043   0.638   1.422  0.3017 -0.0328 -0.3550
  527MPD2    H7 7834   4.714   0.553   1.446  2.3595 -1.9973 -3.0621
  528TMC3    C1 7835   0.063   0.651   1.656  0.0893 -0.4622  0.3402
  528TMC3    C2 7836   0.081   0.727   1.765  0.4518  0.0945  0.6943
  528TMC3    C3 7837   0.063   0.676   1.891 -0.0730 -0.3895 -0.7631
  528TMC3    C4 7838   0.017   0.524   1.673 -0.3235 -0.5425 -0.2160
  528TMC3    C5 7839   4.719   0.471   1.798  0.2626 -0.9337 -0.3192
  528TMC3    C6 7840   0.007   0.554   1.912 -0.1498  0.6738  0.8000
  528TMC3     C 7841   0.064   0.725   1.528 -0.2765  0.2402  0.6086
  528TMC3     O 7842   0.142   0.824   1.535 -0.0134 -0.0153 -0.4707
  528TMC3     H 7843   0.129   0.824   1.758 -0.7969  0.6205 -0.7927
  528TMC3    H1 7844   0.008   0.461   1.586 -1.3074 -0.2805 -0.3033
  528TMC3    H2 7845   0.008   0.516   2.013 -0.4129 -0.3648  0.4113
  528TMC3    C7 7846   4.636   0.350   1.797 -0.6068 -0.5845 -0.5101
  528TMC3    C8 7847   0.067   0.776   2.001  0.6430  0.9683 -0.3256
  528TMC3    O1 7848   4.633   0.284   1.693  0.0448 -0.8584  0.1361
  528TMC3    O2 7849   0.093   0.889   1.972 -0.3992 -0.6917  0.7222
  529MPD2     C 7850   1.267   4.264   0.771  0.0558  0.6323  0.0205
  529MPD2    C1 7851   1.302   4.140   0.737 -0.0757  0.1863  0.3672
  529MPD2    C2 7852   1.303   4.098   0.608 -0.1130  0.4440 -0.6603
  529MPD2    C3 7853   1.262   4.184   0.507 -0.6542  0.1571  0.2636
  529MPD2    C4 7854   1.224   4.313   0.537 -0.2135 -0.1836  0.2975
  529MPD2    C5 7855   1.228   4.349   0.668  0.2658  0.5007 -0.7772
  529MPD2     H 7856   1.330   3.995   0.588  1.9595  0.9469 -0.4850
  529MPD2    H1 7857   1.187   4.383   0.463 -0.5911  1.6285  2.1819
  529MPD2    H2 7858   1.262   4.304   0.872 -0.6368  0.3540  0.0954
  529MPD2    H3 7859   1.189   4.447   0.692  0.0961  0.9960 -3.0320
  529MPD2     N 7860   1.244   4.143   0.374  0.6968  0.0526 -0.0993
  529MPD2    H5 7861   1.215   4.221   0.315  0.4583  1.1497  1.4829
  529MPD2    N1 7862   1.331   4.042   0.832 -0.1438 -0.2538 -0.0178
  529MPD2    H7 7863   1.352   3.947   0.806 -1.5757 -1.1884  2.2239
  530TMC3    C1 7864   1.422   3.954   1.027 -0.0664  0.2390 -0.4721
  530TMC3    C2 7865   1.491   3.968   1.143  0.2432 -0.3788  0.3908
  530TMC3    C3 7866   1.544   3.857   1.205  0.0551  0.3248  0.1810
  530TMC3    C4 7867   1.413   3.828   0.970 -0.1847  0.3637 -0.1304
  530TMC3    C5 7868   1.457   3.717   1.042 -0.7462  0.0815  0.0307
  530TMC3    C6 7869   1.529   3.726   1.157 -0.5127 -0.2582  0.2434
  530TMC3     C 7870   1.371   4.074   0.964  0.2099  0.4158 -0.5231
  530TMC3     O 7871   1.392   4.181   1.020  0.3243 -0.2743 -0.4386
  530TMC3     H 7872   1.490   4.065   1.192  0.3747 -0.6195  0.8757
  530TMC3    H1 7873   1.338   3.803   0.895 -0.2670  0.9167 -0.2281
  530TMC3    H2 7874   1.564   3.648   1.224 -2.7650 -0.3915  1.2658
  530TMC3    C7 7875   1.422   3.583   0.994  0.1633 -0.2973  0.2744
  530TMC3    C8 7876   1.609   3.893   1.332  0.2815 -0.7253 -0.3075
  530TMC3    O1 7877   1.367   3.574   0.885 -0.2929  0.1195  0.4676
  530TMC3    O2 7878   1.581   4.002   1.377 -0.2520  0.1902 -0.2651
  531MPD2     C 7879   0.983   1.127  13.343 -0.4886 -0.2510 -0.9948
  531MPD2    C1 7880   0.873   1.188  13.286 -0.7026  0.2196  0.6468
  531MPD2    C2 7881   0.831   1.140  13.162 -0.0574 -0.2502 -0.6968
  531MPD2    C3 7882   0.888   1.036  13.095 -0.2545 -0.1764  0.3230
  531MPD2    C4 7883   1.002   0.976  13.154 -0.0685  0.1812 -0.3673
  531MPD2    C5 7884   1.040   1.019  13.279 -0.5781 -0.1023 -0.2668
  531MPD2     H 7885   0.748   1.184  13.108  0.1969 -2.5001 -2.9336
  531MPD2    H1 7886   1.053   0.890  13.112 -0.2722 -1.0430  1.9353
  531MPD2    H2 7887   1.027   1.165  13.434  0.6404 -2.5321 -0.5914
  531MPD2    H3 7888   1.125   0.967  13.322 -0.1811  0.5952 -0.2022
  531MPD2     N 7889   0.839   0.986  12.965 -0.4252  0.4087 -0.8035
  531MPD2    H5 7890   0.908   0.924  12.922  1.4182  1.2349  0.9530
  531MPD2    N1 7891   0.815   1.291  13.353 -0.4268  0.3115 -0.3416
  531MPD2    H7 7892   0.846   1.312  13.447 -0.0299  0.2672 -0.4625
  532TMC3    C1 7893   0.628   1.408  13.435 -0.6063  0.2767 -0.3616
  532TMC3    C2 7894   0.501   1.450  13.394  0.1461  0.0171 -0.4469
  532TMC3    C3 7895   0.390   1.400  13.464 -0.8254 -0.0233  0.1404
  532TMC3    C4 7896   0.643   1.331  13.547  0.5865  0.1682 -0.1914
  532TMC3    C5 7897   0.525   1.287  13.612  0.0629  0.0556 -0.7293
  532TMC3    C6 7898   0.401   1.322  13.571 -0.4006 -0.4341 -0.6816
  532TMC3     C 7899   0.696   1.353  13.317  0.3916  0.3601  0.4929
  532TMC3     O 7900   0.622   1.351  13.221 -0.3454  0.7501 -0.3855
  532TMC3     H 7901   0.483   1.508  13.304  0.9623 -0.2917 -0.8133
  532TMC3    H1 7902   0.747   1.316  13.576  0.6673 -2.3282 -1.8057
  532TMC3    H2 7903   0.322   1.267  13.620 -0.3989 -1.1149 -1.4415
  532TMC3    C7 7904   0.532   1.225  13.742 -0.3412  0.3334  1.0644
  532TMC3    C8 7905   0.292   1.336  13.378  0.0383 -0.1234  0.7371
  532TMC3    O1 7906   0.433   1.238  13.814 -0.3204  0.8355 -0.4293
  532TMC3    O2 7907   0.183   1.318  13.428 -0.0029 -0.9518  0.0679
  533TMC3    C1 7908   0.611   2.679  14.272  0.2294  1.0757 -0.5726
  533TMC3    C2 7909   0.727   2.732  14.232 -0.1653  0.0610  0.0064
  533TMC3    C3 7910   0.797   2.810  14.320  0.0275 -0.7549  0.1638
  533TMC3    C4 7911   0.556   2.698  14.396  0.0954 -0.0873  0.2017
  533TMC3    C5 7912   0.635   2.765  14.488  0.1970 -0.4538 -0.2227
  533TMC3    C6 7913   0.753   2.823  14.451 -0.4677  0.1060  0.8514
  533TMC3     C 7914   0.557   2.559  14.205 -0.2723 -0.1843 -0.4954
  533TMC3     O 7915   0.500   2.565  14.098 -0.0359  0.0728  0.3170
  533TMC3     H 7916   0.761   2.676  14.146  1.0994  0.5553  0.1852
  533TMC3    H1 7917   0.460   2.653  14.420 -0.0359 -0.9679 -1.9220
  533TMC3    H2 7918   0.789   2.907  14.509 -0.9756  0.5431  0.5405
  533TMC3    C7 7919   0.615   2.717  14.626 -0.5666  0.2162 -0.0494
  533TMC3    C8 7920   0.916   2.874  14.283 -0.2285  0.3164  0.8080
  533TMC3    O1 7921   0.518   2.655  14.651  0.0731  0.0759  0.1936
  533TMC3    O2 7922   0.955   2.957  14.363 -0.7121 -0.0571 -0.4182
  534MPD2     C 7923   3.399   2.931   1.268  0.1471  0.5435  1.1392
  534MPD2    C1 7924   3.427   3.062   1.290 -0.0478  0.2246 -0.2970
  534MPD2    C2 7925   3.370   3.149   1.205  0.4072  0.2205  0.3247
  534MPD2    C3 7926   3.296   3.117   1.095  0.6486  0.3022  0.1879
  534MPD2    C4 7927   3.265   2.980   1.075 -0.6618  0.1495  0.3809
  534MPD2    C5 7928   3.312   2.885   1.161 -0.2980 -0.8193 -0.5207
  534MPD2     H 7929   3.382   3.254   1.232  1.8570 -0.4547  2.3299
  534MPD2    H1 7930   3.192   2.957   0.998 -1.3602  2.2361  0.4047
  534MPD2    H2 7931   3.430   2.852   1.335 -2.1023 -2.1034 -0.9101
  534MPD2    H3 7932   3.278   2.783   1.150  0.6289 -1.3837  1.6912
  534MPD2     N 7933   3.233   3.206   1.005 -0.3179 -0.4256  0.0615
  534MPD2    H5 7934   3.191   3.161   0.923 -0.0866 -1.8639  0.7235
  534MPD2    N1 7935   3.479   3.117   1.403  0.2958 -0.9707  0.1292
  534MPD2    H7 7936   3.487   3.219   1.402 -2.3122 -0.7953 -2.5070
  535TMC3    C1 7937   3.133   3.404   0.930 -0.5578  0.5995 -0.5388
  535TMC3    C2 7938   3.050   3.495   0.987  0.2266 -0.8901  0.5079
  535TMC3    C3 7939   2.988   3.581   0.901 -0.2090  0.0881  0.6966
  535TMC3    C4 7940   3.153   3.388   0.797 -0.0674  0.1792  0.6138
  535TMC3    C5 7941   3.097   3.481   0.710 -0.7053 -0.4083  0.6014
  535TMC3    C6 7942   3.008   3.574   0.762 -0.5555  0.2168 -0.0329
  535TMC3     C 7943   3.228   3.342   1.018  0.4624  0.0062  0.8533
  535TMC3     O 7944   3.255   3.410   1.117 -0.0239 -0.3890  0.2177
  535TMC3     H 7945   3.044   3.503   1.095  0.7522 -1.2228  0.5588
  535TMC3    H1 7946   3.221   3.311   0.762  1.6234  1.5532  0.8387
  535TMC3    H2 7947   2.941   3.632   0.699 -1.1917 -0.9103 -0.4179
  535TMC3    C7 7948   3.165   3.496   0.583 -0.1219 -0.0982 -0.3003
  535TMC3    C8 7949   2.874   3.653   0.957  0.4988 -0.3076 -0.1514
  535TMC3    O1 7950   3.254   3.416   0.561  0.2573 -0.1332  0.6653
  535TMC3    O2 7951   2.792   3.696   0.879 -0.2073  0.4807 -0.3218
  536MPD2     C 7952   2.646   1.899  15.829  0.0469  0.4517 -0.7342
  536MPD2    C1 7953   2.542   1.894  15.920  0.7241  0.6536 -0.1927
  536MPD2    C2 7954   2.430   1.974  15.895 -0.2020  0.5663 -0.4460
  536MPD2    C3 7955   2.418   2.058  15.786 -0.4816 -0.8394  0.1456
  536MPD2    C4 7956   2.526   2.064  15.703  0.1794 -0.1351  0.8643
  536MPD2    C5 7957   2.633   1.980  15.716 -0.2099  0.6048 -0.1691
  536MPD2     H 7958   2.351   1.965  15.969  0.3846 -1.0891 -0.0046
  536MPD2    H1 7959   2.527   2.126  15.614  1.8220  2.4515  2.7105
  536MPD2    H2 7960   2.730   1.830  15.834 -0.2601 -0.0600 -2.4688
  536MPD2    H3 7961   2.713   1.983  15.643 -0.9607  0.6097 -0.9873
  536MPD2     N 7962   2.317   2.154  15.773  0.2045  0.4710  0.0627
  536MPD2    H5 7963   2.321   2.227  15.702  0.0001  2.5702  2.2337
  536MPD2    N1 7964   2.548   1.812  16.033 -0.0240 -0.0141 -0.4503
  536MPD2    H7 7965   2.639   1.773  16.056 -1.3520 -2.6830  0.2570
  537TMC3    C1 7966   2.491   1.713  16.240 -0.5689  0.4913  0.3403
  537TMC3    C2 7967   2.582   1.783  16.314  0.3408 -0.1090  0.2802
  537TMC3    C3 7968   2.586   1.766  16.450 -0.0628 -0.4936 -0.2173
  537TMC3    C4 7969   2.413   1.615  16.296 -0.4084 -0.1025  0.5690
  537TMC3    C5 7970   2.414   1.596  16.434 -0.1769 -0.3084 -0.3054
  537TMC3    C6 7971   2.503   1.672  16.512 -0.2683 -0.2514 -0.4818
  537TMC3     C 7972   2.443   1.768  16.117 -0.4635 -0.2748 -0.2706
  537TMC3     O 7973   2.323   1.798  16.115  0.2770  0.1559 -0.7212
  537TMC3     H 7974   2.659   1.839  16.263 -0.8026  0.9088 -0.3173
  537TMC3    H1 7975   2.341   1.561  16.236  0.4543 -0.5892 -0.0181
  537TMC3    H2 7976   2.503   1.670  16.620  0.3378 -3.0713 -0.5394
  537TMC3    C7 7977   2.300   1.519  16.495 -0.0138  1.0041  0.1157
  537TMC3    C8 7978   2.605   1.890  16.527  0.1476 -0.7289 -0.3638
  537TMC3    O1 7979   2.210   1.474  16.424  0.3538 -0.4287 -0.3057
  537TMC3    O2 7980   2.608   1.890  16.648  0.1644 -0.2634 -0.4023
  538TMC3    C1 7981   3.837   0.231  10.807 -0.1055  0.3969  0.5634
  538TMC3    C2 7982   3.853   0.140  10.704  0.2019 -0.3034 -0.5164
  538TMC3    C3 7983   3.735   0.090  10.656  0.3310  0.8327 -0.2373
  538TMC3    C4 7984   3.715   0.275  10.856  0.0210 -0.4768  0.0783
  538TMC3    C5 7985   3.601   0.223  10.794 -0.2122 -0.3835 -0.0257
  538TMC3    C6 7986   3.611   0.130  10.696 -0.7516 -0.5921 -0.0461
  538TMC3     C 7987   3.956   0.265  10.887  0.1928 -0.4167  0.8487
  538TMC3     O 7988   4.047   0.310  10.816  0.1578  0.3025 -0.5933
  538TMC3     H 7989   3.953   0.105  10.680  1.8476  2.2986  2.5215
  538TMC3    H1 7990   3.715   0.343  10.940 -3.9954  2.0533 -1.9419
  538TMC3    H2 7991   3.526   0.092  10.641 -1.5488 -0.1117  0.8483
  538TMC3    C7 7992   3.467   0.269  10.832 -0.1149 -0.1021  0.3115
  538TMC3    C8 7993   3.740   4.710  10.556 -0.0861 -0.1316 -0.4177
  538TMC3    O1 7994   3.369   0.202  10.801 -0.3966  0.1030  0.1305
  538TMC3    O2 7995   3.642   4.639  10.543  0.8443  0.3512  0.3064
  539MPD2     C 7996   3.260   3.850  11.849 -0.2916  0.2474 -0.7584
  539MPD2    C1 7997   3.334   3.907  11.753  0.9078  0.5965 -0.4510
  539MPD2    C2 7998   3.319   4.041  11.733  0.1359 -0.7556 -0.3311
  539MPD2    C3 7999   3.237   4.126  11.806 -0.9213  0.0553 -0.4069
  539MPD2    C4 8000   3.168   4.063  11.910 -0.6353 -0.0541 -0.0561
  539MPD2    C5 8001   3.179   3.929  11.936 -0.5078 -1.2393  0.2098
  539MPD2     H 8002   3.372   4.084  11.648 -1.3073 -1.3658 -1.5244
  539MPD2    H1 8003   3.091   4.111  11.968 -1.8170  0.4951 -2.1002
  539MPD2    H2 8004   3.272   3.749  11.888  0.3303  0.3762 -0.6187
  539MPD2    H3 8005   3.109   3.873  11.998  1.2232 -1.9587  1.5064
  539MPD2     N 8006   3.231   4.268  11.790 -0.0297 -0.1677 -0.7189
  539MPD2    H5 8007   3.185   4.327  11.858 -0.3107  2.6012 -3.2755
  539MPD2    N1 8008   3.430   3.831  11.675 -0.5048 -0.6778  0.6725
  539MPD2    H7 8009   3.475   3.873  11.593 -3.1850 -0.3884 -0.6611
  540TMC3    C1 8010   3.234   4.470  11.685 -0.1440 -0.3718  0.0147
  540TMC3    C2 8011   3.216   4.521  11.562 -0.6490 -0.0501  0.0554
  540TMC3    C3 8012   3.193   4.654  11.542  0.0149  0.5394  0.5191
  540TMC3    C4 8013   3.219   4.559  11.789  0.3547 -0.2313  0.0000
  540TMC3    C5 8014   3.197   4.694  11.764  0.5816 -0.6104  0.4368
  540TMC3    C6 8015   3.185   0.022  11.639 -0.4227 -0.6388  0.1687
  540TMC3     C 8016   3.287   4.336  11.694  0.1892 -0.8565 -0.6206
  540TMC3     O 8017   3.357   4.302  11.598 -0.4272  0.3874 -0.0046
  540TMC3     H 8018   3.237   4.462  11.473 -0.9852 -2.2065  1.4161
  540TMC3    H1 8019   3.235   4.533  11.894 -1.0811  1.1154  0.5480
  540TMC3    H2 8020   3.158   0.125  11.619 -0.6828 -1.3562 -3.1183
  540TMC3    C7 8021   3.166   0.054  11.878  0.0319 -0.4301  0.2462
  540TMC3    C8 8022   3.186   4.713  11.409  0.2370  0.0890 -0.7170
  540TMC3    O1 8023   3.135   4.717  11.982 -0.1025 -0.0569  0.1785
  540TMC3    O2 8024   3.230   0.104  11.390  0.4580  0.5768 -0.1008
  541MPD2     C 8025   1.402   1.075  13.464  0.9989 -0.2252 -0.5441
  541MPD2    C1 8026   1.438   1.006  13.350 -0.0755  0.0775  0.9774
  541MPD2    C2 8027   1.475   1.069  13.234 -0.5703 -0.4096 -0.2769
  541MPD2    C3 8028   1.478   1.209  13.231  0.1179 -0.8070 -0.2271
  541MPD2    C4 8029   1.432   1.283  13.338  0.6459 -0.0497 -0.2962
  541MPD2    C5 8030   1.390   1.217  13.454  0.9542  0.2463  0.3292
  541MPD2     H 8031   1.510   1.014  13.148  0.2618  0.0228 -0.2145
  541MPD2    H1 8032   1.421   1.391  13.340 -0.8457 -0.2036 -0.7027
  541MPD2    H2 8033   1.366   1.020  13.550 -0.7192 -0.4290 -1.3798
  541MPD2    H3 8034   1.348   1.278  13.533  1.4420  0.3744  0.4839
  541MPD2     N 8035   1.495   1.277  13.103  0.5258  0.1982 -0.1132
  541MPD2    H5 8036   1.470   1.375  13.092  1.1045  0.4222  0.6298
  541MPD2    N1 8037   1.459   0.871  13.364  0.2690  0.1937 -0.4904
  541MPD2    H7 8038   1.449   0.844  13.462  2.3012 -1.0566 -0.6321
  542TMC3    C1 8039   1.499   1.296  12.874 -0.5563 -0.2682  0.1129
  542TMC3    C2 8040   1.562   1.270  12.758 -0.7347  0.5127 -0.2405
  542TMC3    C3 8041   1.528   1.346  12.651  0.3324 -0.1230 -0.9166
  542TMC3    C4 8042   1.415   1.405  12.890 -0.2894 -0.4884 -0.0304
  542TMC3    C5 8043   1.381   1.480  12.773  0.6971 -0.1067 -0.2764
  542TMC3    C6 8044   1.430   1.449  12.653 -0.1377 -0.1775 -0.4069
  542TMC3     C 8045   1.541   1.218  12.988 -0.6814  0.1587  1.1289
  542TMC3     O 8046   1.613   1.123  12.972  0.3457 -0.5091  0.1840
  542TMC3     H 8047   1.644   1.200  12.758 -1.5747 -0.4744  0.4763
  542TMC3    H1 8048   1.384   1.440  12.988 -0.0390  0.3076 -0.2291
  542TMC3    H2 8049   1.403   1.489  12.556 -0.4884 -3.0577 -1.4938
  542TMC3    C7 8050   1.262   1.563  12.800  0.6530 -0.0387  0.4224
  542TMC3    C8 8051   1.595   1.327  12.526  0.6848 -0.1701  0.1369
  542TMC3    O1 8052   1.251   1.618  12.911 -0.2163 -0.0555 -0.0577
  542TMC3    O2 8053   1.593   1.419  12.446 -0.1678  0.6196 -0.6113
  543TMC3    C1 8054   0.595   2.369  17.242  0.9179  0.4397  0.4088
  543TMC3    C2 8055   0.490   2.282  17.249  0.3211  0.4248 -0.6052
  543TMC3    C3 8056   0.400   2.303  17.353 -0.8905 -0.1046 -0.0808
  543TMC3    C4 8057   0.620   2.465  17.331 -0.0403  0.0608 -0.6587
  543TMC3    C5 8058   0.530   2.478  17.433  0.1875  0.3995  0.8851
  543TMC3    C6 8059   0.414   2.408  17.442 -0.5223 -0.1769  0.2049
  543TMC3     C 8060   0.671   2.354  17.120 -0.3654 -0.2246 -0.5378
  543TMC3     O 8061   0.796   2.340  17.138 -0.4517 -0.2451 -0.4754
  543TMC3     H 8062   0.481   2.197  17.183 -0.5748 -0.0966  0.1831
  543TMC3    H1 8063   0.696   2.539  17.312 -0.7224  1.0883  0.6661
  543TMC3    H2 8064   0.339   2.428  17.518  1.1398  1.3095  1.4448
  543TMC3    C7 8065   0.554   2.579  17.536 -0.1544  0.0391  0.6756
  543TMC3    C8 8066   0.354   2.175  17.414  0.2156 -0.3753 -0.1617
  543TMC3    O1 8067   0.455   2.621  17.597  0.5828  0.0574  0.0418
  543TMC3    O2 8068   0.385   2.069  17.357  0.6998  0.2075 -0.2971
  544MPD2     C 8069   0.206   1.908   0.129 -0.9069 -0.3524 -0.1000
  544MPD2    C1 8070   0.315   1.897   0.052  0.3921  0.5691  0.7042
  544MPD2    C2 8071   0.337   1.990  17.636  0.4858 -0.0190 -0.4319
  544MPD2    C3 8072   0.248   2.090  17.612  0.1234  0.0603  0.4196
  544MPD2    C4 8073   0.134   2.090   0.003  0.3414 -0.4831 -0.5598
  544MPD2    C5 8074   0.114   2.003   0.100  0.1966 -0.2370 -0.2321
  544MPD2     H 8075   0.431   1.996  17.583 -0.8204  1.3361 -2.5984
  544MPD2    H1 8076   0.058   2.165  17.666 -0.4355 -1.2217 -0.4201
  544MPD2    H2 8077   0.197   1.839   0.212  0.6677 -1.0810 -0.5534
  544MPD2    H3 8078   0.020   1.999   0.154  0.7012 -1.5093  0.5499
  544MPD2     N 8079   0.269   2.195  17.524  0.0024  0.0058  0.2332
  544MPD2    H5 8080   0.221   2.282  17.541 -1.1858 -0.6810  0.4043
  544MPD2    N1 8081   0.421   1.801   0.078  0.1851 -0.5484  0.2229
  544MPD2    H7 8082   0.405   1.741   0.158  0.2218 -0.6996  0.1173
  545TMC3    C1 8083   0.594   1.650   0.050  0.5659 -0.6008 -0.3207
  545TMC3    C2 8084   0.650   1.566  17.646  0.0146  0.1088  0.7099
  545TMC3    C3 8085   0.725   1.452   0.009  0.5186 -0.6202  0.2920
  545TMC3    C4 8086   0.627   1.656   0.185 -0.8652  0.0471 -0.3400
  545TMC3    C5 8087   0.705   1.551   0.231  0.6415 -0.1062 -0.1677
  545TMC3    C6 8088   0.749   1.451   0.145  0.0719  0.9947 -0.1216
  545TMC3     C 8089   0.523   1.759  17.679  0.7213 -0.0082  0.4800
  545TMC3     O 8090   0.535   1.780  17.559  0.1208 -0.6599 -0.7429
  545TMC3     H 8091   0.641   1.567  17.538  0.5403 -0.2991  0.6575
  545TMC3    H1 8092   0.587   1.734   0.249  1.1356  0.6921  0.1359
  545TMC3    H2 8093   0.793   1.360   0.184  1.3150  1.0557 -1.3889
  545TMC3    C7 8094   0.716   1.541   0.374 -0.2684 -0.5525 -0.0035
  545TMC3    C8 8095   0.831   1.406  17.604 -0.5212 -0.0423 -0.1736
  545TMC3    O1 8096   0.656   1.623   0.444 -0.3175  0.6700 -0.3072
  545TMC3    O2 8097   0.807   1.422  17.482 -0.1698  0.3574 -0.4505
  546MPD2     C 8098   2.271   2.574  17.627  0.2529 -0.0741 -0.6981
  546MPD2    C1 8099   2.173   2.600  17.538  0.2501  0.0398  0.5340
  546MPD2    C2 8100   2.176   2.721  17.467 -0.4895  0.3600 -0.1121
  546MPD2    C3 8101   2.288   2.805  17.472 -0.3399  0.0183 -0.0385
  546MPD2    C4 8102   2.389   2.772  17.560  0.0016  0.4599  0.1321
  546MPD2    C5 8103   2.380   2.656  17.635 -0.1531  0.3004 -0.6829
  546MPD2     H 8104   2.092   2.751  17.406 -0.3400  2.2721  0.6170
  546MPD2    H1 8105   2.471   2.841  17.578  0.5200 -0.1699  0.1818
  546MPD2    H2 8106   2.276   2.492   0.015 -1.4371 -0.0859 -0.6026
  546MPD2    H3 8107   2.447   2.620   0.029  0.2230  2.3529 -0.0395
  546MPD2     N 8108   2.305   2.927  17.399  0.4358  0.3239  0.1056
  546MPD2    H5 8109   2.391   2.981  17.412  0.7419 -0.3696  0.9655
  546MPD2    N1 8110   2.059   2.511  17.541 -0.3013 -0.1703  0.6272
  546MPD2    H7 8111   2.067   2.431  17.603 -3.2643 -0.3403  0.7724
  547TMC3    C1 8112   1.856   2.399  17.472  0.3375 -0.0071 -0.7381
  547TMC3    C2 8113   1.830   2.319  17.364  0.5828  0.6524  0.3658
  547TMC3    C3 8114   1.754   2.201  17.377  0.1562 -0.1155  0.1759
  547TMC3    C4 8115   1.826   2.365  17.600 -0.0355  0.7432 -0.0248
  547TMC3    C5 8116   1.747   2.258  17.610  0.2842 -0.6284  0.2812
  547TMC3    C6 8117   1.714   2.175  17.508 -0.8338  0.0174  0.5540
  547TMC3     C 8118   1.949   2.509  17.452  0.2984 -0.0669  0.6120
  547TMC3     O 8119   1.929   2.581  17.355  0.2662  0.0738 -0.6170
  547TMC3     H 8120   1.868   2.353  17.268  1.0802 -1.6656 -0.2772
  547TMC3    H1 8121   1.864   2.423   0.000  1.2139  1.0293 -0.7837
  547TMC3    H2 8122   1.643   2.097  17.534  0.1691 -1.2464 -0.4978
  547TMC3    C7 8123   1.737   2.223   0.068 -0.8536 -1.1036  0.5316
  547TMC3    C8 8124   1.694   2.146  17.259 -0.5408  0.1902 -0.5328
  547TMC3    O1 8125   1.756   2.311   0.151 -0.7092 -0.3625 -0.2201
  547TMC3    O2 8126   1.731   2.183  17.148  0.1063 -0.0078  0.1132
  548MPD2     C 8127   2.303   3.117  12.712  0.6013 -0.3549 -0.4909
  548MPD2    C1 8128   2.247   3.002  12.671  0.8329 -0.0859  0.0670
  548MPD2    C2 8129   2.319   2.907  12.598  0.5059 -0.7459 -0.1444
  548MPD2    C3 8130   2.449   2.939  12.554 -0.3989 -0.5318 -0.0555
  548MPD2    C4 8131   2.505   3.051  12.607  0.2296  0.7718 -0.3814
  548MPD2    C5 8132   2.439   3.136  12.683  0.6881 -0.7345 -0.2463
  548MPD2     H 8133   2.275   2.810  12.579  1.5277 -1.3053  0.3205
  548MPD2    H1 8134   2.595   3.089  12.563  0.4244  1.6759  0.8043
  548MPD2    H2 8135   2.248   3.195  12.762  0.7782  0.5771 -1.7537
  548MPD2    H3 8136   2.481   3.234  12.701 -0.6160 -0.6248  2.1034
  548MPD2     N 8137   2.515   2.856  12.455  0.0577 -0.1507 -0.8667
  548MPD2    H5 8138   2.480   2.763  12.436 -3.1689  0.6129  1.3387
  548MPD2    N1 8139   2.110   2.999  12.702 -0.2830  0.9706 -0.8713
  548MPD2    H7 8140   2.075   3.079  12.753  0.3280  0.6819 -0.0132
  549TMC3    C1 8141   1.887   2.941  12.611  0.2570 -0.2463  0.1334
  549TMC3    C2 8142   1.853   3.072  12.570 -0.2388 -0.5264 -0.1420
  549TMC3    C3 8143   1.740   3.076  12.498 -0.1202 -1.5015 -0.6037
  549TMC3    C4 8144   1.804   2.830  12.605 -0.3123 -0.1049  0.4180
  549TMC3    C5 8145   1.692   2.841  12.526 -0.5336 -0.0290 -0.4756
  549TMC3    C6 8146   1.662   2.962  12.472 -0.1539 -0.7208  0.7582
  549TMC3     C 8147   2.025   2.898  12.648  0.8745  0.1512  0.0546
  549TMC3     O 8148   2.051   2.790  12.599  0.3308  0.5097 -0.5064
  549TMC3     H 8149   1.918   3.159  12.580 -2.3850  1.2492 -1.5707
  549TMC3    H1 8150   1.815   2.744  12.670  0.4890  0.9267  1.6320
  549TMC3    H2 8151   1.575   2.975  12.408  0.7047 -1.6300 -0.5880
  549TMC3    C7 8152   1.577   2.748  12.539 -0.1926 -1.0304  0.2143
  549TMC3    C8 8153   1.711   3.198  12.425  0.4380 -0.3697 -0.1681
  549TMC3    O1 8154   1.471   2.801  12.514 -0.5461 -0.6196 -0.0719
  549TMC3    O2 8155   1.621   3.194  12.341 -0.0626 -0.1171  0.0113
  550TMC3    C1 8156   1.427   0.770  12.238  0.4064  0.3490 -0.5068
  550TMC3    C2 8157   1.373   0.836  12.349 -0.0990  0.1167  0.4914
  550TMC3    C3 8158   1.357   0.972  12.332 -0.5500  0.0858 -0.8176
  550TMC3    C4 8159   1.432   0.839  12.114 -0.0195  0.0170  0.0733
  550TMC3    C5 8160   1.409   0.972  12.105 -0.0611 -0.3005 -0.3001
  550TMC3    C6 8161   1.368   1.043  12.215  0.3927 -0.2796  0.5784
  550TMC3     C 8162   1.364   0.644  12.223 -0.0918 -0.7856 -0.2778
  550TMC3     O 8163   1.360   0.566  12.316  0.1019  0.2018  0.1915
  550TMC3     H 8164   1.353   0.786  12.444 -1.2675 -0.3104  0.0259
  550TMC3    H1 8165   1.494   0.802  12.033  1.1810 -0.4395  1.2196
  550TMC3    H2 8166   1.346   1.149  12.212  0.3370 -0.3073  0.0290
  550TMC3    C7 8167   1.336   0.997  11.983 -0.3391  0.0592 -0.6692
  550TMC3    C8 8168   1.324   1.056  12.447  0.3707  0.0078 -0.8866
  550TMC3    O1 8169   1.313   0.901  11.909  0.5653  0.5643 -0.3716
  550TMC3    O2 8170   1.297   1.170  12.425 -0.7259 -0.1961  0.2620
  551TMC3    C1 8171   3.116   3.817  13.464 -0.1989 -0.6382 -0.7742
  551TMC3    C2 8172   3.251   3.854  13.438  0.5639  0.7217  0.2446
  551TMC3    C3 8173   3.322   3.927  13.530 -0.4444 -0.1714  0.1305
  551TMC3    C4 8174   3.062   3.853  13.578 -0.5053  0.4681  0.3669
  551TMC3    C5 8175   3.131   3.934  13.668 -0.2063  0.0989  0.1247
  551TMC3    C6 8176   3.258   3.978  13.639  0.2467  0.3314 -0.0000
  551TMC3     C 8177   3.049   3.710  13.381 -0.2973  0.3437  0.0917
  551TMC3     O 8178   3.110   3.683  13.282 -0.7723 -0.5929  0.1757
  551TMC3     H 8179   3.295   3.822  13.344  0.3318  0.2878  0.2826
  551TMC3    H1 8180   2.960   3.822  13.596  0.5854 -2.8515  0.9184
  551TMC3    H2 8181   3.306   4.048  13.706 -0.4678 -0.0141  0.8839
  551TMC3    C7 8182   3.076   3.967  13.797  0.4638 -0.1108  0.0931
  551TMC3    C8 8183   3.457   3.968  13.512 -0.1851  0.2972 -0.1726
  551TMC3    O1 8184   3.137   4.057  13.851  0.2815  0.2722  0.0132
  551TMC3    O2 8185   3.520   3.983  13.615  0.0550 -0.0419 -0.2202
  552MPD2     C 8186   0.232   0.986  13.934  0.6020 -0.0107  0.3422
  552MPD2    C1 8187   0.282   0.868  13.894 -0.0095  0.2670 -0.3572
  552MPD2    C2 8188   0.339   0.785  13.979 -0.4863  0.1382  0.4953
  552MPD2    C3 8189   0.345   0.817  14.114 -0.1808  0.8570 -0.1594
  552MPD2    C4 8190   0.300   0.945  14.155 -0.4530  0.1607 -0.2281
  552MPD2    C5 8191   0.247   1.029  14.067 -0.1212  0.2977  0.3331
  552MPD2     H 8192   0.381   0.692  13.943  2.5496  0.8036  2.2739
  552MPD2    H1 8193   0.301   0.977  14.259 -1.3126 -2.4952  0.5952
  552MPD2    H2 8194   0.173   1.050  13.870  2.0319  1.2764  0.3258
  552MPD2    H3 8195   0.201   1.116  14.113  1.3190  1.2258  0.0536
  552MPD2     N 8196   0.411   0.738  14.215 -0.1133 -0.6995  0.0267
  552MPD2    H5 8197   0.419   0.784  14.305  0.5618 -0.1208 -0.3262
  552MPD2    N1 8198   0.271   0.835  13.750 -0.3112 -0.5847 -0.1052
  552MPD2    H7 8199   0.298   0.741  13.723  1.9388 -0.3968  1.4829
  553TMC3    C1 8200   0.242   0.863  13.519  0.0316  0.0144  0.1993
  553TMC3    C2 8201   0.271   0.938  13.408  1.1817 -0.0469 -0.0353
  553TMC3    C3 8202   0.281   0.881  13.284  0.0839 -0.4787  0.5806
  553TMC3    C4 8203   0.229   0.725  13.515  0.3323 -0.5040 -0.0330
  553TMC3    C5 8204   0.238   0.672  13.391 -0.3546 -0.0085 -0.1018
  553TMC3    C6 8205   0.251   0.747  13.278 -0.6608  0.0844  0.6274
  553TMC3     C 8206   0.254   0.929  13.648  0.2383  0.0041 -0.2705
  553TMC3     O 8207   0.241   1.053  13.649  0.2866  0.3160  0.0975
  553TMC3     H 8208   0.297   1.042  13.422 -0.5831  0.2880  0.7513
  553TMC3    H1 8209   0.215   0.651  13.593  1.1854 -1.4041 -0.7292
  553TMC3    H2 8210   0.269   0.685  13.191  0.9567  1.3427  0.0599
  553TMC3    C7 8211   0.277   0.532  13.371  0.0148 -0.1662  0.5304
  553TMC3    C8 8212   0.410   0.909  13.236  0.4010  0.5555  0.0084
  553TMC3    O1 8213   0.211   0.473  13.284  0.4197  0.2334 -0.2834
  553TMC3    O2 8214   0.488   0.959  13.315 -0.1071 -1.0036  0.0735
  554TMC3    C1 8215   1.925   4.593  11.992  0.3817 -0.2131  0.5365
  554TMC3    C2 8216   1.893   4.533  11.874  0.4592  0.3517 -0.1237
  554TMC3    C3 8217   1.977   4.546  11.770  0.3654  0.0978  0.2706
  554TMC3    C4 8218   2.046   4.646  12.016  0.1275 -0.0397  0.0247
  554TMC3    C5 8219   2.136   4.656  11.914 -0.1025  0.3903  0.4214
  554TMC3    C6 8220   2.098   4.611  11.784  0.9145  0.5851 -0.3883
  554TMC3     C 8221   1.897   4.504  12.107  0.3784  0.2034 -0.6457
  554TMC3     O 8222   1.788   4.445  12.107  0.0578 -0.1497  0.0175
  554TMC3     H 8223   1.794   4.495  11.855 -0.2684  2.0988  0.1265
  554TMC3    H1 8224   2.066   4.699  12.108 -0.7785 -0.7553  0.6319
  554TMC3    H2 8225   2.153   4.626  11.692  1.5328 -1.0136 -0.2681
  554TMC3    C7 8226   2.274   4.707  11.947 -0.5033 -0.0062  0.0337
  554TMC3    C8 8227   1.955   4.490  11.636  0.1528 -0.8304  0.4940
  554TMC3    O1 8228   2.312   4.720  12.059  0.1992  0.2127  0.0248
  554TMC3    O2 8229   2.036   4.519  11.549  0.0333  0.6552 -0.3462
  555TMC3    C1 8230   1.215   3.902  15.239  0.2326 -0.0151  0.2227
  555TMC3    C2 8231   1.175   3.974  15.349  0.2730  0.1402 -0.7696
  555TMC3    C3 8232   1.182   3.913  15.469  0.1303  0.1984 -0.5785
  555TMC3    C4 8233   1.264   3.776  15.256 -0.1486  0.2977 -0.8191
  555TMC3    C5 8234   1.273   3.720  15.381 -0.4051 -0.5524  0.0807
  555TMC3    C6 8235   1.222   3.785  15.486  0.7393 -0.0264  0.8403
  555TMC3     C 8236   1.259   3.991  15.133  0.0324 -0.0943 -0.3486
  555TMC3     O 8237   1.350   3.946  15.062  0.6589  0.0106  0.0227
  555TMC3     H 8238   1.163   4.081  15.354 -1.8480 -0.0409 -2.0539
  555TMC3    H1 8239   1.301   3.722  15.169  0.4924  0.8940 -0.9152
  555TMC3    H2 8240   1.223   3.729  15.578 -1.7178  1.9593  2.0646
  555TMC3    C7 8241   1.227   3.579  15.382 -0.9503 -0.3503  0.5578
  555TMC3    C8 8242   1.160   4.008  15.581 -0.2454  0.4227  0.1917
  555TMC3    O1 8243   1.145   3.548  15.472  0.0730  0.0937 -0.3566
  555TMC3    O2 8244   1.097   4.109  15.567 -0.5135  0.1199  0.3194
  556MPD2     C 8245   4.472   0.900  10.268 -0.2541  0.1282 -0.1712
  556MPD2    C1 8246   4.432   0.789  10.352  0.5941 -0.1083 -0.6350
  556MPD2    C2 8247   4.413   0.669  10.296  0.0735 -0.0844  0.1786
  556MPD2    C3 8248   4.415   0.647  10.160 -0.1311  0.8835  0.1081
  556MPD2    C4 8249   4.440   0.760  10.080  0.0809  0.0219  0.1097
  556MPD2    C5 8250   4.460   0.883  10.134  0.1276 -0.2022 -0.5193
  556MPD2     H 8251   4.380   0.582  10.352  0.5138 -0.3446  0.0326
  556MPD2    H1 8252   4.444   0.755   9.971  0.8996  0.1840  0.1290
  556MPD2    H2 8253   4.509   0.993  10.308 -1.2714  0.2270  0.5513
  556MPD2    H3 8254   4.476   0.972  10.074 -0.3779  0.1643 -0.1084
  556MPD2     N 8255   4.401   0.513  10.119 -0.0403 -0.3665 -0.4881
  556MPD2    H5 8256   4.406   0.444  10.193  0.2194  0.0714 -0.1005
  556MPD2    N1 8257   4.435   0.786  10.492  0.3257 -0.1463  0.4447
  556MPD2    H7 8258   4.408   0.700  10.538  0.1498 -0.6357 -0.5874
  557TMC3    C1 8259   4.394   0.318   9.981  0.1873  0.2288  0.4702
  557TMC3    C2 8260   4.415   0.271   9.856 -0.0408 -0.5306  1.2682
  557TMC3    C3 8261   4.405   0.140   9.830 -0.6274  0.1802  0.7604
  557TMC3    C4 8262   4.331   0.247  10.076  0.0295  0.0361 -0.0080
  557TMC3    C5 8263   4.297   0.118  10.035 -0.1955 -0.2774  0.1335
  557TMC3    C6 8264   4.345   0.058   9.925  0.4554 -0.6399 -0.2904
  557TMC3     C 8265   4.401   0.467   9.993  0.8656 -0.1971  0.2642
  557TMC3     O 8266   4.414   0.535   9.893  0.1094 -1.1814 -0.3754
  557TMC3     H 8267   4.468   0.322   9.776 -0.9308 -2.6465 -0.6605
  557TMC3    H1 8268   4.293   0.290  10.167  0.6507 -0.0435  0.2936
  557TMC3    H2 8269   4.319   4.677   9.896 -2.0877 -0.3128  0.7822
  557TMC3    C7 8270   4.222   0.052  10.132  0.2260  0.2360 -0.3010
  557TMC3    C8 8271   4.383   0.110   9.692  0.2947  0.3081 -0.0801
  557TMC3    O1 8272   4.232   0.087  10.250  0.1864  0.1613 -0.5006
  557TMC3    O2 8273   4.326   0.190   9.617  0.2963 -0.1304  0.1037
  558TMC3    C1 8274   2.422   3.098   9.782  0.3952  0.6348 -0.5040
  558TMC3    C2 8275   2.375   3.100   9.910 -0.4277 -0.4216 -0.2088
  558TMC3    C3 8276   2.256   3.036   9.941 -0.3809 -0.2982 -0.3323
  558TMC3    C4 8277   2.362   3.031   9.677 -0.1119 -0.3340 -0.5535
  558TMC3    C5 8278   2.239   2.977   9.712  0.2308 -0.2419 -0.7887
  558TMC3    C6 8279   2.189   2.968   9.837  0.2770 -0.1364  0.1679
  558TMC3     C 8280   2.557   3.140   9.777  0.3605 -0.1628  1.4665
  558TMC3     O 8281   2.578   3.254   9.820 -0.3879  0.4202  0.5135
  558TMC3     H 8282   2.447   3.140   9.981 -0.1115  0.7167 -1.1734
  558TMC3    H1 8283   2.406   3.010   9.580  0.9610  2.4058 -0.6557
  558TMC3    H2 8284   2.098   2.916   9.868 -0.1313 -0.8096 -2.2037
  558TMC3    C7 8285   2.186   2.871   9.619 -0.1335  0.6088  0.1717
  558TMC3    C8 8286   2.191   3.045  10.069 -0.3951  0.2390  0.5371
  558TMC3    O1 8287   2.177   2.901   9.501 -0.1471 -0.6835 -0.3909
  558TMC3    O2 8288   2.265   3.080  10.160 -0.1412 -0.6837  0.2075
  559MPD2     C 8289   2.049   3.955  10.721 -1.0159  0.1743 -0.2908
  559MPD2    C1 8290   1.949   3.935  10.816 -0.0406 -0.0263 -0.1236
  559MPD2    C2 8291   1.973   3.946  10.951 -0.5122 -0.6697  0.2229
  559MPD2    C3 8292   2.096   3.990  10.995 -1.1344 -0.5766 -0.5428
  559MPD2    C4 8293   2.199   3.998  10.901 -0.0668 -0.0804  0.0303
  559MPD2    C5 8294   2.175   3.995  10.768  0.6207  0.0941  0.5020
  559MPD2     H 8295   1.890   3.936  11.020 -0.0909 -3.7946  0.2694
  559MPD2    H1 8296   2.301   4.021  10.929 -0.3803  0.0229  1.0656
  559MPD2    H2 8297   2.046   3.928  10.616  0.3776 -1.6991  0.1483
  559MPD2    H3 8298   2.257   4.017  10.701  1.1248  1.5738  1.6140
  559MPD2     N 8299   2.124   4.006  11.134  0.6847  1.0883 -0.1191
  559MPD2    H5 8300   2.052   3.970  11.197 -0.1923 -1.2731 -2.4316
  559MPD2    N1 8301   1.818   3.895  10.778 -0.1360  0.0679  0.4780
  559MPD2    H7 8302   1.753   3.880  10.854  0.7265 -2.2964  0.7307
  560TMC3    C1 8303   2.265   3.998  11.329  0.0562  0.4938  0.4641
  560TMC3    C2 8304   2.181   3.904  11.380  0.3870 -0.2085 -0.6738
  560TMC3    C3 8305   2.225   3.818  11.476 -0.6930 -0.2363  0.6405
  560TMC3    C4 8306   2.396   4.010  11.379 -0.7940  0.3735 -0.7964
  560TMC3    C5 8307   2.435   3.933  11.487 -0.4380 -0.1356  0.0211
  560TMC3    C6 8308   2.350   3.836  11.542  0.0103  0.6180  0.0669
  560TMC3     C 8309   2.246   4.038  11.186  0.7862  0.5212 -0.2370
  560TMC3     O 8310   2.339   4.096  11.137  0.5767 -0.2725 -0.2798
  560TMC3     H 8311   2.089   3.881  11.328  0.3317  0.1635 -0.7330
  560TMC3    H1 8312   2.453   4.093  11.339 -0.5433  0.0325 -1.1452
  560TMC3    H2 8313   2.396   3.783  11.625 -0.5112  2.2141  1.3590
  560TMC3    C7 8314   2.568   3.940  11.538 -0.0487  0.1142  0.2466
  560TMC3    C8 8315   2.180   3.686  11.449  0.0408  0.0781 -0.2435
  560TMC3    O1 8316   2.579   3.915  11.659 -0.4240  0.0175 -0.1722
  560TMC3    O2 8317   2.118   3.662  11.349 -0.2094  0.3344  0.1137
  561TMC3    C1 8318   0.225   2.277  11.026  0.8091 -0.7002 -0.3086
  561TMC3    C2 8319   0.191   2.233  11.148  0.0159 -0.1592  0.6878
  561TMC3    C3 8320   0.109   2.315  11.223 -0.0421 -1.0484 -0.2743
  561TMC3    C4 8321   0.192   2.397  10.978 -0.1210  0.5391  0.1858
  561TMC3    C5 8322   0.115   2.481  11.060  0.3826 -0.4465 -0.2209
  561TMC3    C6 8323   0.074   2.441  11.183  0.0854 -0.3121 -0.0702
  561TMC3     C 8324   0.308   2.189  10.948  0.9049  0.0422  0.5800
  561TMC3     O 8325   0.262   2.076  10.936  0.1884 -0.0989 -0.0285
  561TMC3     H 8326   0.202   2.130  11.180 -4.0602 -0.5859  0.8153
  561TMC3    H1 8327   0.218   2.428  10.877 -0.6394 -1.7145 -0.6550
  561TMC3    H2 8328   4.712   2.491  11.233  0.4884  0.6323 -0.3532
  561TMC3    C7 8329   0.061   2.610  11.012  0.2905 -0.7333  0.3617
  561TMC3    C8 8330   0.063   2.264  11.354  0.4139  0.5109  0.5644
  561TMC3    O1 8331   4.700   2.665  11.089  0.0288 -0.4724 -0.0067
  561TMC3    O2 8332   0.071   2.147  11.387  0.5818 -0.1547  0.1013
  562TMC3    C1 8333   0.703   4.309  16.226  0.2321  0.5403  0.1374
  562TMC3    C2 8334   0.629   4.416  16.177 -0.4364 -0.0533 -0.3409
  562TMC3    C3 8335   0.577   4.411  16.059 -0.2694 -0.6566 -0.4859
  562TMC3    C4 8336   0.741   4.207  16.143 -0.3692  0.3074  0.2093
  562TMC3    C5 8337   0.687   4.208  16.020  0.3272  0.3438 -0.5310
  562TMC3    C6 8338   0.602   4.303  15.977  0.4072  0.1209 -0.1210
  562TMC3     C 8339   0.777   4.317  16.349  0.1938 -0.6649  0.1215
  562TMC3     O 8340   0.822   4.216  16.396 -0.2367  0.2357 -0.2163
  562TMC3     H 8341   0.605   4.501  16.239  0.0006  1.6149 -2.4550
  562TMC3    H1 8342   0.795   4.126  16.190  0.8548  2.5952  2.6935
  562TMC3    H2 8343   0.563   4.303  15.875  1.1238  1.7055 -0.3995
  562TMC3    C7 8344   0.736   4.099  15.926 -0.0162  0.1917 -0.1044
  562TMC3    C8 8345   0.479   4.514  16.026 -0.7669  0.2232  0.0565
  562TMC3    O1 8346   0.658   4.078  15.834 -0.0298 -0.1647 -0.6303
  562TMC3    O2 8347   0.406   4.540  16.119 -0.7397  0.0763 -0.3295
  563MPD2     C 8348   3.418   0.864  15.684 -0.1595  0.3851  0.2108
  563MPD2    C1 8349   3.412   0.925  15.807 -0.7260 -0.1636  0.5448
  563MPD2    C2 8350   3.528   0.968  15.862 -0.8541  0.2371 -0.1903
  563MPD2    C3 8351   3.652   0.956  15.800  1.2059 -0.9502 -0.2891
  563MPD2    C4 8352   3.655   0.906  15.674  0.9317  0.2472  0.3065
  563MPD2    C5 8353   3.539   0.862  15.616  0.5062  0.7382 -0.5059
  563MPD2     H 8354   3.525   1.001  15.965 -2.6179  0.5243 -0.3500
  563MPD2    H1 8355   3.741   0.892  15.611 -0.2895 -0.3529 -1.2258
  563MPD2    H2 8356   3.328   0.832  15.632  0.5449 -1.4082  0.1136
  563MPD2    H3 8357   3.534   0.842  15.509 -1.3739 -1.6802  0.0376
  563MPD2     N 8358   3.767   0.985  15.874  0.1294  0.5573  0.2933
  563MPD2    H5 8359   3.755   1.009  15.972  2.3101 -0.3080  0.7761
  563MPD2    N1 8360   3.300   0.938  15.888 -0.2950  0.0789 -0.7164
  563MPD2    H7 8361   3.322   0.970  15.982 -1.0147 -0.5996 -0.3158
  564TMC3    C1 8362   3.080   0.920  15.972 -0.2834  0.1994 -0.7336
  564TMC3    C2 8363   2.983   0.829  15.957  0.2586 -0.2095 -0.2082
  564TMC3    C3 8364   2.952   0.754  16.072  0.2965 -0.4551 -0.0136
  564TMC3    C4 8365   3.145   0.945  16.092 -0.0093  0.0935 -0.5169
  564TMC3    C5 8366   3.113   0.875  16.200  0.6910  0.4928 -0.4830
  564TMC3    C6 8367   3.027   0.773  16.192 -0.1178  0.1248  0.6911
  564TMC3     C 8368   3.167   0.914  15.852  0.4401 -0.3213  0.5796
  564TMC3     O 8369   3.118   0.889  15.741 -0.0144 -0.6896  0.3945
  564TMC3     H 8370   2.937   0.827  15.859 -1.2367  0.3301  0.4726
  564TMC3    H1 8371   3.206   1.032  16.110  0.5289 -0.5285  0.6467
  564TMC3    H2 8372   3.002   0.712  16.278  1.2302 -0.0750  0.9442
  564TMC3    C7 8373   3.239   0.829  16.269 -0.9159  0.4748 -0.2939
  564TMC3    C8 8374   2.900   0.627  16.060  0.3892  0.2039  0.1737
  564TMC3    O1 8375   3.327   0.913  16.265 -0.0179 -0.3603 -0.2525
  564TMC3    O2 8376   2.944   0.545  16.140  0.1356  0.1821  0.1893
  565TMC3    C1 8377   4.486   2.696  10.144  0.6706 -0.5808  0.1333
  565TMC3    C2 8378   4.456   2.639  10.268  0.9369  1.2823 -0.4958
  565TMC3    C3 8379   4.324   2.600  10.291  0.1445  0.3394  0.1153
  565TMC3    C4 8380   4.385   2.700  10.046 -0.2654 -0.8886  0.7531
  565TMC3    C5 8381   4.260   2.646  10.065  0.0029  0.2142 -0.9032
  565TMC3    C6 8382   4.229   2.599  10.189 -0.3742 -0.1434 -0.8975
  565TMC3     C 8383   4.613   2.756  10.106 -0.4042 -0.2228  0.0879
  565TMC3     O 8384   4.611   2.824  10.006 -0.7938 -0.2102 -0.3824
  565TMC3     H 8385   4.532   2.621  10.343  1.4358 -2.4811 -1.8931
  565TMC3    H1 8386   4.400   2.752   9.952  2.0854 -0.1237  1.5419
  565TMC3    H2 8387   4.126   2.596  10.223  0.1277  1.3087  0.7325
  565TMC3    C7 8388   4.164   2.692   9.969  0.6300  0.1930  0.0104
  565TMC3    C8 8389   4.280   2.555  10.419 -0.2656 -0.2173 -0.4683
  565TMC3    O1 8390   4.191   2.777   9.886 -0.0886 -0.1784  0.7720
  565TMC3    O2 8391   4.218   2.450  10.426 -0.3299 -0.4966  0.0820
  566MPD2     C 8392   4.706   3.974  14.409  0.0317 -0.0766 -0.1110
  566MPD2    C1 8393   0.123   3.938  14.392 -0.7833  0.7403 -0.1038
  566MPD2    C2 8394   0.151   3.805  14.350  0.4982 -0.1165 -0.2184
  566MPD2    C3 8395   0.047   3.717  14.322 -0.2213 -0.2311  1.0519
  566MPD2    C4 8396   4.640   3.752  14.356  0.1065  0.0313 -0.3270
  566MPD2    C5 8397   4.601   3.885  14.396 -0.1874 -0.9219  0.5582
  566MPD2     H 8398   0.251   3.777  14.319 -0.2079 -1.3214 -1.3905
  566MPD2    H1 8399   4.568   3.671  14.347  0.6237 -0.6989  2.1309
  566MPD2    H2 8400   4.678   4.073  14.443 -0.2463 -0.9154  2.0709
  566MPD2    H3 8401   4.500   3.919  14.417 -1.1617 -2.1266 -2.1738
  566MPD2     N 8402   0.062   3.589  14.264  0.1793  0.2393  0.7841
  566MPD2    H5 8403   4.702   3.547  14.218  1.8090 -1.1830 -0.7313
  566MPD2    N1 8404   0.223   4.035  14.420 -0.2550  0.5774 -0.4311
  566MPD2    H7 8405   0.196   4.133  14.423 -1.7326  0.0976  1.3777
  567TMC3    C1 8406   0.439   4.130  14.438 -0.1095 -0.1340  0.4630
  567TMC3    C2 8407   0.435   4.202  14.318  0.4253 -0.1115 -0.3091
  567TMC3    C3 8408   0.551   4.268  14.280 -0.3479 -0.0902  0.2550
  567TMC3    C4 8409   0.553   4.113  14.507 -0.1976  0.3601  0.4794
  567TMC3    C5 8410   0.667   4.182  14.465 -0.5049  0.3140 -0.1145
  567TMC3    C6 8411   0.660   4.271  14.360 -0.1077 -0.3325 -0.2986
  567TMC3     C 8412   0.355   4.006  14.429 -0.2404  0.5232  0.0826
  567TMC3     O 8413   0.419   3.901  14.432 -0.4584 -0.1538 -0.8554
  567TMC3     H 8414   0.354   4.184  14.248 -2.2340  1.8610  2.3034
  567TMC3    H1 8415   0.556   4.039  14.587  2.9881 -0.3991 -0.3138
  567TMC3    H2 8416   0.750   4.326  14.334 -0.4771  0.5523  0.3245
  567TMC3    C7 8417   0.791   4.172  14.519 -0.3287 -0.0115 -0.5152
  567TMC3    C8 8418   0.579   4.256  14.131  0.0585 -0.1309 -0.1918
  567TMC3    O1 8419   0.883   4.194  14.443  0.3892 -0.4616  0.1953
  567TMC3    O2 8420   0.504   4.182  14.076  0.1681  0.0512  0.1506
  568MPD2     C 8421   2.358   4.087  16.605 -0.5407 -0.2152 -0.1828
  568MPD2    C1 8422   2.429   4.183  16.668  0.3426  0.0388 -0.7002
  568MPD2    C2 8423   2.454   4.300  16.597 -0.1602  0.5453 -0.0005
  568MPD2    C3 8424   2.402   4.320  16.468 -0.6864  0.8797 -0.3062
  568MPD2    C4 8425   2.313   4.225  16.423 -0.0916  0.1505 -0.1201
  568MPD2    C5 8426   2.306   4.108  16.484 -0.4012  0.1628 -0.1403
  568MPD2     H 8427   2.532   4.368  16.630 -1.7554  2.1791  0.3946
  568MPD2    H1 8428   2.276   4.226  16.321 -0.4862 -1.0697  0.0182
  568MPD2    H2 8429   2.343   3.987  16.644 -1.8321 -0.1003 -0.3842
  568MPD2    H3 8430   2.253   4.033  16.426  1.6090  0.5511 -2.4601
  568MPD2     N 8431   2.436   4.439  16.403 -0.1325  0.3258  0.0679
  568MPD2    H5 8432   2.491   4.508  16.453 -1.0115  0.6271  0.6186
  568MPD2    N1 8433   2.477   4.151  16.796 -0.0524  0.0453  0.3079
  568MPD2    H7 8434   2.493   4.055  16.825 -4.5472 -1.2908 -1.7266
  569TMC3    C1 8435   2.458   4.598  16.233 -0.1833 -0.8075 -0.5684
  569TMC3    C2 8436   2.504   4.672  16.339 -0.0301  0.6612  0.1474
  569TMC3    C3 8437   2.626   0.019  16.332 -0.1015  0.0872 -0.4950
  569TMC3    C4 8438   2.524   4.596  16.115  0.0358 -0.2022 -0.0912
  569TMC3    C5 8439   2.637   4.666  16.098 -0.1491  0.1077 -0.1020
  569TMC3    C6 8440   2.689   0.013  16.210 -0.7080 -0.2646  0.0117
  569TMC3     C 8441   2.395   4.476  16.274 -0.2216  0.2398  0.2264
  569TMC3     O 8442   2.337   4.415  16.181 -0.3375 -0.3617 -0.0381
  569TMC3     H 8443   2.441   4.682  16.426  0.0006  0.8934  0.1424
  569TMC3    H1 8444   2.491   4.529  16.037 -1.6661 -0.3275  0.7332
  569TMC3    H2 8445   2.790   0.053  16.217 -0.3706 -1.3356  1.3883
  569TMC3    C7 8446   2.614   0.035  15.984 -0.5906  0.5445  0.3755
  569TMC3    C8 8447   2.633   0.149  16.400 -0.2792 -0.1798  1.1017
  569TMC3    O1 8448   2.551   0.004  15.885 -0.1377 -0.0009 -0.5131
  569TMC3    O2 8449   2.534   0.197  16.451  0.3145  0.3082  0.0070
  570TMC3    C1 8450   1.965   3.199  16.126 -0.0096 -0.2104  0.0756
  570TMC3    C2 8451   2.023   3.233  16.008 -0.6675 -0.4085 -0.2607
  570TMC3    C3 8452   2.061   3.368  15.998 -0.8201 -0.1556  0.0057
  570TMC3    C4 8453   1.972   3.275  16.243  0.5939  0.2550 -0.4281
  570TMC3    C5 8454   2.018   3.405  16.227  0.4698 -0.6658 -0.4928
  570TMC3    C6 8455   2.055   3.456  16.107  0.6605  0.2235  0.3398
  570TMC3     C 8456   1.942   3.056  16.146 -0.0820 -0.3126  0.0168
  570TMC3     O 8457   2.013   2.978  16.082  0.0542  0.6207 -0.0134
  570TMC3     H 8458   2.024   3.163  15.926 -0.3223  2.3246 -2.5541
  570TMC3    H1 8459   1.957   3.237  16.344  0.1778 -0.8324 -0.9059
  570TMC3    H2 8460   2.089   3.559  16.102  0.0610  0.4496  0.9524
  570TMC3    C7 8461   2.055   3.474  16.348 -0.0929  0.5998  0.1527
  570TMC3    C8 8462   2.160   3.407  15.901  0.7375 -0.0958 -0.1215
  570TMC3    O1 8463   2.082   3.410  16.449 -0.1735  0.1444 -0.8436
  570TMC3    O2 8464   2.245   3.485  15.938 -0.0650 -0.4176 -0.1207
  571MPD2     C 8465   0.616   0.120   0.109  0.3326  0.5944 -0.0956
  571MPD2    C1 8466   0.540   0.103   0.217  0.0435  0.8720  0.0033
  571MPD2    C2 8467   0.525   0.213   0.296  0.0182  0.4185  0.5188
  571MPD2    C3 8468   0.596   0.327   0.276 -0.2368 -0.2731  0.7227
  571MPD2    C4 8469   0.677   0.335   0.169 -0.0617 -0.0582  0.3202
  571MPD2    C5 8470   0.679   0.234   0.072 -0.1031 -1.1226  0.6039
  571MPD2     H 8471   0.446   0.218   0.369 -2.5262 -1.2992 -2.0959
  571MPD2    H1 8472   0.721   0.430   0.141 -0.7150  0.3688  0.7231
  571MPD2    H2 8473   0.645   0.033   0.051 -1.4223 -2.3541  3.4345
  571MPD2    H3 8474   0.742   0.240  17.667 -0.2195  1.3579  0.6939
  571MPD2     N 8475   0.567   0.435   0.363 -0.0716 -0.5438 -0.2491
  571MPD2    H5 8476   0.598   0.527   0.336  0.2039 -0.6294 -0.2324
  571MPD2    N1 8477   0.474   4.703   0.240 -0.3327  0.1379  0.1941
  571MPD2    H7 8478   0.478   4.631   0.167  1.4406  0.2618  0.1812
  572TMC3    C1 8479   0.493   0.561   0.544  0.1758  0.4811 -0.1359
  572TMC3    C2 8480   0.512   0.567   0.681  0.0859  0.2216  0.4864
  572TMC3    C3 8481   0.544   0.688   0.729 -0.4640  0.1615 -0.1211
  572TMC3    C4 8482   0.492   0.674   0.455  0.2330  0.2239 -0.4323
  572TMC3    C5 8483   0.500   0.795   0.522 -0.1244 -0.4576 -0.2279
  572TMC3    C6 8484   0.545   0.798   0.650 -0.0559 -0.1109 -0.5278
  572TMC3     C 8485   0.507   0.429   0.486  0.0012  0.3500  0.3456
  572TMC3     O 8486   0.474   0.334   0.555 -0.2686  0.0031  0.4590
  572TMC3     H 8487   0.533   0.472   0.729  1.5305  0.3477  0.0928
  572TMC3    H1 8488   0.465   0.663   0.350 -1.4526  0.4845 -0.0299
  572TMC3    H2 8489   0.560   0.890   0.704  0.1611  0.5153 -1.6495
  572TMC3    C7 8490   0.451   0.917   0.457  0.6150  0.4425  0.2501
  572TMC3    C8 8491   0.571   0.709   0.872 -1.3326 -0.2933  0.5528
  572TMC3    O1 8492   0.415   0.909   0.336  0.1479  0.9953 -0.6731
  572TMC3    O2 8493   0.624   0.815   0.916 -0.3002 -0.3453  0.0470
  573MPD2     C 8494   2.028   1.476   1.293  0.4055 -0.5588  0.1361
  573MPD2    C1 8495   1.903   1.528   1.307 -0.8804 -0.0650  0.1301
  573MPD2    C2 8496   1.807   1.478   1.222 -0.7242  0.2560  0.2627
  573MPD2    C3 8497   1.846   1.397   1.110  0.2545 -0.2542  0.3382
  573MPD2    C4 8498   1.979   1.360   1.097 -0.3267 -0.1461 -1.1197
  573MPD2    C5 8499   2.060   1.387   1.195  0.0820  0.2131  0.1809
  573MPD2     H 8500   1.702   1.497   1.236 -0.7550 -0.6342  1.2471
  573MPD2    H1 8501   2.019   1.305   1.012  2.5324 -0.9542  0.7623
  573MPD2    H2 8502   2.111   1.514   1.353  0.1084 -0.2367  0.3406
  573MPD2    H3 8503   2.161   1.349   1.182  1.0763  3.4015 -1.2074
  573MPD2     N 8504   1.753   1.353   1.008 -0.8969 -0.3181  0.0073
  573MPD2    H5 8505   1.792   1.294   0.935 -0.7990 -0.5763  0.2677
  573MPD2    N1 8506   1.872   1.609   1.423 -0.8992 -0.7252  0.6847
  573MPD2    H7 8507   1.934   1.610   1.503 -1.8443  0.0747  1.4013
  574TMC3    C1 8508   1.546   1.302   0.900 -0.6976  0.1913 -0.4328
  574TMC3    C2 8509   1.418   1.266   0.920 -0.1833  0.7656  0.6974
  574TMC3    C3 8510   1.341   1.209   0.820 -0.2647 -0.1905  0.3016
  574TMC3    C4 8511   1.603   1.280   0.774 -0.0369 -0.3867  0.1245
  574TMC3    C5 8512   1.524   1.222   0.671  0.4042 -0.1853 -0.8115
  574TMC3    C6 8513   1.394   1.187   0.698  0.5778  0.2582  0.0043
  574TMC3     C 8514   1.614   1.373   1.004  0.0281  0.0052 -0.3377
  574TMC3     O 8515   1.545   1.435   1.082  0.0414 -0.2258 -0.0586
  574TMC3     H 8516   1.371   1.297   1.013  0.5033  1.0973  0.9375
  574TMC3    H1 8517   1.708   1.292   0.752  0.0945  3.7738  3.0490
  574TMC3    H2 8518   1.341   1.149   0.612 -1.6674 -0.3960  1.6777
  574TMC3    C7 8519   1.564   1.204   0.528  0.8588 -0.4960 -0.1959
  574TMC3    C8 8520   1.196   1.216   0.839 -0.0981  0.1078 -0.2936
  574TMC3    O1 8521   1.492   1.141   0.451 -0.2524  0.5253 -0.7610
  574TMC3    O2 8522   1.147   1.228   0.952 -0.4621  0.0780 -0.1181
  575TMC3    C1 8523   4.018   2.187  11.211  0.2138  0.2134 -0.5317
  575TMC3    C2 8524   4.081   2.065  11.208 -0.2664 -0.1454 -0.3624
  575TMC3    C3 8525   4.130   2.019  11.093 -0.4584 -0.0485 -0.0932
  575TMC3    C4 8526   4.017   2.272  11.103  0.5554 -0.0286 -0.1235
  575TMC3    C5 8527   4.071   2.222  10.987 -0.1790  0.0495 -0.6619
  575TMC3    C6 8528   4.123   2.096  10.981 -0.4788  0.4966 -0.7209
  575TMC3     C 8529   3.966   2.229  11.340  0.0599 -0.1591  0.9947
  575TMC3     O 8530   3.945   2.143  11.424  0.1927  0.1797 -0.1360
  575TMC3     H 8531   4.070   1.995  11.290  1.6480  1.2800  1.1026
  575TMC3    H1 8532   3.960   2.364  11.106  1.6577  0.6608 -0.2228
  575TMC3    H2 8533   4.155   2.068  10.882 -1.4695 -1.3708 -0.5111
  575TMC3    C7 8534   4.106   2.312  10.875  0.0296 -0.3367  0.9305
  575TMC3    C8 8535   4.177   1.878  11.081  0.4288  0.5196 -0.1291
  575TMC3    O1 8536   4.131   2.258  10.767  0.4588  0.3405  0.3409
  575TMC3    O2 8537   4.145   1.811  11.179 -0.5290  0.3904 -0.3787
  576MPD2     C 8538   4.069   3.002  12.384  0.6807 -0.0429  0.5752
  576MPD2    C1 8539   4.067   3.040  12.251  0.0012 -0.3467 -0.8464
  576MPD2    C2 8540   3.968   3.126  12.210 -0.3807  0.0350  0.0155
  576MPD2    C3 8541   3.873   3.172  12.302 -0.0900 -1.1459 -0.7059
  576MPD2    C4 8542   3.865   3.117  12.429 -0.5093  0.1469 -0.2800
  576MPD2    C5 8543   3.963   3.032  12.466  0.4081 -0.3707 -0.0285
  576MPD2     H 8544   3.982   3.174  12.114 -2.2569  0.4554 -0.0445
  576MPD2    H1 8545   3.795   3.158  12.501  0.0276  0.7927 -0.1196
  576MPD2    H2 8546   4.153   2.952  12.430 -0.3838 -0.5131  1.9789
  576MPD2    H3 8547   3.965   2.998  12.569 -1.1304  0.3072  0.2397
  576MPD2     N 8548   3.803   3.289  12.259 -0.3650 -0.2090 -0.3211
  576MPD2    H5 8549   3.818   3.328  12.166  0.6028  0.1150 -0.0313
  576MPD2    N1 8550   4.173   3.019  12.160 -0.0299 -0.1279  0.5408
  576MPD2    H7 8551   4.147   3.065  12.073  1.6645  0.6811  0.4622
  577TMC3    C1 8552   4.366   2.943  12.058 -0.7128  0.1911 -0.1730
  577TMC3    C2 8553   4.435   2.824  12.048 -0.0248  0.3165 -0.4564
  577TMC3    C3 8554   4.469   2.780  11.922 -0.2453 -0.2775  0.0309
  577TMC3    C4 8555   4.341   3.024  11.951 -0.1880  0.1025 -0.1309
  577TMC3    C5 8556   4.382   2.973  11.826 -0.5075 -0.1070  0.6809
  577TMC3    C6 8557   4.453   2.862  11.811  0.2230 -0.3951 -0.4721
  577TMC3     C 8558   4.287   2.945  12.181  0.3408  0.1804  0.0202
  577TMC3     O 8559   4.318   2.895  12.287 -0.5130  0.3153  0.5674
  577TMC3     H 8560   4.441   2.758  12.134 -2.1631 -0.4509 -0.8828
  577TMC3    H1 8561   4.292   3.120  11.958 -0.3080  0.0471 -0.2147
  577TMC3    H2 8562   4.483   2.829  11.712  2.0978  1.0969 -0.4106
  577TMC3    C7 8563   4.391   3.065  11.721 -0.1026  0.3250  1.1198
  577TMC3    C8 8564   4.503   2.641  11.904  1.1158 -0.2328 -0.5234
  577TMC3    O1 8565   4.475   3.038  11.634  0.8458  0.3523 -0.0564
  577TMC3    O2 8566   4.484   2.573  12.004 -0.3585  0.3525  0.2863
  578MPD2     C 8567   1.652   4.258   0.845 -0.5187  0.4806  0.3767
  578MPD2    C1 8568   1.706   4.147   0.783  0.5321 -0.5865  0.4799
  578MPD2    C2 8569   1.788   4.064   0.850 -0.7640  0.0516  0.2292
  578MPD2    C3 8570   1.820   4.100   0.981  0.0501 -0.7173  0.3239
  578MPD2    C4 8571   1.762   4.204   1.043  0.7309  0.2001 -0.1908
  578MPD2    C5 8572   1.682   4.288   0.973 -1.4412 -0.1064  0.5317
  578MPD2     H 8573   1.828   3.977   0.800  3.4183  1.0124  1.9460
  578MPD2    H1 8574   1.795   4.245   1.138  0.1397  0.6208 -0.1637
  578MPD2    H2 8575   1.599   4.331   0.785  1.1063  0.8934 -0.5495
  578MPD2    H3 8576   1.659   4.388   1.006  0.2507 -0.0016  1.3764
  578MPD2     N 8577   1.900   4.011   1.058 -0.1383  0.0021  0.1676
  578MPD2    H5 8578   1.928   3.920   1.022  0.5438  0.0822  0.4850
  578MPD2    N1 8579   1.674   4.134   0.644 -0.1465  0.1042  0.1523
  578MPD2    H7 8580   1.634   4.218   0.603 -0.8977  0.2161  1.1114
  579TMC3    C1 8581   2.034   3.917   1.218 -0.3263  0.5660 -0.2209
  579TMC3    C2 8582   2.157   3.957   1.260  0.5960 -0.6030 -0.0276
  579TMC3    C3 8583   2.243   3.858   1.283 -0.4866 -0.2578  0.0850
  579TMC3    C4 8584   1.997   3.790   1.183 -0.5631  0.1944  0.6400
  579TMC3    C5 8585   2.097   3.696   1.192 -0.1417  0.2436  0.9847
  579TMC3    C6 8586   2.215   3.723   1.245  0.0748 -0.6013 -0.4267
  579TMC3     C 8587   1.949   4.030   1.186 -0.1676 -0.1322 -0.0085
  579TMC3     O 8588   1.927   4.117   1.269  0.0493  0.2798  0.0765
  579TMC3     H 8589   2.172   4.057   1.299  0.1151 -0.3428 -0.5221
  579TMC3    H1 8590   1.898   3.766   1.148 -0.1589  0.5467 -0.7462
  579TMC3    H2 8591   2.284   3.641   1.264 -0.0537 -0.5416  0.3250
  579TMC3    C7 8592   2.067   3.552   1.177 -0.3830 -0.0247  0.1096
  579TMC3    C8 8593   2.377   3.903   1.311  0.4805  0.0886  0.1914
  579TMC3    O1 8594   2.147   3.472   1.220  0.1325  0.0097 -0.2464
  579TMC3    O2 8595   2.394   4.005   1.379 -0.1071  0.4612 -0.5250
  580TMC3    C1 8596   1.712   2.766  12.156 -0.1881  0.0164  0.1146
  580TMC3    C2 8597   1.815   2.830  12.218  1.5523 -0.0549 -0.9295
  580TMC3    C3 8598   1.916   2.755  12.275 -0.1601  0.5534 -0.6031
  580TMC3    C4 8599   1.701   2.631  12.157  0.3981  0.0284 -0.5920
  580TMC3    C5 8600   1.811   2.562  12.202  0.2327  0.3330  0.2092
  580TMC3    C6 8601   1.921   2.622  12.248  0.2994  0.6776 -0.9481
  580TMC3     C 8602   1.611   2.857  12.100 -0.2970  0.1127  0.0044
  580TMC3     O 8603   1.633   2.974  12.121  0.2183  0.2541 -0.0244
  580TMC3     H 8604   1.824   2.938  12.216 -2.5717  0.2799 -0.5706
  580TMC3    H1 8605   1.611   2.578  12.128 -0.1086  0.5803 -0.0275
  580TMC3    H2 8606   1.999   2.560  12.290 -1.4662 -1.5148 -0.9401
  580TMC3    C7 8607   1.796   2.418  12.222  0.3518 -0.2179 -0.0845
  580TMC3    C8 8608   2.041   2.823  12.271 -0.4872 -0.2156 -0.2704
  580TMC3    O1 8609   1.847   2.380  12.328 -0.5227  0.2807  0.0376
  580TMC3    O2 8610   2.036   2.944  12.297 -0.6780  0.1087 -0.9622
  581MPD2     C 8611   4.064   2.441  14.824 -0.3759 -0.0710  0.0829
  581MPD2    C1 8612   3.958   2.353  14.825 -0.1181  0.1325  0.6290
  581MPD2    C2 8613   3.844   2.403  14.776  0.5473  0.2295  0.4839
  581MPD2    C3 8614   3.823   2.537  14.742 -0.2612  0.1898  0.0494
  581MPD2    C4 8615   3.926   2.623  14.756  0.1298 -0.0977 -0.2712
  581MPD2    C5 8616   4.051   2.569  14.776 -0.5377  0.2047 -0.6455
  581MPD2     H 8617   3.759   2.336  14.770 -2.1227  3.4894  1.3642
  581MPD2    H1 8618   3.922   2.727  14.728  0.6901  0.2484  0.9498
  581MPD2    H2 8619   4.164   2.405  14.844 -0.4344 -0.4903 -0.3672
  581MPD2    H3 8620   4.145   2.624  14.775  1.1439 -2.7198 -1.5588
  581MPD2     N 8621   3.697   2.576  14.696  0.1942 -0.1995 -0.9108
  581MPD2    H5 8622   3.630   2.500  14.690  0.3402 -0.1553 -2.8630
  581MPD2    N1 8623   3.977   2.223  14.874  0.3127 -0.1525  0.2589
  581MPD2    H7 8624   4.072   2.193  14.893  0.6712 -0.2109 -1.6519
  582TMC3    C1 8625   3.912   2.040  15.001  0.2743 -0.3168  0.1337
  582TMC3    C2 8626   4.004   2.057  15.107  0.3619  0.5404  0.6201
  582TMC3    C3 8627   4.002   1.963  15.208 -0.1934  0.5796 -0.2854
  582TMC3    C4 8628   3.810   1.946  15.021  0.0806 -0.2283 -0.9871
  582TMC3    C5 8629   3.810   1.857  15.125 -0.1243 -0.4627 -0.2908
  582TMC3    C6 8630   3.913   1.862  15.213 -0.2546 -0.4695 -0.6064
  582TMC3     C 8631   3.868   2.152  14.927  0.9761 -0.1464 -0.4513
  582TMC3     O 8632   3.749   2.179  14.922  0.1135 -0.5866  0.2091
  582TMC3     H 8633   4.079   2.135  15.095  1.2334 -0.4459 -0.3237
  582TMC3    H1 8634   3.722   1.931  14.958 -1.3666  0.4254  0.8740
  582TMC3    H2 8635   3.909   1.799  15.301  1.4866 -1.4390 -1.2305
  582TMC3    C7 8636   3.693   1.886  15.207 -0.0194  0.5203 -0.3033
  582TMC3    C8 8637   4.029   2.015  15.340  0.3649  0.4379 -0.1326
  582TMC3    O1 8638   3.654   1.795  15.274  0.7295  0.1101  0.6848
  582TMC3    O2 8639   3.972   2.123  15.356 -0.6542  0.5112  0.1744
  583MPD2     C 8640   3.932   3.868  16.721 -0.1094  0.2946 -0.1544
  583MPD2    C1 8641   3.924   4.008  16.708 -0.2361 -0.5805 -0.1191
  583MPD2    C2 8642   3.912   4.086  16.823  0.7134 -0.0680  0.2091
  583MPD2    C3 8643   3.900   4.020  16.942 -0.2511  0.8978 -0.6053
  583MPD2    C4 8644   3.905   3.887  16.956 -0.5829  0.0860 -0.3673
  583MPD2    C5 8645   3.918   3.806  16.844 -0.4568 -0.2024 -1.0431
  583MPD2     H 8646   3.911   4.194  16.816 -0.0079 -0.0962 -0.0452
  583MPD2    H1 8647   3.891   3.829  17.046  1.0251  0.2402 -0.0170
  583MPD2    H2 8648   3.960   3.800  16.642 -0.2530  0.3207 -0.2269
  583MPD2    H3 8649   3.931   3.700  16.864 -1.3216  0.6698  4.1396
  583MPD2     N 8650   3.869   4.105  17.047  0.8229 -0.5114  0.4333
  583MPD2    H5 8651   3.855   4.201  17.016 -0.5235 -0.8169  0.0806
  583MPD2    N1 8652   3.956   4.063  16.581 -0.7953 -0.3794 -0.7323
  583MPD2    H7 8653   3.978   4.162  16.572  1.6293 -0.8873 -0.4953
  584TMC3    C1 8654   3.823   4.175  17.267  0.5288 -1.0030 -0.1961
  584TMC3    C2 8655   3.876   4.298  17.239  0.5195 -0.6462 -0.0552
  584TMC3    C3 8656   3.863   4.400  17.324  0.0056  0.2598 -0.0120
  584TMC3    C4 8657   3.762   4.149  17.387 -0.3345 -0.3768 -0.5471
  584TMC3    C5 8658   3.744   4.260  17.469 -0.2899  0.1291  0.1513
  584TMC3    C6 8659   3.797   4.384  17.439  0.2632  0.3262 -0.9236
  584TMC3     C 8660   3.849   4.065  17.176 -0.3519 -0.7642  0.1989
  584TMC3     O 8661   3.842   3.953  17.220 -0.0562 -0.5337  0.5432
  584TMC3     H 8662   3.949   4.318  17.162  1.5237 -3.4337  0.1678
  584TMC3    H1 8663   3.729   4.052  17.422 -0.0585 -0.8895 -1.6947
  584TMC3    H2 8664   3.806   4.463  17.513 -0.3727  0.2706 -0.7876
  584TMC3    C7 8665   3.707   4.227  17.607  0.3045 -0.4005 -0.3012
  584TMC3    C8 8666   3.911   4.535  17.280 -0.0032  0.4421  0.4721
  584TMC3    O1 8667   3.713   4.113  17.639 -0.6558  0.2810  0.0512
  584TMC3    O2 8668   3.907   4.564  17.161 -0.4831  0.0058 -0.0921
  585MPD2     C 8669   3.835   3.063   0.403  0.0638  0.5782  0.0835
  585MPD2    C1 8670   3.752   3.098   0.310  0.0791 -0.1107 -0.5880
  585MPD2    C2 8671   3.645   3.018   0.271 -0.5969 -0.0156  0.0470
  585MPD2    C3 8672   3.622   2.894   0.333 -0.8911 -0.7351  0.9493
  585MPD2    C4 8673   3.704   2.864   0.429 -0.3673 -0.1916  0.5938
  585MPD2    C5 8674   3.802   2.949   0.471 -0.0204 -0.1872  0.6364
  585MPD2     H 8675   3.575   3.041   0.191  1.7760 -0.8263 -2.2417
  585MPD2    H1 8676   3.687   2.777   0.491  1.1963 -0.0978  1.1626
  585MPD2    H2 8677   3.912   3.126   0.444 -0.3710  1.0738  0.1351
  585MPD2    H3 8678   3.871   2.922   0.549 -0.1458 -0.8524  0.5211
  585MPD2     N 8679   3.520   2.806   0.293 -0.5198 -0.4543 -0.3435
  585MPD2    H5 8680   3.518   2.711   0.331  0.2917 -0.2399  0.2424
  585MPD2    N1 8681   3.757   3.223   0.247  0.2368 -0.1726 -0.1876
  585MPD2    H7 8682   3.675   3.248   0.193  0.8298  0.2114 -0.9069
  586TMC3    C1 8683   3.359   2.702   0.155 -0.2020  0.0125  0.1540
  586TMC3    C2 8684   3.439   2.590   0.137 -0.8461 -0.1037  0.8158
  586TMC3    C3 8685   3.389   2.482   0.063  0.0092  0.2844  0.1291
  586TMC3    C4 8686   3.242   2.717   0.095  0.0650 -0.5556  0.2742
  586TMC3    C5 8687   3.202   2.608   0.009  0.1881 -0.2624  0.3121
  586TMC3    C6 8688   3.262   2.488  17.682  0.2175 -0.3818  0.8392
  586TMC3     C 8689   3.429   2.825   0.188 -0.2626 -1.2055 -0.0383
  586TMC3     O 8690   3.401   2.923   0.123  0.8090  0.2335  0.2371
  586TMC3     H 8691   3.541   2.584   0.173 -1.2689 -0.3003  1.9763
  586TMC3    H1 8692   3.187   2.808   0.118  0.2431 -0.3188 -0.2556
  586TMC3    H2 8693   3.218   2.412  17.619  0.7979 -0.8279  0.9719
  586TMC3    C7 8694   3.075   2.625  17.630 -0.0684 -0.3803  0.8452
  586TMC3    C8 8695   3.495   2.391   0.017  0.0257 -0.4484  0.5728
  586TMC3    O1 8696   3.022   2.521  17.597 -0.3432  0.4126  0.3528
  586TMC3    O2 8697   3.604   2.394   0.067 -1.0088 -0.6530  0.4331
  587TMC3    C1 8698   1.061   1.572  16.639  0.5810 -0.5418  0.0783
  587TMC3    C2 8699   1.022   1.673  16.557  0.0298  0.2216  0.0363
  587TMC3    C3 8700   1.102   1.779  16.531  0.1993 -0.0786  0.7013
  587TMC3    C4 8701   1.175   1.581  16.712 -0.0576 -0.3822  0.7470
  587TMC3    C5 8702   1.255   1.687  16.685 -0.1660  0.4465  0.2097
  587TMC3    C6 8703   1.226   1.784  16.585  0.0777 -0.8686 -0.0128
  587TMC3     C 8704   0.965   1.478  16.686 -0.7426  0.3582 -0.0327
  587TMC3     O 8705   0.985   1.432  16.801  0.0309 -0.0514  0.0769
  587TMC3     H 8706   0.928   1.671  16.503 -0.7723 -0.5356  1.4500
  587TMC3    H1 8707   1.209   1.493  16.765  1.5629 -0.4160 -0.3740
  587TMC3    H2 8708   1.302   1.852  16.548 -0.2287 -0.2073  0.5775
  587TMC3    C7 8709   1.392   1.681  16.732  0.3732  0.2692  0.3276
  587TMC3    C8 8710   1.065   1.886  16.436  0.0408  0.4962 -0.8299
  587TMC3    O1 8711   1.469   1.750  16.673 -0.6579  0.1366 -0.1911
  587TMC3    O2 8712   1.146   1.931  16.355  0.4652  0.2185  0.8424
  588TMC3    C1 8713   3.762   4.153   9.573 -0.1315 -0.3148 -0.5779
  588TMC3    C2 8714   3.761   4.024   9.521 -1.3610  0.3402  0.0644
  588TMC3    C3 8715   3.797   3.922   9.601 -1.0319 -0.0958 -0.1400
  588TMC3    C4 8716   3.795   4.188   9.699 -0.4047  1.2987  0.3635
  588TMC3    C5 8717   3.812   4.081   9.781 -0.3179  0.2974 -0.4509
  588TMC3    C6 8718   3.820   3.951   9.734  0.2112  0.2493  0.1319
  588TMC3     C 8719   3.662   4.243   9.511  0.0217 -0.2789  0.4181
  588TMC3     O 8720   3.626   4.205   9.405  0.3949 -0.0137  0.0418
  588TMC3     H 8721   3.749   3.997   9.416  0.4133 -0.3316  0.0300
  588TMC3    H1 8722   3.804   4.291   9.733 -1.1051  1.6401 -0.4741
  588TMC3    H2 8723   3.826   3.875   9.811  0.2302 -0.2539 -0.3649
  588TMC3    C7 8724   3.798   4.103   9.920  1.0834 -0.3214 -0.6346
  588TMC3    C8 8725   3.777   3.787   9.560  0.4488 -0.2852 -0.1412
  588TMC3    O1 8726   3.838   4.009   9.994  0.2796  0.2790 -0.1777
  588TMC3    O2 8727   3.728   3.775   9.448  0.4158 -0.3077  0.1915
  589TMC3    C1 8728   2.613   2.008   1.354 -0.9249 -0.1038 -0.2655
  589TMC3    C2 8729   2.667   2.024   1.479 -0.4334 -0.3402  0.8956
  589TMC3    C3 8730   2.767   1.939   1.514  0.0859 -0.6857  0.0708
  589TMC3    C4 8731   2.644   1.898   1.273  0.0624 -0.7282 -0.1534
  589TMC3    C5 8732   2.744   1.810   1.320  0.8581 -0.0737  0.3702
  589TMC3    C6 8733   2.811   1.835   1.438  0.3358  0.1646 -0.9167
  589TMC3     C 8734   2.508   2.090   1.305  0.0840 -0.0665 -0.9840
  589TMC3     O 8735   2.454   2.054   1.201 -0.2561  0.0074 -0.3702
  589TMC3     H 8736   2.641   2.102   1.550 -2.7994  0.1858 -0.5793
  589TMC3    H1 8737   2.602   1.897   1.173  1.1383  1.8316 -0.6497
  589TMC3    H2 8738   2.866   1.756   1.489  0.8754  0.5597 -0.8841
  589TMC3    C7 8739   2.760   1.679   1.249 -0.2107 -0.0075 -0.2073
  589TMC3    C8 8740   2.809   1.945   1.651 -0.4554 -0.0043 -0.4474
  589TMC3    O1 8741   2.797   1.588   1.320  0.0722  0.1626  0.0674
  589TMC3    O2 8742   2.715   1.966   1.727  0.1642 -0.3460  0.0609
  590MPD2     C 8743   1.939   0.134  16.856 -0.4477 -0.0957  0.4588
  590MPD2    C1 8744   1.918   0.090  16.729  0.4197  0.3735  0.2726
  590MPD2    C2 8745   1.993   0.139  16.630  0.1142 -0.7715 -0.6086
  590MPD2    C3 8746   2.090   0.236  16.653  0.0838 -0.1295 -0.2270
  590MPD2    C4 8747   2.119   0.271  16.784 -0.0655 -0.1201 -0.1278
  590MPD2    C5 8748   2.041   0.225  16.880 -1.0338 -0.3483  0.3170
  590MPD2     H 8749   1.983   0.110  16.526 -1.7667  1.2596 -0.9855
  590MPD2    H1 8750   2.200   0.338  16.814 -0.3028 -0.9873  2.4073
  590MPD2    H2 8751   1.883   0.089  16.938  1.3113 -1.8264  0.7206
  590MPD2    H3 8752   2.066   0.243  16.984  0.1201  2.7793 -0.5010
  590MPD2     N 8753   2.155   0.296  16.537  0.2040 -0.4470 -0.0738
  590MPD2    H5 8754   2.130   0.264  16.443  0.6713  1.9112 -0.9950
  590MPD2    N1 8755   1.818   4.709  16.710  0.7903 -0.0564  0.4605
  590MPD2    H7 8756   1.768   4.677  16.792  0.5832 -0.9881 -0.0302
  591TMC3    C1 8757   2.266   0.449  16.410  0.8278 -1.4304  0.0114
  591TMC3    C2 8758   2.298   0.361  16.313 -0.0155 -0.0011 -0.2142
  591TMC3    C3 8759   2.278   0.405  16.182 -0.1927  0.1410 -0.0532
  591TMC3    C4 8760   2.228   0.584  16.390 -0.3040  0.6179 -0.1846
  591TMC3    C5 8761   2.215   0.622  16.262 -0.7127  0.2281  0.0790
  591TMC3    C6 8762   2.240   0.537  16.156 -0.1488 -0.4432  0.5520
  591TMC3     C 8763   2.244   0.399  16.540  0.4537  0.1042  0.0148
  591TMC3     O 8764   2.287   0.466  16.633 -0.2807 -0.3947  0.1144
  591TMC3     H 8765   2.339   0.263  16.336 -1.7335 -1.0011 -1.4241
  591TMC3    H1 8766   2.195   0.655  16.465  1.9081 -0.2132  1.5612
  591TMC3    H2 8767   2.218   0.566  16.054  0.8634 -1.1405  0.1310
  591TMC3    C7 8768   2.112   0.727  16.251 -0.1083 -0.1620  0.2747
  591TMC3    C8 8769   2.288   0.308  16.074  0.2332  0.1984  0.0563
  591TMC3    O1 8770   2.042   0.749  16.349 -0.2600 -0.1442  0.0000
  591TMC3    O2 8771   2.347   0.205  16.098 -0.6511  0.0573  0.0910
  592MPD2     C 8772   2.684   2.086  11.342 -0.6951 -0.7308  0.0648
  592MPD2    C1 8773   2.652   2.168  11.448 -0.5701  0.2206  0.0768
  592MPD2    C2 8774   2.529   2.151  11.508 -0.2480  0.3141  0.3331
  592MPD2    C3 8775   2.453   2.035  11.478 -0.3515 -0.5611  0.8427
  592MPD2    C4 8776   2.495   1.946  11.374 -0.2746  0.0755  0.2426
  592MPD2    C5 8777   2.610   1.974  11.304  0.1937 -0.0446 -0.4804
  592MPD2     H 8778   2.492   2.221  11.582 -0.6752  1.0062 -0.5321
  592MPD2    H1 8779   2.444   1.852  11.361  0.3402  0.1566 -2.6049
  592MPD2    H2 8780   2.780   2.101  11.294 -2.1784 -1.8987 -3.2301
  592MPD2    H3 8781   2.651   1.902  11.234 -0.4349 -0.8080 -0.0646
  592MPD2     N 8782   2.343   2.016  11.568  0.0740  0.1239  0.0972
  592MPD2    H5 8783   2.341   2.074  11.652 -0.1487 -1.2452  1.0385
  592MPD2    N1 8784   2.742   2.277  11.471  0.2614  0.2101  0.1902
  592MPD2    H7 8785   2.810   2.289  11.397  0.5565  1.5491  0.7020
  593TMC3    C1 8786   2.823   2.461  11.593  0.8110 -0.2634  0.1556
  593TMC3    C2 8787   2.791   2.573  11.669  0.7949  0.3936 -0.2550
  593TMC3    C3 8788   2.886   2.668  11.686 -0.6755  0.0584  0.0504
  593TMC3    C4 8789   2.936   2.457  11.516  0.3317  0.0947 -0.1271
  593TMC3    C5 8790   3.020   2.562  11.523  0.4172 -0.2804  0.9362
  593TMC3    C6 8791   3.004   2.668  11.608 -0.3686  0.4766 -0.0123
  593TMC3     C 8792   2.716   2.362  11.574  0.3262  0.5062 -0.0715
  593TMC3     O 8793   2.624   2.373  11.656  0.3205  0.5564 -0.2707
  593TMC3     H 8794   2.718   2.574  11.749  1.1175  2.1229  0.0112
  593TMC3    H1 8795   2.965   2.373  11.454 -3.0425 -1.2205  0.0426
  593TMC3    H2 8796   3.069   2.755  11.602  0.0786 -0.0497 -3.1193
  593TMC3    C7 8797   3.135   2.568  11.432 -0.3579  0.3390 -0.1050
  593TMC3    C8 8798   2.860   2.773  11.776  0.4217 -0.2515 -0.6994
  593TMC3    O1 8799   3.223   2.640  11.474  0.2362  0.3353  0.1094
  593TMC3    O2 8800   2.742   2.791  11.811  0.0130  0.2937 -0.4582
  594MPD2     C 8801   1.103   0.603  14.064 -0.3449 -0.1056  0.4803
  594MPD2    C1 8802   1.044   0.687  14.155  0.1078  0.3739  0.2483
  594MPD2    C2 8803   1.076   0.824  14.157  0.0815 -0.9277 -0.3357
  594MPD2    C3 8804   1.172   0.883  14.071  1.2954  0.7789 -0.6655
  594MPD2    C4 8805   1.238   0.790  13.991  0.9677  0.0418 -0.8314
  594MPD2    C5 8806   1.204   0.654  13.989 -0.4433 -0.2755 -0.1138
  594MPD2     H 8807   1.009   0.887  14.215 -0.9326 -2.2477 -0.0654
  594MPD2    H1 8808   1.318   0.828  13.928 -0.9830  1.9522 -2.1572
  594MPD2    H2 8809   1.111   0.498  14.089  1.7058 -0.4154 -1.4531
  594MPD2    H3 8810   1.252   0.588  13.917 -1.2503 -0.0072 -0.8983
  594MPD2     N 8811   1.203   1.014  14.087  0.0067  0.2154 -0.1668
  594MPD2    H5 8812   1.174   1.057  14.174  0.7847  1.4983 -0.5311
  594MPD2    N1 8813   0.950   0.624  14.240  0.4019 -0.1242 -0.4531
  594MPD2    H7 8814   0.933   0.524  14.231  1.0778 -0.4474  1.9512
  595TMC3    C1 8815   1.512   1.366  14.049  0.6848 -0.2479  0.6879
  595TMC3    C2 8816   1.467   1.246  14.012  0.2156 -0.5015  0.7690
  595TMC3    C3 8817   1.348   1.207  14.062  0.0690 -0.0096 -0.2010
  595TMC3    C4 8818   1.427   1.463  14.106  1.0541 -0.5898 -0.6484
  595TMC3    C5 8819   1.305   1.423  14.149  0.8312  0.2259  0.1910
  595TMC3    C6 8820   1.271   1.290  14.140 -0.1019  0.9802  0.0348
  595TMC3     C 8821   1.648   1.407  14.023  0.3219 -0.0114  0.3964
  595TMC3     O 8822   1.675   1.512  14.072  0.4966  0.0471  0.6706
  595TMC3     H 8823   1.530   1.172  13.963  0.2254  0.2624 -0.3871
  595TMC3    H1 8824   1.453   1.568  14.105  1.8920 -0.8062 -1.4451
  595TMC3    H2 8825   1.175   1.258  14.178  0.2402 -0.9503 -0.6904
  595TMC3    C7 8826   1.226   1.503  14.238 -0.2673  0.6886 -0.7696
  595TMC3    C8 8827   1.292   1.082  14.005  0.3961  0.3146  1.0045
  595TMC3    O1 8828   1.108   1.482  14.252 -0.3275  0.5331  0.1373
  595TMC3    O2 8829   1.334   1.057  13.891  0.7115 -0.2765  0.1738
  596MPD2     C 8830   0.052   3.301  16.513 -0.4374  0.1770 -0.1986
  596MPD2    C1 8831   0.115   3.426  16.498  0.3506 -1.1894 -0.4493
  596MPD2    C2 8832   0.113   3.475  16.367  0.8944  0.3611  0.0308
  596MPD2    C3 8833   0.052   3.411  16.261  0.3836  0.3412  0.0016
  596MPD2    C4 8834   4.720   3.288  16.276 -0.4090 -0.0907 -0.7615
  596MPD2    C5 8835   4.718   3.237  16.405 -0.1841 -0.7576 -0.4668
  596MPD2     H 8836   0.167   3.568  16.356  1.1642  0.2870  0.7070
  596MPD2    H1 8837   4.658   3.243  16.199 -0.9433 -1.8009  0.7005
  596MPD2    H2 8838   0.040   3.264  16.615  0.0218 -0.7289 -0.4743
  596MPD2    H3 8839   4.671   3.142  16.426  0.0582 -0.8788 -0.4650
  596MPD2     N 8840   0.048   3.469  16.130  0.0281 -0.3479 -0.1944
  596MPD2    H5 8841   0.014   3.416  16.050  1.0654 -0.0752 -0.8052
  596MPD2    N1 8842   0.168   3.504  16.607  0.4482 -0.2385  0.9463
  596MPD2    H7 8843   0.183   3.604  16.593 -0.0428 -0.3423 -0.3243
  597TMC3    C1 8844   0.260   3.528  16.837 -0.0222 -0.3118  0.9544
  597TMC3    C2 8845   0.341   3.470  16.930  0.2635  0.4049 -0.3497
  597TMC3    C3 8846   0.354   3.541  17.043 -0.0586  0.8272  0.9003
  597TMC3    C4 8847   0.198   3.651  16.853 -0.3950 -0.1485 -0.5566
  597TMC3    C5 8848   0.201   3.699  16.977 -0.2691  0.4603  0.3119
  597TMC3    C6 8849   0.288   3.660  17.069  0.3621 -0.3109 -0.6307
  597TMC3     C 8850   0.220   3.448  16.722  0.4354 -0.2278  0.5406
  597TMC3     O 8851   0.233   3.330  16.743 -0.1983 -0.9297  0.2506
  597TMC3     H 8852   0.391   3.374  16.928  2.8166  1.7716 -2.7463
  597TMC3    H1 8853   0.125   3.686  16.781 -0.8876  0.5631  0.2969
  597TMC3    H2 8854   0.314   3.724  17.152 -1.8598  0.4240 -0.5010
  597TMC3    C7 8855   0.120   3.814  17.021  0.4580  0.5262 -0.3956
  597TMC3    C8 8856   0.435   3.484  17.155  0.4447 -0.0927 -0.4657
  597TMC3    O1 8857   0.124   3.832  17.142 -0.0763  0.2140 -0.3568
  597TMC3    O2 8858   0.523   3.400  17.133  0.0876  0.0474 -0.3386
  598TMC3    C1 8859   3.149   0.556  15.572  0.3050  0.7485  0.5909
  598TMC3    C2 8860   3.019   0.587  15.601 -0.3120 -0.5551 -0.1434
  598TMC3    C3 8861   2.947   0.665  15.518  0.1967 -0.2076  0.1624
  598TMC3    C4 8862   3.217   0.624  15.469 -0.0860 -0.1840  0.4261
  598TMC3    C5 8863   3.142   0.718  15.404 -0.0082  0.1571  0.0138
  598TMC3    C6 8864   3.009   0.740  15.422 -0.9460  0.6721 -0.2340
  598TMC3     C 8865   3.217   0.504  15.694  0.3956  0.0928  0.2604
  598TMC3     O 8866   3.156   0.480  15.798 -0.2199 -0.6727 -0.6129
  598TMC3     H 8867   2.973   0.548  15.692 -1.4712 -0.1633 -0.5609
  598TMC3    H1 8868   3.322   0.609  15.446 -0.5204 -0.0626 -1.6293
  598TMC3    H2 8869   2.959   0.798  15.345  2.6989  1.1084 -2.2446
  598TMC3    C7 8870   3.200   0.767  15.281 -0.2753  0.5490 -0.7243
  598TMC3    C8 8871   2.805   0.638  15.508 -0.0955  0.3123 -0.1574
  598TMC3    O1 8872   3.262   0.688  15.211 -0.1497 -0.0676  0.0979
  598TMC3    O2 8873   2.766   0.530  15.555  0.7613  0.1721  0.3602
  599MPD2     C 8874   3.162   3.214  15.859  0.5444 -0.4451 -0.7608
  599MPD2    C1 8875   3.109   3.086  15.851  0.7047 -0.1550  0.0215
  599MPD2    C2 8876   2.972   3.074  15.850 -0.4499  0.5761 -0.5031
  599MPD2    C3 8877   2.887   3.182  15.870 -0.1573 -0.5041  0.8189
  599MPD2    C4 8878   2.939   3.305  15.898  1.2398  0.2662 -1.1973
  599MPD2    C5 8879   3.076   3.318  15.885  0.3123  0.0344 -0.1521
  599MPD2     H 8880   2.929   2.975  15.839 -1.5522  0.9305  0.5764
  599MPD2    H1 8881   2.881   3.389  15.935 -1.0573 -0.4996 -3.0642
  599MPD2    H2 8882   3.267   3.235  15.875  0.4426 -1.1300  0.7853
  599MPD2    H3 8883   3.119   3.415  15.908 -1.1031  0.7261 -0.4477
  599MPD2     N 8884   2.750   3.164  15.879 -0.0919  0.3145  0.2969
  599MPD2    H5 8885   2.697   3.234  15.931 -1.3430  1.0485 -1.9751
  599MPD2    N1 8886   3.208   2.983  15.845  0.3339  0.1284 -0.2385
  599MPD2    H7 8887   3.304   3.012  15.840  0.1178  0.3096 -3.3677
  600TMC3    C1 8888   2.550   3.060  15.880  0.2200 -0.5192 -0.0513
  600TMC3    C2 8889   2.446   3.010  15.802  0.0579  0.1371  0.3197
  600TMC3    C3 8890   2.326   2.970  15.856 -0.6062 -0.1547  0.0449
  600TMC3    C4 8891   2.535   3.071  16.017 -0.2123 -0.2439 -0.6822
  600TMC3    C5 8892   2.409   3.046  16.067  0.1392  0.3387  0.2642
  600TMC3    C6 8893   2.308   2.993  15.989  0.8654 -0.5813  0.6273
  600TMC3     C 8894   2.680   3.062  15.825 -0.3418  0.1687 -0.5022
  600TMC3     O 8895   2.705   2.978  15.739 -0.2564  0.5961 -0.1665
  600TMC3     H 8896   2.464   3.022  15.695  2.1372  3.5063  1.0391
  600TMC3    H1 8897   2.624   3.099  16.072 -0.2065 -0.9375 -0.3314
  600TMC3    H2 8898   2.233   2.938  16.044 -1.1627  0.5908 -1.0111
  600TMC3    C7 8899   2.390   3.065  16.209  0.3418  1.1864 -0.2800
  600TMC3    C8 8900   2.219   2.909  15.769  0.2255  0.1751 -0.1450
  600TMC3    O1 8901   2.280   3.077  16.257 -0.0372  0.1930  0.5078
  600TMC3    O2 8902   2.249   2.861  15.658  0.2325  0.6323 -0.0439
  601MPD2     C 8903   0.383   1.425   0.452  0.3334  0.2985  0.3727
  601MPD2    C1 8904   0.353   1.328   0.353  0.0973 -0.1071 -0.1143
  601MPD2    C2 8905   0.379   1.197   0.376  0.1874  0.5242 -0.2894
  601MPD2    C3 8906   0.424   1.162   0.503 -0.6755 -0.3832  0.6525
  601MPD2    C4 8907   0.432   1.250   0.605  0.7476 -0.4048 -0.1035
  601MPD2    C5 8908   0.411   1.383   0.582 -0.2232 -0.2852 -0.1184
  601MPD2     H 8909   0.366   1.119   0.302 -5.0873  1.2163 -0.0869
  601MPD2    H1 8910   0.451   1.222   0.708  1.0170  3.4977  0.9109
  601MPD2    H2 8911   0.372   1.533   0.447  1.0204  0.3807  0.7897
  601MPD2    H3 8912   0.425   1.459   0.657  3.3496 -0.3555 -0.7210
  601MPD2     N 8913   0.454   1.028   0.539  0.7052 -0.6884  0.0816
  601MPD2    H5 8914   0.496   1.010   0.629  0.8775 -0.5372  0.0304
  601MPD2    N1 8915   0.302   1.362   0.230 -0.6165  0.0315  0.0391
  601MPD2    H7 8916   0.259   1.284   0.182  0.4669 -0.4655 -0.1147
  602TMC3    C1 8917   0.216   1.492   0.053 -0.0027 -0.3305  0.0325
  602TMC3    C2 8918   0.118   1.579   0.027 -0.4585 -0.5776 -0.6436
  602TMC3    C3 8919   0.102   1.607  17.574 -0.3528  0.3568  0.1519
  602TMC3    C4 8920   0.293   1.426  17.645 -0.3479  0.1814  0.1251
  602TMC3    C5 8921   0.267   1.453  17.512  0.0344  0.2427  0.5224
  602TMC3    C6 8922   0.166   1.541  17.478  0.0212  0.2614  0.0200
  602TMC3     C 8923   0.262   1.491   0.188 -0.6091  0.1383  0.5911
  602TMC3     O 8924   0.276   1.601   0.247 -0.4947 -0.3088 -0.6413
  602TMC3     H 8925   0.076   1.639   0.107  2.5912 -0.8626  1.1552
  602TMC3    H1 8926   0.385   1.373  17.668 -1.6531 -2.6829 -1.2513
  602TMC3    H2 8927   0.147   1.554  17.372 -0.1100  1.2775  0.1677
  602TMC3    C7 8928   0.369   1.425  17.412  0.3119  0.0714 -0.9945
  602TMC3    C8 8929   0.007   1.711  17.540  0.6600  0.3214 -0.3987
  602TMC3    O1 8930   0.478   1.376  17.442 -0.3839  0.0036 -0.6716
  602TMC3    O2 8931   4.628   1.720  17.606  0.0993  0.4355 -0.3256
  603TMC3    C1 8932   4.103   1.428  10.748 -0.3955 -0.1615  0.1401
  603TMC3    C2 8933   4.111   1.389  10.878  0.2653  0.3834  0.1980
  603TMC3    C3 8934   4.077   1.482  10.973  0.5721  0.0866 -0.0771
  603TMC3    C4 8935   4.032   1.542  10.718 -0.3795  0.5267 -0.6210
  603TMC3    C5 8936   3.977   1.622  10.818  0.6090 -0.5576 -0.0165
  603TMC3    C6 8937   4.008   1.600  10.946 -0.4104 -0.9364 -0.0380
  603TMC3     C 8938   4.135   1.333  10.645 -0.4613  0.5611 -0.6597
  603TMC3     O 8939   4.159   1.393  10.541 -0.2185  0.0656 -0.6844
  603TMC3     H 8940   4.167   1.299  10.902  0.9646  0.1537 -2.2801
  603TMC3    H1 8941   4.025   1.570  10.614 -2.1213  0.3717 -0.5495
  603TMC3    H2 8942   3.949   1.644  11.026 -2.0064 -0.4645 -1.4935
  603TMC3    C7 8943   3.912   1.744  10.785 -0.2455  0.8911 -0.0450
  603TMC3    C8 8944   4.076   1.430  11.108  0.1628 -0.4045  0.3546
  603TMC3    O1 8945   3.905   1.828  10.873 -0.4361 -0.4942 -0.6712
  603TMC3    O2 8946   4.102   1.310  11.126  0.2407  0.4717 -0.5000
  604MPD2     C 8947   4.511   0.673  16.231 -1.3617 -0.1107 -0.7143
  604MPD2    C1 8948   4.382   0.620  16.219 -0.1145 -0.1284 -0.1177
  604MPD2    C2 8949   4.365   0.521  16.123  0.8661 -0.0247  0.4948
  604MPD2    C3 8950   4.473   0.479  16.050  0.0517 -0.5718 -0.0972
  604MPD2    C4 8951   4.594   0.545  16.049  0.4700 -0.1497 -0.0712
  604MPD2    C5 8952   4.612   0.640  16.145 -0.3313  0.0441 -0.3453
  604MPD2     H 8953   4.269   0.474  16.106  0.4985  0.3481  1.5647
  604MPD2    H1 8954   4.683   0.511  15.998  1.5209 -0.5792  2.0301
  604MPD2    H2 8955   4.526   0.752  16.304 -0.0792 -1.7964  0.8606
  604MPD2    H3 8956   4.705   0.696  16.155  0.3294 -1.1250  0.0733
  604MPD2     N 8957   4.447   0.364  15.970 -0.5065  0.4732  0.1909
  604MPD2    H5 8958   4.352   0.328  15.963 -1.2202  2.9317 -2.9527
  604MPD2    N1 8959   4.281   0.665  16.321  0.6710 -0.5340  0.1853
  604MPD2    H7 8960   4.301   0.745  16.380  1.4222 -0.7872  0.2691
  605TMC3    C1 8961   4.080   0.640  16.449  0.3833  0.2368 -0.0637
  605TMC3    C2 8962   4.138   0.679  16.571 -0.0868  0.2239  0.6186
  605TMC3    C3 8963   4.068   0.741  16.670  0.2360  0.0486 -0.5624
  605TMC3    C4 8964   3.947   0.664  16.434  0.4070 -0.0464  0.5302
  605TMC3    C5 8965   3.884   0.738  16.528 -0.0456  0.2453  0.0646
  605TMC3    C6 8966   3.937   0.779  16.646  0.2118 -0.2604  1.0069
  605TMC3     C 8967   4.158   0.608  16.330 -0.4483 -0.2089 -0.4954
  605TMC3     O 8968   4.097   0.540  16.246  0.0962 -0.0713 -0.5890
  605TMC3     H 8969   4.243   0.662  16.591  0.3258  2.9552  0.7783
  605TMC3    H1 8970   3.897   0.633  16.343  1.2148 -0.2538  0.1608
  605TMC3    H2 8971   3.878   0.830  16.721  0.2051  1.1378  0.0520
  605TMC3    C7 8972   3.745   0.752  16.498 -0.0807  0.3793  0.0191
  605TMC3    C8 8973   4.149   0.804  16.765 -0.1940  0.3294  0.0551
  605TMC3    O1 8974   3.691   0.861  16.519  0.5356  0.7141 -0.2968
  605TMC3    O2 8975   4.250   0.741  16.798  0.2619 -0.1010  0.1966
  606TMC3    C1 8976   0.717   3.628  16.901  0.0088 -0.5857 -0.8345
  606TMC3    C2 8977   0.772   3.635  17.023 -0.5102  0.5704  0.2267
  606TMC3    C3 8978   0.832   3.519  17.067  0.3934  0.1046  0.0562
  606TMC3    C4 8979   0.709   3.509  16.831 -0.0837  0.0323 -0.2901
  606TMC3    C5 8980   0.768   3.398  16.884 -0.0845  0.7729  0.4266
  606TMC3    C6 8981   0.830   3.401  17.006  0.6341 -0.3870 -0.0731
  606TMC3     C 8982   0.616   3.731  16.880  0.3925 -0.0817  0.1052
  606TMC3     O 8983   0.577   3.790  16.981 -0.1980 -0.0528  0.0845
  606TMC3     H 8984   0.781   3.724  17.084  3.6177  0.1349  0.2673
  606TMC3    H1 8985   0.639   3.489  16.751  1.0440 -0.3558 -1.1756
  606TMC3    H2 8986   0.869   3.316  17.063 -1.8886 -0.8089  1.0039
  606TMC3    C7 8987   0.723   3.265  16.840 -0.3095 -0.1478 -0.6007
  606TMC3    C8 8988   0.922   3.545  17.184  0.2195 -0.0270  0.7405
  606TMC3    O1 8989   0.737   3.239  16.719 -0.0258  0.2238 -0.1629
  606TMC3    O2 8990   0.947   3.661  17.202 -0.0248  0.2113 -0.8562
  607MPD2     C 8991   2.895   1.958  11.757  0.0990 -0.0080  0.4827
  607MPD2    C1 8992   3.023   1.963  11.807  0.7871  0.8331 -0.5765
  607MPD2    C2 8993   3.054   1.882  11.917 -0.4085  0.3791  0.5931
  607MPD2    C3 8994   2.959   1.811  11.978 -0.2040 -0.2644  0.8189
  607MPD2    C4 8995   2.830   1.811  11.928  0.1468 -0.7069  0.1478
  607MPD2    C5 8996   2.800   1.880  11.815  0.1086 -0.7005 -0.0297
  607MPD2     H 8997   3.156   1.875  11.955 -0.1025  0.7864 -0.1358
  607MPD2    H1 8998   2.746   1.752  11.963  0.1953 -0.1609  1.1770
  607MPD2    H2 8999   2.866   2.016  11.669  0.5666 -1.7551 -0.8174
  607MPD2    H3 9000   2.701   1.873  11.772 -0.1205  2.0447  0.0490
  607MPD2     N 9001   3.001   1.740  12.092 -0.3326  0.5789 -0.1809
  607MPD2    H5 9002   3.093   1.755  12.133 -0.7445 -0.0767  1.0067
  607MPD2    N1 9003   3.124   2.036  11.752  0.4744 -0.6222  0.5283
  607MPD2    H7 9004   3.213   2.023  11.801  0.6241 -0.1076  0.3892
  608TMC3    C1 9005   3.246   2.203  11.636  0.0215  0.2602 -0.0297
  608TMC3    C2 9006   3.331   2.220  11.746  0.2124 -0.0107  0.3077
  608TMC3    C3 9007   3.462   2.266  11.729  0.5166 -0.3362  0.0176
  608TMC3    C4 9008   3.294   2.233  11.514 -0.6771  0.0578 -0.1447
  608TMC3    C5 9009   3.415   2.298  11.504  0.0377 -0.0185  0.1420
  608TMC3    C6 9010   3.504   2.312  11.605  0.5267 -0.0671 -0.5845
  608TMC3     C 9011   3.125   2.123  11.648 -0.5506  0.4877  0.4648
  608TMC3     O 9012   3.033   2.139  11.568 -0.4505  0.0804  0.6257
  608TMC3     H 9013   3.285   2.199  11.842  1.2586  2.5261  1.3790
  608TMC3    H1 9014   3.225   2.232  11.430 -0.8931  2.1572  0.0051
  608TMC3    H2 9015   3.610   2.330  11.592  0.4476  1.3089  0.7114
  608TMC3    C7 9016   3.452   2.343  11.368  0.2750  0.4910 -0.3307
  608TMC3    C8 9017   3.562   2.184  11.808  0.1549 -0.1180 -0.0504
  608TMC3    O1 9018   3.402   2.284  11.274 -0.1217  0.3220 -0.6986
  608TMC3    O2 9019   3.669   2.169  11.751  0.1235 -0.1546  0.7009
  609TMC3    C1 9020   1.160   4.275   9.314  0.1354  0.8489  0.1451
  609TMC3    C2 9021   1.058   4.271   9.220  0.4897  0.2187 -0.1401
  609TMC3    C3 9022   1.037   4.153   9.143  0.6097 -1.3839  0.2374
  609TMC3    C4 9023   1.239   4.167   9.335  0.5704  0.1004 -0.7980
  609TMC3    C5 9024   1.210   4.051   9.266 -0.6998 -0.6504  0.5049
  609TMC3    C6 9025   1.104   4.038   9.182  0.4419 -1.0712 -0.2594
  609TMC3     C 9026   1.188   4.400   9.378 -0.5317  0.0756  0.2184
  609TMC3     O 9027   1.129   4.500   9.340  0.3554  0.3691  0.3697
  609TMC3     H 9028   0.990   4.355   9.212  0.0871 -0.2746 -1.6803
  609TMC3    H1 9029   1.333   4.174   9.389 -0.8245  1.0213  1.4952
  609TMC3    H2 9030   1.067   3.941   9.150 -0.4010 -0.9189  0.2397
  609TMC3    C7 9031   1.297   3.941   9.288  0.7530  0.3352  0.1267
  609TMC3    C8 9032   0.912   4.148   9.074  0.6117  0.4944  0.4788
  609TMC3    O1 9033   1.352   3.939   9.398 -0.7184  0.1785 -0.1113
  609TMC3    O2 9034   0.840   4.246   9.091  0.3487 -0.4678 -0.0862
  610TMC3    C1 9035   3.341   0.646  12.380 -0.2507  0.1259  0.1051
  610TMC3    C2 9036   3.404   0.669  12.264  0.0051 -0.1631  0.2294
  610TMC3    C3 9037   3.540   0.688  12.271  0.1507 -0.2835  0.6122
  610TMC3    C4 9038   3.406   0.649  12.503 -0.5547 -0.3047 -0.0519
  610TMC3    C5 9039   3.538   0.670  12.503  0.1876  0.0561 -0.5216
  610TMC3    C6 9040   3.614   0.672  12.389 -0.5981 -0.6044 -0.7105
  610TMC3     C 9041   3.199   0.659  12.379  0.7552 -0.7900  0.0408
  610TMC3     O 9042   3.137   0.734  12.303 -0.0197 -0.1516  0.3399
  610TMC3     H 9043   3.358   0.668  12.166 -0.1674  0.7630  0.3057
  610TMC3    H1 9044   3.352   0.655  12.597  0.2701 -0.2026  0.4137
  610TMC3    H2 9045   3.723   0.675  12.396 -0.6712 -2.0917  1.0628
  610TMC3    C7 9046   3.623   0.706  12.625  0.4678  0.0054 -0.3866
  610TMC3    C8 9047   3.617   0.650  12.157 -0.0446 -0.1489  0.6075
  610TMC3    O1 9048   3.712   0.785  12.596  0.1070 -0.5768 -0.1382
  610TMC3    O2 9049   3.550   0.589  12.077  0.3066 -0.0942 -0.0076
  611MPD2     C 9050   2.984   1.341  10.298 -0.2474 -0.3729 -0.0805
  611MPD2    C1 9051   2.902   1.442  10.262 -0.4469 -0.3064  0.2266
  611MPD2    C2 9052   2.974   1.554  10.218 -0.1711 -0.0770 -0.1301
  611MPD2    C3 9053   3.116   1.569  10.213 -0.7475  0.0549  0.2265
  611MPD2    C4 9054   3.187   1.457  10.240  0.1115  0.5200 -0.3431
  611MPD2    C5 9055   3.121   1.344  10.289  0.4532  0.1766  0.4420
  611MPD2     H 9056   2.913   1.640  10.191  0.2682  0.6076  1.0622
  611MPD2    H1 9057   3.294   1.460  10.261 -0.0883  0.8595  0.6243
  611MPD2    H2 9058   2.947   1.245  10.332 -4.0911  1.1694  0.0867
  611MPD2    H3 9059   3.189   1.265  10.320  1.4328  0.5553 -0.7332
  611MPD2     N 9060   3.184   1.684  10.173  0.1154  0.2144  0.0389
  611MPD2    H5 9061   3.282   1.682  10.148  0.8523 -0.8687  3.0165
  611MPD2    N1 9062   2.760   1.425  10.273  0.2320  0.0580 -0.3463
  611MPD2    H7 9063   2.728   1.341  10.321 -0.0749  0.0599 -0.5494
  612TMC3    C1 9064   3.225   1.895  10.082  0.3322  0.7201  0.8004
  612TMC3    C2 9065   3.330   1.906  10.173 -0.2663  0.0008  0.0516
  612TMC3    C3 9066   3.434   1.983  10.130 -0.3266  0.1551 -0.5922
  612TMC3    C4 9067   3.195   1.987   9.981 -0.3382 -0.0730 -0.1715
  612TMC3    C5 9068   3.301   2.071   9.951  0.1693 -0.3467 -0.2785
  612TMC3    C6 9069   3.420   2.065  10.022  0.3200  0.0095  0.0088
  612TMC3     C 9070   3.126   1.802  10.129  1.0444 -0.7691  0.5992
  612TMC3     O 9071   3.005   1.833  10.117  0.4637  0.4804 -0.1762
  612TMC3     H 9072   3.321   1.881  10.278 -2.1574  0.8025  0.0874
  612TMC3    H1 9073   3.110   1.966   9.918  1.0547 -1.0966 -1.7324
  612TMC3    H2 9074   3.507   2.120   9.987 -0.1932  1.1968  0.5864
  612TMC3    C7 9075   3.276   2.176   9.845 -0.0395  0.0935 -0.2983
  612TMC3    C8 9076   3.538   2.034  10.221  0.0622  0.0968  0.1210
  612TMC3    O1 9077   3.188   2.152   9.764 -0.0192  0.1921  0.3231
  612TMC3    O2 9078   3.575   2.151  10.200 -0.3167 -0.2044  0.3364
  613MPD2     C 9079   1.522   3.365  16.768 -0.3309  0.8525  0.1457
  613MPD2    C1 9080   1.452   3.466  16.704  0.0166 -0.5019 -0.6575
  613MPD2    C2 9081   1.388   3.434  16.588 -0.4928 -0.7523 -0.2751
  613MPD2    C3 9082   1.399   3.305  16.532 -0.1812 -0.0225  0.1912
  613MPD2    C4 9083   1.463   3.205  16.607 -0.3792  0.2709 -0.0353
  613MPD2    C5 9084   1.528   3.237  16.721 -0.3476  0.6771 -0.3598
  613MPD2     H 9085   1.327   3.508  16.536  0.1841  0.4603  0.6772
  613MPD2    H1 9086   1.472   3.104  16.571 -1.6073  0.0912  0.1492
  613MPD2    H2 9087   1.565   3.383  16.866  0.4540 -0.8745  0.1140
  613MPD2    H3 9088   1.590   3.168  16.778 -0.2040  0.7351 -0.4450
  613MPD2     N 9089   1.346   3.269  16.404 -0.7910  0.1617 -0.1868
  613MPD2    H5 9090   1.377   3.179  16.370  0.2843  0.5812 -0.3319
  613MPD2    N1 9091   1.458   3.601  16.757 -0.0756  0.2681  0.0945
  613MPD2    H7 9092   1.477   3.607  16.857  1.1299  2.6986 -0.2766
  614TMC3    C1 9093   1.447   3.722  16.548 -0.4026  0.4359  0.4154
  614TMC3    C2 9094   1.568   3.676  16.499 -0.7969 -0.4120 -0.3515
  614TMC3    C3 9095   1.625   3.741  16.391 -0.4527 -0.0171 -0.4457
  614TMC3    C4 9096   1.379   3.821  16.483  0.1062 -0.3418 -0.4314
  614TMC3    C5 9097   1.443   3.887  16.376 -0.4463 -0.5543 -0.1186
  614TMC3    C6 9098   1.564   3.849  16.334  0.1403 -0.2420 -0.6315
  614TMC3     C 9099   1.408   3.710  16.690 -0.4139  0.2085 -0.2086
  614TMC3     O 9100   1.364   3.808  16.746 -0.6174 -0.0502 -0.1046
  614TMC3     H 9101   1.632   3.607  16.553  0.2220 -0.0100 -1.0469
  614TMC3    H1 9102   1.293   3.862  16.534  0.8231  0.2210  0.3399
  614TMC3    H2 9103   1.606   3.905  16.252 -2.0122  2.8507  0.3708
  614TMC3    C7 9104   1.364   3.968  16.282  0.2171  0.6420  0.1949
  614TMC3    C8 9105   1.670   3.637  16.300  0.1163  0.1705  1.0397
  614TMC3    O1 9106   1.271   4.035  16.328  0.0848  0.0698  0.4832
  614TMC3    O2 9107   1.663   3.519  16.335  0.7814 -0.2968  0.3925
  615MPD2     C 9108   1.008   0.416  16.307 -0.0261  0.3150  0.4074
  615MPD2    C1 9109   0.933   0.519  16.253  0.1513 -0.2017  0.3195
  615MPD2    C2 9110   0.829   0.480  16.166 -0.0803 -0.0610  0.2322
  615MPD2    C3 9111   0.821   0.343  16.126  0.3825 -0.1874  0.8810
  615MPD2    C4 9112   0.904   0.244  16.175  0.3103  0.1959 -0.6637
  615MPD2    C5 9113   0.994   0.278  16.279  0.1774  0.3007  0.2131
  615MPD2     H 9114   0.760   0.556  16.130 -0.9668 -0.8441  0.2948
  615MPD2    H1 9115   0.898   0.141  16.144  0.6383 -0.0355  0.0660
  615MPD2    H2 9116   1.087   0.433  16.379 -0.7288 -1.6998  1.6435
  615MPD2    H3 9117   1.064   0.207  16.322  1.1777  0.4242 -1.2192
  615MPD2     N 9118   0.719   0.315  16.029 -0.2206 -0.1697  0.1233
  615MPD2    H5 9119   0.670   0.393  15.986 -0.7581 -0.6388 -0.1215
  615MPD2    N1 9120   0.949   0.656  16.296  0.1646 -0.6505  0.0413
  615MPD2    H7 9121   0.874   0.713  16.260  0.4176 -0.6547 -0.4873
  616TMC3    C1 9122   1.027   0.834  16.441  0.0748 -0.0165 -0.1388
  616TMC3    C2 9123   1.129   0.932  16.442  0.2637  0.2723 -0.0260
  616TMC3    C3 9124   1.120   1.029  16.533  0.2980 -0.0183 -0.8818
  616TMC3    C4 9125   0.916   0.845  16.525 -0.0375  0.7531  0.1970
  616TMC3    C5 9126   0.903   0.955  16.607  0.0526 -0.1613  0.4273
  616TMC3    C6 9127   1.004   1.044  16.607 -0.4672 -0.2453  0.5335
  616TMC3     C 9128   1.057   0.710  16.370 -0.2515 -1.2091  0.8085
  616TMC3     O 9129   1.157   0.655  16.410 -0.2667  0.1339 -0.0280
  616TMC3     H 9130   1.215   0.924  16.375  1.6736 -2.2046  2.0946
  616TMC3    H1 9131   0.845   0.763  16.528  0.9845 -0.1794 -1.1802
  616TMC3    H2 9132   1.007   1.133  16.668 -0.9862 -0.6236  1.1162
  616TMC3    C7 9133   0.809   0.954  16.713  0.1144  0.1430 -0.1211
  616TMC3    C8 9134   1.176   1.152  16.494  0.0842 -0.6561  0.3713
  616TMC3    O1 9135   0.704   0.895  16.684 -0.1653  0.3511  0.1027
  616TMC3    O2 9136   1.109   1.257  16.516 -0.2516 -0.0643 -0.2477
  617MPD2     C 9137   3.422   3.747  13.957 -0.1619  0.2903 -0.7102
  617MPD2    C1 9138   3.420   3.665  13.845  1.0315  0.4535 -0.6775
  617MPD2    C2 9139   3.296   3.602  13.814  0.2213  0.3843  0.1073
  617MPD2    C3 9140   3.189   3.607  13.896 -0.5130 -0.0130 -0.2722
  617MPD2    C4 9141   3.196   3.689  14.006  0.6358 -0.2463  0.7054
  617MPD2    C5 9142   3.311   3.762  14.035 -0.3744  0.5425 -0.3259
  617MPD2     H 9143   3.295   3.542  13.724 -2.1887 -0.7854  0.9382
  617MPD2    H1 9144   3.126   3.702  14.087 -0.7672 -3.4273  0.0014
  617MPD2    H2 9145   3.517   3.795  13.974  0.7877 -1.0443 -2.2006
  617MPD2    H3 9146   3.310   3.821  14.126 -2.9255  1.4245 -0.9309
  617MPD2     N 9147   3.067   3.534  13.865  1.0561 -0.0797 -0.4669
  617MPD2    H5 9148   2.992   3.543  13.933  0.0748  1.4817 -1.7418
  617MPD2    N1 9149   3.536   3.668  13.765  0.0870  0.1606  0.2068
  617MPD2    H7 9150   3.613   3.728  13.792 -0.8385 -0.0031  3.1946
  618TMC3    C1 9151   3.673   3.623  13.570  0.4332  0.0449  0.2541
  618TMC3    C2 9152   3.722   3.535  13.479 -0.1588 -0.1824  0.0098
  618TMC3    C3 9153   3.852   3.544  13.429 -0.1094  0.3346  0.4806
  618TMC3    C4 9154   3.751   3.724  13.607 -0.4303 -0.0670 -0.3114
  618TMC3    C5 9155   3.878   3.734  13.555 -0.2730 -0.1113  0.4252
  618TMC3    C6 9156   3.929   3.646  13.470 -0.1365  0.1332  0.0027
  618TMC3     C 9157   3.552   3.594  13.649  0.5660  0.8380  0.1626
  618TMC3     O 9158   3.490   3.497  13.608  0.2543 -0.2951 -0.1050
  618TMC3     H 9159   3.666   3.447  13.450 -1.2225  1.1958 -2.1519
  618TMC3    H1 9160   3.720   3.806  13.672  0.5562  0.7771 -0.9046
  618TMC3    H2 9161   4.018   3.661  13.409 -1.4381  1.3872 -1.5968
  618TMC3    C7 9162   3.941   3.865  13.583 -0.6948  0.2024  0.0465
  618TMC3    C8 9163   3.896   3.446  13.330  0.2177 -0.2567  1.1431
  618TMC3    O1 9164   3.932   3.898  13.696 -0.2096  0.0045  0.3375
  618TMC3    O2 9165   3.805   3.384  13.276  0.2898 -0.8562  0.2798
  619MPD2     C 9166   0.817   0.066  13.661  0.1931 -1.2068 -0.6288
  619MPD2    C1 9167   0.738   0.165  13.602 -0.7889 -0.3549 -0.9033
  619MPD2    C2 9168   0.606   0.141  13.585 -0.7411 -0.2936 -1.1492
  619MPD2    C3 9169   0.551   0.018  13.630  0.3741 -0.0184 -0.3525
  619MPD2    C4 9170   0.633   4.639  13.677 -0.2688  0.1861  0.3627
  619MPD2    C5 9171   0.765   4.661  13.690 -0.0153  0.2343  0.9349
  619MPD2     H 9172   0.551   0.226  13.546 -1.8188 -1.2120 -1.6091
  619MPD2    H1 9173   0.597   4.543  13.712 -2.2358  0.3892 -1.1564
  619MPD2    H2 9174   0.924   0.075  13.681 -0.1685  2.7416 -0.5794
  619MPD2    H3 9175   0.829   4.580  13.723  0.7400  0.6342  0.4582
  619MPD2     N 9176   0.415   4.709  13.634  1.0048  0.0116 -0.1072
  619MPD2    H5 9177   0.397   4.617  13.673 -0.2303  0.4117  0.2671
  619MPD2    N1 9178   0.779   0.300  13.580 -0.0260 -0.0025 -0.2327
  619MPD2    H7 9179   0.718   0.365  13.532  2.2342  0.5383 -2.3604
  620TMC3    C1 9180   0.920   0.496  13.597 -0.4171  0.1828  0.3150
  620TMC3    C2 9181   0.915   0.521  13.469 -0.4554 -0.3173  0.1005
  620TMC3    C3 9182   0.963   0.636  13.423  0.2886 -0.1095 -0.0513
  620TMC3    C4 9183   0.983   0.575  13.689  0.3552  0.9134 -1.0938
  620TMC3    C5 9184   1.036   0.694  13.649 -0.0895  1.2491  0.3420
  620TMC3    C6 9185   1.021   0.721  13.515 -1.1544 -0.0378 -0.0773
  620TMC3     C 9186   0.889   0.359  13.641 -0.4012 -0.3228 -0.4574
  620TMC3     O 9187   0.973   0.315  13.720 -0.0875  0.1005 -0.3410
  620TMC3     H 9188   0.863   0.452  13.404  1.0770 -2.4373  1.1159
  620TMC3    H1 9189   0.974   0.538  13.790  1.4702  0.3473 -1.1914
  620TMC3    H2 9190   1.056   0.816  13.477 -1.0629 -0.5319 -1.2351
  620TMC3    C7 9191   1.027   0.811  13.737  0.0570 -0.1395  0.3552
  620TMC3    C8 9192   0.873   0.709  13.341 -0.7528 -0.0083 -0.6799
  620TMC3    O1 9193   1.069   0.916  13.690  0.3145  0.2666 -0.3038
  620TMC3    O2 9194   0.832   0.810  13.393  0.2778  0.1994  0.1029
  621MPD2     C 9195   1.000   4.701  10.467  0.4423 -0.6478  0.2964
  621MPD2    C1 9196   1.105   4.655  10.545  0.2588 -0.7058  0.2681
  621MPD2    C2 9197   1.225   4.625  10.487  0.2599  0.6754 -0.1564
  621MPD2    C3 9198   1.251   4.655  10.356  0.3582  0.5325  0.1911
  621MPD2    C4 9199   1.153   4.711  10.277 -0.3289 -0.5754  0.0262
  621MPD2    C5 9200   1.026   0.001  10.329  0.5428  0.6990 -0.9572
  621MPD2     H 9201   1.301   4.579  10.548  0.5960 -1.8630 -2.5164
  621MPD2    H1 9202   1.170   0.016  10.173 -0.1840  0.7257  0.3707
  621MPD2    H2 9203   0.898   0.001  10.498  0.8071  1.2682  0.2254
  621MPD2    H3 9204   0.941   0.029  10.269 -0.6422 -1.8670 -0.5057
  621MPD2     N 9205   1.389   4.648  10.320 -0.3454 -0.3105  0.0977
  621MPD2    H5 9206   1.456   4.616  10.389  1.1419 -0.2678 -1.3298
  621MPD2    N1 9207   1.069   4.614  10.674 -1.2093 -0.0292  0.1945
  621MPD2    H7 9208   0.972   4.627  10.704 -0.7081  0.6030  1.5436
  622TMC3    C1 9209   1.089   4.491  10.871 -0.1214  0.2281  0.1647
  622TMC3    C2 9210   0.979   4.553  10.927  0.5001 -0.5676  0.4640
  622TMC3    C3 9211   0.900   4.474  11.015 -0.9221 -0.4275 -0.0224
  622TMC3    C4 9212   1.112   4.356  10.903 -0.5351 -0.4108  0.6643
  622TMC3    C5 9213   1.031   4.287  10.990  1.0422  0.0350 -0.7050
  622TMC3    C6 9214   0.931   4.351  11.055  0.1860  0.5163 -0.2483
  622TMC3     C 9215   1.156   4.546  10.757  0.3537  0.6861 -0.2929
  622TMC3     O 9216   1.275   4.518  10.746 -0.7532  0.0589  0.0248
  622TMC3     H 9217   0.960   4.659  10.918  1.1205 -0.4355  0.7373
  622TMC3    H1 9218   1.184   4.301  10.843  1.2007  1.2721  1.1976
  622TMC3    H2 9219   0.860   4.295  11.114  1.4562  0.3682  1.1444
  622TMC3    C7 9220   1.000   4.143  10.970  0.5446  0.1648 -0.3800
  622TMC3    C8 9221   0.761   4.511  11.039  0.1386 -0.1378  0.5389
  622TMC3    O1 9222   0.925   4.084  11.047 -0.4428  0.2877 -0.8340
  622TMC3    O2 9223   0.690   4.451  11.116 -0.4624 -0.7369  0.6305
  623MPD2     C 9224   4.638   1.040  16.041 -0.5673  0.0266  0.0584
  623MPD2    C1 9225   4.551   1.028  16.147 -0.6762 -0.2741 -0.3323
  623MPD2    C2 9226   4.603   1.032  16.272  0.2069 -0.2872 -0.5564
  623MPD2    C3 9227   0.015   1.046  16.291  0.2026 -0.6323  0.3119
  623MPD2    C4 9228   0.102   1.061  16.188 -0.1543  0.1828 -0.0817
  623MPD2    C5 9229   0.051   1.073  16.064  0.6101  0.3475 -0.5467
  623MPD2     H 9230   4.531   1.027  16.353 -0.2051 -0.0112 -0.9007
  623MPD2    H1 9231   0.208   1.083  16.194 -0.0194 -0.0194 -1.5267
  623MPD2    H2 9232   4.614   1.047  15.936 -1.9184  2.3334  0.5182
  623MPD2    H3 9233   0.117   1.103  15.983  1.1576 -0.2575 -0.3291
  623MPD2     N 9234   0.058   1.049  16.426  0.2773 -0.2653 -0.5978
  623MPD2    H5 9235   4.705   1.031  16.494 -1.0894 -1.2190 -2.3139
  623MPD2    N1 9236   4.410   0.993  16.130 -0.1594  0.2929  0.5450
  623MPD2    H7 9237   4.359   0.974  16.216  0.1378 -1.5266  0.3309
  624TMC3    C1 9238   0.267   0.851  16.773  0.2519  0.3059 -0.0817
  624TMC3    C2 9239   0.163   0.879  16.860 -0.2231  0.0045  0.0809
  624TMC3    C3 9240   0.073   0.972  16.820  0.1014  0.8232  0.7800
  624TMC3    C4 9241   0.287   0.930  16.657  0.0149 -0.8433  0.0101
  624TMC3    C5 9242   0.197   1.027  16.620 -0.5623 -0.4547  0.1677
  624TMC3    C6 9243   0.086   1.047  16.699 -0.5347  0.4965  0.0328
  624TMC3     C 9244   0.364   0.745  16.819  0.6837 -0.3404 -0.8258
  624TMC3     O 9245   0.350   0.715  16.940 -0.0571  0.0824 -0.2811
  624TMC3     H 9246   0.140   0.816  16.945 -0.6929  0.7839  0.5284
  624TMC3    H1 9247   0.380   0.910  16.605  0.5257 -1.9821  1.3443
  624TMC3    H2 9248   0.010   1.122  16.681 -1.0079  0.1016  0.3836
  624TMC3    C7 9249   0.191   1.048  16.477  0.5910 -0.3199 -0.3089
  624TMC3    C8 9250   4.660   0.971  16.882 -0.2588  0.2671 -0.7602
  624TMC3    O1 9251   0.299   1.064  16.425 -0.2772 -0.2716  0.0615
  624TMC3    O2 9252   4.617   0.877  16.946  0.2833 -0.4468 -0.0343
  625MPD2     C 9253   0.209   1.883   0.543 -0.3709  1.1307  0.0135
  625MPD2    C1 9254   0.199   1.974   0.645 -0.5546  0.2160  0.2433
  625MPD2    C2 9255   0.282   1.964   0.756 -0.1655 -0.4828  0.5104
  625MPD2    C3 9256   0.381   1.868   0.762 -0.2595  0.3754 -0.1891
  625MPD2    C4 9257   0.393   1.790   0.652  0.4224  0.0485 -0.1611
  625MPD2    C5 9258   0.313   1.797   0.546  0.2181 -0.3612  0.7666
  625MPD2     H 9259   0.258   2.030   0.839  0.3884  2.7188 -1.8686
  625MPD2    H1 9260   0.460   1.705   0.645  0.9419  0.5288 -1.0678
  625MPD2    H2 9261   0.147   1.890   0.454  1.4834  2.2740 -1.1791
  625MPD2    H3 9262   0.331   1.742   0.455 -0.5742  1.6683 -0.6264
  625MPD2     N 9263   0.456   1.856   0.878  0.9046  0.1188  0.1667
  625MPD2    H5 9264   0.439   1.917   0.958  1.1955 -0.2322  0.4956
  625MPD2    N1 9265   0.090   2.065   0.647 -0.3117 -0.1619 -0.2936
  625MPD2    H7 9266   0.084   2.129   0.725 -1.5126  2.8558 -2.8350
  626TMC3    C1 9267   4.619   2.174   0.608  0.2533  0.3842 -0.3116
  626TMC3    C2 9268   4.554   2.253   0.522  0.0831 -0.6263  0.0397
  626TMC3    C3 9269   4.442   2.313   0.566  0.2899 -0.2469  0.2795
  626TMC3    C4 9270   4.589   2.159   0.739 -0.6681  0.1018 -0.2704
  626TMC3    C5 9271   4.484   2.241   0.780  0.8587 -0.0196  0.1826
  626TMC3    C6 9272   4.397   2.304   0.693 -0.3353  0.8211  0.2463
  626TMC3     C 9273   4.715   2.092   0.545  0.1821 -0.2009 -0.3272
  626TMC3     O 9274   4.705   2.062   0.426 -0.0078 -0.7113 -0.1784
  626TMC3     H 9275   4.576   2.255   0.416 -0.0785 -0.4121  0.0078
  626TMC3    H1 9276   4.627   2.093   0.816 -0.2797  2.4641  1.5195
  626TMC3    H2 9277   4.324   2.378   0.725  0.3941  1.4620  0.4504
  626TMC3    C7 9278   4.488   2.283   0.917 -0.0047 -0.6387  0.5376
  626TMC3    C8 9279   4.353   2.363   0.468 -0.3596 -0.8143 -0.5568
  626TMC3    O1 9280   4.601   2.279   0.962  1.2537  0.2295 -0.1487
  626TMC3    O2 9281   4.378   2.469   0.414  0.3787  0.1986 -0.3853
  627MPD2     C 9282   3.072   2.360  14.356 -0.1315 -0.8295  0.0049
  627MPD2    C1 9283   3.100   2.361  14.494  0.0339 -0.3318 -0.0186
  627MPD2    C2 9284   3.031   2.274  14.579  0.1582  0.8168 -0.9573
  627MPD2    C3 9285   2.936   2.191  14.529  0.5414 -0.5383 -0.3430
  627MPD2    C4 9286   2.900   2.195  14.398  0.4303 -0.0268  0.6233
  627MPD2    C5 9287   2.975   2.272  14.315  0.3283 -0.3475 -0.0805
  627MPD2     H 9288   3.062   2.276  14.683 -1.2451 -1.6710 -0.4733
  627MPD2    H1 9289   2.826   2.136  14.345  1.7179  1.1550 -2.4631
  627MPD2    H2 9290   3.125   2.408  14.275  1.6147 -0.8016  1.1673
  627MPD2    H3 9291   2.949   2.272  14.210 -1.1058 -0.8709  0.2823
  627MPD2     N 9292   2.878   2.083  14.600 -0.5331 -0.2324  0.0453
  627MPD2    H5 9293   2.828   2.018  14.540 -0.1763  0.8100 -1.3779
  627MPD2    N1 9294   3.196   2.449  14.546 -0.3645 -0.1046 -0.4449
  627MPD2    H7 9295   3.232   2.438  14.640  0.9115  0.8604 -0.8109
  628TMC3    C1 9296   3.316   2.650  14.567 -0.7687 -0.1016 -0.0616
  628TMC3    C2 9297   3.445   2.615  14.599  0.1514  0.1562  1.0242
  628TMC3    C3 9298   3.527   2.723  14.635 -0.2436 -0.0445 -0.2256
  628TMC3    C4 9299   3.275   2.777  14.561 -0.4086  0.1292  0.0927
  628TMC3    C5 9300   3.360   2.879  14.605  0.9557 -0.4450 -0.0202
  628TMC3    C6 9301   3.481   2.853  14.657  1.0421 -0.1937 -0.1016
  628TMC3     C 9302   3.246   2.559  14.479 -0.8801  0.0799  0.3945
  628TMC3     O 9303   3.229   2.608  14.370 -0.2091 -0.0510  0.7773
  628TMC3     H 9304   3.475   2.511  14.591 -0.4075  0.2396 -2.1931
  628TMC3    H1 9305   3.175   2.795  14.523  0.2766  2.4740 -0.6584
  628TMC3    H2 9306   3.542   2.942  14.661 -0.5400  0.9213 -0.8092
  628TMC3    C7 9307   3.309   3.014  14.591  0.2200 -0.2228 -0.1536
  628TMC3    C8 9308   3.654   2.706  14.691 -0.1185 -0.1703  0.4134
  628TMC3    O1 9309   3.355   3.094  14.673 -0.0903 -0.0875 -0.5238
  628TMC3    O2 9310   3.713   2.809  14.716 -0.4905  0.2758  0.3427
  629MPD2     C 9311   1.580   1.439  16.402 -0.0614  1.2950 -0.7619
  629MPD2    C1 9312   1.632   1.323  16.438 -0.4595 -0.3066  0.6645
  629MPD2    C2 9313   1.539   1.220  16.448 -0.1332 -0.5723  0.4328
  629MPD2    C3 9314   1.404   1.247  16.452 -0.1480 -0.2001 -0.6534
  629MPD2    C4 9315   1.357   1.375  16.435 -0.7464  0.0728 -0.0125
  629MPD2    C5 9316   1.449   1.474  16.408  0.1577 -0.0169  0.8506
  629MPD2     H 9317   1.581   1.123  16.472 -1.0414 -0.5709  2.0258
  629MPD2    H1 9318   1.255   1.412  16.430 -0.6573  0.4951  1.2037
  629MPD2    H2 9319   1.642   1.520  16.365  1.8649  0.7985  1.3804
  629MPD2    H3 9320   1.428   1.579  16.389  3.6980  0.3384 -1.1336
  629MPD2     N 9321   1.310   1.141  16.482 -0.2274 -0.5953  0.0917
  629MPD2    H5 9322   1.348   1.048  16.494 -0.7196 -1.0685 -2.0043
  629MPD2    N1 9323   1.774   1.309  16.433 -0.1396 -0.1424 -0.3864
  629MPD2    H7 9324   1.828   1.383  16.390 -1.3428  1.0825  0.1933
  630TMC3    C1 9325   1.974   1.174  16.436 -0.5833 -0.0234  1.1708
  630TMC3    C2 9326   2.034   1.223  16.328 -0.5702 -0.3502 -0.0578
  630TMC3    C3 9327   2.154   1.174  16.286  0.1560 -0.4934 -0.7370
  630TMC3    C4 9328   2.033   1.065  16.499  0.6280 -0.5066 -0.0009
  630TMC3    C5 9329   2.164   1.030  16.469 -0.1695 -0.3744  0.0111
  630TMC3    C6 9330   2.220   1.074  16.351  0.4914  0.5861  0.1366
  630TMC3     C 9331   1.838   1.209  16.491 -0.3740  0.3934 -0.3564
  630TMC3     O 9332   1.789   1.135  16.579 -0.7684 -0.1011 -0.5390
  630TMC3     H 9333   1.987   1.301  16.270 -1.3560  1.9944  3.6783
  630TMC3    H1 9334   1.992   1.042  16.597 -0.7922  1.1362 -0.2010
  630TMC3    H2 9335   2.315   1.037  16.314  0.9498  1.7318  0.1472
  630TMC3    C7 9336   2.250   1.065  16.581  0.2956 -0.6384  0.0572
  630TMC3    C8 9337   2.243   1.249  16.193 -0.0650  0.7322  0.0943
  630TMC3    O1 9338   2.216   1.015  16.687  0.1713  0.1173 -0.0913
  630TMC3    O2 9339   2.362   1.229  16.217  0.4095 -0.3902  0.2903
  631MPD2     C 9340   0.171   0.924  15.733 -0.1258 -0.4230  0.1437
  631MPD2    C1 9341   0.234   0.882  15.611 -0.0444 -0.1010 -0.1465
  631MPD2    C2 9342   0.285   0.752  15.600  0.6938  0.4750 -0.1157
  631MPD2    C3 9343   0.278   0.663  15.709 -0.0126 -0.0812 -0.4179
  631MPD2    C4 9344   0.220   0.702  15.829  0.0515  0.6069 -0.1416
  631MPD2    C5 9345   0.172   0.833  15.844 -0.2452 -0.4042 -0.2347
  631MPD2     H 9346   0.348   0.716  15.519 -0.3290 -0.3984 -0.5167
  631MPD2    H1 9347   0.217   0.647  15.922 -1.2219 -3.2730 -2.4991
  631MPD2    H2 9348   0.145   1.025  15.764 -1.2447 -0.7884  0.4148
  631MPD2    H3 9349   0.151   0.872  15.942  0.9718  1.7267 -0.8192
  631MPD2     N 9350   0.336   0.534  15.701  0.3836  0.4618  0.1153
  631MPD2    H5 9351   0.374   0.492  15.617  0.9051  0.5966  0.2851
  631MPD2    N1 9352   0.236   0.972  15.500  0.2135  0.2552  0.3630
  631MPD2    H7 9353   0.194   1.064  15.512  2.7279  1.2817  1.2068
  632TMC3    C1 9354   0.249   1.047  15.279 -0.8193 -0.4260  0.5284
  632TMC3    C2 9355   0.154   1.142  15.310 -0.0019 -0.3427  0.8608
  632TMC3    C3 9356   0.132   1.248  15.223 -1.1708  0.7055 -0.4177
  632TMC3    C4 9357   0.325   1.052  15.165 -0.1959  0.3728  0.1218
  632TMC3    C5 9358   0.305   1.158  15.084  0.0811  0.5329 -0.2568
  632TMC3    C6 9359   0.207   1.252  15.110  0.1160 -0.2481 -0.1084
  632TMC3     C 9360   0.275   0.939  15.372 -0.2911 -0.5020 -0.5507
  632TMC3     O 9361   0.327   0.838  15.326 -0.2281  0.0041  0.4639
  632TMC3     H 9362   0.086   1.121  15.391 -1.4385  3.5014  0.6776
  632TMC3    H1 9363   0.404   0.980  15.144 -0.7302  0.2628 -1.5306
  632TMC3    H2 9364   0.181   1.322  15.032 -0.1713  0.1836  0.3701
  632TMC3    C7 9365   0.366   1.168  14.950 -0.3064 -0.2740  0.4938
  632TMC3    C8 9366   0.006   1.316  15.236  0.1510  0.2486  0.3233
  632TMC3    O1 9367   0.316   1.246  14.873 -0.2707  0.3468 -0.2732
  632TMC3    O2 9368   4.682   1.330  15.349  0.4280 -0.0939  0.6156
  633MPD2     C 9369   4.385   3.798  17.365 -0.0349 -0.6531 -0.2141
  633MPD2    C1 9370   4.470   3.769  17.265 -0.3405 -0.2331  0.1674
  633MPD2    C2 9371   4.571   3.671  17.286 -0.3006  0.1396 -0.2599
  633MPD2    C3 9372   4.581   3.605  17.406 -0.3785 -0.8234  0.5272
  633MPD2    C4 9373   4.488   3.633  17.511  0.2583 -1.0199  0.2728
  633MPD2    C5 9374   4.385   3.723  17.484  0.1501  0.0031  0.0432
  633MPD2     H 9375   4.644   3.665  17.206  0.1706 -0.7450  0.2433
  633MPD2    H1 9376   4.501   3.588  17.609  1.2874  0.9524  1.0595
  633MPD2    H2 9377   4.300   3.865  17.353 -0.1842 -0.7826  0.1109
  633MPD2    H3 9378   4.321   3.752  17.566 -1.5641 -0.8066 -1.0033
  633MPD2     N 9379   4.653   3.485  17.407 -0.7558  0.8250 -0.1732
  633MPD2    H5 9380   4.638   3.425  17.487  1.4871  1.5095  0.7622
  633MPD2    N1 9381   4.450   3.837  17.136 -0.4471 -0.1911 -0.4756
  633MPD2    H7 9382   4.486   3.782  17.059  1.6494  0.0592  0.3137
  634TMC3    C1 9383   4.353   3.958  16.976  0.5366  1.0198 -0.1864
  634TMC3    C2 9384   4.343   3.841  16.897 -0.1112  0.0903  0.0009
  634TMC3    C3 9385   4.309   3.860  16.763 -0.1401  1.0247 -0.1740
  634TMC3    C4 9386   4.339   4.084  16.937 -0.2546  0.3737  0.4560
  634TMC3    C5 9387   4.320   4.101  16.798 -0.2843  0.8629 -0.3547
  634TMC3    C6 9388   4.291   3.993  16.719 -0.3600  0.4914 -0.3369
  634TMC3     C 9389   4.375   3.946  17.117 -0.0409  0.5655  0.4634
  634TMC3     O 9390   4.343   4.034  17.192 -0.0785  0.2024 -0.1449
  634TMC3     H 9391   4.350   3.741  16.939 -1.3304 -0.3159 -0.7445
  634TMC3    H1 9392   4.353   4.166  17.006 -1.1143 -1.4691  2.7989
  634TMC3    H2 9393   4.277   4.015  16.614  0.9974  1.0573 -0.3970
  634TMC3    C7 9394   4.328   4.230  16.745 -0.2897 -0.5152 -0.2558
  634TMC3    C8 9395   4.264   3.739  16.691 -0.0712 -0.1464  0.2601
  634TMC3    O1 9396   4.312   4.235  16.624 -0.3722  0.1437  0.6418
  634TMC3    O2 9397   4.227   3.645  16.765 -1.1062  0.6913  0.4408
  635TMC3    C1 9398   0.311   4.560   0.333 -0.4873  1.5702  0.7440
  635TMC3    C2 9399   0.270   4.513   0.208  0.3662  0.4920 -0.0838
  635TMC3    C3 9400   0.191   4.402   0.191 -0.6828  1.3854  0.1162
  635TMC3    C4 9401   0.260   4.490   0.441 -0.1481 -0.2499  0.3877
  635TMC3    C5 9402   0.177   4.382   0.422 -0.5291 -0.4838  0.0872
  635TMC3    C6 9403   0.138   4.330   0.298 -0.1262  0.5602 -0.7276
  635TMC3     C 9404   0.408   4.668   0.356  0.4613 -0.4497 -0.3675
  635TMC3     O 9405   0.420   4.705   0.470 -0.1202  0.0288  0.2618
  635TMC3     H 9406   0.301   4.563   0.117  1.5829  1.8886  1.0971
  635TMC3    H1 9407   0.299   4.517   0.539  2.3103  1.6254 -1.1114
  635TMC3    H2 9408   0.104   4.229   0.282 -1.8582  1.6153 -3.6152
  635TMC3    C7 9409   0.156   4.297   0.544 -0.4441 -0.0302 -0.0942
  635TMC3    C8 9410   0.192   4.340   0.060  0.2580 -0.2792 -0.0838
  635TMC3    O1 9411   0.240   4.305   0.631 -0.0570 -0.5292  0.0030
  635TMC3    O2 9412   0.285   4.362  17.669  0.8200 -0.0913 -0.4082
  636MPD2     C 9413   0.861   3.871  15.776  0.3575 -1.0905 -0.3737
  636MPD2    C1 9414   0.889   3.902  15.905 -0.2795 -0.2585 -0.0153
  636MPD2    C2 9415   0.982   3.827  15.969 -0.1425  0.5978  0.2805
  636MPD2    C3 9416   1.052   3.719  15.904  0.0766 -0.2056  0.3863
  636MPD2    C4 9417   1.015   3.692  15.775 -0.3589 -0.8715 -0.2422
  636MPD2    C5 9418   0.920   3.767  15.710  0.0393 -0.1442  0.5465
  636MPD2     H 9419   1.013   3.866  16.065  1.4475  1.6217 -0.6484
  636MPD2    H1 9420   1.057   3.609  15.719 -2.8076 -1.5632 -1.0653
  636MPD2    H2 9421   0.786   3.928  15.723  1.2250  1.3035  0.9907
  636MPD2    H3 9422   0.902   3.741  15.607 -0.1395 -1.2228  0.8461
  636MPD2     N 9423   1.151   3.647  15.970  1.0656  0.0413 -0.0369
  636MPD2    H5 9424   1.173   3.661  16.068 -1.5036 -0.8322  0.6734
  636MPD2    N1 9425   0.840   4.016  15.974  0.6019 -0.1177 -0.3331
  636MPD2    H7 9426   0.880   4.036  16.065 -0.1936 -1.0521  0.2265
  637TMC3    C1 9427   1.295   3.462  15.988  0.2345  0.4035  0.3161
  637TMC3    C2 9428   1.241   3.423  16.108 -1.7527  0.1100 -0.1376
  637TMC3    C3 9429   1.292   3.313  16.177 -0.2746  0.1264 -0.1348
  637TMC3    C4 9430   1.415   3.402  15.948 -0.1390  0.0251 -1.3016
  637TMC3    C5 9431   1.462   3.298  16.017  0.6966  1.0085  0.7452
  637TMC3    C6 9432   1.403   3.245  16.131  0.5782  0.3081 -0.1218
  637TMC3     C 9433   1.237   3.565  15.906 -0.4250 -0.4176 -0.4375
  637TMC3     O 9434   1.275   3.569  15.790 -0.2032 -0.0157 -0.1042
  637TMC3     H 9435   1.146   3.457  16.148 -1.1281 -0.2801  1.6667
  637TMC3    H1 9436   1.466   3.436  15.859 -0.5157  1.0607 -1.1198
  637TMC3    H2 9437   1.472   3.184  16.188 -2.4295 -1.0073  2.0613
  637TMC3    C7 9438   1.581   3.236  15.967  0.0063  0.1090  0.2958
  637TMC3    C8 9439   1.279   3.354  16.320  1.2890 -0.2769  0.1815
  637TMC3    O1 9440   1.575   3.118  15.978 -0.1485 -0.7327  0.1915
  637TMC3    O2 9441   1.222   3.459  16.345  0.0564 -0.1530  0.6991
  638MPD2     C 9442   0.852   2.740  14.911  0.3084 -0.3978 -0.6169
  638MPD2    C1 9443   0.741   2.688  14.840 -0.4055  0.4332  0.1879
  638MPD2    C2 9444   0.657   2.604  14.903 -0.0749 -0.6265  0.3885
  638MPD2    C3 9445   0.683   2.571  15.036  0.4532 -0.4075 -0.4238
  638MPD2    C4 9446   0.776   2.641  15.112  0.3958 -0.7973 -0.0328
  638MPD2    C5 9447   0.856   2.728  15.050 -0.2597  0.1378 -0.4765
  638MPD2     H 9448   0.580   2.550  14.849 -1.5080  0.3058  1.5112
  638MPD2    H1 9449   0.783   2.638  15.220 -0.8831  0.4444  0.0871
  638MPD2    H2 9450   0.911   2.819  14.868  2.4085 -0.7902  1.5595
  638MPD2    H3 9451   0.936   2.787  15.095 -0.4308 -0.3332  0.4409
  638MPD2     N 9452   0.596   2.477  15.091 -0.2897 -0.4022  0.1809
  638MPD2    H5 9453   0.526   2.431  15.033 -1.2393  0.0822  0.9459
  638MPD2    N1 9454   0.725   2.729  14.703  0.4484 -0.1961 -0.1936
  638MPD2    H7 9455   0.804   2.774  14.658 -0.3819  1.7020  0.2467
  639TMC3    C1 9456   0.517   2.338  15.269 -0.3260  0.9539 -0.1842
  639TMC3    C2 9457   0.429   2.289  15.180 -0.2066 -0.4844  0.5558
  639TMC3    C3 9458   0.386   2.160  15.198 -0.5436 -0.0952  0.1972
  639TMC3    C4 9459   0.552   2.272  15.387  0.7851 -0.0669 -0.3156
  639TMC3    C5 9460   0.507   2.146  15.401  0.0863  0.1919  0.2171
  639TMC3    C6 9461   0.430   2.085  15.304 -0.9303  0.7984 -0.1059
  639TMC3     C 9462   0.604   2.441  15.226  0.1629  0.2039  0.1764
  639TMC3     O 9463   0.685   2.459  15.316 -0.4346  0.0578  0.3475
  639TMC3     H 9464   0.386   2.342  15.096 -1.0676 -0.4471  1.0169
  639TMC3    H1 9465   0.620   2.309  15.464 -0.4581 -0.9396  1.2136
  639TMC3    H2 9466   0.413   1.977  15.304 -0.5125  0.7286  0.7197
  639TMC3    C7 9467   0.611   2.060  15.451  0.4355  0.6502  0.3233
  639TMC3    C8 9468   0.330   2.093  15.084  0.3166 -0.6289 -0.0464
  639TMC3    O1 9469   0.583   1.986  15.542  0.0316 -0.0706 -0.1162
  639TMC3    O2 9470   0.345   2.148  14.975 -0.0920  0.2778  0.0692
  640MPD2     C 9471   2.178   0.343   9.797 -0.0386  0.4427 -0.2834
  640MPD2    C1 9472   2.039   0.362   9.802  0.2878 -1.3129 -0.3299
  640MPD2    C2 9473   1.982   0.482   9.845  0.4942 -0.2390 -0.5560
  640MPD2    C3 9474   2.070   0.586   9.881 -0.0242  0.4710  0.5884
  640MPD2    C4 9475   2.205   0.567   9.866 -0.3261 -0.0744  0.2962
  640MPD2    C5 9476   2.258   0.454   9.824  0.3613 -0.6869 -0.1106
  640MPD2     H 9477   1.875   0.486   9.858  0.8258 -0.1446  2.0702
  640MPD2    H1 9478   2.273   0.651   9.878  0.2977 -0.6569  0.7780
  640MPD2    H2 9479   2.223   0.247   9.771 -2.2586 -0.5428 -0.4532
  640MPD2    H3 9480   2.365   0.439   9.816  0.6770  1.3428  0.3570
  640MPD2     N 9481   2.021   0.719   9.922  0.1506 -0.1693 -0.4066
  640MPD2    H5 9482   2.092   0.785   9.950  0.1303  0.4635 -1.8298
  640MPD2    N1 9483   1.966   0.242   9.763  0.2963  0.5964 -0.4766
  640MPD2    H7 9484   2.018   0.174   9.709  1.0738  2.5523 -2.2249
  641TMC3    C1 9485   1.802   0.118   9.678 -0.3845  0.1384  0.5945
  641TMC3    C2 9486   1.886   0.010   9.677 -0.1129 -0.3846  0.3356
  641TMC3    C3 9487   1.863   4.639   9.577 -0.6189 -0.3665 -0.1819
  641TMC3    C4 9488   1.708   0.138   9.581 -0.4357  0.1427 -0.0558
  641TMC3    C5 9489   1.696   0.047   9.480 -0.2287 -0.4273  0.3926
  641TMC3    C6 9490   1.775   4.658   9.474  0.0467 -0.1373 -0.1254
  641TMC3     C 9491   1.830   0.231   9.760  0.3695 -0.1466  0.1521
  641TMC3     O 9492   1.743   0.310   9.791  0.1815 -0.1316 -0.0746
  641TMC3     H 9493   1.948   4.714   9.764  0.8582  5.0088  0.6092
  641TMC3    H1 9494   1.659   0.234   9.586  0.2473  0.5442 -1.1286
  641TMC3    H2 9495   1.768   4.599   9.384  2.6419  0.1981 -0.5546
  641TMC3    C7 9496   1.582   0.043   9.394  0.0983  0.2330 -0.4106
  641TMC3    C8 9497   1.912   4.505   9.581 -0.3399  0.2937 -0.3038
  641TMC3    O1 9498   1.562   4.667   9.322 -0.1151  0.2025 -0.0995
  641TMC3    O2 9499   1.867   4.426   9.500 -0.2483  0.0034  0.2752
  642TMC3    C1 9500   2.679   2.773  12.301 -0.3863 -0.1482  0.2936
  642TMC3    C2 9501   2.812   2.759  12.292  0.2720 -0.5630 -0.0420
  642TMC3    C3 9502   2.860   2.646  12.229  0.1358 -0.3514  0.3482
  642TMC3    C4 9503   2.594   2.684  12.253  0.4427 -0.1157 -0.2943
  642TMC3    C5 9504   2.649   2.590  12.172  0.7588  0.0990  0.5816
  642TMC3    C6 9505   2.778   2.563  12.152  0.4774  0.2806 -0.2074
  642TMC3     C 9506   2.632   2.886  12.379  0.3447  0.0022  0.0287
  642TMC3     O 9507   2.706   2.979  12.381  0.3702 -0.3931 -0.4398
  642TMC3     H 9508   2.873   2.839  12.332 -0.6152  0.0619  0.0652
  642TMC3    H1 9509   2.488   2.706  12.248  0.7764  1.4117 -0.7018
  642TMC3    H2 9510   2.804   2.461  12.128  2.6260  0.6806  0.4499
  642TMC3    C7 9511   2.566   2.476  12.135 -0.6492 -0.0697 -0.6195
  642TMC3    C8 9512   2.997   2.651  12.191 -0.4542  0.2504 -0.8790
  642TMC3    O1 9513   2.586   2.429  12.027 -0.1065 -0.2936 -0.0338
  642TMC3    O2 9514   3.075   2.711  12.266  0.0884  0.5791 -0.4617
  643TMC3    C1 9515   1.596   2.457   0.841  0.3314  0.2442  0.4622
  643TMC3    C2 9516   1.461   2.456   0.844  0.0074  0.6094  0.3707
  643TMC3    C3 9517   1.391   2.356   0.779 -0.4344  0.7073  0.3617
  643TMC3    C4 9518   1.666   2.357   0.782  0.1982  0.2025 -0.0688
  643TMC3    C5 9519   1.594   2.249   0.733 -0.1027 -0.6389 -0.1331
  643TMC3    C6 9520   1.457   2.241   0.749  0.3048  0.4334 -0.0505
  643TMC3     C 9521   1.666   2.576   0.887  0.2346 -0.3353 -0.2135
  643TMC3     O 9522   1.602   2.676   0.915 -0.0187  0.3592  0.1459
  643TMC3     H 9523   1.416   2.547   0.883 -0.2332 -0.4818  2.6488
  643TMC3    H1 9524   1.772   2.358   0.760  0.1013 -1.6703 -0.6208
  643TMC3    H2 9525   1.400   2.164   0.699 -2.3564  0.6671  2.6727
  643TMC3    C7 9526   1.646   2.212   0.605  0.1834  0.7418 -0.4529
  643TMC3    C8 9527   1.273   2.399   0.706  0.0834  0.4838 -0.0271
  643TMC3    O1 9528   1.703   2.302   0.545  0.2516  0.5126  0.0401
  643TMC3    O2 9529   1.181   2.329   0.675  0.5397 -0.3406  0.0549
  644MPD2     C 9530   1.014   0.428   8.830  0.0161  0.2863  0.1512
  644MPD2    C1 9531   1.143   0.472   8.833  1.1485  0.5020 -0.4333
  644MPD2    C2 9532   1.165   0.607   8.851  0.3775  0.3877  0.1302
  644MPD2    C3 9533   1.068   0.702   8.870  0.0612 -0.2091  0.3178
  644MPD2    C4 9534   0.938   0.655   8.869  0.0125  0.0038 -0.4353
  644MPD2    C5 9535   0.923   0.527   8.844  0.6707 -0.0065 -0.4698
  644MPD2     H 9536   1.263   0.650   8.838  0.9077 -0.6650  0.6817
  644MPD2    H1 9537   0.857   0.725   8.885 -0.8189 -0.6985 -1.5844
  644MPD2    H2 9538   0.970   0.330   8.815 -1.0269  0.6359  0.8385
  644MPD2    H3 9539   0.824   0.483   8.847  0.0989  1.1747 -1.7970
  644MPD2     N 9540   1.110   0.834   8.892 -0.2507  0.0501  0.6231
  644MPD2    H5 9541   1.206   0.858   8.871 -0.6361  0.2679 -0.9344
  644MPD2    N1 9542   1.260   0.378   8.829  0.1212  0.6732 -0.5770
  644MPD2    H7 9543   1.352   0.421   8.835  0.3607  0.0462  0.3557
  645TMC3    C1 9544   1.122   1.033   9.032 -1.0431  0.4369  0.5432
  645TMC3    C2 9545   1.254   1.020   9.025 -0.5930 -0.3451 -0.0409
  645TMC3    C3 9546   1.326   1.067   9.136 -0.5366 -0.4703  0.2564
  645TMC3    C4 9547   1.052   1.097   9.135 -0.4275 -0.1554  0.8164
  645TMC3    C5 9548   1.126   1.149   9.240 -0.4014  0.6185 -0.2869
  645TMC3    C6 9549   1.262   1.132   9.240 -0.3544 -0.4645  0.9165
  645TMC3     C 9550   1.039   0.931   8.961  0.5035 -0.5537 -0.2899
  645TMC3     O 9551   0.919   0.933   8.981 -0.0289  0.3183  0.5854
  645TMC3     H 9552   1.306   0.963   8.949  1.2124 -0.0023  0.9289
  645TMC3    H1 9553   0.947   1.124   9.131 -0.1456  0.6826 -1.1089
  645TMC3    H2 9554   1.318   1.165   9.326  1.5623  2.8387 -1.6423
  645TMC3    C7 9555   1.064   1.212   9.350 -0.1248  0.4662 -0.3763
  645TMC3    C8 9556   1.468   1.030   9.145 -0.2774  1.1697  0.3581
  645TMC3    O1 9557   1.135   1.277   9.422  0.1339 -0.2445  0.7086
  645TMC3    O2 9558   1.513   0.963   9.055  0.3543  0.9169 -0.5952
  646MPD2     C 9559   0.833   1.459  14.556 -0.3897 -0.5608  0.4549
  646MPD2    C1 9560   0.730   1.468  14.648 -0.1637  0.4129 -0.1636
  646MPD2    C2 9561   0.611   1.523  14.616  0.0003 -0.1205 -0.8610
  646MPD2    C3 9562   0.594   1.570  14.485 -0.5406  0.6118  0.1902
  646MPD2    C4 9563   0.690   1.535  14.382  0.4638  0.3239  0.2941
  646MPD2    C5 9564   0.811   1.485  14.422 -0.4104  0.2256  0.7001
  646MPD2     H 9565   0.526   1.525  14.684  2.0547  1.3058  1.6586
  646MPD2    H1 9566   0.664   1.565  14.281 -0.1670  1.1177  0.6872
  646MPD2    H2 9567   0.932   1.420  14.577 -0.3124  0.4500  1.9708
  646MPD2    H3 9568   0.886   1.460  14.348 -0.0145  1.2121  0.7651
  646MPD2     N 9569   0.464   1.629  14.458  0.4979 -0.4680 -0.2791
  646MPD2    H5 9570   0.407   1.652  14.538  1.3438 -1.8311  0.7156
  646MPD2    N1 9571   0.768   1.420  14.773 -0.1417  0.2362 -0.2403
  646MPD2    H7 9572   0.854   1.367  14.781 -1.2808 -0.8409  4.4114
  647TMC3    C1 9573   0.771   1.359  15.000 -0.1442  0.0599  0.4442
  647TMC3    C2 9574   0.708   1.291  15.101  0.0295 -0.3675 -0.8463
  647TMC3    C3 9575   0.781   1.243  15.204  0.1434 -0.2806 -0.0173
  647TMC3    C4 9576   0.903   1.396  14.999  0.6899  0.2822  0.5974
  647TMC3    C5 9577   0.975   1.336  15.102  0.9306 -0.7988 -0.2422
  647TMC3    C6 9578   0.917   1.270  15.201  0.1145  0.1728 -0.0743
  647TMC3     C 9579   0.690   1.400  14.886  0.4233  0.5067  0.8659
  647TMC3     O 9580   0.574   1.436  14.902 -0.3111 -0.8289  0.1031
  647TMC3     H 9581   0.602   1.267  15.098 -0.4393  1.1805  2.4187
  647TMC3    H1 9582   0.951   1.462  14.927 -0.7956 -1.0793 -1.6502
  647TMC3    H2 9583   0.979   1.230  15.280 -0.9099  0.7265  1.0022
  647TMC3    C7 9584   1.116   1.298  15.079  0.1892 -0.4103 -0.3347
  647TMC3    C8 9585   0.752   1.107  15.229 -0.1080  0.1061 -0.4341
  647TMC3    O1 9586   1.163   1.208  15.144  0.4772  0.2425  0.4275
  647TMC3    O2 9587   0.665   1.050  15.164 -0.0143  0.4750  0.1620
  648TMC3    C1 9588   0.059   3.621  15.959 -0.4636 -0.2521 -0.1820
  648TMC3    C2 9589   0.134   3.546  15.869 -0.2445  0.3131  0.1995
  648TMC3    C3 9590   0.121   3.561  15.734 -0.1164  0.7653 -0.0340
  648TMC3    C4 9591   4.706   3.726  15.907  0.0357  0.4816  0.1998
  648TMC3    C5 9592   4.708   3.746  15.774  0.7752  0.1268  0.1388
  648TMC3    C6 9593   0.046   3.664  15.680 -0.0521 -0.9676 -0.5727
  648TMC3     C 9594   0.076   3.600  16.101  0.2366  0.3767  0.4893
  648TMC3     O 9595   0.092   3.697  16.177  0.8004 -0.5319  0.7096
  648TMC3     H 9596   0.204   3.474  15.911  1.0054  1.4678  0.0955
  648TMC3    H1 9597   4.643   3.781  15.976 -1.5045  0.2172 -0.9998
  648TMC3    H2 9598   0.039   3.681  15.574  0.6045  1.3690 -0.2381
  648TMC3    C7 9599   4.648   3.866  15.710 -0.3360  0.3917 -0.3040
  648TMC3    C8 9600   0.217   3.491  15.653  0.9680  1.1582  0.7089
  648TMC3    O1 9601   4.645   3.871  15.583 -0.1663 -0.0337 -0.0117
  648TMC3    O2 9602   0.264   3.393  15.711 -0.4075  0.0703  0.3245
  649TMC3    C1 9603   4.409   0.086  13.141 -0.1436  0.5533 -0.1610
  649TMC3    C2 9604   4.531   0.022  13.178  0.5379  0.6425  0.2425
  649TMC3    C3 9605   4.524   4.623  13.247  0.5546 -0.2389 -0.1454
  649TMC3    C4 9606   4.296   0.037  13.184 -0.8366  0.6265  1.1616
  649TMC3    C5 9607   4.290   4.643  13.261 -0.5844  0.3839 -0.4012
  649TMC3    C6 9608   4.404   4.575  13.292 -0.0134  0.5952 -0.5558
  649TMC3     C 9609   4.407   0.157  13.023 -0.2017 -0.2653 -0.0611
  649TMC3     O 9610   4.309   0.145  12.943  0.0505 -0.0018 -0.2376
  649TMC3     H 9611   4.621   0.031  13.119  0.8328  0.8663  0.7295
  649TMC3    H1 9612   4.204   0.076  13.142 -0.0020  0.6905 -0.6198
  649TMC3    H2 9613   4.401   4.483  13.350  2.0012  0.5872 -0.4535
  649TMC3    C7 9614   4.174   4.640  13.347  0.2091  0.4283 -0.5614
  649TMC3    C8 9615   4.641   4.543  13.276 -0.1550 -0.4568  0.1803
  649TMC3    O1 9616   4.093   0.010  13.326  0.4763  0.4797 -0.1207
  649TMC3    O2 9617   4.623   4.435  13.327 -0.2528 -0.2239 -0.3527
  650TMC3    C1 9618   1.763   1.795  12.752 -0.3963  0.3068 -0.0724
  650TMC3    C2 9619   1.745   1.917  12.804  0.5203 -0.1520 -0.3384
  650TMC3    C3 9620   1.635   1.985  12.764 -0.4468  0.3320 -0.2009
  650TMC3    C4 9621   1.697   1.745  12.644 -0.4237 -0.3798  0.3170
  650TMC3    C5 9622   1.604   1.827  12.586  0.0401  0.4671  0.0326
  650TMC3    C6 9623   1.569   1.945  12.649  0.1609 -0.0148 -0.0614
  650TMC3     C 9624   1.829   1.697  12.841  0.4263  0.4440 -0.0429
  650TMC3     O 9625   1.858   1.739  12.950 -0.0949 -0.6537 -0.0653
  650TMC3     H 9626   1.808   1.954  12.884  1.3767 -1.5292 -0.3778
  650TMC3    H1 9627   1.721   1.659  12.582  0.0736 -0.7021  0.9651
  650TMC3    H2 9628   1.499   2.011  12.599 -1.2595 -0.1644  1.7388
  650TMC3    C7 9629   1.592   1.832  12.437  0.0218  0.3822  0.1405
  650TMC3    C8 9630   1.631   2.129  12.787  0.5747 -0.4270  0.0031
  650TMC3    O1 9631   1.567   1.731  12.368  0.6829  0.4760 -1.1600
  650TMC3    O2 9632   1.745   2.179  12.787 -0.3152 -0.0078 -0.1884
  651MPD2     C 9633   0.993   3.319  10.322 -0.0677 -0.3764 -0.4246
  651MPD2    C1 9634   0.952   3.392  10.437 -0.5563 -0.2249  0.3673
  651MPD2    C2 9635   1.049   3.463  10.501 -0.0612  0.2871 -0.4274
  651MPD2    C3 9636   1.181   3.468  10.456  0.5884 -0.0089 -0.4016
  651MPD2    C4 9637   1.211   3.416  10.329  0.6440 -1.0462  0.2513
  651MPD2    C5 9638   1.119   3.343  10.267 -0.4636  0.8319  0.6661
  651MPD2     H 9639   1.024   3.523  10.588  1.8199 -1.5859  1.4151
  651MPD2    H1 9640   1.304   3.441  10.279 -0.4137  1.6596 -0.3628
  651MPD2    H2 9641   0.930   3.243  10.276 -1.3254  0.4394 -0.0441
  651MPD2    H3 9642   1.142   3.303  10.169  0.9200 -1.3258  1.8712
  651MPD2     N 9643   1.269   3.555  10.521 -0.7925 -0.1383 -0.1416
  651MPD2    H5 9644   1.224   3.597  10.602 -2.7864 -1.7496 -0.4121
  651MPD2    N1 9645   0.828   3.372  10.506 -0.0979  0.2757 -0.2403
  651MPD2    H7 9646   0.813   3.415  10.597 -2.2463 -3.7834  1.3423
  652TMC3    C1 9647   1.637   3.830  10.651  0.0471 -0.2482 -0.6409
  652TMC3    C2 9648   1.588   3.736  10.558 -0.2688  0.4105 -0.6516
  652TMC3    C3 9649   1.457   3.696  10.574  0.5646  0.7945 -0.1295
  652TMC3    C4 9650   1.557   3.890  10.740  0.4272  0.4386  0.3641
  652TMC3    C5 9651   1.426   3.856  10.742 -0.4041 -0.4754 -0.6353
  652TMC3    C6 9652   1.375   3.761  10.663  0.2621  0.6824  0.1517
  652TMC3     C 9653   1.782   3.852  10.654 -0.2573  0.3727 -0.0779
  652TMC3     O 9654   1.852   3.823  10.558 -0.5027 -0.2696  0.2699
  652TMC3     H 9655   1.646   3.684  10.483  1.9807  1.4925  0.3347
  652TMC3    H1 9656   1.589   3.973  10.803  0.3762  1.0093 -0.3726
  652TMC3    H2 9657   1.267   3.756  10.664  0.2398  1.1153 -0.0037
  652TMC3    C7 9658   1.343   3.891  10.852 -0.4272 -0.3008  0.1407
  652TMC3    C8 9659   1.401   3.594  10.489  0.5569  0.5330 -0.0049
  652TMC3    O1 9660   1.267   3.802  10.888  0.0571 -0.1821  0.2238
  652TMC3    O2 9661   1.466   3.559  10.390 -0.1142  0.4987 -0.8076
  653MPD2     C 9662   4.175   3.930   0.016 -0.2119  0.3477 -0.0057
  653MPD2    C1 9663   4.155   3.999  17.583  0.5046  0.7532 -0.0955
  653MPD2    C2 9664   4.059   3.951  17.490  0.6692  0.3910 -0.4685
  653MPD2    C3 9665   3.996   3.829  17.517 -0.0382  0.2356 -0.2801
  653MPD2    C4 9666   4.032   3.751  17.626  0.0850 -0.4347  0.0809
  653MPD2    C5 9667   4.120   3.806   0.030 -0.3109  0.2557  0.7029
  653MPD2     H 9668   4.035   3.999  17.396 -1.5045 -1.0288 -0.6412
  653MPD2    H1 9669   3.994   3.651  17.643  2.2821 -1.5217 -1.4348
  653MPD2    H2 9670   4.242   3.962   0.094  1.5299  1.1659 -1.8187
  653MPD2    H3 9671   4.141   3.746   0.118  0.4838 -0.0745  0.2909
  653MPD2     N 9672   3.909   3.777  17.417 -0.1560 -0.7831 -0.2479
  653MPD2    H5 9673   3.876   3.837  17.342 -0.7853 -1.1649 -0.2822
  653MPD2    N1 9674   4.236   4.106  17.551 -0.6308 -0.4393 -0.1154
  653MPD2    H7 9675   4.230   4.149  17.459  1.3747  0.4656  0.1748
  654TMC3    C1 9676   3.775   3.617  17.308 -0.2105  0.3690 -0.4323
  654TMC3    C2 9677   3.666   3.696  17.301 -0.2562  0.2058 -0.2207
  654TMC3    C3 9678   3.578   3.673  17.204 -0.2406 -0.3487  0.6453
  654TMC3    C4 9679   3.774   3.489  17.257  0.1557  0.1747  0.6185
  654TMC3    C5 9680   3.667   3.454  17.186 -0.1923 -0.0989  0.2091
  654TMC3    C6 9681   3.570   3.547  17.159  0.0475 -0.6202  1.2524
  654TMC3     C 9682   3.875   3.648  17.409  0.3729 -0.8065  0.1406
  654TMC3     O 9683   3.930   3.551  17.460 -0.1418  0.5830 -0.4428
  654TMC3     H 9684   3.664   3.791  17.353 -1.5490  0.1348 -0.1451
  654TMC3    H1 9685   3.860   3.425  17.267  0.6957  0.5780 -1.3275
  654TMC3    H2 9686   3.483   3.519  17.101  1.4136 -1.6383 -0.3092
  654TMC3    C7 9687   3.634   3.314  17.149 -0.2248 -0.2298  0.2713
  654TMC3    C8 9688   3.494   3.771  17.150  0.2162 -0.5996 -0.2194
  654TMC3    O1 9689   3.539   3.307  17.071 -0.1165  0.0681  0.2529
  654TMC3    O2 9690   3.467   3.865  17.222 -0.2881 -0.1075  0.3709
  655MPD2     C 9691   0.570   3.511  15.793 -0.0250  0.3024 -0.3570
  655MPD2    C1 9692   0.580   3.627  15.728 -0.7466  0.4436 -0.1003
  655MPD2    C2 9693   0.659   3.632  15.611 -0.5889  0.4513 -0.1983
  655MPD2    C3 9694   0.723   3.524  15.559  0.6759  0.8092 -0.0549
  655MPD2    C4 9695   0.724   3.412  15.642  0.1461 -0.3296  0.0297
  655MPD2    C5 9696   0.642   3.406  15.752  0.8936 -0.6053  0.4539
  655MPD2     H 9697   0.658   3.717  15.543  1.0544  2.9513  2.8518
  655MPD2    H1 9698   0.773   3.320  15.612 -3.0901 -1.9195 -0.4263
  655MPD2    H2 9699   0.506   3.496  15.880 -0.2229 -0.1660 -0.5890
  655MPD2    H3 9700   0.629   3.305  15.789  0.0912 -0.9000 -0.6466
  655MPD2     N 9701   0.794   3.545  15.439 -0.0596  0.1878 -0.0995
  655MPD2    H5 9702   0.773   3.635  15.395  1.0853 -0.3364 -1.7199
  655MPD2    N1 9703   0.512   3.747  15.767 -0.5143  0.4065  0.5019
  655MPD2    H7 9704   0.514   3.827  15.705 -0.7589  0.9348  1.1770
  656TMC3    C1 9705   0.379   3.902  15.886  0.0366  0.0266  0.5154
  656TMC3    C2 9706   0.313   3.936  16.000 -0.7931 -0.5274 -0.0250
  656TMC3    C3 9707   0.224   4.036  16.001  0.0019 -0.3489 -0.3809
  656TMC3    C4 9708   0.369   3.970  15.770  0.3004 -0.6613  0.3886
  656TMC3    C5 9709   0.277   4.071  15.772 -0.1113 -0.4453 -0.1700
  656TMC3    C6 9710   0.205   4.103  15.883 -0.8735 -0.1647  0.7016
  656TMC3     C 9711   0.441   3.766  15.882  0.5031  0.4916 -0.2845
  656TMC3     O 9712   0.405   3.677  15.958 -0.2138  0.4793  0.1425
  656TMC3     H 9713   0.332   3.882  16.093  0.7162  0.6325  0.3298
  656TMC3    H1 9714   0.418   3.946  15.677 -2.3575 -2.2762 -0.6000
  656TMC3    H2 9715   0.118   4.167  15.883  0.0946  1.1496  0.9671
  656TMC3    C7 9716   0.261   4.142  15.645 -0.4872  0.0089  0.1775
  656TMC3    C8 9717   0.112   4.053  16.094 -0.4015 -1.0129 -0.8107
  656TMC3    O1 9718   0.304   4.095  15.539  0.1579 -0.6353  0.1486
  656TMC3    O2 9719   0.007   3.995  16.065 -0.4178  0.1862  0.1654
  657TMC3    C1 9720   3.725   3.168  14.961 -0.5257 -0.2087  0.3065
  657TMC3    C2 9721   3.819   3.264  15.007  0.2587 -0.4566  0.7186
  657TMC3    C3 9722   3.856   3.364  14.929  0.7218  0.5325 -0.1890
  657TMC3    C4 9723   3.656   3.180  14.844 -0.3694 -0.4188  0.1156
  657TMC3    C5 9724   3.692   3.294  14.772  0.4172  0.0230 -0.6189
  657TMC3    C6 9725   3.790   3.378  14.807  0.3206 -0.0543  0.0640
  657TMC3     C 9726   3.708   3.055  15.047  0.0222  0.3011  0.3461
  657TMC3     O 9727   3.766   3.063  15.153 -0.8008  0.1814  0.2158
  657TMC3     H 9728   3.867   3.245  15.103 -0.2365 -1.0016  0.8609
  657TMC3    H1 9729   3.582   3.108  14.809 -0.7273  1.2489 -2.5358
  657TMC3    H2 9730   3.826   3.457  14.742  1.4911 -1.2909 -0.7899
  657TMC3    C7 9731   3.668   3.276  14.634  0.0312 -0.1531  0.1037
  657TMC3    C8 9732   3.992   3.421  14.932 -0.3522  0.5353  0.2533
  657TMC3    O1 9733   3.635   3.375  14.574 -0.0189  0.0347 -0.0316
  657TMC3    O2 9734   4.008   3.518  14.858 -0.8293  0.3312  0.2182
  658MPD2     C 9735   1.133   3.916  14.785 -0.0826 -0.2152 -0.4446
  658MPD2    C1 9736   1.014   3.894  14.837 -0.2538 -0.3347 -0.5491
  658MPD2    C2 9737   0.908   3.945  14.774 -0.2881 -0.1064 -0.4052
  658MPD2    C3 9738   0.925   4.038  14.676 -0.1896  0.4846  0.5305
  658MPD2    C4 9739   1.052   4.083  14.639 -0.0486 -0.8257  0.6084
  658MPD2    C5 9740   1.158   4.016  14.692 -0.1959  0.3588  0.9206
  658MPD2     H 9741   0.807   3.915  14.799 -0.5870  0.6068 -0.7647
  658MPD2    H1 9742   1.074   4.168  14.575  1.5476 -1.9204 -0.2949
  658MPD2    H2 9743   1.216   3.853  14.817  0.8891  1.0856 -0.4340
  658MPD2    H3 9744   1.259   4.041  14.662 -0.0765 -1.5706 -0.3055
  658MPD2     N 9745   0.799   4.084  14.623 -0.0371 -0.0251 -0.0372
  658MPD2    H5 9746   0.713   4.057  14.669 -0.4051  1.8537  0.4072
  658MPD2    N1 9747   1.000   3.780  14.916  0.0325  0.0689 -0.1575
  658MPD2    H7 9748   1.077   3.716  14.928  0.3183 -0.1675 -3.2868
  659TMC3    C1 9749   0.923   3.632  15.066  0.2981 -0.1861 -0.0061
  659TMC3    C2 9750   0.912   3.621  15.197  0.8889  0.7582 -0.1721
  659TMC3    C3 9751   0.902   3.485  15.239  0.0246 -0.3485 -0.3901
  659TMC3    C4 9752   0.921   3.533  14.975  0.4576  0.3013  0.2762
  659TMC3    C5 9753   0.895   3.406  15.021 -0.0295 -0.1905 -0.6319
  659TMC3    C6 9754   0.911   3.375  15.147 -0.0984 -0.3415 -1.3570
  659TMC3     C 9755   0.901   3.759  15.008  0.3001 -0.3166 -1.1181
  659TMC3     O 9756   0.839   3.851  15.062  0.3067 -0.2368  0.1386
  659TMC3     H 9757   0.899   3.704  15.266  2.6102  2.5528 -2.0418
  659TMC3    H1 9758   0.906   3.551  14.869  0.6859  2.5867  0.6344
  659TMC3    H2 9759   0.891   3.273  15.177 -0.4415  0.8828  2.5668
  659TMC3    C7 9760   0.761   3.371  14.965  0.1904  0.1135  0.1092
  659TMC3    C8 9761   0.861   3.451  15.370 -0.2173  0.2763  0.7782
  659TMC3    O1 9762   0.694   3.465  14.919 -0.1721  0.0815 -0.2642
  659TMC3    O2 9763   0.872   3.335  15.406 -0.1598  0.0274 -0.5777
  660MPD2     C 9764   4.009   2.605  12.496 -0.6305  0.7583  0.4696
  660MPD2    C1 9765   3.870   2.617  12.491  0.3337  0.2096  0.0832
  660MPD2    C2 9766   3.793   2.526  12.565  0.2855 -0.6121  0.5061
  660MPD2    C3 9767   3.848   2.425  12.637  0.0097  0.3616  1.6664
  660MPD2    C4 9768   3.989   2.412  12.633  0.6646  0.5392  0.4756
  660MPD2    C5 9769   4.069   2.506  12.573  0.6783  0.2034  0.0313
  660MPD2     H 9770   3.686   2.541  12.571  0.0481 -1.4936 -1.4423
  660MPD2    H1 9771   4.039   2.346  12.703  3.2320  2.0134  0.0137
  660MPD2    H2 9772   4.073   2.670  12.437 -1.3593  1.7011  0.7162
  660MPD2    H3 9773   4.175   2.496  12.593  0.7537 -2.0009 -1.3729
  660MPD2     N 9774   3.772   2.332  12.719  0.6027  0.2541 -0.4045
  660MPD2    H5 9775   3.826   2.259  12.764  0.6241 -0.6100 -1.8459
  660MPD2    N1 9776   3.822   2.716  12.409  0.5860  0.2111  0.0434
  660MPD2    H7 9777   3.890   2.781  12.372  1.2762 -2.0322 -2.6276
  661TMC3    C1 9778   3.661   2.862  12.311  0.4385  0.1523 -0.2125
  661TMC3    C2 9779   3.724   2.870  12.189 -0.1627 -0.0295 -0.6690
  661TMC3    C3 9780   3.666   2.961  12.107 -0.5855 -0.2053 -0.3490
  661TMC3    C4 9781   3.546   2.927  12.344  0.1515  0.2093  0.2770
  661TMC3    C5 9782   3.480   3.000  12.248 -0.5719  0.2599 -0.5251
  661TMC3    C6 9783   3.545   3.024  12.129 -0.2157  0.1269 -0.8092
  661TMC3     C 9784   3.686   2.755  12.398 -0.1878 -0.1338  0.1186
  661TMC3     O 9785   3.595   2.719  12.470  0.4559  0.3497  0.2318
  661TMC3     H 9786   3.821   2.827  12.166 -0.6543 -0.3138 -2.2515
  661TMC3    H1 9787   3.500   2.919  12.443  4.6504 -1.9444  2.1787
  661TMC3    H2 9788   3.514   3.114  12.077 -2.2644  0.8830  1.6722
  661TMC3    C7 9789   3.336   3.015  12.259  0.5403  0.3616 -0.4207
  661TMC3    C8 9790   3.740   2.976  11.980 -0.6541 -0.3325  0.1717
  661TMC3    O1 9791   3.282   3.007  12.369  0.6619  0.4227  0.1348
  661TMC3    O2 9792   3.847   2.920  11.962 -0.5287 -1.0699  0.1022
  662MPD2     C 9793   3.585   1.986  17.403 -0.1677  0.2280  0.1100
  662MPD2    C1 9794   3.637   2.020  17.528 -0.1393  0.3836 -0.2922
  662MPD2    C2 9795   3.599   2.137  17.591  0.6462  0.3095  0.5443
  662MPD2    C3 9796   3.501   2.210  17.532  0.2345  0.2199  0.8521
  662MPD2    C4 9797   3.436   2.167  17.422 -0.5523  0.7587  0.4659
  662MPD2    C5 9798   3.482   2.061  17.354  0.7163  0.7385 -0.3984
  662MPD2     H 9799   3.635   2.166   0.006 -1.3340  0.0435  1.3581
  662MPD2    H1 9800   3.341   2.202  17.383 -0.7246  0.4332  0.5899
  662MPD2    H2 9801   3.610   1.899  17.342 -2.2025 -1.7047  2.0249
  662MPD2    H3 9802   3.437   2.023  17.263 -0.4486 -1.7891  1.2528
  662MPD2     N 9803   3.445   2.324  17.597 -0.4335 -0.8414 -0.4185
  662MPD2    H5 9804   3.360   2.351  17.547  0.4933 -0.5590 -1.8599
  662MPD2    N1 9805   3.736   1.946  17.593  0.5344 -0.4672 -0.3389
  662MPD2    H7 9806   3.774   1.965   0.002 -0.3118  0.0635 -0.1030
  663TMC3    C1 9807   3.872   1.760  17.638  0.0690  0.0980 -0.3197
  663TMC3    C2 9808   3.908   1.821   0.072 -0.4869  0.7478  0.3166
  663TMC3    C3 9809   4.008   1.763   0.143  0.1665  0.1938 -0.3223
  663TMC3    C4 9810   3.909   1.630  17.606 -0.4400 -0.3894  0.3340
  663TMC3    C5 9811   3.990   1.567   0.014  0.4863  0.2833  0.6332
  663TMC3    C6 9812   4.035   1.631   0.122 -0.3575 -0.6283  0.4415
  663TMC3     C 9813   3.777   1.824  17.546  0.1504  0.4872 -0.3067
  663TMC3     O 9814   3.757   1.768  17.437  0.2643  0.1550 -0.2119
  663TMC3     H 9815   3.903   1.927   0.092 -1.1769  0.7788 -0.0021
  663TMC3    H1 9816   3.896   1.583  17.509 -1.3585 -0.3083  0.4159
  663TMC3    H2 9817   4.124   1.593   0.171  0.3821 -2.3637 -2.1808
  663TMC3    C7 9818   4.057   1.443  17.676 -0.6687  0.1204 -0.6247
  663TMC3    C8 9819   4.025   1.784   0.288  0.0935 -0.2272  0.0850
  663TMC3    O1 9820   4.171   1.425   0.034  0.2567  0.5238  0.5999
  663TMC3    O2 9821   4.113   1.724   0.344  0.2577  0.3291 -0.7403
  664MPD2     C 9822   2.105   0.823  17.543  0.1995  0.7040  0.0588
  664MPD2    C1 9823   2.108   0.954  17.568  0.3274 -0.3247  0.7788
  664MPD2    C2 9824   2.096   1.000   0.017  0.6764  0.5558 -0.3071
  664MPD2    C3 9825   2.072   0.913   0.125 -0.3885  0.7095  0.2975
  664MPD2    C4 9826   2.062   0.780   0.091  1.0301  0.5873  0.3688
  664MPD2    C5 9827   2.072   0.733  17.644 -0.3929  0.5018  0.1466
  664MPD2     H 9828   2.115   1.105   0.035  2.1640  0.3747 -0.7466
  664MPD2    H1 9829   2.053   0.707   0.171 -0.8973  2.5076  1.8961
  664MPD2    H2 9830   2.109   0.788  17.441  2.0009 -0.9578  0.7069
  664MPD2    H3 9831   2.065   0.627  17.624  1.5799  0.5491 -0.9266
  664MPD2     N 9832   2.075   0.963   0.261 -0.0789 -0.1218 -0.1596
  664MPD2    H5 9833   2.098   1.061   0.277 -2.4196  0.3213  0.4037
  664MPD2    N1 9834   2.164   1.035  17.461  0.6545 -0.0810 -0.0910
  664MPD2    H7 9835   2.180   0.984  17.374  0.0013  0.8269 -0.7396
  665TMC3    C1 9836   2.065   0.959   0.502  0.7046  1.0873  0.5374
  665TMC3    C2 9837   1.973   0.924   0.595 -0.3442 -0.2211 -0.6542
  665TMC3    C3 9838   1.957   1.015   0.700 -0.8298  0.0080 -0.3042
  665TMC3    C4 9839   2.141   1.068   0.515  0.2384 -0.0180  0.3414
  665TMC3    C5 9840   2.139   1.149   0.629  0.8179 -0.4521  0.3182
  665TMC3    C6 9841   2.044   1.122   0.728 -0.3053  0.5460 -0.8693
  665TMC3     C 9842   2.048   0.890   0.376 -0.0115  0.5891  0.0650
  665TMC3     O 9843   2.004   0.774   0.385 -0.6092 -0.1515  0.1451
  665TMC3     H 9844   1.895   0.852   0.577 -1.0422  0.3346  0.1285
  665TMC3    H1 9845   2.208   1.095   0.434 -0.5238 -0.0312 -0.2952
  665TMC3    H2 9846   2.017   1.204   0.795  0.2700 -0.0216  0.0529
  665TMC3    C7 9847   2.206   1.276   0.620 -0.1942  0.0272  1.0657
  665TMC3    C8 9848   1.840   1.018   0.782 -0.1313 -0.7489 -0.3057
  665TMC3    O1 9849   2.250   1.310   0.508  0.5166  0.4554  0.7741
  665TMC3    O2 9850   1.837   1.100   0.872  0.3265  0.2199  0.0350
  666TMC3    C1 9851   1.590   4.713  10.245  0.2956  0.1067  0.2192
  666TMC3    C2 9852   1.653   4.655  10.354  0.7245  0.3252 -0.7660
  666TMC3    C3 9853   1.780   4.698  10.394  0.2013  0.2221  0.0316
  666TMC3    C4 9854   1.659   0.078  10.158  0.4729 -0.3872 -0.0259
  666TMC3    C5 9855   1.771   0.132  10.211  0.1150 -0.6126 -0.3791
  666TMC3    C6 9856   1.831   0.086  10.324 -0.2573 -0.0323 -0.0630
  666TMC3     C 9857   1.450   4.687  10.208 -0.4772  0.0856 -0.5012
  666TMC3     O 9858   1.396   0.005  10.107  0.0856  0.6673 -0.5784
  666TMC3     H 9859   1.605   4.572  10.404 -0.7411  0.9729 -1.1035
  666TMC3    H1 9860   1.621   0.107  10.061  1.0955  0.3634 -0.0397
  666TMC3    H2 9861   1.928   0.122  10.357 -0.2157  2.8794 -3.3273
  666TMC3    C7 9862   1.776   0.273  10.184 -0.0175  0.0346 -0.4650
  666TMC3    C8 9863   1.812   4.666  10.535  0.3680 -0.1736  0.4305
  666TMC3    O1 9864   1.696   0.313  10.102 -0.1299 -0.1003 -0.3303
  666TMC3    O2 9865   1.725   4.617  10.601  0.3175  0.2625 -0.7161
  667MPD2     C 9866   2.833   0.390  15.213  0.0790  0.6323 -1.0220
  667MPD2    C1 9867   2.733   0.435  15.132  0.1105 -0.2768  0.3727
  667MPD2    C2 9868   2.641   0.343  15.087 -0.0038  0.8246  0.8156
  667MPD2    C3 9869   2.648   0.206  15.109 -0.4507  0.6311 -0.0350
  667MPD2    C4 9870   2.740   0.165  15.199  0.2490 -0.0891  0.0359
  667MPD2    C5 9871   2.836   0.256  15.243  0.4223 -0.1157 -0.2106
  667MPD2     H 9872   2.554   0.380  15.034 -1.1250 -0.9082  1.4224
  667MPD2    H1 9873   2.748   0.060  15.225 -0.4415  0.0166  0.7015
  667MPD2    H2 9874   2.905   0.454  15.264 -0.1474  0.3687 -0.3711
  667MPD2    H3 9875   2.904   0.219  15.320 -0.7394  0.7406  1.2157
  667MPD2     N 9876   2.564   0.113  15.057 -0.2839  0.5389  0.3920
  667MPD2    H5 9877   2.582   0.017  15.085 -1.2998 -0.0681 -1.0457
  667MPD2    N1 9878   2.714   0.573  15.096  0.1515  0.4062  0.0472
  667MPD2    H7 9879   2.620   0.592  15.064 -1.2216  0.7034  4.3674
  668TMC3    C1 9880   2.740   0.804  15.081 -0.0128  0.8529 -0.3160
  668TMC3    C2 9881   2.820   0.914  15.064 -0.1101  0.1945  0.0020
  668TMC3    C3 9882   2.761   1.029  15.018  0.2085 -0.0976 -0.0856
  668TMC3    C4 9883   2.613   0.804  15.032  0.5887 -0.4104  0.2595
  668TMC3    C5 9884   2.567   0.926  14.969  0.3335 -0.2410  0.2482
  668TMC3    C6 9885   2.638   1.045  14.968 -0.2159  0.5924  0.2905
  668TMC3     C 9886   2.802   0.676  15.117  0.6696 -0.4425 -0.1599
  668TMC3     O 9887   2.918   0.671  15.146 -0.7042 -0.0609  0.7585
  668TMC3     H 9888   2.918   0.922  15.108  0.7116 -0.6254 -1.6929
  668TMC3    H1 9889   2.548   0.718  15.016 -0.7282  1.5382 -4.6416
  668TMC3    H2 9890   2.601   1.144  14.944  1.6878  1.2590  0.1500
  668TMC3    C7 9891   2.426   0.921  14.930 -0.0806 -0.2176  0.0158
  668TMC3    C8 9892   2.825   1.151  15.048 -0.1438  0.4864  0.1468
  668TMC3    O1 9893   2.360   0.825  14.964  0.7005  0.3491  0.7559
  668TMC3    O2 9894   2.831   1.196  15.164 -0.2768 -0.6243 -0.4907
  669TMC3    C1 9895   0.692   0.380  14.370  0.0401  0.0275 -0.6869
  669TMC3    C2 9896   0.569   0.430  14.328 -0.1982  0.2297 -0.1067
  669TMC3    C3 9897   0.543   0.566  14.315  0.1858  0.0890  0.3775
  669TMC3    C4 9898   0.795   0.470  14.398  0.5006  0.0485 -0.3851
  669TMC3    C5 9899   0.767   0.605  14.386 -0.1250 -0.5767 -0.2657
  669TMC3    C6 9900   0.636   0.655  14.354 -0.4064 -0.2841 -0.9728
  669TMC3     C 9901   0.686   0.258  14.459  0.5636 -0.2161  0.7851
  669TMC3     O 9902   0.569   0.214  14.454  0.6697  0.2871 -0.2705
  669TMC3     H 9903   0.495   0.363  14.286  0.5063 -0.5926 -0.0190
  669TMC3    H1 9904   0.891   0.443  14.440 -0.6583  0.2772  2.4416
  669TMC3    H2 9905   0.632   0.762  14.338  1.5618  0.2066  1.7201
  669TMC3    C7 9906   0.868   0.688  14.332  0.4848  0.2976 -0.1023
  669TMC3    C8 9907   0.464   0.609  14.205 -0.7153 -0.6006  0.1485
  669TMC3    O1 9908   0.851   0.810  14.342 -0.1528  0.3914  0.1471
  669TMC3    O2 9909   0.450   0.527  14.111 -0.1611  0.4732 -0.1006
  670MPD2     C 9910   3.156   3.255  13.123 -0.9824  0.2502 -0.0814
  670MPD2    C1 9911   3.222   3.348  13.203 -0.4367 -1.0115 -0.1119
  670MPD2    C2 9912   3.238   3.332  13.335  0.1342 -0.4343 -0.1060
  670MPD2    C3 9913   3.200   3.210  13.397  0.3550 -0.0168  0.6166
  670MPD2    C4 9914   3.130   3.116  13.319  0.9803 -0.5275 -0.0399
  670MPD2    C5 9915   3.117   3.142  13.183 -0.4518  0.2117 -0.1154
  670MPD2     H 9916   3.279   3.412  13.395  0.7400 -1.8011  1.3162
  670MPD2    H1 9917   3.084   3.024  13.351  0.0611 -0.7723 -2.1077
  670MPD2    H2 9918   3.131   3.261  13.017  0.1129 -2.4523 -0.4917
  670MPD2    H3 9919   3.070   3.066  13.120  0.3110  1.3729 -2.0785
  670MPD2     N 9920   3.238   3.187  13.531  0.8486 -0.7013  0.3782
  670MPD2    H5 9921   3.291   3.269  13.560 -0.9497  1.3424 -2.1609
  670MPD2    N1 9922   3.276   3.468  13.149 -0.6280 -0.0850  0.7381
  670MPD2    H7 9923   3.291   3.540  13.218  0.8362  0.4586 -0.1394
  671TMC3    C1 9924   3.243   3.087  13.747 -0.4735  0.2525 -0.0558
  671TMC3    C2 9925   3.371   3.113  13.782 -0.6205  0.3163  0.5587
  671TMC3    C3 9926   3.444   3.024  13.856 -0.3573 -0.7117  0.1772
  671TMC3    C4 9927   3.173   2.991  13.812  0.0259  0.4575  0.5589
  671TMC3    C5 9928   3.247   2.917  13.896 -0.3110  0.1316 -0.2854
  671TMC3    C6 9929   3.382   2.922  13.903 -0.2560  0.3661 -0.2151
  671TMC3     C 9930   3.216   3.075  13.606  0.0760  1.0044 -0.1709
  671TMC3     O 9931   3.149   2.982  13.585  0.2392 -0.0733 -0.4786
  671TMC3     H 9932   3.435   3.158  13.707 -0.2842 -0.4844  0.3723
  671TMC3    H1 9933   3.068   2.974  13.790 -0.1141  0.7230  1.0268
  671TMC3    H2 9934   3.435   2.861  13.975 -0.9578 -1.6060 -1.3902
  671TMC3    C7 9935   3.182   2.787  13.898 -0.2078 -0.2105  0.2610
  671TMC3    C8 9936   3.583   3.009  13.820  0.6663 -0.7359 -0.0068
  671TMC3    O1 9937   3.262   2.700  13.870  0.0624 -0.4181 -0.3593
  671TMC3    O2 9938   3.600   2.907  13.753  1.1738 -0.3254  0.1485
  672MPD2     C 9939   4.075   3.774   1.507  0.0250 -0.2702 -0.5906
  672MPD2    C1 9940   4.151   3.691   1.432  0.0394 -0.2803  0.5554
  672MPD2    C2 9941   4.268   3.741   1.374 -0.0220 -0.2248 -0.6815
  672MPD2    C3 9942   4.314   3.873   1.395  0.1109 -0.3974  0.2548
  672MPD2    C4 9943   4.230   3.950   1.475  0.2536 -0.6699  0.3790
  672MPD2    C5 9944   4.116   3.901   1.540 -0.6948  0.5200 -0.2568
  672MPD2     H 9945   4.320   3.672   1.309  2.5044 -1.3818  2.5509
  672MPD2    H1 9946   4.265   4.052   1.477 -0.3836 -0.4443  0.1250
  672MPD2    H2 9947   3.984   3.740   1.556 -0.4106  1.1995 -0.3891
  672MPD2    H3 9948   4.070   3.968   1.612  1.4766 -1.2575  2.7763
  672MPD2     N 9949   4.428   3.934   1.341 -0.0373  0.5851  0.2564
  672MPD2    H5 9950   4.431   4.036   1.346  1.5560  0.5548  0.0183
  672MPD2    N1 9951   4.126   3.556   1.409  0.0410 -0.3949  0.4283
  672MPD2    H7 9952   4.196   3.511   1.351 -0.0754 -0.0477  0.0187
  673TMC3    C1 9953   4.007   3.363   1.381  0.2248  0.5857 -0.3560
  673TMC3    C2 9954   4.103   3.278   1.421  0.4329 -0.3327 -0.3892
  673TMC3    C3 9955   4.067   3.142   1.406 -0.0165  0.1353  0.4267
  673TMC3    C4 9956   3.887   3.322   1.328  0.5905 -0.0435  0.5934
  673TMC3    C5 9957   3.857   3.192   1.306 -0.0446  0.2164 -0.5998
  673TMC3    C6 9958   3.953   3.102   1.339  0.2697  0.7613  0.5098
  673TMC3     C 9959   4.006   3.493   1.435 -1.3138  0.3986 -0.1071
  673TMC3     O 9960   3.897   3.540   1.475 -0.4496 -0.9931 -0.1050
  673TMC3     H 9961   4.200   3.309   1.459  0.4687  0.3607 -1.0436
  673TMC3    H1 9962   3.809   3.392   1.300  2.1791  2.0077  1.3094
  673TMC3    H2 9963   3.922   2.998   1.328 -0.5908  1.2004 -1.1669
  673TMC3    C7 9964   3.825   3.165   1.167  0.0464 -0.3178 -0.4652
  673TMC3    C8 9965   4.149   3.037   1.479 -0.0333 -0.5289  0.4223
  673TMC3    O1 9966   3.842   3.053   1.123  0.2137 -0.4350  0.1676
  673TMC3    O2 9967   4.087   2.931   1.486 -0.5975 -0.7237 -0.2124
  674MPD2     C 9968   3.685   2.724  17.582  0.2206  0.2729 -0.1498
  674MPD2    C1 9969   3.767   2.766  17.682  0.2856 -0.4539  0.4245
  674MPD2    C2 9970   3.809   2.900   0.001 -0.6832 -0.4544 -0.3337
  674MPD2    C3 9971   3.763   2.991  17.596 -0.4599 -0.3256  0.1883
  674MPD2    C4 9972   3.669   2.945  17.501  0.2285 -0.4921 -0.6364
  674MPD2    C5 9973   3.633   2.815  17.493 -0.1099  0.0589 -0.2922
  674MPD2     H 9974   3.877   2.928   0.080  1.4561 -2.4047 -1.4944
  674MPD2    H1 9975   3.623   3.008  17.425 -0.8090 -1.2731 -0.6564
  674MPD2    H2 9976   3.664   2.620  17.565  0.3661  0.2152  0.0228
  674MPD2    H3 9977   3.561   2.781  17.420  1.0886 -0.2120 -1.3273
  674MPD2     N 9978   3.792   3.129  17.628  0.5515 -0.0318 -0.0371
  674MPD2    H5 9979   3.861   3.142   0.019 -1.0767  0.9848  1.3120
  674MPD2    N1 9980   3.812   2.669   0.093  0.1268  0.2422  0.0800
  674MPD2    H7 9981   3.767   2.579   0.082  0.0260  0.2552  0.3954
  675TMC3    C1 9982   3.927   2.581   0.283  0.9886 -0.4123 -0.3940
  675TMC3    C2 9983   3.810   2.506   0.302 -0.9183 -0.4780 -0.6308
  675TMC3    C3 9984   3.791   2.450   0.422 -0.1242  0.5250  0.4308
  675TMC3    C4 9985   4.018   2.590   0.388 -0.1160  0.9312 -0.0459
  675TMC3    C5 9986   3.993   2.529   0.505 -0.1890  0.6002  0.8082
  675TMC3    C6 9987   3.883   2.453   0.521  0.3567  0.3663 -0.1645
  675TMC3     C 9988   3.909   2.689   0.190 -1.1042 -0.5434  0.3210
  675TMC3     O 9989   3.982   2.787   0.217  0.1939 -0.4749  0.1982
  675TMC3     H 9990   3.731   2.485   0.230 -0.0772  0.8405 -1.9320
  675TMC3    H1 9991   4.098   2.664   0.385  1.7027 -1.0037  0.5033
  675TMC3    H2 9992   3.870   2.388   0.607  0.4086  1.9008  0.9959
  675TMC3    C7 9993   4.050   2.572   0.627 -0.6924  0.2776 -0.3720
  675TMC3    C8 9994   3.664   2.488   0.480  0.2452 -0.3911  0.2414
  675TMC3    O1 9995   3.974   2.585   0.724 -0.5797  0.0155  0.0546
  675TMC3    O2 9996   3.584   2.538   0.403 -0.1409 -0.0463  0.0137
  676MPD2     C 9997   1.960   1.577  10.966 -0.0065 -0.4939  0.2372
  676MPD2    C1 9998   1.911   1.515  11.086  0.5218  0.8074  0.3599
  676MPD2    C2 9999   1.924   1.379  11.102 -0.6654 -0.3378  0.0073
  676MPD2    C310000   1.969   1.304  11.000  0.1645 -0.1009 -0.6332
  676MPD2    C410001   2.028   1.364  10.889  0.1939 -0.5550 -0.3626
  676MPD2    C510002   2.022   1.498  10.870  0.6137  0.4686 -0.2550
  676MPD2     H10003   1.894   1.327  11.192 -0.2240 -0.9870 -0.2162
  676MPD2    H110004   2.077   1.308  10.810  0.8627 -0.5547  0.0499
  676MPD2    H210005   1.954   1.684  10.947  3.4235 -0.4669 -0.6437
  676MPD2    H310006   2.068   1.541  10.782 -0.9792  1.5635 -0.5298
  676MPD2     N10007   2.000   1.165  11.018 -0.2246 -0.2206 -0.2410
  676MPD2    H510008   2.035   1.126  10.931 -0.4832 -2.9540  0.9047
  676MPD2    N110009   1.856   1.589  11.191  0.0498 -0.3156 -0.1003
  676MPD2    H710010   1.795   1.535  11.253 -0.0042  0.0454  0.1595
  677TMC3    C110011   1.755   1.790  11.276 -0.0603  0.5033  0.1828
  677TMC3    C210012   1.629   1.739  11.269 -0.5616 -0.7936 -0.0808
  677TMC3    C310013   1.543   1.804  11.349  0.2401 -0.3180  0.6950
  677TMC3    C410014   1.794   1.904  11.336 -0.0874 -0.0600 -0.8151
  677TMC3    C510015   1.699   1.970  11.410  0.4101  0.5644 -0.0276
  677TMC3    C610016   1.566   1.928  11.409 -0.2368 -0.4563 -0.2995
  677TMC3     C10017   1.861   1.726  11.197  0.1961 -0.2826  0.7609
  677TMC3     O10018   1.951   1.790  11.157 -0.4298 -0.0367  0.5083
  677TMC3     H10019   1.599   1.642  11.231 -0.5317 -1.2754  1.1020
  677TMC3    H110020   1.900   1.927  11.341  0.1610 -1.1962 -0.8112
  677TMC3    H210021   1.495   1.964  11.483  0.3100 -2.0601  1.0186
  677TMC3    C710022   1.740   2.053  11.519  0.3145  0.6526 -0.8898
  677TMC3    C810023   1.405   1.750  11.364 -0.0013 -0.3625  0.4252
  677TMC3    O110024   1.655   2.074  11.602 -0.6642 -0.2558 -0.2613
  677TMC3    O210025   1.344   1.748  11.255  1.3334 -0.1090 -0.0013
  678MPD2     C10026   3.127   1.981   2.046 -0.6048  0.1535  0.2722
  678MPD2    C110027   3.209   1.979   1.935  0.6042 -0.4902 -0.3287
  678MPD2    C210028   3.148   1.972   1.805  0.0759  0.0434  0.0989
  678MPD2    C310029   3.007   1.956   1.796  0.4303  0.1237 -0.0999
  678MPD2    C410030   2.932   1.946   1.911  0.4495 -0.0040  0.1411
  678MPD2    C510031   2.989   1.961   2.033 -0.5685 -0.2931  0.2283
  678MPD2     H10032   3.214   1.987   1.720  0.3480 -0.0580  0.2926
  678MPD2    H110033   2.824   1.937   1.910  0.5794 -1.6504  0.8798
  678MPD2    H210034   3.170   1.979   2.146  1.2172  1.2341 -0.4770
  678MPD2    H310035   2.925   1.960   2.120  0.7635 -0.1699  1.2224
  678MPD2     N10036   2.948   1.941   1.667  0.0151  0.0020  0.4056
  678MPD2    H510037   3.004   1.947   1.582 -0.7783 -0.8389 -0.1721
  678MPD2    N110038   3.351   1.993   1.934 -0.2118  0.2250 -0.0570
  678MPD2    H710039   3.392   1.984   1.841  1.4938  2.4668  0.4818
  679TMC3    C110040   3.776   2.170   1.995  0.3006 -0.3313  0.3874
  679TMC3    C210041   3.659   2.125   2.058  0.0815  0.0859 -0.3804
  679TMC3    C310042   3.548   2.112   1.977 -0.4288 -0.3341  0.3071
  679TMC3    C410043   3.776   2.214   1.862 -0.2381 -0.0070 -0.8412
  679TMC3    C510044   3.657   2.202   1.795  0.9161  0.1901  0.0155
  679TMC3    C610045   3.542   2.153   1.844 -0.3225  1.0174 -0.1875
  679TMC3     C10046   3.899   2.165   2.071  1.0137  0.7404 -0.2672
  679TMC3     O10047   3.982   2.236   2.013  0.1081 -0.1849  0.0115
  679TMC3     H10048   3.666   2.088   2.159 -0.2277 -3.6380 -1.6968
  679TMC3    H110049   3.860   2.277   1.836 -0.3193 -0.1277 -1.3906
  679TMC3    H210050   3.451   2.169   1.788 -1.4982  1.9724  1.9767
  679TMC3    C710051   3.657   2.228   1.650  0.0616 -0.5070  0.1555
  679TMC3    C810052   3.432   2.048   2.033 -0.1579 -0.1683  0.5010
  679TMC3    O110053   3.569   2.182   1.579 -0.5288  0.0633 -0.3652
  679TMC3    O210054   3.412   2.054   2.155 -0.1920 -0.3465 -0.1240
  680MPD2     C10055   3.725   0.563  13.526  0.0600 -0.7303  0.6227
  680MPD2    C110056   3.730   0.492  13.642  0.3771  0.0320  0.2537
  680MPD2    C210057   3.814   0.541  13.743 -0.3833 -0.5459 -0.1258
  680MPD2    C310058   3.911   0.637  13.717 -0.0091  0.1556 -0.4992
  680MPD2    C410059   3.912   0.696  13.588  0.6294  0.6661  0.0030
  680MPD2    C510060   3.819   0.660  13.495 -0.2927  0.5278 -0.0882
  680MPD2     H10061   3.805   0.485  13.836  1.4403 -1.5105 -0.5459
  680MPD2    H110062   3.975   0.780  13.560 -0.6097  1.3093 -0.8174
  680MPD2    H210063   3.656   0.527  13.450  0.5842  0.0440 -0.2259
  680MPD2    H310064   3.802   0.715  13.404 -0.3320  0.2890 -0.2262
  680MPD2     N10065   4.010   0.676  13.808  0.1308  0.0433  0.3723
  680MPD2    H510066   4.083   0.734  13.770 -0.0160 -0.2328 -0.3249
  680MPD2    N110067   3.634   0.392  13.664 -0.1263  0.2019  0.5277
  680MPD2    H710068   3.589   0.363  13.578  0.3713  2.4046 -0.5019
  681TMC3    C110069   3.506   0.231  13.751 -0.4028  0.4173 -0.6940
  681TMC3    C210070   3.404   0.211  13.842 -0.3856  0.5039  0.2230
  681TMC3    C310071   3.351   0.083  13.845 -0.0912 -0.0780  0.1564
  681TMC3    C410072   3.562   0.133  13.676 -0.2406 -0.6831 -0.1039
  681TMC3    C510073   3.508   0.006  13.684  0.7464 -0.3536 -0.6458
  681TMC3    C610074   3.399   4.701  13.765  0.1979 -0.3177  0.3160
  681TMC3     C10075   3.586   0.342  13.779  0.6343 -0.0097  0.0490
  681TMC3     O10076   3.595   0.393  13.887 -0.5360  0.4372 -0.1139
  681TMC3     H10077   3.363   0.298  13.893 -0.2797 -0.9421  2.8194
  681TMC3    H110078   3.637   0.162  13.603  0.4447 -0.0907  0.8388
  681TMC3    H210079   3.364   4.599  13.767  1.4308 -0.7639 -1.1676
  681TMC3    C710080   3.608   4.615  13.693 -0.2014 -0.1500 -0.3861
  681TMC3    C810081   3.267   0.034  13.948  0.3615 -0.1698 -0.6243
  681TMC3    O110082   3.581   4.515  13.760  0.3899 -0.1764 -0.1057
  681TMC3    O210083   3.188   4.659  13.927  0.1012  0.2483 -0.4747
  682MPD2     C10084   1.247   1.455  10.501  0.1793 -0.3718  0.1331
  682MPD2    C110085   1.269   1.391  10.622 -0.7037 -0.3700 -0.8302
  682MPD2    C210086   1.205   1.434  10.738  0.3716  0.8906  0.3219
  682MPD2    C310087   1.115   1.543  10.723  0.4278 -0.1272 -0.0560
  682MPD2    C410088   1.100   1.607  10.606  0.2884  0.0222 -0.1399
  682MPD2    C510089   1.167   1.568  10.497  0.6664 -0.3034 -0.4481
  682MPD2     H10090   1.231   1.383  10.830 -1.1381 -0.3833  0.0427
  682MPD2    H110091   1.029   1.689  10.598 -0.2822 -0.5032 -0.3986
  682MPD2    H210092   1.293   1.420  10.409  1.6400 -0.8949  1.0535
  682MPD2    H310093   1.145   1.622  10.406 -1.4832 -2.6280 -1.3096
  682MPD2     N10094   1.040   1.586  10.830 -0.7304 -0.1646  0.2798
  682MPD2    H510095   0.985   1.670  10.813 -1.1559  0.0609  2.7416
  682MPD2    N110096   1.354   1.281  10.644 -0.5341 -0.1363 -0.4168
  682MPD2    H710097   1.337   1.233  10.732 -0.0349  0.3543 -0.0500
  683TMC3    C110098   0.917   1.591  11.288 -0.1292 -0.2740  0.1239
  683TMC3    C210099   0.790   1.546  11.262  0.0621 -0.2124 -0.0348
  683TMC3    C310100   0.745   1.542  11.135 -0.0270  0.6276 -0.4180
  683TMC3    C410101   1.006   1.634  11.186 -0.4254  0.1951 -0.3026
  683TMC3    C510102   0.964   1.617  11.057 -0.2587 -0.2615 -0.3987
  683TMC3    C610103   0.832   1.588  11.034  0.2389 -0.4307  0.4804
  683TMC3     C10104   0.968   1.621  11.426 -0.6731 -0.0597  0.3910
  683TMC3     O10105   1.076   1.674  11.446 -0.0337  0.3729  0.1110
  683TMC3     H10106   0.725   1.506  11.339  2.3553 -0.8661  1.5634
  683TMC3    H110107   1.111   1.643  11.211 -0.7929  1.5494  0.7557
  683TMC3    H210108   0.803   1.571  10.931  0.3053 -0.3669  0.4514
  683TMC3    C710109   1.053   1.545  10.962 -0.5387 -0.0588  0.4879
  683TMC3    C810110   0.665   1.424  11.099 -1.0138  0.4173 -0.6256
  683TMC3    O110111   1.136   1.470  11.008  0.2424 -0.4874  1.1244
  683TMC3    O210112   0.593   1.435  10.998 -0.3105 -0.1297  0.3942
  684MPD2     C10113   3.881   1.132  16.549 -0.1388 -0.4326  0.1799
  684MPD2    C110114   3.848   1.178  16.425  0.1537  0.6254 -0.1760
  684MPD2    C210115   3.818   1.307  16.407  0.0752  0.4696 -0.7871
  684MPD2    C310116   3.807   1.397  16.512 -0.4106  1.2326  0.3338
  684MPD2    C410117   3.837   1.345  16.642  0.0879  0.5921 -0.0152
  684MPD2    C510118   3.870   1.214  16.656  0.9551  0.0310 -0.1217
  684MPD2     H10119   3.811   1.342  16.305  0.4814  0.2146 -0.9048
  684MPD2    H110120   3.823   1.407  16.730  1.1061  0.5335  0.1852
  684MPD2    H210121   3.921   1.032  16.563  0.1054 -0.3244  0.2421
  684MPD2    H310122   3.880   1.170  16.754  1.7370 -0.3548 -0.3806
  684MPD2     N10123   3.794   1.535  16.481 -0.1764  0.4864 -0.3241
  684MPD2    H510124   3.824   1.605  16.548 -0.3776 -0.3243  0.6116
  684MPD2    N110125   3.873   1.096  16.312 -0.1324  0.5296 -0.0577
  684MPD2    H710126   3.843   1.135  16.223  2.0282 -0.2268 -1.0965
  685TMC3    C110127   4.013   0.947  16.184  0.3522  0.3698  0.2124
  685TMC3    C210128   3.924   0.936  16.080  0.2673  0.3321  0.0947
  685TMC3    C310129   3.981   0.936  15.954  0.2746  0.2603 -0.5420
  685TMC3    C410130   4.149   0.944  16.161 -0.6880 -0.3648  0.2914
  685TMC3    C510131   4.194   0.952  16.035  0.1449 -0.0873 -0.0037
  685TMC3    C610132   4.111   0.953  15.930 -0.2884  0.3907 -0.2280
  685TMC3     C10133   3.974   0.999  16.312  0.0783 -0.6628 -0.4877
  685TMC3     O10134   4.060   0.978  16.394  0.6512  0.1981  0.2811
  685TMC3     H10135   3.816   0.923  16.086  0.2110  1.2560  1.1300
  685TMC3    H110136   4.218   0.929  16.242 -0.4737  3.5329  0.8406
  685TMC3    H210137   4.154   0.968  15.831 -1.6438 -0.0807 -0.8927
  685TMC3    C710138   4.337   0.982  16.010  0.2155 -0.7419  0.2370
  685TMC3    C810139   3.892   0.941  15.844 -0.2192  0.0839  0.0559
  685TMC3    O110140   4.374   1.000  15.895 -0.0071 -0.1152  0.3875
  685TMC3    O210141   3.939   0.918  15.730 -0.4017 -0.5168 -0.0939
  686MPD2     C10142   0.598   0.753  15.475  0.6616 -0.2379 -0.1185
  686MPD2    C110143   0.627   0.673  15.580  0.4879  0.0059  0.1690
  686MPD2    C210144   0.652   0.541  15.566  0.5639 -0.5937 -0.1250
  686MPD2    C310145   0.642   0.482  15.440  0.3615 -0.3385  0.2684
  686MPD2    C410146   0.616   0.560  15.330  0.6022 -0.0397  0.2320
  686MPD2    C510147   0.591   0.693  15.351 -0.0946  0.7678  0.0201
  686MPD2     H10148   0.675   0.498  15.663  0.5863 -0.7952 -0.2199
  686MPD2    H110149   0.597   0.524  15.229  2.9228  2.4327 -1.0752
  686MPD2    H210150   0.586   0.861  15.485 -0.8236 -0.3236 -0.9828
  686MPD2    H310151   0.553   0.756  15.272 -2.7078  0.0784  0.7094
  686MPD2     N10152   0.666   0.344  15.418  0.5583 -0.3205 -0.5922
  686MPD2    H510153   0.689   0.333  15.320  0.6224 -0.2172 -0.5885
  686MPD2    N110154   0.609   0.731  15.712 -0.3282  0.0471  0.7760
  686MPD2    H710155   0.566   0.822  15.708  1.8212  1.0262 -0.2624
  687TMC3    C110156   0.590   0.244  15.637  0.3435 -0.2931  0.3095
  687TMC3    C210157   0.474   0.312  15.643 -0.4772 -0.2898  0.0520
  687TMC3    C310158   0.426   0.334  15.772  0.2426  0.2104 -0.1022
  687TMC3    C410159   0.645   0.176  15.741  0.1025 -0.0363 -0.4246
  687TMC3    C510160   0.598   0.205  15.864 -0.4360  0.1050  0.7622
  687TMC3    C610161   0.486   0.284  15.883  0.2461 -0.1757 -0.2472
  687TMC3     C10162   0.660   0.237  15.508  0.6025  0.0972 -0.3858
  687TMC3     O10163   0.717   0.130  15.493 -0.3020  0.1437  0.0622
  687TMC3     H10164   0.436   0.349  15.549  1.0380 -2.0267 -1.2522
  687TMC3    H110165   0.744   0.131  15.734  0.4132  0.4949  0.5316
  687TMC3    H210166   0.452   0.313  15.982  1.4455  0.9342 -0.1511
  687TMC3    C710167   0.680   0.190  15.980 -0.2507 -0.0225 -0.0601
  687TMC3    C810168   0.331   0.441  15.807  0.1313 -0.1822  0.0236
  687TMC3    O110169   0.727   0.081  16.006  0.2796 -0.2052 -0.1342
  687TMC3    O210170   0.297   0.450  15.924  0.5683 -0.0928 -0.0622
  688MPD2     C10171   4.657   4.283  16.974  0.4990 -0.1392  0.4625
  688MPD2    C110172   4.654   4.196  17.081  0.2163 -0.4123  1.0435
  688MPD2    C210173   4.695   4.068  17.060 -0.2810  0.1291  1.0523
  688MPD2    C310174   0.026   4.029  16.942 -0.3217  0.3276  0.8606
  688MPD2    C410175   0.027   4.116  16.843  0.0777  0.0928 -0.7805
  688MPD2    C510176   4.702   4.239  16.856 -1.0533 -0.9836 -0.5061
  688MPD2     H10177   4.693   3.997  17.142  0.6895  1.0526  1.8767
  688MPD2    H110178   0.063   4.078  16.748 -1.1339 -2.0085 -0.3903
  688MPD2    H210179   4.633   4.387  16.989 -2.0047 -0.8931  1.6631
  688MPD2    H310180   4.704   4.312  16.776  2.6148  0.9615  1.3659
  688MPD2     N10181   0.076   3.898  16.922 -0.4252  0.4003 -0.2555
  688MPD2    H510182   0.088   3.863  16.827 -0.3664 -0.5010  0.0782
  688MPD2    N110183   4.605   4.236  17.213 -0.4608  1.0406 -0.5874
  688MPD2    H710184   4.607   4.168  17.289 -2.0102  0.8690 -0.6996
  689TMC3    C110185   4.544   4.362  17.394 -0.2070  0.5246 -0.2284
  689TMC3    C210186   4.568   4.472  17.477 -0.4226  0.1508  0.9861
  689TMC3    C310187   4.510   4.478  17.599  0.1617  0.3889 -0.4049
  689TMC3    C410188   4.451   4.263  17.432 -0.1401  0.5266  0.4783
  689TMC3    C510189   4.398   4.284  17.558 -0.4546  0.2180 -0.4451
  689TMC3    C610190   4.424   4.386  17.642 -0.6856  0.7931  0.1617
  689TMC3     C10191   4.581   4.366  17.256 -0.2268 -0.4692  0.0834
  689TMC3     O10192   4.606   4.478  17.206  0.1841  0.1479 -0.1841
  689TMC3     H10193   4.622   4.553  17.430 -0.3430 -0.3191  0.2574
  689TMC3    H110194   4.424   4.183  17.364 -2.9509  1.5292  0.4272
  689TMC3    H210195   4.389   4.383   0.061 -0.2687  1.2339  0.3191
  689TMC3    C710196   4.331   4.174  17.630  0.5284 -0.2111 -0.0256
  689TMC3    C810197   4.579   4.554   0.017 -0.3664 -0.3690  0.6301
  689TMC3    O110198   4.355   4.162   0.065 -0.2087  0.7847  0.5749
  689TMC3    O210199   4.510   4.565   0.115  0.2351  0.2524  0.1721
  690MPD2     C10200   1.087   1.518  15.450 -0.2009  0.5693  0.0337
  690MPD2    C110201   1.199   1.550  15.524  0.1213 -0.6468  0.2933
  690MPD2    C210202   1.316   1.568  15.453 -0.2237  0.2230  0.6465
  690MPD2    C310203   1.319   1.589  15.313  0.0449 -0.9826 -0.2750
  690MPD2    C410204   1.201   1.576  15.252 -0.2613  1.0116  0.0019
  690MPD2    C510205   1.086   1.541  15.319  0.6699  0.9581  0.0529
  690MPD2     H10206   1.402   1.588  15.517 -0.0637 -0.5835  0.6794
  690MPD2    H110207   1.186   1.587  15.145 -0.2137 -1.2783 -0.2345
  690MPD2    H210208   0.998   1.483  15.502 -1.1879 -0.4073 -2.3278
  690MPD2    H310209   0.993   1.527  15.265  1.2685 -0.3540 -0.6491
  690MPD2     N10210   1.434   1.610  15.237  0.8310  0.2561 -0.1854
  690MPD2    H510211   1.520   1.599  15.290  0.7584  2.3772  0.3791
  690MPD2    N110212   1.193   1.546  15.669  0.3238 -0.0229 -0.1524
  690MPD2    H710213   1.278   1.581  15.711 -0.4908  0.6344  0.9685
  691TMC3    C110214   1.101   1.556  15.890 -0.7838 -0.4246  0.0405
  691TMC3    C210215   0.985   1.570  15.959 -0.0839 -0.3724 -0.2544
  691TMC3    C310216   0.977   1.512  16.083  1.1283  0.1397  0.6712
  691TMC3    C410217   1.204   1.489  15.941 -0.3615  0.7286  0.0398
  691TMC3    C510218   1.187   1.428  16.064 -0.1856 -0.8043  0.2194
  691TMC3    C610219   1.073   1.443  16.138 -0.8340  0.2025 -0.2980
  691TMC3     C10220   1.085   1.526  15.751  0.6885  0.0389 -0.6151
  691TMC3     O10221   0.966   1.520  15.723 -0.1606 -0.4835  0.2672
  691TMC3     H10222   0.910   1.635  15.916  0.9671 -0.0714 -1.6544
  691TMC3    H110223   1.295   1.487  15.882  0.0128 -3.6448  0.7765
  691TMC3    H210224   1.069   1.412  16.241  2.3517 -2.2443 -0.9099
  691TMC3    C710225   1.270   1.317  16.098  0.7129  0.6015 -0.4134
  691TMC3    C810226   0.879   1.553  16.179  0.2523  0.1094  0.6579
  691TMC3    O110227   1.390   1.327  16.073  0.4697 -0.2620  0.2460
  691TMC3    O210228   0.886   1.526  16.299 -0.4997 -0.8329  0.1209
  692TMC3    C110229   3.295   2.761  15.800  0.1986  0.4871 -0.0276
  692TMC3    C210230   3.417   2.801  15.853 -0.3046  0.5081 -0.0476
  692TMC3    C310231   3.515   2.708  15.881  0.4209 -0.6114  0.2769
  692TMC3    C410232   3.278   2.632  15.761 -0.3887 -0.4087  0.0667
  692TMC3    C510233   3.376   2.542  15.799  0.2402  0.4149  0.1503
  692TMC3    C610234   3.493   2.577  15.859 -0.5840  0.1079 -0.0146
  692TMC3     C10235   3.184   2.851  15.820 -0.7159  0.4796 -0.0557
  692TMC3     O10236   3.069   2.807  15.816 -0.2079 -0.2946  0.3081
  692TMC3     H10237   3.410   2.879  15.929  0.1262  0.3163  0.1912
  692TMC3    H110238   3.186   2.611  15.709  0.5555  1.4566 -2.3709
  692TMC3    H210239   3.573   2.506  15.877 -1.4006 -0.1810  2.4431
  692TMC3    C710240   3.343   2.398  15.783  0.1371 -0.2999 -0.4211
  692TMC3    C810241   3.579   2.724  16.016  0.0664 -0.4610 -0.4475
  692TMC3    O110242   3.238   2.370  15.725  0.4140  0.2119  0.6388
  692TMC3    O210243   3.608   2.627  16.085 -0.1237 -0.1583  0.3021
  693MPD2     C10244   3.197   0.575  11.151  0.2205  0.1974  0.1036
  693MPD2    C110245   3.161   0.458  11.085  0.0272  0.3307 -0.0083
  693MPD2    C210246   3.247   0.402  10.998  1.1556 -0.1752  0.3705
  693MPD2    C310247   3.372   0.456  10.972  0.1713 -0.0486 -0.3480
  693MPD2    C410248   3.409   0.571  11.039 -1.1798  0.0634 -0.1215
  693MPD2    C510249   3.321   0.628  11.129 -0.1018 -0.6459  0.3923
  693MPD2     H10250   3.215   0.318  10.939  0.3326  1.1411 -1.0593
  693MPD2    H110251   3.511   0.603  11.023 -0.3608 -0.9457  3.0937
  693MPD2    H210252   3.119   0.608  11.220  0.0223 -2.7181  1.2837
  693MPD2    H310253   3.348   0.723  11.174 -0.1019 -0.2845 -0.3569
  693MPD2     N10254   3.479   0.391  10.900  0.3273  0.6200 -0.4092
  693MPD2    H510255   3.569   0.436  10.898  0.7606 -0.2270 -0.0412
  693MPD2    N110256   3.040   0.391  11.119  0.1992 -0.1537  0.2846
  693MPD2    H710257   2.988   0.417  11.202  0.2214 -0.6800  0.4675
  694TMC3    C110258   2.890   0.214  11.131  0.2667  0.3825 -1.0820
  694TMC3    C210259   2.836   0.106  11.065  0.6104  0.2493 -0.8110
  694TMC3    C310260   2.762   0.025  11.138  0.3623  0.5155 -0.0867
  694TMC3    C410261   2.900   0.222  11.273 -0.1211 -0.5416 -0.0484
  694TMC3    C510262   2.841   0.127  11.344  0.2821  0.3550 -0.1390
  694TMC3    C610263   2.761   0.038  11.278 -0.8371 -0.2391 -0.3719
  694TMC3     C10264   2.984   0.287  11.051  0.5345  0.9928 -1.0181
  694TMC3     O10265   2.997   0.245  10.938  0.0089 -0.3901  0.4578
  694TMC3     H10266   2.829   0.102  10.957 -0.5188  1.2466 -0.7787
  694TMC3    H110267   2.946   0.301  11.330  2.0018 -1.9976  0.2236
  694TMC3    H210268   2.726   4.673  11.336 -0.3016  1.6418  2.7107
  694TMC3    C710269   2.828   0.145  11.490  0.3487 -0.3077  0.4488
  694TMC3    C810270   2.684   4.638  11.077 -0.3749  0.4144  0.4424
  694TMC3    O110271   2.919   0.206  11.542  0.0612 -0.0091  0.4573
  694TMC3    O210272   2.610   4.576  11.154 -0.6068 -0.1584 -0.2509
  695MPD2     C10273   3.839   2.274  13.349 -0.3278 -0.5829 -0.3575
  695MPD2    C110274   3.777   2.285  13.470 -0.5683  0.6689  0.7576
  695MPD2    C210275   3.640   2.296  13.469  0.4643 -0.1709 -0.4694
  695MPD2    C310276   3.557   2.279  13.360  0.7889  1.1888  0.1439
  695MPD2    C410277   3.617   2.250  13.232  0.2739 -0.2550  0.6868
  695MPD2    C510278   3.759   2.258  13.235 -0.3106 -0.2330  0.3215
  695MPD2     H10279   3.589   2.315  13.563 -0.6114  1.4951 -1.4046
  695MPD2    H110280   3.563   2.228  13.141  0.4077  0.3433  0.4611
  695MPD2    H210281   3.944   2.256  13.330  0.2112  0.2209  1.8720
  695MPD2    H310282   3.813   2.237  13.143 -0.7220 -0.3244  0.0968
  695MPD2     N10283   3.416   2.301  13.383  0.5940  0.7588 -0.4363
  695MPD2    H510284   3.374   2.320  13.473  1.8491  0.2237  0.2559
  695MPD2    N110285   3.845   2.297  13.592  0.0627 -0.2525 -0.2124
  695MPD2    H710286   3.785   2.315  13.671  2.2042 -0.2716  1.4312
  696TMC3    C110287   3.192   2.310  13.318 -0.9846  0.6321 -0.2690
  696TMC3    C210288   3.163   2.292  13.456  0.1975 -0.5768  0.4578
  696TMC3    C310289   3.041   2.338  13.497 -0.4163  0.0087 -0.6891
  696TMC3    C410290   3.095   2.356  13.226 -0.3627 -0.3765  0.0692
  696TMC3    C510291   2.983   2.407  13.285 -0.4864 -0.3090  0.0793
  696TMC3    C610292   2.939   2.376  13.416 -0.2805 -0.4300  0.3208
  696TMC3     C10293   3.325   2.295  13.277 -0.0374 -0.2391 -0.5442
  696TMC3     O10294   3.337   2.286  13.153  0.4536 -0.3501  0.2606
  696TMC3     H10295   3.229   2.241  13.526 -1.2456  1.5273  3.3929
  696TMC3    H110296   3.130   2.395  13.131 -0.1108 -1.7103 -0.3883
  696TMC3    H210297   2.838   2.402  13.443 -0.5111  0.6544 -1.5989
  696TMC3    C710298   2.927   2.525  13.219 -0.0492  0.8818  0.0461
  696TMC3    C810299   3.040   2.370  13.643  0.0059  0.2502  0.3085
  696TMC3    O110300   2.950   2.553  13.100 -0.1779 -0.2363  0.1271
  696TMC3    O210301   3.147   2.376  13.700 -0.3463  0.3248 -0.0614
  697MPD2     C10302   3.124   4.074  15.929 -0.4872  0.0890  0.1734
  697MPD2    C110303   3.089   4.045  15.798 -0.8001 -0.0562  1.2933
  697MPD2    C210304   3.120   4.131  15.698 -0.2341 -0.0056  0.1879
  697MPD2    C310305   3.186   4.251  15.725 -0.0697  0.3766 -0.1566
  697MPD2    C410306   3.218   4.279  15.856 -0.1117 -0.0042  0.1223
  697MPD2    C510307   3.187   4.192  15.956  0.0336  0.1444 -0.4326
  697MPD2     H10308   3.100   4.103  15.595  0.7116  0.2451 -0.0646
  697MPD2    H110309   3.281   4.361  15.887  1.7317 -1.2544 -0.3615
  697MPD2    H210310   3.090   4.009  16.009  0.3617 -0.2332  0.2814
  697MPD2    H310311   3.213   4.228  16.055 -1.1876 -1.5686  0.4948
  697MPD2     N10312   3.226   4.324  15.620  0.1274  0.3921  0.1648
  697MPD2    H510313   3.175   4.291  15.538  1.7792  3.4320 -2.0710
  697MPD2    N110314   3.045   3.918  15.755 -0.5331  0.3749 -0.2929
  697MPD2    H710315   3.029   3.911  15.655  0.1569 -2.5934 -0.1769
  698TMC3    C110316   3.299   4.497  15.486  0.0522 -0.2534 -0.1050
  698TMC3    C210317   3.359   4.622  15.463 -0.8514  0.7492 -0.3743
  698TMC3    C310318   3.377   4.666  15.335 -0.0135  0.5378 -0.1179
  698TMC3    C410319   3.263   4.418  15.382 -0.4446  0.0986 -0.1969
  698TMC3    C510320   3.295   4.461  15.255  0.5463 -0.0279  1.1348
  698TMC3    C610321   3.352   4.578  15.227 -0.1975  0.2129 -0.3787
  698TMC3     C10322   3.299   4.442  15.619 -0.1987  0.0008  0.6331
  698TMC3     O10323   3.368   4.489  15.702 -0.0925  0.2132 -0.3618
  698TMC3     H10324   3.390   4.682  15.548 -1.0897  0.8758 -0.3779
  698TMC3    H110325   3.215   4.321  15.379  0.2178 -0.2683  0.7651
  698TMC3    H210326   3.368   4.613  15.126  0.5523  2.8537  0.6435
  698TMC3    C710327   3.227   4.392  15.143 -0.1653 -0.5140 -0.0514
  698TMC3    C810328   3.441   0.077  15.305 -0.0198  0.0258 -0.0678
  698TMC3    O110329   3.112   4.356  15.159 -0.7901  0.1484  0.0858
  698TMC3    O210330   3.515   0.134  15.384  0.0145  0.3293  0.2223
  699TMC3    C110331   3.590   2.234  12.826 -0.2341  0.0931 -0.0705
  699TMC3    C210332   3.671   2.142  12.891 -0.1924 -0.5828 -0.4237
  699TMC3    C310333   3.607   2.029  12.937 -0.1285 -0.1951 -0.2470
  699TMC3    C410334   3.451   2.213  12.820 -0.8774  0.1382 -0.0734
  699TMC3    C510335   3.394   2.112  12.889  0.1625 -0.6585  0.5757
  699TMC3    C610336   3.473   2.011  12.949 -0.9242  0.1939  0.2445
  699TMC3     C10337   3.638   2.332  12.730 -0.7001 -0.6775  0.0224
  699TMC3     O10338   3.550   2.387  12.664 -0.0005 -0.3587  0.2405
  699TMC3     H10339   3.776   2.158  12.913  0.2919 -0.2661 -3.0652
  699TMC3    H110340   3.383   2.293  12.792 -0.5411 -0.1775 -1.8284
  699TMC3    H210341   3.427   1.915  12.973  1.3160 -0.6960  1.0159
  699TMC3    C710342   3.248   2.106  12.905  1.0833 -0.0769  0.2200
  699TMC3    C810343   3.677   1.955  13.049 -0.9630 -0.8425 -0.2970
  699TMC3    O110344   3.183   2.178  12.831 -0.3754 -0.3347  0.2486
  699TMC3    O210345   3.596   1.901  13.122 -0.1109 -0.0147  0.5677
  700TMC3    C110346   2.271   0.293  17.626  1.0274  0.1609 -0.1514
  700TMC3    C210347   2.309   0.163  17.625  0.0320  0.3959 -0.6319
  700TMC3    C310348   2.428   0.137  17.677 -0.2859  0.3122  0.7952
  700TMC3    C410349   2.349   0.393  17.671  0.1968 -0.1201  0.7749
  700TMC3    C510350   2.449   0.355   0.073 -0.3633 -0.0024 -0.4991
  700TMC3    C610351   2.508   0.225   0.065 -0.1588  0.8325 -0.0132
  700TMC3     C10352   2.185   0.331  17.524  0.0159  0.3043 -0.0079
  700TMC3     O10353   2.096   0.254  17.499 -0.8661 -0.2556  0.0408
  700TMC3     H10354   2.252   0.079  17.588  0.1978  0.2016 -0.4411
  700TMC3    H110355   2.321   0.498  17.665  1.5320  0.1575 -0.6580
  700TMC3    H210356   2.592   0.209   0.132  1.4894  0.7699 -2.0663
  700TMC3    C710357   2.539   0.462   0.112  0.3589  0.6234 -0.7980
  700TMC3    C810358   2.493   0.009  17.648 -0.3818  0.7000  0.0904
  700TMC3    O110359   2.660   0.444   0.124 -0.2884 -0.0115  0.0944
  700TMC3    O210360   2.418   4.654  17.583 -0.2283 -0.4770 -0.0438
  701TMC3    C110361   2.093   3.445  15.337  0.1295  0.1593  0.2773
  701TMC3    C210362   2.128   3.398  15.211 -0.2494 -0.2271 -0.5728
  701TMC3    C310363   2.246   3.443  15.158  0.0883  0.4809  0.8463
  701TMC3    C410364   2.162   3.536  15.403  0.2110  0.2943  0.6949
  701TMC3    C510365   2.281   3.575  15.350  0.8114 -0.8605 -0.7502
  701TMC3    C610366   2.322   3.535  15.228  0.0368 -0.2707 -0.4578
  701TMC3     C10367   1.966   3.406  15.393 -0.5268  0.4289 -1.0108
  701TMC3     O10368   1.939   3.286  15.402  0.2518  0.5192  1.0016
  701TMC3     H10369   2.052   3.335  15.165  0.5455 -1.8785  0.3728
  701TMC3    H110370   2.127   3.582  15.495  0.8206 -0.2546  1.2048
  701TMC3    H210371   2.418   3.555  15.180  0.3563 -2.2343 -0.6484
  701TMC3    C710372   2.343   3.689  15.401 -0.1824  0.1889  0.6557
  701TMC3    C810373   2.280   3.414  15.021  0.2766 -0.2218 -0.3507
  701TMC3    O110374   2.399   3.759  15.319 -0.5829 -0.2988  0.3428
  701TMC3    O210375   2.377   3.470  14.972 -0.0434  0.0637 -0.7509
  702MPD2     C10376   2.276   0.750  10.542  0.5717 -0.0974  0.6024
  702MPD2    C110377   2.236   0.855  10.612 -0.2395  0.8058  0.9191
  702MPD2    C210378   2.261   0.982  10.564 -0.0659  0.8329  0.2823
  702MPD2    C310379   2.340   0.999  10.443  0.5884 -0.5560  0.1612
  702MPD2    C410380   2.390   0.888  10.381 -0.0708  0.0238  0.4607
  702MPD2    C510381   2.359   0.769  10.432  0.4631 -0.2584 -0.1326
  702MPD2     H10382   2.230   1.067  10.623  0.8894  0.2657  1.6174
  702MPD2    H110383   2.460   0.899  10.299 -0.6642 -0.4426 -0.1151
  702MPD2    H210384   2.258   0.646  10.565  0.5210  0.3205  2.3974
  702MPD2    H310385   2.398   0.682  10.379  3.4748  2.3886 -2.2328
  702MPD2     N10386   2.370   1.124  10.387 -0.2279  0.1741  0.3771
  702MPD2    H510387   2.425   1.125  10.302 -1.7953  0.4412 -0.6426
  702MPD2    N110388   2.164   0.852  10.734  0.5343  0.3636  0.1332
  702MPD2    H710389   2.119   0.936  10.769  0.2161 -0.6941  2.2513
  703TMC3    C110390   2.382   1.358  10.375 -0.1954  0.6859 -0.1305
  703TMC3    C210391   2.298   1.462  10.407  0.4736 -0.0566 -0.7432
  703TMC3    C310392   2.343   1.589  10.373 -0.9310 -0.7801  0.1027
  703TMC3    C410393   2.496   1.362  10.301  0.7131  0.3037  0.0728
  703TMC3    C510394   2.533   1.494  10.275 -0.3291  0.7804 -0.4822
  703TMC3    C610395   2.458   1.611  10.303 -0.1742 -0.1642  0.2470
  703TMC3     C10396   2.343   1.242  10.449  0.5040 -0.0618  0.5089
  703TMC3     O10397   2.309   1.260  10.568 -0.2671 -0.0789 -0.2776
  703TMC3     H10398   2.214   1.446  10.474  0.0840 -2.2975 -1.7512
  703TMC3    H110399   2.556   1.274  10.278 -0.4517 -0.6539  0.7128
  703TMC3    H210400   2.493   1.714  10.304 -2.4276  0.5781  1.1221
  703TMC3    C710401   2.667   1.526  10.239  0.0394  0.4518 -1.0876
  703TMC3    C810402   2.281   1.705  10.431 -0.2768 -0.1577  0.2545
  703TMC3    O110403   2.684   1.639  10.191 -0.1845  0.6562  0.1743
  703TMC3    O210404   2.362   1.798  10.447 -0.0497 -0.2833  0.4895
  704TMC3    C110405   4.394   4.184  12.477  0.7510  0.5743  0.6512
  704TMC3    C210406   4.520   4.169  12.432  0.6293  0.9932  0.0617
  704TMC3    C310407   4.604   4.071  12.481  0.1684 -0.7929 -0.1640
  704TMC3    C410408   4.352   4.116  12.586  0.6938 -0.2192  0.0328
  704TMC3    C510409   4.435   4.019  12.636  0.2589  0.6865  0.6381
  704TMC3    C610410   4.559   3.986  12.580 -0.0110  0.2743 -0.1817
  704TMC3     C10411   4.314   4.282  12.414 -0.6229  0.6662 -0.1203
  704TMC3     O10412   4.252   4.360  12.482  0.1150  0.0661 -0.1645
  704TMC3     H10413   4.551   4.224  12.344  0.5960 -0.6259 -0.9535
  704TMC3    H110414   4.249   4.125  12.621  1.6916  3.4918  1.9856
  704TMC3    H210415   4.631   3.928  12.638  0.0407  0.2469 -0.2723
  704TMC3    C710416   4.385   3.908  12.722  0.3784 -0.5366  0.2177
  704TMC3    C810417   4.683   4.009  12.377 -0.2451  0.4366  1.0887
  704TMC3    O110418   4.467   3.812  12.737 -0.3759 -0.6210 -0.1128
  704TMC3    O210419   4.629   3.987  12.267 -0.6412 -0.2071 -0.4773
  705MPD2     C10420   3.796   2.502  16.623  0.5069 -0.6389 -0.8285
  705MPD2    C110421   3.729   2.486  16.502 -0.3683  0.9041  0.4335
  705MPD2    C210422   3.595   2.499  16.500  0.0210 -0.2575 -0.1806
  705MPD2    C310423   3.519   2.525  16.615  0.0971  0.5661 -0.8140
  705MPD2    C410424   3.588   2.539  16.735  0.0906 -0.1042 -0.0652
  705MPD2    C510425   3.725   2.532  16.735 -0.4635  0.3462 -0.3945
  705MPD2     H10426   3.557   2.494  16.398  0.6943  1.5912 -0.5137
  705MPD2    H110427   3.540   2.561  16.830 -0.5263 -1.8406  0.0255
  705MPD2    H210428   3.904   2.505  16.635  0.5588 -3.4467 -0.5131
  705MPD2    H310429   3.777   2.531  16.831 -2.4545 -1.0081  0.6541
  705MPD2     N10430   3.377   2.553  16.614 -0.1927 -0.4135 -0.0426
  705MPD2    H510431   3.335   2.588  16.699 -0.8255 -1.0931 -0.0832
  705MPD2    N110432   3.795   2.477  16.379  0.1116 -0.0661 -0.3912
  705MPD2    H710433   3.734   2.495  16.300 -0.7494 -2.0080 -0.1636
  706TMC3    C110434   4.038   2.306  16.034  0.5712 -0.4172  0.2715
  706TMC3    C210435   4.003   2.405  15.949 -0.0572 -0.4952  0.8469
  706TMC3    C310436   3.948   2.513  16.001 -0.7503 -0.1293  0.2679
  706TMC3    C410437   4.028   2.310  16.173 -0.0799  0.0064 -0.2222
  706TMC3    C510438   3.957   2.415  16.222  0.2098 -0.3207  0.8221
  706TMC3    C610439   3.909   2.510  16.135 -0.7337 -0.6885 -0.1824
  706TMC3     C10440   4.108   2.189  15.976  0.8228 -0.1340 -0.1168
  706TMC3     O10441   4.206   2.154  16.044 -0.2630 -0.0739  0.3920
  706TMC3     H10442   4.012   2.397  15.841  0.7668  0.9663  0.8092
  706TMC3    H110443   4.054   2.232  16.243  2.0879  1.4638  0.6226
  706TMC3    H210444   3.849   2.589  16.180  0.8782 -0.1416  1.0124
  706TMC3    C710445   3.924   2.427  16.363  0.0827 -0.2351 -0.0473
  706TMC3    C810446   3.945   2.641  15.938  0.0638  0.0378  0.8634
  706TMC3    O110447   3.991   2.366  16.442  0.6525 -0.5434 -0.3969
  706TMC3    O210448   3.925   2.651  15.817  0.8295 -0.4505 -0.1408
  707TMC3    C110449   0.842   2.047   1.490  0.0020 -0.5517 -0.3425
  707TMC3    C210450   0.797   1.919   1.501 -0.4478 -0.4115 -0.1044
  707TMC3    C310451   0.674   1.885   1.454 -0.4851 -0.2793 -0.1073
  707TMC3    C410452   0.760   2.142   1.443  0.5961 -0.7424 -0.1806
  707TMC3    C510453   0.631   2.103   1.415  0.1579  0.0520  0.4891
  707TMC3    C610454   0.584   1.976   1.412  0.7003 -0.1966  0.3364
  707TMC3     C10455   0.984   2.073   1.476  0.5016  0.3724 -0.4855
  707TMC3     O10456   1.047   1.979   1.530 -0.0628  0.5434  0.1219
  707TMC3     H10457   0.859   1.844   1.550  0.6305 -0.6767 -1.8708
  707TMC3    H110458   0.788   2.247   1.438  0.8942 -1.0187 -4.6918
  707TMC3    H210459   0.478   1.963   1.396  0.8661 -2.3092  1.0320
  707TMC3    C710460   0.551   2.211   1.362 -0.4941  0.1658 -0.1790
  707TMC3    C810461   0.648   1.753   1.409  0.6588  0.1650 -0.0507
  707TMC3    O110462   0.607   2.309   1.320 -0.4431 -0.1636  0.4019
  707TMC3    O210463   0.545   1.729   1.352  0.4584 -0.2583  1.0377
  708MPD2     C10464   2.160   1.234  13.393  0.6224 -0.5817 -0.7648
  708MPD2    C110465   2.064   1.189  13.482 -0.0414 -0.1922 -0.8451
  708MPD2    C210466   2.096   1.111  13.595  0.2063  0.2020  0.2202
  708MPD2    C310467   2.225   1.058  13.605  0.0742 -0.2838 -0.3030
  708MPD2    C410468   2.313   1.093  13.506 -0.9498  0.5900 -0.4449
  708MPD2    C510469   2.287   1.185  13.405 -0.3180  0.1926 -0.2782
  708MPD2     H10470   2.028   1.097  13.679  2.7785  1.2683  2.4947
  708MPD2    H110471   2.412   1.051  13.512  0.0948  3.4150  2.0392
  708MPD2    H210472   2.133   1.295  13.308 -1.0874  2.6759  2.0972
  708MPD2    H310473   2.364   1.214  13.335  0.7659 -3.4142 -0.5748
  708MPD2     N10474   2.263   0.969  13.706 -0.3177  0.6710 -0.5107
  708MPD2    H510475   2.363   0.963  13.720 -0.2361 -0.7220 -1.6466
  708MPD2    N110476   1.939   1.252  13.468  0.0499 -0.1552  0.1125
  708MPD2    H710477   1.937   1.336  13.411  1.2702 -0.2640 -0.0986
  709TMC3    C110478   1.795   1.098  13.574 -0.0175 -0.6676  0.5359
  709TMC3    C210479   1.825   1.006  13.475  0.2465  0.1085 -0.4010
  709TMC3    C310480   1.771   0.878  13.492 -0.0117  0.2509  0.0577
  709TMC3    C410481   1.709   1.079  13.676  0.2164 -0.4862 -0.2898
  709TMC3    C510482   1.660   0.954  13.692  0.3893 -0.2845  0.3011
  709TMC3    C610483   1.701   0.851  13.613 -0.0517  0.2815  0.0554
  709TMC3     C10484   1.834   1.238  13.556 -0.2209 -0.3465 -0.3194
  709TMC3     O10485   1.754   1.326  13.578 -0.1093 -0.2329  0.6145
  709TMC3     H10486   1.883   1.035  13.388 -0.4185 -1.8775 -1.4974
  709TMC3    H110487   1.671   1.163  13.732 -0.7963 -0.8924 -0.3647
  709TMC3    H210488   1.677   0.747  13.634  1.6237 -0.3039 -0.9182
  709TMC3    C710489   1.669   0.916  13.828  0.7175  0.2367  0.3252
  709TMC3    C810490   1.846   0.767  13.429  0.0401 -0.1593  0.0894
  709TMC3    O110491   1.704   1.000  13.911  0.5728  0.5357 -0.1428
  709TMC3    O210492   1.810   0.658  13.471 -0.7579 -0.2055  0.6531
  710TMC3    C110493   3.378   2.368   0.829  0.5077 -0.9108 -0.1605
  710TMC3    C210494   3.442   2.294   0.734 -0.4759 -0.4671 -0.4131
  710TMC3    C310495   3.557   2.229   0.773 -0.0643  0.0457 -0.5004
  710TMC3    C410496   3.435   2.388   0.957 -0.2253  0.2138 -0.1395
  710TMC3    C510497   3.558   2.333   0.988  0.0887  0.2003  0.3888
  710TMC3    C610498   3.614   2.246   0.900 -1.3492 -1.6557 -0.4049
  710TMC3     C10499   3.256   2.440   0.783 -0.2705  0.5058 -0.1384
  710TMC3     O10500   3.216   2.425   0.666 -0.4077  0.4277 -0.9924
  710TMC3     H10501   3.400   2.279   0.636  2.1405  1.2219 -1.7853
  710TMC3    H110502   3.403   2.468   1.023 -0.3953  0.1005 -0.0846
  710TMC3    H210503   3.709   2.196   0.918 -1.2402 -0.3224  2.7486
  710TMC3    C710504   3.614   2.343   1.125  0.0885 -0.0886  0.5910
  710TMC3    C810505   3.634   2.160   0.670  0.0543  0.4764 -0.2840
  710TMC3    O110506   3.545   2.400   1.202 -0.2565 -0.1593  0.5164
  710TMC3    O210507   3.631   2.197   0.553  0.4780  0.3317  0.0598
  711TMC3    C110508   2.646   3.252  14.874 -0.7191  0.1612 -0.3910
  711TMC3    C210509   2.654   3.328  14.990  0.1582  0.3276  0.4274
  711TMC3    C310510   2.773   3.388  15.025  0.8964  0.3897  0.6345
  711TMC3    C410511   2.756   3.233  14.794  1.0293 -0.3547  0.7112
  711TMC3    C510512   2.868   3.304  14.829  0.0790 -0.9160 -0.3830
  711TMC3    C610513   2.873   3.389  14.934 -0.7215  0.5011  0.5310
  711TMC3     C10514   2.548   3.145  14.866  0.4916 -0.2038 -1.0221
  711TMC3     O10515   2.546   3.066  14.774 -0.1529  0.0141 -0.2790
  711TMC3     H10516   2.577   3.322  15.066 -0.1203  1.4308  0.2346
  711TMC3    H110517   2.762   3.158  14.716  2.3213  0.4562  0.0468
  711TMC3    H210518   2.956   3.454  14.959  0.0027 -1.1938  2.5541
  711TMC3    C710519   2.976   3.218  14.862 -0.1749  0.0658 -0.5115
  711TMC3    C810520   2.803   3.353  15.169  0.3064 -0.0113 -0.4392
  711TMC3    O110521   3.068   3.257  14.929  0.1312 -0.9630  0.5664
  711TMC3    O210522   2.704   3.341  15.245 -0.6085  0.4736  0.2256
  712MPD2     C10523   0.126   3.951  13.940 -0.4368 -0.7526 -0.1260
  712MPD2    C110524   0.025   3.989  13.844 -0.3555 -0.3274  0.1381
  712MPD2    C210525   0.034   4.111  13.771  0.6023  0.0868 -0.2080
  712MPD2    C310526   0.135   4.199  13.798  0.2675  0.3877 -0.4653
  712MPD2    C410527   0.250   4.150  13.869 -0.2437 -0.2770 -0.0320
  712MPD2    C510528   0.241   4.028  13.938  0.0467 -0.3058 -0.1829
  712MPD2     H10529   4.669   4.138  13.710  0.1099 -1.2891 -0.1175
  712MPD2    H110530   0.347   4.198  13.873 -0.5812  0.2772  1.4748
  712MPD2    H210531   0.125   3.855  13.990 -1.3530 -0.7338 -0.1166
  712MPD2    H310532   0.323   4.010  14.007  0.2171 -1.7016 -0.7590
  712MPD2     N10533   0.139   4.333  13.747 -0.6382  0.8042  0.7842
  712MPD2    H510534   0.221   4.386  13.776 -0.1697 -0.0341  0.9944
  712MPD2    N110535   4.623   3.910  13.821 -0.2852  0.3569 -0.4644
  712MPD2    H710536   4.557   3.957  13.760 -1.0494  1.0821  0.9251
  713TMC3    C110537   0.055   4.542  13.651 -0.3615  0.4081  0.1225
  713TMC3    C210538   0.178   4.590  13.627  0.2117  0.0338  0.5391
  713TMC3    C310539   0.182   4.716  13.588  0.2365  0.4960 -0.5225
  713TMC3    C410540   4.651   4.610  13.647  0.3724  0.4575 -0.3861
  713TMC3    C510541   4.665   0.021  13.609 -0.0789 -0.1954  0.9352
  713TMC3    C610542   0.067   0.070  13.567 -0.0644  0.2708  0.6600
  713TMC3     C10543   0.038   4.398  13.682 -0.2184 -0.0381 -0.1021
  713TMC3     O10544   4.646   4.349  13.658  0.3392 -0.8560 -0.3268
  713TMC3     H10545   0.261   4.521  13.635  0.0297 -0.1836  0.5525
  713TMC3    H110546   4.556   4.559  13.655 -0.6424  2.0305 -2.4034
  713TMC3    H210547   0.081   0.168  13.523  2.1775 -0.2192  0.2805
  713TMC3    C710548   4.546   0.081  13.563  0.2948 -0.8041 -0.4325
  713TMC3    C810549   0.311   0.064  13.575 -0.3884 -0.2308 -0.2647
  713TMC3    O110550   4.443   0.014  13.561 -0.0840 -0.1797  0.0329
  713TMC3    O210551   0.309   0.176  13.528  0.0971  0.6729 -0.2564
  714MPD2     C10552   1.971   3.854   1.704  0.2823 -0.1849 -0.0995
  714MPD2    C110553   1.969   3.744   1.626  0.6116 -0.4116  0.3420
  714MPD2    C210554   1.882   3.730   1.523  0.1633  0.4534 -0.3193
  714MPD2    C310555   1.787   3.828   1.495 -0.5895  0.6197 -0.3511
  714MPD2    C410556   1.778   3.938   1.579 -0.2366 -0.1689  0.6267
  714MPD2    C510557   1.876   3.955   1.676 -0.2443 -0.1663  0.0908
  714MPD2     H10558   1.894   3.644   1.458  1.0345 -1.5511  2.4688
  714MPD2    H110559   1.701   4.011   1.556 -0.2084  0.0841  1.3423
  714MPD2    H210560   2.033   3.861   1.793 -0.2331 -2.0558  0.4054
  714MPD2    H310561   1.875   4.036   1.747 -1.1241 -0.2370  0.1609
  714MPD2     N10562   1.704   3.806   1.381  0.4751  0.0391 -0.1214
  714MPD2    H510563   1.720   3.721   1.328  1.0895 -0.7705  1.3807
  714MPD2    N110564   2.064   3.645   1.652 -0.1928 -0.8421  0.0607
  714MPD2    H710565   2.139   3.672   1.716  0.2634 -1.7268 -0.1068
  715TMC3    C110566   2.227   3.495   1.576  0.0679  0.9288 -0.9888
  715TMC3    C210567   2.262   3.367   1.548  0.3606 -1.1197  0.0855
  715TMC3    C310568   2.392   3.325   1.569 -0.5045 -0.2883 -0.1500
  715TMC3    C410569   2.324   3.586   1.621  0.3249 -0.0054 -0.5113
  715TMC3    C510570   2.455   3.546   1.628  0.0310  0.3831  0.0643
  715TMC3    C610571   2.489   3.416   1.602 -0.5139 -0.0599 -0.7287
  715TMC3     C10572   2.087   3.540   1.567  0.5326 -0.3227 -0.6925
  715TMC3     O10573   2.002   3.466   1.521 -0.3367 -0.1461 -0.0882
  715TMC3     H10574   2.195   3.290   1.511  2.1690 -2.1687 -1.0352
  715TMC3    H110575   2.291   3.688   1.631 -0.8304 -0.3758 -0.5570
  715TMC3    H210576   2.596   3.397   1.591 -0.2950  1.0779 -0.5894
  715TMC3    C710577   2.560   3.638   1.663 -0.0191 -0.2248  0.7334
  715TMC3    C810578   2.425   3.191   1.523 -0.6119  0.0489 -0.1782
  715TMC3    O110579   2.663   3.580   1.699  0.7260 -0.5249  0.2830
  715TMC3    O210580   2.387   3.166   1.406 -0.0332  0.5014  0.1066
  716MPD2     C10581   2.126   4.360   9.853  0.1607  0.3830 -0.2327
  716MPD2    C110582   2.044   4.356   9.741 -0.9649  0.2427  1.3582
  716MPD2    C210583   2.053   4.242   9.664  0.2571  0.3132 -0.0947
  716MPD2    C310584   2.119   4.127   9.695  0.4653  0.2563  0.7186
  716MPD2    C410585   2.192   4.139   9.809 -0.2441 -0.2546  0.4777
  716MPD2    C510586   2.200   4.252   9.887 -0.1553  0.8767 -0.0820
  716MPD2     H10587   1.990   4.248   9.576 -0.0838 -1.9666 -0.0060
  716MPD2    H110588   2.242   4.054   9.853 -1.0380 -0.4213  1.0676
  716MPD2    H210589   2.133   4.449   9.914  0.2848  0.1647  0.0703
  716MPD2    H310590   2.268   4.258   9.971 -2.8928  2.3412  2.0126
  716MPD2     N10591   2.084   4.009   9.629 -0.2057 -0.2851  0.2289
  716MPD2    H510592   2.015   4.024   9.557  1.6858 -1.0376 -1.7349
  716MPD2    N110593   1.994   4.486   9.700  0.1212  0.2330  0.1629
  716MPD2    H710594   2.012   4.566   9.759  2.1327 -0.7250  0.8230
  717TMC3    C110595   2.075   3.783   9.565 -0.3330  0.1907  0.0243
  717TMC3    C210596   1.947   3.800   9.518 -0.3720 -0.1866 -0.1207
  717TMC3    C310597   1.893   3.693   9.436  0.1232  0.3363 -0.1956
  717TMC3    C410598   2.154   3.666   9.530 -0.0389  0.1167  0.3599
  717TMC3    C510599   2.087   3.562   9.472  0.3586 -0.1250 -0.3647
  717TMC3    C610600   1.960   3.574   9.422  0.2007  0.1536  0.5082
  717TMC3     C10601   2.139   3.886   9.648 -0.6036 -0.5069  0.1300
  717TMC3     O10602   2.232   3.844   9.716  0.2140  0.0638  0.4040
  717TMC3     H10603   1.890   3.891   9.533 -0.9536  0.1284 -4.2003
  717TMC3    H110604   2.262   3.676   9.536  0.0924 -1.0124 -0.1929
  717TMC3    H210605   1.924   3.489   9.366 -2.4006  0.8173  1.1647
  717TMC3    C710606   2.164   3.440   9.442 -0.2385 -0.0597  0.2286
  717TMC3    C810607   1.754   3.709   9.396  0.4575 -0.2268 -0.2160
  717TMC3    O110608   2.109   3.367   9.355  0.0118 -0.4271 -0.3695
  717TMC3    O210609   1.715   3.822   9.409 -0.7447  0.1808  0.3994
  718MPD2     C10610   1.695   3.958  12.916 -0.8419 -0.2407  0.4639
  718MPD2    C110611   1.638   4.034  12.814  0.1427 -0.0330 -0.4926
  718MPD2    C210612   1.542   3.983  12.735  0.2344 -0.1844 -0.1669
  718MPD2    C310613   1.496   3.859  12.765  0.0975  0.4948  0.0859
  718MPD2    C410614   1.537   3.781  12.873  0.4301  0.2418  0.0024
  718MPD2    C510615   1.639   3.832  12.951 -0.0726 -0.1177 -0.2841
  718MPD2     H10616   1.497   4.038  12.653  0.7588 -2.6430 -2.1086
  718MPD2    H110617   1.501   3.682  12.901 -1.2142  0.5509 -1.0134
  718MPD2    H210618   1.771   3.994  12.984  0.0634  1.6926 -1.5938
  718MPD2    H310619   1.665   3.780  13.043  1.2165 -3.4133 -2.5297
  718MPD2     N10620   1.383   3.822  12.688  0.3683 -0.0107  0.0068
  718MPD2    H510621   1.370   3.880  12.606 -0.1844  1.1898  0.9295
  718MPD2    N110622   1.684   4.162  12.814 -0.2884  0.3675 -0.0906
  718MPD2    H710623   1.764   4.187  12.873  0.0111 -1.3288  0.2089
  719TMC3    C110624   1.676   4.396  12.757  0.7335 -0.5418  0.5100
  719TMC3    C210625   1.575   4.480  12.730 -0.3163  0.2075 -0.3497
  719TMC3    C310626   1.572   4.579  12.639 -0.0101 -0.7283 -0.1480
  719TMC3    C410627   1.797   4.430  12.703 -0.0578  0.7005  1.1581
  719TMC3    C510628   1.796   4.538  12.615 -0.0118 -0.4350  0.3948
  719TMC3    C610629   1.687   4.612  12.578 -0.0684 -0.2367  0.0107
  719TMC3     C10630   1.632   4.262  12.730  0.0347 -0.2578 -0.5039
  719TMC3     O10631   1.538   4.258  12.657  0.1953 -0.4565 -0.6769
  719TMC3     H10632   1.481   4.473  12.784 -0.4454 -0.9262 -0.6998
  719TMC3    H110633   1.877   4.361  12.726  2.0453  1.8480 -2.6227
  719TMC3    H210634   1.699   4.704  12.521 -0.6315 -0.5702 -0.6474
  719TMC3    C710635   1.924   4.599  12.587 -0.0343 -0.4500 -0.7932
  719TMC3    C810636   1.453   4.596  12.555  1.2114 -0.2975  0.1781
  719TMC3    O110637   1.927   4.673  12.489 -0.4434 -0.0324  0.2089
  719TMC3    O210638   1.417   4.702  12.506  0.2609 -0.2193  0.2734
  720MPD2     C10639   4.582   1.387  13.818 -0.7664  0.0005 -0.6365
  720MPD2    C110640   4.689   1.384  13.738 -0.1307  0.0368 -0.0298
  720MPD2    C210641   0.100   1.377  13.795 -0.5457  0.2423 -0.3170
  720MPD2    C310642   0.121   1.375  13.932  0.1810 -0.0802  0.3858
  720MPD2    C410643   0.007   1.378  14.014 -0.4372 -0.0756  0.8692
  720MPD2    C510644   4.596   1.386  13.955 -0.4244 -0.6325  0.1105
  720MPD2     H10645   0.191   1.374  13.736  0.1628  1.7699  0.6929
  720MPD2    H110646   0.018   1.391  14.121  0.7113 -1.6038  0.9339
  720MPD2    H210647   4.481   1.391  13.779 -1.0707  0.2286  0.1652
  720MPD2    H310648   4.505   1.392  14.015 -0.8544 -0.9647 -0.5091
  720MPD2     N10649   0.250   1.365  13.985  0.6892  0.5303 -0.1565
  720MPD2    H510650   0.323   1.337  13.920  0.3315  0.6128 -0.5952
  720MPD2    N110651   4.682   1.389  13.597 -0.1562  0.2928 -0.8546
  720MPD2    H710652   0.050   1.379  13.548  0.5280 -1.5946  0.7354
  721TMC3    C110653   0.439   1.364  14.130 -0.1209 -0.0938  0.1904
  721TMC3    C210654   0.473   1.279  14.235  0.7987 -0.0794  0.0597
  721TMC3    C310655   0.604   1.238  14.239  0.2032  0.7755  1.1521
  721TMC3    C410656   0.528   1.408  14.033 -0.8568  0.4661 -0.0065
  721TMC3    C510657   0.659   1.356  14.043 -0.2538 -0.3129  0.6463
  721TMC3    C610658   0.700   1.272  14.146 -0.3684  0.0466  0.1550
  721TMC3     C10659   0.295   1.388  14.110  0.0649  0.5120 -0.1762
  721TMC3     O10660   0.229   1.412  14.210 -0.0999 -0.0763  0.0030
  721TMC3     H10661   0.390   1.245  14.296  0.9359 -1.2594 -0.3988
  721TMC3    H110662   0.507   1.478  13.952 -2.0243 -0.5615 -0.5893
  721TMC3    H210663   0.803   1.241  14.151 -0.2340  0.7979  1.8948
  721TMC3    C710664   0.765   1.435  13.976 -0.0644  0.5150  0.4346
  721TMC3    C810665   0.652   1.170  14.348 -0.5782 -0.7006  0.1010
  721TMC3    O110666   0.764   1.556  13.976  0.0975  0.2281 -0.0480
  721TMC3    O210667   0.766   1.119  14.332  0.4230  0.1242 -0.7534
  722MPD2     C10668   3.467   4.616  13.332  0.0196  0.7444  0.1618
  722MPD2    C110669   3.422   0.026  13.323 -0.1763  0.1447 -0.5096
  722MPD2    C210670   3.287   0.052  13.361 -0.6402 -0.2552  0.6717
  722MPD2    C310671   3.198   4.671  13.392  0.4562  0.1131  0.0701
  722MPD2    C410672   3.242   4.543  13.391 -0.7080 -0.1519  0.2892
  722MPD2    C510673   3.376   4.520  13.367 -0.0971  0.5086 -0.6275
  722MPD2     H10674   3.256   0.155  13.376  0.4820  0.3882 -1.3722
  722MPD2    H110675   3.188   4.453  13.419 -0.7503 -0.7814 -1.8054
  722MPD2    H210676   3.570   4.586  13.316  0.7847  2.6927  1.4130
  722MPD2    H310677   3.418   4.422  13.388 -2.2772  0.0442  1.5133
  722MPD2     N10678   3.065   4.713  13.409 -0.6839  0.0683 -0.5399
  722MPD2    H510679   3.055   0.093  13.425 -2.8896 -0.1392 -0.5294
  722MPD2    N110680   3.501   0.138  13.289  0.5684  0.6944 -0.3115
  722MPD2    H710681   3.450   0.222  13.266  0.5834  0.5235 -0.9856
  723TMC3    C110682   2.819   4.670  13.437  0.9654 -0.7001 -0.0641
  723TMC3    C210683   2.728   4.574  13.443 -0.8208  0.1958 -0.4381
  723TMC3    C310684   2.598   4.609  13.466 -0.7981 -0.4596  0.6059
  723TMC3    C410685   2.790   0.079  13.451 -0.0746 -0.3206 -0.8117
  723TMC3    C510686   2.659   0.117  13.478  1.0452  0.1863  0.1440
  723TMC3    C610687   2.556   0.024  13.484  0.1601 -0.0353 -0.1335
  723TMC3     C10688   2.957   4.621  13.409  0.9910 -0.4613 -0.8092
  723TMC3     O10689   2.952   4.502  13.372 -0.5853  0.1312 -0.0206
  723TMC3     H10690   2.753   4.469  13.430 -1.8397 -0.2268  0.9596
  723TMC3    H110691   2.870   0.150  13.468 -0.0008 -0.7841  0.8013
  723TMC3    H210692   2.452   0.046  13.503 -0.1644 -3.1872  1.7417
  723TMC3    C710693   2.626   0.241  13.550 -0.7833 -0.4535 -0.3023
  723TMC3    C810694   2.497   4.506  13.468 -0.9217  0.1157 -0.3481
  723TMC3    O110695   2.512   0.260  13.600 -0.8469 -0.6377  0.4749
  723TMC3    O210696   2.415   4.525  13.557  0.3283  0.6768 -0.6427
  724TMC3    C110697   3.834   2.747   8.793 -0.1549 -0.0077 -0.1110
  724TMC3    C210698   3.751   2.843   8.840  0.1353  0.3466 -0.0027
  724TMC3    C310699   3.809   2.959   8.889  0.7407 -0.5989 -0.4792
  724TMC3    C410700   3.969   2.772   8.767  0.5031 -0.0605 -0.2141
  724TMC3    C510701   4.023   2.891   8.810  0.3467 -0.2648 -0.0697
  724TMC3    C610702   3.946   2.983   8.877  0.6996 -0.6723  0.3185
  724TMC3     C10703   3.777   2.622   8.754 -0.6367  0.9088  0.4332
  724TMC3     O10704   3.847   2.545   8.690  0.3886  0.0436  0.0303
  724TMC3     H10705   3.643   2.839   8.847  0.2138 -1.9967 -0.3563
  724TMC3    H110706   4.027   2.697   8.715 -1.6402 -1.5875 -0.3854
  724TMC3    H210707   3.989   3.081   8.895 -0.0583 -0.3411  0.3093
  724TMC3    C710708   4.155   2.934   8.762 -0.2059  0.4776 -0.0104
  724TMC3    C810709   3.727   3.058   8.962 -0.2729 -0.1535 -0.1212
  724TMC3    O110710   4.194   3.035   8.816  0.2021  0.1657 -0.2349
  724TMC3    O210711   3.616   3.027   8.998 -0.0706  0.0586 -0.1363
  725TMC3    C110712   0.817   1.508  12.994 -0.1579 -0.6608 -0.6776
  725TMC3    C210713   0.696   1.512  12.935  0.6886  0.1199 -0.1427
  725TMC3    C310714   0.673   1.452  12.816  0.7961 -0.3579  0.0825
  725TMC3    C410715   0.922   1.454  12.922 -0.3232  0.0527  0.3925
  725TMC3    C510716   0.892   1.380  12.814  0.9627  0.0077 -0.2976
  725TMC3    C610717   0.771   1.377  12.757  0.2488  0.3385  0.5664
  725TMC3     C10718   0.849   1.637  13.050  0.6780  0.1588 -0.1517
  725TMC3     O10719   0.763   1.720  13.040  0.6779  0.5191 -0.5762
  725TMC3     H10720   0.618   1.561  12.993  0.0080 -1.6498  0.4248
  725TMC3    H110721   1.025   1.462  12.956 -0.4003 -0.0901  0.6589
  725TMC3    H210722   0.758   1.328  12.661  1.5736 -0.9743  1.0557
  725TMC3    C710723   0.979   1.278  12.759  0.4260 -0.3764  0.1901
  725TMC3    C810724   0.562   1.485  12.726  0.3260  0.3245  0.1349
  725TMC3    O110725   0.966   1.258  12.635  0.1763 -0.2028 -0.3447
  725TMC3    O210726   0.540   1.398  12.646  0.1008 -0.0267  0.1196
  726MPD2     C10727   3.735   2.928  10.574 -0.0435  0.3975  0.6799
  726MPD2    C110728   3.656   2.996  10.490 -0.3642 -0.2471 -0.2181
  726MPD2    C210729   3.520   2.967  10.483  0.2186 -0.3114 -0.1675
  726MPD2    C310730   3.460   2.864  10.549 -0.3348 -0.3599  0.2883
  726MPD2    C410731   3.542   2.790  10.634 -0.1360  0.1134 -0.1828
  726MPD2    C510732   3.671   2.827  10.646 -0.2172  0.0645 -0.0193
  726MPD2     H10733   3.466   3.038  10.421 -0.2623 -0.8401 -0.3527
  726MPD2    H110734   3.504   2.708  10.694  0.5452 -1.1621 -1.4785
  726MPD2    H210735   3.842   2.938  10.578  0.0036 -0.4651  1.4570
  726MPD2    H310736   3.734   2.757  10.699  0.7564  1.7769  1.0600
  726MPD2     N10737   3.329   2.829  10.545 -0.1073 -0.5040 -0.2592
  726MPD2    H510738   3.308   2.741  10.590  0.6878  0.1448  1.4134
  726MPD2    N110739   3.696   3.105  10.412 -0.7555 -0.0566 -0.1588
  726MPD2    H710740   3.622   3.144  10.355  1.7652  0.1683 -3.3004
  727TMC3    C110741   3.853   3.257  10.296  0.1176  0.3248 -0.8090
  727TMC3    C210742   3.957   3.349  10.321  0.0043  0.2908  0.6612
  727TMC3    C310743   3.965   3.454  10.233 -0.3283  0.3238  0.5212
  727TMC3    C410744   3.777   3.261  10.183  0.1759 -0.7454 -0.6089
  727TMC3    C510745   3.790   3.373  10.106  0.1815  0.0927 -0.3908
  727TMC3    C610746   3.877   3.474  10.130 -0.1973  0.2146 -0.0717
  727TMC3     C10747   3.833   3.150  10.395  0.4583  0.4355 -0.8589
  727TMC3     O10748   3.930   3.127  10.467  0.0551 -1.0790  0.0389
  727TMC3     H10749   4.035   3.342  10.395  0.4152 -1.3702  0.0750
  727TMC3    H110750   3.701   3.184  10.171  0.2167 -1.1557  1.8517
  727TMC3    H210751   3.900   3.548  10.055 -0.4810  0.4698  0.0955
  727TMC3    C710752   3.686   3.382  10.011  0.3421  0.2954 -0.1921
  727TMC3    C810753   4.090   3.528  10.227 -0.5789  0.3962  0.5154
  727TMC3    O110754   3.641   3.272   9.977 -0.4852 -0.1612 -1.0464
  727TMC3    O210755   4.184   3.472  10.283 -0.1093  0.2341  0.0539
  728TMC3    C110756   1.576   1.681  15.062 -0.6099  0.3118 -0.2475
  728TMC3    C210757   1.678   1.716  15.149  0.2345 -0.1649  0.7321
  728TMC3    C310758   1.799   1.774  15.103  0.4668  0.0348 -0.2891
  728TMC3    C410759   1.601   1.698  14.932  0.1761  1.0148 -0.3520
  728TMC3    C510760   1.723   1.745  14.886 -0.4250  0.2417 -0.0861
  728TMC3    C610761   1.822   1.792  14.968  0.6173  0.9143 -0.6625
  728TMC3     C10762   1.445   1.644  15.110 -0.9779 -0.2042 -0.4192
  728TMC3     O10763   1.355   1.690  15.038 -0.3251  0.0410  0.4072
  728TMC3     H10764   1.661   1.707  15.256  3.8036  1.9883  1.4689
  728TMC3    H110765   1.535   1.666  14.852 -0.2432 -1.5315  1.0038
  728TMC3    H210766   1.916   1.827  14.927  1.3211  0.0033  0.1550
  728TMC3    C710767   1.741   1.766  14.746  0.1896  0.1761 -0.8327
  728TMC3    C810768   1.896   1.815  15.200  0.5997  0.0463  0.1245
  728TMC3    O110769   1.680   1.700  14.664  0.7618  0.6928 -0.9319
  728TMC3    O210770   1.852   1.819  15.317  0.6892  0.2383  0.1281
  729MPD2     C10771   4.000   3.431  17.001 -0.2004  0.6060 -0.1988
  729MPD2    C110772   4.032   3.300  16.970  0.2492  0.1114 -0.0344
  729MPD2    C210773   4.148   3.244  17.029  0.3999  0.4526  0.4699
  729MPD2    C310774   4.227   3.322  17.110 -0.4209  0.0009 -0.8301
  729MPD2    C410775   4.202   3.452  17.126 -0.6195 -0.2438  0.2370
  729MPD2    C510776   4.083   3.504  17.089  0.5739 -0.2555 -0.2278
  729MPD2     H10777   4.165   3.136  17.027  0.6100  0.4908  0.1234
  729MPD2    H110778   4.256   3.520  17.191  1.0833 -0.9415 -0.4273
  729MPD2    H210779   3.904   3.468  16.968 -0.8633 -1.5476 -0.6725
  729MPD2    H310780   4.066   3.610  17.107 -1.0946 -0.6079  0.2671
  729MPD2     N10781   4.341   3.278  17.176 -0.0892  0.4410  0.1615
  729MPD2    H510782   4.388   3.338  17.242 -0.0381  0.3700  0.1892
  729MPD2    N110783   3.941   3.235  16.883 -0.2007 -0.3076 -0.0256
  729MPD2    H710784   3.859   3.285  16.852 -1.4298 -0.9777  2.1359
  730TMC3    C110785   4.537   3.144  17.230  0.0173  0.0452 -0.1409
  730TMC3    C210786   4.623   3.064  17.159  0.0374  0.3354 -0.2228
  730TMC3    C310787   0.038   3.096  17.159  0.2111  0.1935 -0.2802
  730TMC3    C410788   4.579   3.258  17.294 -0.0922 -0.4122  0.3000
  730TMC3    C510789   4.715   3.286  17.303 -0.3130  0.4402 -0.0094
  730TMC3    C610790   0.084   3.210  17.223 -0.4105  0.0030 -0.5003
  730TMC3     C10791   4.409   3.160  17.155  0.7451  0.1964 -0.4511
  730TMC3     O10792   4.389   3.071  17.076 -0.0411  0.6431  0.2293
  730TMC3     H10793   4.589   2.987  17.091 -0.3553 -0.0902  0.4547
  730TMC3    H110794   4.505   3.301  17.361 -1.5659 -0.3166 -1.4187
  730TMC3    H210795   0.187   3.245  17.217 -0.4192 -0.1147 -1.4034
  730TMC3    C710796   0.010   3.428  17.309  0.4371 -0.2143  0.3912
  730TMC3    C810797   0.124   3.012  17.079 -0.2046  1.2105 -0.3400
  730TMC3    O110798   0.086   3.472  17.222 -0.0378  0.3574  0.2487
  730TMC3    O210799   0.070   2.934  16.999  0.5091  0.6013 -0.2924
  731MPD2     C10800   0.782   0.532  12.094 -0.7622  0.1599 -0.5352
  731MPD2    C110801   0.693   0.637  12.085 -0.5024 -0.4659 -0.3238
  731MPD2    C210802   0.657   0.701  12.200 -0.0911 -0.7643 -0.3500
  731MPD2    C310803   0.695   0.652  12.325  0.6612 -0.8563  0.7978
  731MPD2    C410804   0.798   0.556  12.331 -0.1465 -0.5401 -0.5712
  731MPD2    C510805   0.843   0.498  12.212  0.6701 -1.0094 -0.2263
  731MPD2     H10806   0.596   0.790  12.195  0.8760 -0.0957 -0.2080
  731MPD2    H110807   0.834   0.518  12.425 -0.5802 -0.1438 -0.2432
  731MPD2    H210808   0.804   0.471  12.007  0.4537 -0.5024  0.2313
  731MPD2    H310809   0.903   0.408  12.209  0.4425 -1.1986  0.8348
  731MPD2     N10810   0.640   0.715  12.443  0.1312 -0.2872  0.0292
  731MPD2    H510811   0.579   0.795  12.431  0.2284 -0.4211 -1.3833
  731MPD2    N110812   0.652   0.701  11.967 -0.2216  0.3136  0.5219
  731MPD2    H710813   0.615   0.796  11.970  2.6095  1.4600 -1.0819
  732TMC3    C110814   0.648   0.735  11.745  0.1478 -0.0533 -0.0224
  732TMC3    C210815   0.549   0.716  11.650 -0.0588  0.2466  0.2596
  732TMC3    C310816   0.534   0.819  11.566  0.0288  0.1194  0.1715
  732TMC3    C410817   0.722   0.848  11.763 -0.4566 -0.2468 -0.6703
  732TMC3    C510818   0.697   0.950  11.669 -0.6300 -0.8825  0.4474
  732TMC3    C610819   0.603   0.932  11.573  0.4079  0.3757 -0.1127
  732TMC3     C10820   0.657   0.637  11.850  1.1165  0.0279 -0.3652
  732TMC3     O10821   0.638   0.518  11.821  0.0219  0.2792 -0.4603
  732TMC3     H10822   0.487   0.630  11.625 -1.7995  1.5060  0.2322
  732TMC3    H110823   0.789   0.859  11.848  1.1025 -0.6257 -1.8595
  732TMC3    H210824   0.580   1.009  11.500 -0.4528 -0.5633 -0.8388
  732TMC3    C710825   0.780   1.062  11.666  0.4921  0.5092  0.1673
  732TMC3    C810826   0.411   0.822  11.479  1.4259 -0.5525 -0.0624
  732TMC3    O110827   0.737   1.171  11.625 -0.6730 -0.6685 -0.4759
  732TMC3    O210828   0.407   0.757  11.377  0.6470  0.0522  0.0771
  733TMC3    C110829   0.945   3.688  12.607  0.6804  0.2680 -0.2424
  733TMC3    C210830   1.067   3.666  12.661  0.1570  0.3057 -0.0654
  733TMC3    C310831   1.165   3.755  12.648  0.2873  1.3334  0.2252
  733TMC3    C410832   0.919   3.801  12.544 -0.3602 -0.1045 -0.2471
  733TMC3    C510833   1.017   3.893  12.534 -0.0385 -0.7036 -0.2259
  733TMC3    C610834   1.134   3.880  12.605  0.1307  0.4392  0.4925
  733TMC3     C10835   0.832   3.635  12.690 -0.0374  0.0756 -0.4719
  733TMC3     O10836   0.826   3.671  12.809  0.0914 -0.0293  0.0585
  733TMC3     H10837   1.074   3.575  12.719  1.9398  0.9717  0.7624
  733TMC3    H110838   0.822   3.823  12.501 -0.4531 -2.8643 -1.4563
  733TMC3    H210839   1.203   3.962  12.623  0.5530  0.3403 -0.6762
  733TMC3    C710840   0.989   4.027  12.480  0.3915  0.1804 -0.0831
  733TMC3    C810841   1.283   3.741  12.728  0.8477 -0.1658  0.3272
  733TMC3    O110842   0.872   4.056  12.452  0.1566 -0.3582 -0.2486
  733TMC3    O210843   1.271   3.673  12.824  0.4364 -0.1244  0.2214
  734MPD2     C10844   3.687   1.809  12.144  0.1127  0.3909  0.4591
  734MPD2    C110845   3.558   1.847  12.159  1.1620 -0.5334  0.4048
  734MPD2    C210846   3.509   1.960  12.086  0.0027  0.0411  0.5546
  734MPD2    C310847   3.587   2.031  12.003  0.1156  0.1467  0.4904
  734MPD2    C410848   3.718   1.989  11.985  0.2553 -0.4893  0.3796
  734MPD2    C510849   3.771   1.888  12.067  0.3301  0.5117 -0.3258
  734MPD2     H10850   3.403   1.979  12.082 -0.3722 -2.0102  1.1119
  734MPD2    H110851   3.770   2.043  11.907 -1.0935 -1.9811 -1.5706
  734MPD2    H210852   3.736   1.725  12.192 -0.5365  0.5310  1.3685
  734MPD2    H310853   3.875   1.867  12.046  0.3136  0.5796 -0.4775
  734MPD2     N10854   3.515   2.125  11.921 -0.2107 -0.3576  0.1266
  734MPD2    H510855   3.424   2.159  11.951  0.3461  0.4717  0.8657
  734MPD2    N110856   3.469   1.755  12.226  0.4302  0.1284 -0.3280
  734MPD2    H710857   3.518   1.686  12.281 -2.0889 -1.6741 -0.3206
  735TMC3    C110858   3.250   1.646  12.273 -0.4541  0.2063 -0.4717
  735TMC3    C210859   3.117   1.669  12.270 -0.2411 -0.4106  0.5590
  735TMC3    C310860   3.039   1.571  12.230  0.0762  0.1489 -0.1342
  735TMC3    C410861   3.309   1.526  12.232 -0.2705 -0.3381 -0.1816
  735TMC3    C510862   3.221   1.438  12.178  0.2872  0.2667  0.1754
  735TMC3    C610863   3.090   1.460  12.175  0.2015 -0.5240 -0.4819
  735TMC3     C10864   3.329   1.758  12.226 -0.3234 -0.4030  1.1157
  735TMC3     O10865   3.257   1.839  12.171 -0.5674  0.3311 -0.3472
  735TMC3     H10866   3.079   1.762  12.313  2.5548  0.7747  0.4392
  735TMC3    H110867   3.415   1.518  12.214 -0.5112 -0.3518 -1.5542
  735TMC3    H210868   3.025   1.398  12.114 -0.6277  1.1111 -1.2344
  735TMC3    C710869   3.275   1.330  12.096  0.2417  0.8167  0.5366
  735TMC3    C810870   2.940   1.631  12.148  0.0102 -0.3932 -0.0820
  735TMC3    O110871   3.379   1.352  12.040  0.6416  0.7399  0.9677
  735TMC3    O210872   2.843   1.562  12.109  0.1642  0.1254  0.2721
  736MPD2     C10873   3.115   1.013  11.988 -0.1709  0.2466  0.0934
  736MPD2    C110874   3.219   1.103  12.014  0.4534 -0.7204 -0.1491
  736MPD2    C210875   3.348   1.072  11.972 -0.2754 -0.4154 -0.3976
  736MPD2    C310876   3.376   0.940  11.919 -0.8126 -0.1380 -0.0868
  736MPD2    C410877   3.269   0.859  11.899 -1.2120  0.0099 -0.0844
  736MPD2    C510878   3.145   0.891  11.929 -0.5517  0.1226  0.3125
  736MPD2     H10879   3.428   1.141  11.996  0.0871 -0.2893 -2.0168
  736MPD2    H110880   3.277   0.757  11.863 -0.9729 -0.0145  0.0372
  736MPD2    H210881   3.015   1.038  12.019 -0.7020  1.3053 -2.5368
  736MPD2    H310882   3.061   0.825  11.911 -1.2872  1.0069  0.4951
  736MPD2     N10883   3.507   0.896  11.889 -0.1588  0.0089 -0.5954
  736MPD2    H510884   3.510   0.803  11.847 -0.7951 -0.7116  0.9519
  736MPD2    N110885   3.192   1.222  12.082 -0.2223 -0.2156 -0.4940
  736MPD2    H710886   3.099   1.237  12.122  0.0171  0.9240 -0.3684
  737TMC3    C110887   3.735   0.936  11.849  0.5054  0.3956 -0.5708
  737TMC3    C210888   3.831   1.042  11.854 -0.4636 -0.8742 -0.0562
  737TMC3    C310889   3.904   1.056  11.737  0.1969 -0.6181 -0.7029
  737TMC3    C410890   3.725   0.846  11.746  0.1137 -0.0827  0.0947
  737TMC3    C510891   3.808   0.872  11.640 -0.1664  0.3128 -0.6973
  737TMC3    C610892   3.886   0.978  11.630  0.8667 -0.0330 -0.3668
  737TMC3     C10893   3.623   0.965  11.928  0.6230  0.2242  0.8515
  737TMC3     O10894   3.639   1.073  11.982  0.0150 -0.1753 -0.2128
  737TMC3     H10895   3.844   1.095  11.947 -2.0153  0.6533 -0.7358
  737TMC3    H110896   3.662   0.758  11.747 -1.6540  1.1948  0.8109
  737TMC3    H210897   3.936   1.005  11.538  3.4132  0.8858  1.2932
  737TMC3    C710898   3.794   0.776  11.530 -0.2875  0.4056 -0.0171
  737TMC3    C810899   3.944   1.199  11.721  0.2689 -0.6217 -0.1605
  737TMC3    O110900   3.697   0.698  11.518 -0.2916  1.4742 -0.7552
  737TMC3    O210901   3.914   1.269  11.818  0.5040  0.1726  0.2576
  738MPD2     C10902   3.410   0.297  15.026  0.2685  0.4899  0.2871
  738MPD2    C110903   3.476   0.226  15.123  0.0298 -0.5184 -0.4471
  738MPD2    C210904   3.610   0.251  15.149  0.2107 -0.1085 -0.1164
  738MPD2    C310905   3.675   0.349  15.074  0.1131 -0.7404  0.9813
  738MPD2    C410906   3.607   0.423  14.990  0.4095 -0.9536  0.5559
  738MPD2    C510907   3.474   0.403  14.968  0.2522  0.5879  0.6861
  738MPD2     H10908   3.676   0.191  15.210 -0.7439  0.0904  1.1162
  738MPD2    H110909   3.660   0.503  14.938  0.8778 -1.2903  0.5154
  738MPD2    H210910   3.304   0.281  15.005  0.6900 -0.5851 -1.0202
  738MPD2    H310911   3.419   0.468  14.901 -1.1215  0.3484  1.5664
  738MPD2     N10912   3.813   0.362  15.067  0.9417  0.2821  0.4419
  738MPD2    H510913   3.855   0.432  15.006 -0.1027  0.3696 -0.1753
  738MPD2    N110914   3.411   0.123  15.180  0.0876 -0.4329  0.2334
  738MPD2    H710915   3.345   0.070  15.124 -0.4252  0.5017 -0.0483
  739TMC3    C110916   4.040   0.341  15.103  0.0148  0.3455  0.2749
  739TMC3    C210917   4.066   0.430  14.999  0.1913  0.1634 -0.2722
  739TMC3    C310918   4.181   0.508  14.997  0.1895  0.3994  0.0479
  739TMC3    C410919   4.121   0.329  15.216  0.1943 -0.3998  0.3032
  739TMC3    C510920   4.234   0.407  15.201  1.0426  0.2204 -0.5369
  739TMC3    C610921   4.268   0.492  15.099 -0.0630 -0.0397 -0.5005
  739TMC3     C10922   3.910   0.286  15.126 -0.1480 -0.0780  0.1847
  739TMC3     O10923   3.889   0.199  15.206 -0.0942  0.3029 -0.1500
  739TMC3     H10924   3.991   0.435  14.920 -1.0865 -1.4884  0.8334
  739TMC3    H110925   4.107   0.266  15.303 -0.3633 -0.7091 -0.0136
  739TMC3    H210926   4.356   0.553  15.115 -1.9234  2.7270 -0.9374
  739TMC3    C710927   4.316   0.419  15.323  0.4515 -0.3743  0.2231
  739TMC3    C810928   4.209   0.579  14.875 -0.0783 -0.3065 -0.2049
  739TMC3    O110929   4.390   0.323  15.347  0.0641  0.2563  0.8825
  739TMC3    O210930   4.130   0.581  14.784 -0.0144 -0.1585 -0.2318
  740TMC3    C110931   4.008   2.193  14.442  0.0421 -0.4740 -0.7106
  740TMC3    C210932   4.091   2.298  14.470  0.2447  0.3516 -0.0197
  740TMC3    C310933   4.225   2.284  14.434 -0.0876  0.2111  0.0318
  740TMC3    C410934   4.052   2.086  14.370  0.8930  0.4429 -0.2115
  740TMC3    C510935   4.186   2.076  14.332 -0.0226 -0.5967  0.1196
  740TMC3    C610936   4.270   2.175  14.369  0.2969 -1.1658  0.5564
  740TMC3     C10937   3.866   2.205  14.456 -0.1939  0.3621 -0.2053
  740TMC3     O10938   3.829   2.317  14.419 -0.1099 -0.0216 -0.8308
  740TMC3     H10939   4.048   2.366  14.542  1.0367 -0.7839  1.5067
  740TMC3    H110940   3.989   2.000  14.353  0.3786  0.4117  1.8610
  740TMC3    H210941   4.377   2.163  14.357  0.0172 -0.5775 -2.5571
  740TMC3    C710942   4.233   1.947  14.296 -0.1303 -0.3340  1.0602
  740TMC3    C810943   4.313   2.324  14.534  0.5604 -0.7009  0.3383
  740TMC3    O110944   4.210   1.852  14.370  0.5322 -0.1896 -0.4724
  740TMC3    O210945   4.376   2.229  14.582  0.5672  0.6064 -0.0554
  741TMC3    C110946   3.916   1.026  14.489  0.0378  0.0883 -0.6495
  741TMC3    C210947   3.790   1.016  14.521  0.2415 -0.1417 -0.5184
  741TMC3    C310948   3.757   0.950  14.638  0.0164  1.2863 -0.0090
  741TMC3    C410949   4.016   0.983  14.575  0.3461 -0.2527  0.1707
  741TMC3    C510950   3.974   0.917  14.688  0.3882  0.2939  0.1753
  741TMC3    C610951   3.845   0.902  14.723  0.1772  0.0445  0.2050
  741TMC3     C10952   3.952   1.056  14.351 -0.5310  0.5223 -0.5762
  741TMC3     O10953   3.865   1.045  14.264 -0.4251 -0.0421 -0.1226
  741TMC3     H10954   3.719   1.037  14.442  1.1966  0.0157 -1.3415
  741TMC3    H110955   4.120   0.964  14.551  0.7299 -0.4327  1.9259
  741TMC3    H210956   3.806   0.869  14.819  0.0857 -1.9896 -0.5321
  741TMC3    C710957   4.067   0.896  14.796 -0.8142  0.2805 -0.6815
  741TMC3    C810958   3.625   0.908  14.652 -0.0184 -1.0269  0.1904
  741TMC3    O110959   4.025   0.843  14.894  0.3163  0.2815 -0.4246
  741TMC3    O210960   3.552   0.967  14.570  0.1432 -0.5808  0.8725
  742TMC3    C110961   3.855   4.121  15.526 -0.1643  0.1757  0.4810
  742TMC3    C210962   3.731   4.103  15.473 -0.1487 -0.1907  0.0001
  742TMC3    C310963   3.710   4.028  15.363 -0.2009  0.0094  0.3462
  742TMC3    C410964   3.964   4.063  15.472 -0.8686  0.8425 -0.2613
  742TMC3    C510965   3.939   3.992  15.358 -0.2123 -0.1804 -0.1617
  742TMC3    C610966   3.817   3.956  15.307  0.1829  0.1806 -0.2856
  742TMC3     C10967   3.862   4.188  15.655 -0.3759 -0.1033 -0.9030
  742TMC3     O10968   3.769   4.193  15.734  0.3195  0.4929  0.0183
  742TMC3     H10969   3.653   4.171  15.503  1.2028  0.7668  1.3330
  742TMC3    H110970   4.055   4.073  15.530 -0.2668  2.9029 -1.5474
  742TMC3    H210971   3.808   3.899  15.216 -1.6416 -2.6033  1.6302
  742TMC3    C710972   4.063   3.970  15.281 -0.1853 -0.1426 -0.4779
  742TMC3    C810973   3.607   4.071  15.267 -0.5571  0.1737 -0.6406
  742TMC3    O110974   4.081   3.873  15.209  0.1448 -0.1755  0.2117
  742TMC3    O210975   3.659   4.073  15.154  0.1448 -0.0554 -0.3829
  743MPD2     C10976   1.533   1.642   1.803  0.3612  0.0975 -0.2970
  743MPD2    C110977   1.602   1.527   1.759 -0.1403 -0.5309  0.1293
  743MPD2    C210978   1.726   1.496   1.816 -0.1739  0.0443 -0.2223
  743MPD2    C310979   1.774   1.581   1.914  0.4253 -0.1366  0.2000
  743MPD2    C410980   1.715   1.699   1.943  0.5075 -0.0240 -0.0308
  743MPD2    C510981   1.592   1.726   1.891 -0.8253 -0.1811 -0.0477
  743MPD2     H10982   1.782   1.408   1.790  0.3180  0.1644  0.4267
  743MPD2    H110983   1.764   1.769   2.010  0.6933 -1.2253  1.0868
  743MPD2    H210984   1.442   1.676   1.753 -1.1619 -1.4162  1.4758
  743MPD2    H310985   1.546   1.822   1.914  1.4488  1.3662 -1.9385
  743MPD2     N10986   1.901   1.538   1.963 -0.0965  0.4610 -0.0767
  743MPD2    H510987   1.931   1.453   1.917  2.8496  1.2100  0.4435
  743MPD2    N110988   1.556   1.464   1.644  0.8718 -0.6350  0.1289
  743MPD2    H710989   1.491   1.523   1.592  1.2908 -1.6842 -1.6006
  744TMC3    C110990   1.504   1.271   1.521  0.2369 -0.3896 -0.2072
  744TMC3    C210991   1.374   1.304   1.524 -0.2805 -0.2718 -0.1271
  744TMC3    C310992   1.293   1.269   1.420 -0.5148  1.0151  0.6450
  744TMC3    C410993   1.561   1.201   1.417 -0.2191  1.1457 -0.4829
  744TMC3    C510994   1.482   1.173   1.314  0.8915 -0.6729  0.2648
  744TMC3    C610995   1.351   1.214   1.307  0.3113  0.8381  0.2878
  744TMC3     C10996   1.595   1.338   1.612 -0.2496  0.0368 -0.1207
  744TMC3     O10997   1.678   1.265   1.664 -0.3184  1.1122 -0.2106
  744TMC3     H10998   1.341   1.374   1.600 -1.8834 -1.5599  0.3654
  744TMC3    H110999   1.668   1.185   1.417 -0.4093 -0.1556 -1.5353
  744TMC3    H211000   1.295   1.208   1.214  0.2262 -0.4452  0.4203
  744TMC3    C711001   1.537   1.078   1.209  0.2947  0.2184 -0.9339
  744TMC3    C811002   1.172   1.353   1.421  0.3227  0.7994  0.2226
  744TMC3    O111003   1.653   1.046   1.218  0.1826 -0.2603  0.0367
  744TMC3    O211004   1.143   1.382   1.534  0.3264  0.2040 -0.0769
  745TMC3    C111005   4.460   3.743  13.849 -0.2829 -0.3892  0.7452
  745TMC3    C211006   4.356   3.746  13.936  0.8280  0.4278  0.1582
  745TMC3    C311007   4.226   3.726  13.894 -0.1858 -0.3401  0.3065
  745TMC3    C411008   4.443   3.723  13.716 -0.0600  0.4934 -0.2186
  745TMC3    C511009   4.317   3.695  13.682 -0.8624  0.3424 -0.3005
  745TMC3    C611010   4.206   3.699  13.764  0.3439 -0.5478 -0.7295
  745TMC3     C11011   4.590   3.801  13.892  0.1664 -0.7340 -0.4871
  745TMC3     O11012   4.627   3.764  14.004  0.5180  0.2936 -0.0542
  745TMC3     H11013   4.372   3.754  14.043  1.8904 -1.8058  0.1717
  745TMC3    H111014   4.530   3.720  13.652  0.6865  0.0441  0.8228
  745TMC3    H211015   4.106   3.702  13.722 -0.9813  2.3872  2.6092
  745TMC3    C711016   4.293   3.655  13.546  0.1683  0.3085  0.2927
  745TMC3    C811017   4.128   3.810  13.959  0.7656  0.0000 -0.5468
  745TMC3    O111018   4.204   3.574  13.524  0.0633 -0.0401 -0.5514
  745TMC3    O211019   4.023   3.763  13.995 -0.9989 -0.3598  0.6118
  746TMC3    C111020   1.981   0.939  11.073 -0.3362  0.3453  0.4581
  746TMC3    C211021   2.070   0.909  10.977  0.2340 -0.7880 -0.0396
  746TMC3    C311022   2.058   0.787  10.923  0.3269 -0.2112  0.6238
  746TMC3    C411023   1.890   0.842  11.121 -0.1984  0.4012  0.5236
  746TMC3    C511024   1.901   0.718  11.076 -0.5959  0.3949 -0.0693
  746TMC3    C611025   1.980   0.688  10.974  0.8166 -0.3177 -0.1468
  746TMC3     C11026   1.967   1.076  11.120 -0.0273 -0.0549  0.6466
  746TMC3     O11027   1.914   1.094  11.228  0.3288 -0.0200 -0.0410
  746TMC3     H11028   2.149   0.974  10.941  0.2878 -0.7101  0.2222
  746TMC3    H111029   1.810   0.867  11.190 -2.2224 -0.2287 -1.6170
  746TMC3    H211030   1.980   0.593  10.923  1.6133 -1.4437  1.9478
  746TMC3    C711031   1.786   0.632  11.086 -0.0605  0.0544  0.1534
  746TMC3    C811032   2.137   0.744  10.810 -0.0881 -0.9779 -0.1987
  746TMC3    O111033   1.724   0.590  10.989  0.3110  0.2794 -0.0408
  746TMC3    O211034   2.174   0.626  10.796 -0.1326  0.3038 -0.1612
  747TMC3    C111035   4.459   0.862  10.710 -0.5461 -0.3302  0.6004
  747TMC3    C211036   4.358   0.783  10.753 -0.2330 -0.8271  0.2233
  747TMC3    C311037   4.328   0.792  10.887 -0.1196  0.0483 -0.0027
  747TMC3    C411038   4.515   0.960  10.794  0.4582 -0.1770 -0.2176
  747TMC3    C511039   4.469   0.975  10.925  0.1143 -0.4734 -0.3994
  747TMC3    C611040   4.383   0.880  10.979  0.4317  0.5917  0.2704
  747TMC3     C11041   4.470   0.892  10.572 -0.3465 -0.4330  0.6344
  747TMC3     O11042   4.506   1.004  10.538  0.7786  0.0830  0.8641
  747TMC3     H11043   4.308   0.722  10.679 -0.5935 -1.1776  0.7578
  747TMC3    H111044   4.588   1.034  10.765 -2.5365  2.5015 -0.9166
  747TMC3    H211045   4.357   0.891  11.084 -2.4109  0.6883 -0.4429
  747TMC3    C711046   4.515   1.089  11.005  0.1050 -0.1276  0.4346
  747TMC3    C811047   4.209   0.727  10.924  0.2041 -0.1569  0.0290
  747TMC3    O111048   4.628   1.139  10.979 -0.0451 -0.0171  0.3276
  747TMC3    O211049   4.136   0.679  10.840 -0.0974 -0.2386 -0.6754
  748MPD2     C11050   0.622   2.363   1.699 -0.0294  0.2912  0.0215
  748MPD2    C111051   0.723   2.283   1.757 -0.4376  0.1301  0.6075
  748MPD2    C211052   0.855   2.316   1.722 -0.4884  0.1484  0.1110
  748MPD2    C311053   0.886   2.423   1.638 -0.2831 -0.1667  1.0570
  748MPD2    C411054   0.779   2.494   1.583  0.0080  0.4509 -1.0888
  748MPD2    C511055   0.650   2.465   1.618  0.9507  0.4003 -0.6940
  748MPD2     H11056   0.938   2.253   1.752  0.0120 -0.9275 -3.5525
  748MPD2    H111057   0.787   2.590   1.532 -0.1372  1.2722  0.4265
  748MPD2    H211058   0.521   2.347   1.735 -0.2642  0.8099 -0.4069
  748MPD2    H311059   0.563   2.524   1.592  2.1029  1.3802 -2.3345
  748MPD2     N11060   1.018   2.465   1.592  0.2520 -0.1371 -0.7305
  748MPD2    H511061   1.037   2.547   1.536  1.3652 -1.0658 -1.6980
  748MPD2    N111062   0.679   2.161   1.819 -0.5189 -0.2137 -0.4537
  748MPD2    H711063   0.579   2.140   1.824 -0.5591 -0.8575 -3.8940
  749TMC3    C111064   1.248   2.457   1.559 -0.0124 -0.7043 -0.0730
  749TMC3    C211065   1.374   2.419   1.607 -0.3222  0.6667 -0.0088
  749TMC3    C311066   1.486   2.447   1.532  0.1127 -0.0187 -0.0826
  749TMC3    C411067   1.229   2.499   1.430 -0.1998  1.1372  0.0283
  749TMC3    C511068   1.345   2.525   1.358 -0.0377  0.7666  0.6164
  749TMC3    C611069   1.474   2.499   1.404  0.2120 -0.2169 -0.4557
  749TMC3     C11070   1.134   2.409   1.638  0.4875  1.1700 -0.6487
  749TMC3     O11071   1.151   2.333   1.732  0.0910  0.0517  0.1237
  749TMC3     H11072   1.381   2.376   1.707 -0.5870 -0.8244 -0.6296
  749TMC3    H111073   1.133   2.535   1.394 -0.4171  1.2816  0.7534
  749TMC3    H211074   1.567   2.521   1.352  0.1119 -2.2344 -1.5115
  749TMC3    C711075   1.342   2.618   1.241 -0.8481 -0.3992  0.1185
  749TMC3    C811076   1.609   2.434   1.600  0.1517  0.7713 -0.3326
  749TMC3    O111077   1.433   2.693   1.216  0.4332  0.7629  0.0134
  749TMC3    O211078   1.609   2.441   1.722 -0.3158 -0.4667  0.1509
  750MPD2     C11079   2.035   3.032  11.445  0.3232  0.1810 -0.6410
  750MPD2    C111080   1.912   3.048  11.380  0.0034 -0.3145 -0.3284
  750MPD2    C211081   1.891   2.959  11.274  0.0677 -0.1876 -0.3212
  750MPD2    C311082   1.981   2.856  11.248 -0.3480  0.5721 -0.7129
  750MPD2    C411083   2.095   2.843  11.321  0.2379 -0.1676 -0.3064
  750MPD2    C511084   2.116   2.924  11.428 -0.4807  0.1040 -0.0765
  750MPD2     H11085   1.805   2.969  11.209 -1.0431  1.0273  1.3598
  750MPD2    H111086   2.169   2.768  11.295 -0.6053 -1.3698  0.7590
  750MPD2    H211087   2.063   3.110  11.515 -0.4687 -0.2601  0.1842
  750MPD2    H311088   2.207   2.915  11.487 -1.0202  2.4305  1.1235
  750MPD2     N11089   1.956   2.745  11.155  0.0349  0.8063 -0.2454
  750MPD2    H511090   2.018   2.665  11.160  0.5627  1.1384 -1.6057
  750MPD2    N111091   1.832   3.155  11.417  0.2061  0.2921 -0.6765
  750MPD2    H711092   1.865   3.212  11.495  0.6168 -1.3525  0.3368
  751TMC3    C111093   1.828   2.615  11.000  0.2814  0.2558 -0.0605
  751TMC3    C211094   1.708   2.561  10.971 -0.2639  0.1122  0.2161
  751TMC3    C311095   1.705   2.443  10.889 -0.1218  0.0551 -0.1943
  751TMC3    C411096   1.951   2.560  10.957 -0.7046  0.1644 -0.0337
  751TMC3    C511097   1.941   2.449  10.883 -0.4513  0.6689 -0.6930
  751TMC3    C611098   1.823   2.398  10.839  0.7739  0.2226  0.0419
  751TMC3     C11099   1.834   2.731  11.085  0.5892 -0.9629  0.2072
  751TMC3     O11100   1.734   2.802  11.073 -0.0862  0.0757  0.6371
  751TMC3     H11101   1.610   2.602  10.994 -0.2835  0.0175  0.3023
  751TMC3    H111102   2.045   2.611  10.970 -0.5608  0.1736 -1.0924
  751TMC3    H211103   1.825   2.305  10.783 -0.5068  0.4701 -0.4108
  751TMC3    C711104   2.057   2.367  10.858  0.6122  0.1567 -0.0168
  751TMC3    C811105   1.593   2.350  10.897 -0.1681  0.3271  0.0685
  751TMC3    O111106   2.053   2.296  10.758  0.4942 -0.0296  0.3655
  751TMC3    O211107   1.592   2.268  10.806 -0.0735  0.6093  0.7226
  752TMC3    C111108   4.691   2.612  16.994 -0.4085  0.5556  0.5410
  752TMC3    C211109   4.614   2.637  17.102 -0.0277  0.2034 -0.3478
  752TMC3    C311110   4.679   2.656  17.223  0.2292 -0.2483 -0.1174
  752TMC3    C411111   0.107   2.598  17.001 -0.0545  0.1037 -0.3220
  752TMC3    C511112   0.164   2.613  17.122  0.2201 -0.8868 -0.0347
  752TMC3    C611113   0.095   2.640  17.237  0.0056 -0.9776  0.4427
  752TMC3     C11114   4.628   2.576  16.864  0.1014  0.0821 -0.4390
  752TMC3     O11115   4.692   2.500  16.783  0.3774  0.6331 -0.3503
  752TMC3     H11116   4.506   2.646  17.099 -0.3171 -2.8536  1.1853
  752TMC3    H111117   0.169   2.571  16.917  0.3567  0.4340 -0.1234
  752TMC3    H211118   0.141   2.654  17.335  1.9470  0.1832 -0.6212
  752TMC3    C711119   0.309   2.635  17.108  0.4317  0.4647  0.0946
  752TMC3    C811120   4.592   2.666  17.338 -1.0581  0.1562 -0.1074
  752TMC3    O111121   0.363   2.565  17.023  1.2299 -0.0442  0.1241
  752TMC3    O211122   4.644   2.646  17.446 -0.4146  0.0898 -0.8381
  753TMC3    C111123   2.480   4.101  13.689 -0.7729  0.8445 -0.6866
  753TMC3    C211124   2.351   4.128  13.732 -0.6960  0.2423 -0.1184
  753TMC3    C311125   2.257   4.026  13.748 -0.6235 -0.2241  0.2803
  753TMC3    C411126   2.511   3.973  13.665  0.1492 -0.4230  0.4639
  753TMC3    C511127   2.410   3.877  13.666 -0.1656  0.4243 -0.2865
  753TMC3    C611128   2.286   3.898  13.711  0.2955  0.6363  0.3535
  753TMC3     C11129   2.582   4.197  13.715 -0.2761  0.5523 -0.3178
  753TMC3     O11130   2.557   4.274  13.804  0.2055  0.0800 -0.3347
  753TMC3     H11131   2.324   4.230  13.756 -1.1515  0.3277 -1.0029
  753TMC3    H111132   2.607   3.930  13.637  1.1692  2.4355 -0.4025
  753TMC3    H211133   2.210   3.822  13.724  1.3027 -0.3226  0.6481
  753TMC3    C711134   2.425   3.775  13.560 -0.0665  0.1875  0.4014
  753TMC3    C811135   2.192   4.035  13.873 -0.2022  0.5124  0.5358
  753TMC3    O111136   2.535   3.725  13.544 -0.0507 -0.5022 -0.2093
  753TMC3    O211137   2.099   3.957  13.890 -0.7262  0.5619  0.1259
  754MPD2     C11138   1.451   2.958  12.891 -0.7755 -0.3927 -0.6851
  754MPD2    C111139   1.475   2.829  12.936  0.3476 -0.3857  0.1895
  754MPD2    C211140   1.363   2.749  12.941 -0.3469  0.6307  0.7091
  754MPD2    C311141   1.235   2.791  12.928  0.0524  0.1235 -0.4714
  754MPD2    C411142   1.215   2.921  12.897  0.1434 -0.6942 -0.0414
  754MPD2    C511143   1.323   3.005  12.867  0.1460 -0.0806  0.0410
  754MPD2     H11144   1.385   2.646  12.971 -0.8822  0.2441 -0.2439
  754MPD2    H111145   1.116   2.966  12.889  1.0497  1.4772  1.1926
  754MPD2    H211146   1.534   3.023  12.867 -0.6239 -0.8119 -1.2830
  754MPD2    H311147   1.315   3.105  12.826  0.3535  0.5766  1.6059
  754MPD2     N11148   1.121   2.712  12.944 -0.1573 -0.1954 -0.6490
  754MPD2    H511149   1.033   2.742  12.904  1.0557  1.6406 -1.9156
  754MPD2    N111150   1.607   2.787  12.967 -0.2313 -0.0561  0.2428
  754MPD2    H711151   1.620   2.690  12.994  1.8244  0.4172  0.9900
  755MPD2     C11152   0.121   2.512  13.110 -0.3709 -0.7315 -0.0462
  755MPD2    C111153   0.210   2.622  13.122 -0.0908  0.4057 -0.1638
  755MPD2    C211154   0.343   2.616  13.084  0.4325  0.7270 -0.9200
  755MPD2    C311155   0.392   2.498  13.030  0.4889 -0.3625  0.8351
  755MPD2    C411156   0.300   2.395  13.007 -0.1785 -0.7480 -0.1014
  755MPD2    C511157   0.170   2.400  13.052 -0.9709  0.3413  0.2431
  755MPD2     H11158   0.397   2.709  13.076  1.0848  0.2739 -1.7510
  755MPD2    H111159   0.343   2.304  12.966  0.8345  0.8658 -2.6093
  755MPD2    H211160   0.021   2.510  13.150 -0.6707  1.3411 -0.6963
  755MPD2    H311161   0.114   2.307  13.044  0.2923 -0.5119  1.4044
  755MPD2     N11162   0.533   2.476  13.005  0.0013 -0.2851 -0.4045
  755MPD2    H511163   0.556   2.387  12.962 -1.7303 -0.8342 -0.2263
  755MPD2    N111164   0.159   2.744  13.175  0.2275  0.0447  0.2726
  755MPD2    H711165   0.220   2.824  13.186  2.1061 -1.1417 -1.4899
  756MPD2     C11166   1.994   2.662   9.515 -0.3521 -0.1261 -0.3969
  756MPD2    C111167   2.068   2.654   9.631 -0.9152  0.0415 -0.2694
  756MPD2    C211168   2.076   2.532   9.696 -0.6895 -0.4584 -0.3427
  756MPD2    C311169   2.018   2.417   9.650 -0.1433 -0.1179  0.0322
  756MPD2    C411170   1.932   2.426   9.539  0.2518  0.1663 -0.1294
  756MPD2    C511171   1.925   2.549   9.473 -0.0192  0.5143 -0.2602
  756MPD2     H11172   2.141   2.518   9.782  0.8347  3.4829 -0.8670
  756MPD2    H111173   1.874   2.343   9.500 -1.3189  1.0199  0.3933
  756MPD2    H211174   1.978   2.755   9.462  0.1299  0.1902  0.0129
  756MPD2    H311175   1.849   2.572   9.400 -1.2230  0.3118  0.9342
  756MPD2     N11176   2.053   2.297   9.715  0.0693  0.1269  0.3414
  756MPD2    H511177   2.120   2.291   9.791  1.7801  0.3114 -1.1713
  756MPD2    N111178   2.150   2.757   9.685  0.1497 -0.7041 -0.2071
  756MPD2    H711179   2.190   2.741   9.777 -0.5155  0.1385  0.2319
  757MPD2     C11180   1.630   1.298   9.733  0.2670  0.3752  0.5842
  757MPD2    C111181   1.766   1.282   9.708  0.6071 -0.9266  0.4867
  757MPD2    C211182   1.854   1.386   9.724 -0.5148  0.3836  0.7641
  757MPD2    C311183   1.808   1.510   9.766 -0.0282  0.7216  0.1399
  757MPD2    C411184   1.676   1.521   9.804 -0.5950 -0.1704  0.6642
  757MPD2    C511185   1.591   1.413   9.787 -0.4345 -0.4331 -0.4195
  757MPD2     H11186   1.956   1.370   9.690 -0.0719  3.4494  0.6472
  757MPD2    H111187   1.635   1.616   9.835 -1.6842 -0.7294  0.9608
  757MPD2    H211188   1.556   1.218   9.727  0.0918  0.5013  1.1023
  757MPD2    H311189   1.488   1.418   9.818 -0.2614 -0.8663  0.2271
  757MPD2     N11190   1.900   1.623   9.768 -0.0694 -0.2252  0.2442
  757MPD2    H511191   1.995   1.606   9.736 -0.1584 -1.5647  0.6889
  757MPD2    N111192   1.801   1.153   9.659  0.2342 -0.0626 -0.1880
  757MPD2    H711193   1.725   1.086   9.650 -2.0434  2.3074  1.0973
  758MPD2     C11194   1.474   2.368  15.845  0.2641  0.1766  0.4762
  758MPD2    C111195   1.573   2.371  15.946  0.3353  0.4063  0.7858
  758MPD2    C211196   1.536   2.328  16.077  0.5078 -0.6616  0.0011
  758MPD2    C311197   1.409   2.278  16.099  0.3273  0.4769 -0.5107
  758MPD2    C411198   1.317   2.275  15.995 -0.0619 -0.2966  0.8412
  758MPD2    C511199   1.351   2.313  15.867  0.1164 -0.5020  1.1566
  758MPD2     H11200   1.605   2.335  16.160 -2.1878 -0.6312  2.2245
  758MPD2    H111201   1.218   2.232  16.006  0.1437 -0.8084  0.6477
  758MPD2    H211202   1.497   2.408  15.747  2.4510 -0.3358  0.7841
  758MPD2    H311203   1.269   2.315  15.796 -1.8913 -1.8360  3.4445
  758MPD2     N11204   1.358   2.241  16.222 -0.0955 -0.4517 -0.3971
  758MPD2    H511205   1.263   2.208  16.229  0.7386 -2.4035  1.7104
  758MPD2    N111206   1.702   2.409  15.902 -0.3729  0.1278 -0.0964
  758MPD2    H711207   1.713   2.435  15.805 -0.6827  1.0704  0.1236
  759MPD2     C11208   0.418   0.452   9.834 -0.6036 -0.0058  0.0197
  759MPD2    C111209   0.502   0.475   9.942  0.4556 -0.8497  0.1628
  759MPD2    C211210   0.641   0.490   9.923 -0.0629 -0.6256 -0.2246
  759MPD2    C311211   0.688   0.487   9.796 -0.1317 -0.1006 -0.1115
  759MPD2    C411212   0.602   0.471   9.692  0.0022 -0.4144  0.5672
  759MPD2    C511213   0.468   0.457   9.711  0.2429 -0.1248 -0.3258
  759MPD2     H11214   0.713   0.518   9.999  0.4520  3.8029 -2.3032
  759MPD2    H111215   0.635   0.462   9.590 -1.4410 -1.0928  0.1625
  759MPD2    H211216   0.311   0.435   9.840 -0.7605 -0.3682 -3.7471
  759MPD2    H311217   0.410   0.442   9.621  1.1609  5.3392 -1.8283
  759MPD2     N11218   0.828   0.497   9.782 -0.1202 -0.1900  0.0148
  759MPD2    H511219   0.882   0.522   9.865 -0.8206 -2.2062  1.0502
  759MPD2    N111220   0.455   0.478  10.073  0.3481  0.6126 -0.3364
  759MPD2    H711221   0.354   0.468  10.074  0.1522  2.8761  2.6941
  760MPD2     C11222   0.147   2.644  11.949 -0.7492 -0.6570  0.2617
  760MPD2    C111223   0.279   2.682  11.946  0.2936  1.1643 -0.2023
  760MPD2    C211224   0.374   2.630  12.031 -0.3658  0.1880 -0.7745
  760MPD2    C311225   0.334   2.539  12.131 -0.7515  0.8117 -0.8475
  760MPD2    C411226   0.200   2.510  12.145  0.2914 -0.9866  0.9526
  760MPD2    C511227   0.110   2.556  12.053 -1.2607  0.4190  0.3158
  760MPD2     H11228   0.467   2.684  12.043 -0.0407 -0.1266 -1.8944
  760MPD2    H111229   0.173   2.445  12.228  0.4660 -0.2316  1.5946
  760MPD2    H211230   0.064   2.677  11.889  0.2442 -1.3556 -1.4839
  760MPD2    H311231   0.008   2.519  12.055 -0.0963 -2.8329  0.9768
  760MPD2     N11232   0.426   2.480  12.220 -0.3242 -0.0691  0.1321
  760MPD2    H511233   0.386   2.430  12.298  0.1481 -0.3663  0.1839
  760MPD2    N111234   0.323   2.779  11.850 -0.4621 -0.3728 -0.0600
  760MPD2    H711235   0.421   2.802  11.859 -0.7758  0.9862 -0.1692
  761MPD2     C11236   1.306   2.064  11.202  0.2762  0.6823 -0.0087
  761MPD2    C111237   1.343   2.040  11.073  0.4688  0.4242  0.3327
  761MPD2    C211238   1.405   2.141  11.002 -0.0353 -0.1449  0.2721
  761MPD2    C311239   1.432   2.264  11.059 -0.7617  0.0160 -0.1257
  761MPD2    C411240   1.396   2.282  11.185  0.5943  0.0439 -0.1446
  761MPD2    C511241   1.329   2.187  11.258 -0.1040 -0.5697  0.7721
  761MPD2     H11242   1.433   2.124  10.899  2.2850  0.4747  0.8012
  761MPD2    H111243   1.405   2.372  11.246 -0.2420  0.5464 -0.7644
  761MPD2    H211244   1.259   1.982  11.254 -1.6787  2.9629  1.8355
  761MPD2    H311245   1.308   2.204  11.363  0.4340  1.1812  0.6007
  761MPD2     N11246   1.521   2.363  11.011  0.0556 -0.1323 -0.0925
  761MPD2    H511247   1.541   2.439  11.075  0.9716 -0.5609  0.1352
  761MPD2    N111248   1.346   1.910  11.014  0.2447  0.1152  0.1522
  761MPD2    H711249   1.344   1.830  11.077 -1.0184 -0.3061 -0.4397
  762MPD2     C11250   1.918   1.948  10.695  0.2368  1.3305  0.1147
  762MPD2    C111251   1.881   1.814  10.669 -0.2241 -0.0620 -0.6008
  762MPD2    C211252   1.966   1.736  10.591 -0.1623 -0.5290 -0.2707
  762MPD2    C311253   2.086   1.782  10.543 -1.0050  1.1576 -0.0817
  762MPD2    C411254   2.122   1.910  10.573 -0.3546  0.4051  0.1542
  762MPD2    C511255   2.042   1.993  10.651 -0.6697 -0.0498  0.3626
  762MPD2     H11256   1.930   1.638  10.565  1.9492 -2.0406  2.4583
  762MPD2    H111257   2.218   1.954  10.546  0.0193  0.0237  0.8453
  762MPD2    H211258   1.842   2.012  10.740 -1.2373 -0.3690  0.0627
  762MPD2    H311259   2.067   2.098  10.649 -1.9966  0.2763  0.6147
  762MPD2     N11260   2.159   1.681  10.478  0.8848  0.4518  0.2822
  762MPD2    H511261   2.113   1.591  10.465  0.8244  0.6490 -0.8925
  762MPD2    N111262   1.757   1.774  10.717 -0.4721 -0.1134  0.3894
  762MPD2    H711263   1.696   1.835  10.770  0.8731  1.0820  0.5376
  763MPD2     C11264   3.242   2.639  16.175  0.2705 -0.4255  0.9943
  763MPD2    C111265   3.123   2.689  16.127 -0.3410  0.3653 -0.2285
  763MPD2    C211266   3.088   2.821  16.165  0.0701 -0.4905  0.2394
  763MPD2    C311267   3.174   2.894  16.241  0.0212  0.1777 -0.0633
  763MPD2    C411268   3.274   2.832  16.305  0.1150 -0.6780 -0.3938
  763MPD2    C511269   3.310   2.705  16.270 -0.1614  0.8858  0.6623
  763MPD2     H11270   3.001   2.868  16.120 -0.2198 -1.2781 -0.0137
  763MPD2    H111271   3.332   2.885  16.380  0.8431 -0.0885 -1.3743
  763MPD2    H211272   3.282   2.540  16.157  4.2320  1.5788 -1.1960
  763MPD2    H311273   3.404   2.663  16.307  0.1820  1.3226  0.2860
  763MPD2     N11274   3.154   3.029  16.271  0.2544 -0.0444 -0.9521
  763MPD2    H511275   3.223   3.069  16.334 -0.1041 -0.4464 -0.2982
  763MPD2    N111276   3.041   2.617  16.036 -0.6508 -0.1332 -0.3201
  763MPD2    H711277   2.959   2.668  16.006  0.0242  0.0770 -1.8001
  764MPD2     C11278   0.770   4.465  17.326 -0.1924 -0.3205 -0.1531
  764MPD2    C111279   0.842   4.376  17.252  0.1735  0.7942 -0.1319
  764MPD2    C211280   0.953   4.317  17.301 -0.4252  0.4463 -0.1626
  764MPD2    C311281   0.982   4.327  17.437 -0.0695 -0.1427  0.2849
  764MPD2    C411282   0.910   4.417  17.522  0.3162  1.1433  0.2945
  764MPD2    C511283   0.807   4.485  17.462 -0.1842  0.0039 -0.0749
  764MPD2     H11284   1.011   4.256  17.233 -1.6975  0.0833 -0.9251
  764MPD2    H111285   0.919   4.432  17.628 -0.4229  1.9976  0.2367
  764MPD2    H211286   0.688   4.516  17.278  0.6288  1.0883 -0.0658
  764MPD2    H311287   0.758   4.561  17.523  0.3307  0.4965 -0.2682
  764MPD2     N11288   1.086   4.245  17.478 -0.2759  0.1747  0.8111
  764MPD2    H511289   1.121   4.176  17.413 -1.4130  1.0517 -0.7490
  764MPD2    N111290   0.824   4.346  17.117  0.1751  0.3437 -0.2763
  764MPD2    H711291   0.885   4.277  17.074 -1.8467 -0.9558 -1.0391
  765MPD2     C11292   0.464   1.842  16.247  0.0161  0.0641  0.6635
  765MPD2    C111293   0.461   1.780  16.119 -0.8623  1.5313 -0.7328
  765MPD2    C211294   0.548   1.685  16.088  0.4000  0.2870  0.4598
  765MPD2    C311295   0.657   1.656  16.174  0.0830  0.0179  0.0058
  765MPD2    C411296   0.656   1.713  16.303 -0.4525 -0.1812 -0.4306
  765MPD2    C511297   0.566   1.804  16.334 -0.1314 -0.1399 -0.3777
  765MPD2     H11298   0.553   1.651  15.985  0.5053 -1.6721  1.1149
  765MPD2    H111299   0.731   1.704  16.381 -0.6453 -0.3495 -0.2642
  765MPD2    H211300   0.391   1.918  16.275 -0.2560  0.2803 -0.6145
  765MPD2    H311301   0.572   1.846  16.434 -0.4108 -0.2435 -0.3190
  765MPD2     N11302   0.765   1.592  16.114 -0.1053 -0.7037 -0.2457
  765MPD2    H511303   0.748   1.576  16.015  0.8754  0.0327 -0.5342
  765MPD2    N111304   0.359   1.822  16.028 -0.0682  0.3099  0.0021
  765MPD2    H711305   0.295   1.891  16.067 -0.3940 -1.9921  3.5642
  766MPD2     C11306   0.575   1.647  15.526  0.1338  1.1008 -0.0497
  766MPD2    C111307   0.475   1.702  15.447  1.1781  0.3346  0.3261
  766MPD2    C211308   0.490   1.722  15.311  0.4412 -0.1101  0.4587
  766MPD2    C311309   0.617   1.700  15.256 -0.6750 -0.2845 -0.1386
  766MPD2    C411310   0.723   1.661  15.339 -0.1385 -0.3021 -0.2734
  766MPD2    C511311   0.701   1.632  15.473  1.3523  0.4356  0.0597
  766MPD2     H11312   0.404   1.754  15.253  1.2561 -1.0424 -1.2685
  766MPD2    H111313   0.818   1.632  15.296 -0.2782 -1.3914  0.1561
  766MPD2    H211314   0.565   1.646  15.634 -0.3661  2.5815 -0.0796
  766MPD2    H311315   0.781   1.599  15.538 -0.7093 -0.5158  2.1071
  766MPD2     N11316   0.648   1.720  15.119 -0.3814 -0.2439  0.4286
  766MPD2    H511317   0.747   1.721  15.094  0.2136  1.3839  2.9410
  766MPD2    N111318   0.362   1.746  15.522 -0.4242 -0.0294 -0.1251
  766MPD2    H711319   0.361   1.738  15.623  0.6935 -1.1000 -0.1956
  767MPD2     C11320   0.045   1.868  15.091  0.4882 -0.0703  0.0405
  767MPD2    C111321   0.148   1.936  15.029 -0.4674 -0.2202  0.6284
  767MPD2    C211322   0.170   1.917  14.894 -0.2296 -0.0252 -0.2291
  767MPD2    C311323   0.080   1.837  14.822 -0.0064 -0.6198  0.4088
  767MPD2    C411324   4.694   1.776  14.879 -0.4604 -0.2222  0.5981
  767MPD2    C511325   4.681   1.790  15.018  0.3992  0.1162 -0.4002
  767MPD2     H11326   0.242   1.983  14.847 -2.5399  1.5968 -1.5212
  767MPD2    H111327   4.624   1.719  14.820  0.0985  0.2268 -0.4960
  767MPD2    H211328   0.025   1.882  15.196 -3.7012  0.3522 -0.7990
  767MPD2    H311329   4.597   1.742  15.068  0.8173  0.2206  0.4085
  767MPD2     N11330   0.100   1.832  14.681 -0.0519 -0.0507 -0.4559
  767MPD2    H511331   0.188   1.875  14.653  0.5961 -0.2211  1.3198
  767MPD2    N111332   0.236   2.000  15.124  0.0646 -0.2511 -0.2354
  767MPD2    H711333   0.231   1.957  15.216 -1.4051  1.8699  0.6689
  768MPD2     C11334   1.769   0.267  10.651 -0.3624 -0.1204 -0.0459
  768MPD2    C111335   1.730   0.223  10.776  0.2259  0.1157 -0.0505
  768MPD2    C211336   1.815   0.252  10.882  0.0469 -0.1499  0.4616
  768MPD2    C311337   1.934   0.322  10.864  0.0561  0.6966  0.1192
  768MPD2    C411338   1.969   0.367  10.743 -0.4260 -0.6500  0.6800
  768MPD2    C511339   1.886   0.343  10.640  0.1181 -0.9965 -0.1985
  768MPD2     H11340   1.788   0.207  10.977 -4.6567  0.3187 -0.6709
  768MPD2    H111341   2.069   0.408  10.733 -0.0804 -0.8315  3.3677
  768MPD2    H211342   1.715   0.255  10.557  1.1893 -4.0746 -0.4085
  768MPD2    H311343   1.925   0.380  10.545 -2.1879  3.2949  0.5193
  768MPD2     N11344   2.013   0.339  10.979 -0.1823  0.0794  0.2900
  768MPD2    H511345   2.090   0.405  10.982 -0.4924  0.4642 -0.1528
  768MPD2    N111346   1.613   0.141  10.798  0.0920 -0.0604  0.0163
  768MPD2    H711347   1.607   0.103  10.892 -1.3843 -0.6985 -0.3388
  769MPD2     C11348   2.146   3.187  14.571  0.5634 -0.0972 -0.3984
  769MPD2    C111349   2.040   3.185  14.657 -0.3388  0.6583  0.4587
  769MPD2    C211350   2.051   3.247  14.785  0.3303  0.0524 -0.1326
  769MPD2    C311351   2.172   3.307  14.819  0.2188  0.1469  0.1725
  769MPD2    C411352   2.273   3.314  14.728 -0.2528  0.4286 -0.2996
  769MPD2    C511353   2.262   3.250  14.608 -0.6958 -0.8745 -0.5974
  769MPD2     H11354   1.984   3.236  14.869  1.3919  0.4247  0.7711
  769MPD2    H111355   2.362   3.374  14.741  1.4216 -1.6973 -1.8188
  769MPD2    H211356   2.145   3.146  14.470  1.4864  0.0852 -0.4836
  769MPD2    H311357   2.349   3.252  14.543  0.8787  2.0273  1.5440
  769MPD2     N11358   2.176   3.346  14.952  0.5431  0.2381  0.5079
  769MPD2    H511359   2.098   3.316  15.009 -0.4120  0.7957 -0.4989
  769MPD2    N111360   1.926   3.118  14.622 -0.4451 -0.6579 -1.1459
  769MPD2    H711361   1.924   3.068  14.534 -0.8320  0.2226 -1.6360
  770MPD2     C11362   1.140   2.420  14.961  0.1328 -0.7557  0.9514
  770MPD2    C111363   1.227   2.364  14.870 -0.0596 -0.1517 -0.2732
  770MPD2    C211364   1.312   2.444  14.791 -0.2521  0.0511  0.4865
  770MPD2    C311365   1.327   2.581  14.813  0.1456  0.6706 -0.5662
  770MPD2    C411366   1.244   2.626  14.917  0.6303  0.2465  0.0637
  770MPD2    C511367   1.155   2.550  14.983 -0.0110 -0.1885  0.0763
  770MPD2     H11368   1.372   2.403  14.710 -0.1601  0.0965  0.5309
  770MPD2    H111369   1.241   2.727  14.955  0.3360 -0.1021  0.9465
  770MPD2    H211370   1.087   2.357  15.031 -3.5121  1.5179  0.2300
  770MPD2    H311371   1.087   2.586  15.060  0.0372 -0.0755  0.0664
  770MPD2     N11372   1.418   2.665  14.742  0.1504 -1.0448 -0.2581
  770MPD2    H511373   1.467   2.617  14.667  2.1908 -0.5898  0.7865
  770MPD2    N111374   1.242   2.228  14.880  0.3674  0.4543 -0.0179
  770MPD2    H711375   1.190   2.188  14.957  1.2486 -0.1858  0.2411
  771MPD2     C11376   3.675   1.438  14.122  0.4879  0.5270 -0.3261
  771MPD2    C111377   3.611   1.487  14.007 -0.6118 -0.4236  0.2618
  771MPD2    C211378   3.528   1.404  13.930  0.2380 -0.0982 -0.6917
  771MPD2    C311379   3.517   1.276  13.979  0.0273  0.3854  0.0257
  771MPD2    C411380   3.579   1.227  14.090 -0.1988  0.2319 -0.2880
  771MPD2    C511381   3.669   1.303  14.157  0.4942  0.4079  0.3263
  771MPD2     H11382   3.477   1.434  13.840  1.5204  0.5894 -1.1935
  771MPD2    H111383   3.577   1.125  14.126  2.8648  0.4497  0.5048
  771MPD2    H211384   3.727   1.511  14.183  2.7832 -1.2042 -0.2214
  771MPD2    H311385   3.715   1.261  14.246  3.0195 -1.5838 -1.9015
  771MPD2     N11386   3.439   1.185  13.900  0.5957  0.1775 -0.0262
  771MPD2    H511387   3.413   1.220  13.809 -2.5195 -0.7904  0.5031
  771MPD2    N111388   3.612   1.628  13.982 -0.0786  0.0928  0.2537
  771MPD2    H711389   3.556   1.659  13.904 -0.6117 -0.7894  0.2944
  772MPD2     C11390   3.183   1.981  13.576  0.3620  0.2097 -0.2292
  772MPD2    C111391   3.202   1.964  13.713 -0.2237  0.8232  0.2105
  772MPD2    C211392   3.096   1.961  13.804  0.2895  0.4460  0.3013
  772MPD2    C311393   2.966   1.973  13.751 -0.1423  0.4495  0.3131
  772MPD2    C411394   2.946   1.993  13.617 -0.2225  0.1947  0.4457
  772MPD2    C511395   3.056   1.991  13.532 -0.2520  0.1360 -0.4633
  772MPD2     H11396   3.109   1.949  13.911  1.2866  2.0446  0.3535
  772MPD2    H111397   2.846   2.018  13.583  0.5710  1.1954 -1.1115
  772MPD2    H211398   3.256   1.981  13.496 -0.7089  2.6441 -1.2120
  772MPD2    H311399   3.038   1.995  13.425 -1.7550 -2.0114 -0.2993
  772MPD2     N11400   2.850   1.975  13.829 -0.0049  0.0554  0.5148
  772MPD2    H511401   2.760   1.988  13.784  0.1800  1.6069  0.5837
  772MPD2    N111402   3.332   1.941  13.768  0.4423  0.0609  0.2263
  772MPD2    H711403   3.334   1.944  13.869 -0.4017  0.4405  0.2372
  773MPD2     C11404   1.915   2.979   0.635 -0.0107 -0.7040  0.0073
  773MPD2    C111405   1.869   2.932   0.519 -0.2523  0.3612 -0.2162
  773MPD2    C211406   1.893   2.802   0.478 -0.0511 -0.4121 -0.0856
  773MPD2    C311407   1.968   2.716   0.554  0.2068  0.5728 -1.0440
  773MPD2    C411408   2.020   2.768   0.672 -0.5026 -1.0546 -0.7023
  773MPD2    C511409   2.000   2.899   0.706 -0.0028 -0.4446  0.0838
  773MPD2     H11410   1.856   2.765   0.383 -0.1701 -1.7808  0.4985
  773MPD2    H111411   2.087   2.707   0.731 -0.4390 -1.2524 -0.9795
  773MPD2    H211412   1.895   3.080   0.669 -0.1702 -0.1501 -1.7426
  773MPD2    H311413   2.036   2.943   0.799 -2.3863  0.0784  0.7445
  773MPD2     N11414   1.997   2.590   0.497 -0.6715  0.0672  0.0371
  773MPD2    H511415   1.967   2.582   0.400 -1.0742 -2.0140  0.3529
  773MPD2    N111416   1.775   2.996   0.433 -0.4916  0.2450  0.3649
  773MPD2    H711417   1.724   2.944   0.361 -0.0710  2.2774 -1.3866
  774MPD2     C11418   1.613   1.960  13.257  0.5300  0.1376  0.1560
  774MPD2    C111419   1.588   2.053  13.356 -0.6505 -0.0818 -0.0196
  774MPD2    C211420   1.625   2.181  13.336 -0.0762  0.7580 -0.1138
  774MPD2    C311421   1.698   2.217  13.223 -0.1435 -0.2362  0.3165
  774MPD2    C411422   1.720   2.121  13.125  0.5297 -0.2329  0.0234
  774MPD2    C511423   1.681   1.991  13.147 -0.0866  0.3969 -0.3728
  774MPD2     H11424   1.605   2.250  13.416 -0.9761  1.5294 -1.0106
  774MPD2    H111425   1.780   2.144  13.038 -2.0588 -2.0729 -2.2544
  774MPD2    H211426   1.591   1.855  13.274  1.3285 -0.1677 -0.7256
  774MPD2    H311427   1.692   1.911  13.075  0.8547  0.1428  0.0631
  774MPD2     N11428   1.735   2.355  13.213  1.0484  0.4188  0.1027
  774MPD2    H511429   1.719   2.418  13.292 -0.2737 -0.0206  0.1817
  774MPD2    N111430   1.526   2.000  13.470  0.7368 -0.4603 -0.4192
  774MPD2    H711431   1.499   1.902  13.468  0.3387 -0.3389 -0.8882
  775MPD2     C11432   2.246   3.238  15.592 -0.2344  0.0478  0.5010
  775MPD2    C111433   2.261   3.330  15.692  1.1002 -0.0280 -0.7268
  775MPD2    C211434   2.374   3.406  15.690  0.5680 -0.3296 -0.3424
  775MPD2    C311435   2.481   3.394  15.594  0.3118 -0.4057 -0.2565
  775MPD2    C411436   2.462   3.298  15.499  0.4456  0.2898  0.0313
  775MPD2    C511437   2.347   3.228  15.499 -0.6358  0.2481  0.0567
  775MPD2     H11438   2.398   3.468  15.775  1.0037 -1.9299  0.7097
  775MPD2    H111439   2.534   3.266  15.425  1.7626  0.6017  1.1716
  775MPD2    H211440   2.155   3.181  15.579 -0.7159  0.9488 -0.1045
  775MPD2    H311441   2.333   3.146  15.429 -0.0040 -0.4538  0.7608
  775MPD2     N11442   2.605   3.471  15.589 -0.1170  0.3966  0.0443
  775MPD2    H511443   2.664   3.466  15.506 -1.5247  2.1405 -1.0646
  775MPD2    N111444   2.165   3.328  15.786  0.2097 -0.1733 -0.3813
  775MPD2    H711445   2.089   3.263  15.768 -0.3879  0.1248  1.0922
  776MPD2     C11446   2.106   3.546  11.810  0.0877 -0.5492  0.0283
  776MPD2    C111447   2.003   3.614  11.752  0.1916  0.2807  0.2643
  776MPD2    C211448   2.002   3.749  11.744  0.3602  0.2980  0.0130
  776MPD2    C311449   2.108   3.823  11.805  0.5616 -0.1440  0.5307
  776MPD2    C411450   2.213   3.748  11.865  0.2345 -0.3059 -0.6941
  776MPD2    C511451   2.202   3.613  11.874 -0.4573 -1.3765 -0.8757
  776MPD2     H11452   1.918   3.795  11.694  0.5167 -0.3175 -0.8323
  776MPD2    H111453   2.294   3.802  11.913 -1.0926 -0.1203  1.3629
  776MPD2    H211454   2.102   3.440  11.832  2.5505 -0.3323  1.5659
  776MPD2    H311455   2.271   3.561  11.940 -2.0804 -0.3274  1.6462
  776MPD2     N11456   2.120   3.968  11.803  0.4487  0.1215 -0.2509
  776MPD2    H511457   2.199   4.000  11.857  0.5605  1.4517 -1.2051
  776MPD2    N111458   1.891   3.534  11.702 -0.0072 -0.0788  0.2121
  776MPD2    H711459   1.909   3.434  11.694  2.1456  0.2573  0.6848
  777MPD2     C11460   2.213   1.753   0.794  0.2932  0.1713  0.4915
  777MPD2    C111461   2.227   1.667   0.900  0.5604  0.0215 -0.9898
  777MPD2    C211462   2.227   1.529   0.881  0.4005  0.2703 -0.1820
  777MPD2    C311463   2.227   1.478   0.757 -0.5845 -0.2796  0.1343
  777MPD2    C411464   2.223   1.567   0.644  0.5935  0.5863 -0.3974
  777MPD2    C511465   2.213   1.704   0.670  0.1008  0.6226 -0.0655
  777MPD2     H11466   2.248   1.457   0.959 -2.7008 -0.5246 -0.0540
  777MPD2    H111467   2.220   1.533   0.541 -0.9678  0.0274 -0.1709
  777MPD2    H211468   2.208   1.861   0.809 -1.5516 -0.0470  1.4560
  777MPD2    H311469   2.203   1.773   0.587 -0.4702 -1.2786 -1.5641
  777MPD2     N11470   2.226   1.340   0.743 -0.4824 -0.1648 -0.1090
  777MPD2    H511471   2.231   1.273   0.819  3.9247 -0.1580 -0.4266
  777MPD2    N111472   2.256   1.725   1.027 -0.2461 -0.2020  0.1932
  777MPD2    H711473   2.269   1.826   1.031  1.1685 -0.4105  0.4763
  778MPD2     C11474   2.871   1.450  15.003  0.6303 -0.6439  0.4269
  778MPD2    C111475   2.903   1.348  14.918 -0.4735 -0.3545  1.2265
  778MPD2    C211476   2.984   1.384  14.804 -0.1446  0.2226 -0.0274
  778MPD2    C311477   3.033   1.510  14.790  0.3448 -0.3964  0.0228
  778MPD2    C411478   3.005   1.614  14.879  0.3983  0.1965  0.1792
  778MPD2    C511479   2.921   1.573  14.986 -0.2023  0.0441  0.3003
  778MPD2     H11480   3.009   1.297  14.744  0.8100  0.4921 -0.0080
  778MPD2    H111481   3.052   1.709  14.857  1.1200  0.2521  2.0073
  778MPD2    H211482   2.810   1.423  15.089 -0.0844 -1.2073 -0.2645
  778MPD2    H311483   2.908   1.650  15.062  0.2016 -0.3340  0.7522
  778MPD2     N11484   3.124   1.529  14.682  0.0498  0.1914 -0.5996
  778MPD2    H511485   3.145   1.450  14.622 -0.1719 -0.2737 -0.0647
  778MPD2    N111486   2.872   1.211  14.935  0.4843  0.2048  0.2609
  778MPD2    H711487   2.895   1.151  14.856 -3.6451  0.4746 -1.1431
  779MPD2     C11488   2.409   0.253  14.456 -0.3132 -0.2165  0.3257
  779MPD2    C111489   2.542   0.222  14.469  0.1900  1.0010  0.2046
  779MPD2    C211490   2.639   0.319  14.448  0.9489 -0.7556  0.1586
  779MPD2    C311491   2.602   0.446  14.405  0.5968 -0.2205 -0.0268
  779MPD2    C411492   2.474   0.469  14.365  0.0674  0.0820  0.1827
  779MPD2    C511493   2.377   0.374  14.399 -0.2147  0.0819 -0.2569
  779MPD2     H11494   2.745   0.298  14.465  0.7109 -1.0026  1.3179
  779MPD2    H111495   2.450   0.565  14.320 -0.6373  1.2622  3.0654
  779MPD2    H211496   2.331   0.180  14.471 -0.3777 -0.6269 -2.0423
  779MPD2    H311497   2.276   0.402  14.371  0.5699  2.1861 -1.0078
  779MPD2     N11498   2.708   0.531  14.387  0.6965 -0.1292  0.2140
  779MPD2    H511499   2.794   0.507  14.436 -0.6883 -1.4034  2.0128
  779MPD2    N111500   2.565   0.088  14.498  0.0584  0.2207  0.2383
  779MPD2    H711501   2.488   0.022  14.489  0.2729  0.0694 -0.4518
  780MPD2     C11502   1.885   0.682   0.994 -0.5205  0.5445  0.1340
  780MPD2    C111503   1.856   0.611   0.883  0.2629 -0.5264 -0.1277
  780MPD2    C211504   1.961   0.583   0.790 -0.1529  0.3009 -0.5434
  780MPD2    C311505   2.087   0.639   0.803  0.2293 -0.0384  0.2911
  780MPD2    C411506   2.108   0.728   0.905  0.2714  0.2455  0.1896
  780MPD2    C511507   2.013   0.743   1.002 -0.1925  0.3375  0.4365
  780MPD2     H11508   1.930   0.534   0.698 -0.2962 -2.8429  1.1621
  780MPD2    H111509   2.210   0.758   0.929 -0.0468  1.0628  0.5272
  780MPD2    H211510   1.818   0.694   1.078  0.3443 -0.8077  1.0195
  780MPD2    H311511   2.034   0.801   1.091  1.8187  1.0823 -0.5245
  780MPD2     N11512   2.187   0.606   0.708  0.3826 -0.4017  0.0391
  780MPD2    H511513   2.165   0.537   0.637  2.3134 -1.6814  0.7159
  780MPD2    N111514   1.732   0.549   0.864  0.1662  0.3510 -0.3926
  780MPD2    H711515   1.672   0.557   0.945 -0.3683 -0.0716 -0.7418
  781MPD2     C11516   0.346   2.198  12.067  0.1700  0.1177 -0.1945
  781MPD2    C111517   0.268   2.082  12.067  0.2116  0.5667 -0.3386
  781MPD2    C211518   0.233   2.020  11.952  0.0316  0.4885 -0.2411
  781MPD2    C311519   0.300   2.036  11.836  0.1039  0.0545 -0.3748
  781MPD2    C411520   0.388   2.140  11.835 -0.3207  0.2001 -0.1037
  781MPD2    C511521   0.405   2.225  11.946 -0.0446  0.0306  0.6001
  781MPD2     H11522   0.161   1.938  11.954  0.7696 -0.0932  3.2467
  781MPD2    H111523   0.444   2.156  11.743 -0.7318 -0.2740 -0.4386
  781MPD2    H211524   0.365   2.257  12.156  0.2120  1.0144 -0.8026
  781MPD2    H311525   0.469   2.313  11.935 -0.5714  0.3586  0.1494
  781MPD2     N11526   0.286   1.967  11.715 -0.3857  0.3218  0.4173
  781MPD2    H511527   0.332   2.001  11.632 -0.3504 -1.5102 -0.3309
  781MPD2    N111528   0.204   2.030  12.182  0.4144 -0.0051  0.5225
  781MPD2    H711529   0.147   1.946  12.177  1.3658 -0.5319 -1.5325
  782MPD2     C11530   2.675   2.219  10.176 -0.2196  0.6573  0.3019
  782MPD2    C111531   2.642   2.228  10.313  0.4266  0.5522  0.1816
  782MPD2    C211532   2.683   2.342  10.377  0.2173 -0.1851 -0.0168
  782MPD2    C311533   2.740   2.452  10.307  0.5934  0.6198 -0.0832
  782MPD2    C411534   2.766   2.445  10.173 -0.5082  0.0574  0.0056
  782MPD2    C511535   2.737   2.323  10.111  0.0302  0.0145  0.2516
  782MPD2     H11536   2.679   2.357  10.484  0.8060  2.0080 -0.3071
  782MPD2    H111537   2.814   2.525  10.117 -2.5583  0.7085 -0.8586
  782MPD2    H211538   2.646   2.129  10.123 -0.7531  0.2250  1.3310
  782MPD2    H311539   2.758   2.305  10.006  0.2166  0.1720  0.2606
  782MPD2     N11540   2.785   2.561  10.388 -0.5537  0.0554  0.1979
  782MPD2    H511541   2.770   2.551  10.488  1.4419 -2.0449  0.2923
  782MPD2    N111542   2.608   2.116  10.397 -0.0501  0.3346  0.5339
  782MPD2    H711543   2.587   2.128  10.495 -1.9555 -1.0619  0.3003
  783MPD2     C11544   2.361   2.358  11.065 -0.8010 -0.0583  0.1503
  783MPD2    C111545   2.270   2.303  10.971 -0.9461  0.4484  0.5050
  783MPD2    C211546   2.308   2.202  10.888  0.0784 -0.8092  0.5663
  783MPD2    C311547   2.425   2.138  10.920  0.0744 -0.8061  0.1327
  783MPD2    C411548   2.506   2.183  11.021 -0.2092 -1.3114 -0.7332
  783MPD2    C511549   2.476   2.291  11.101  0.6838  0.5544 -0.1696
  783MPD2     H11550   2.249   2.187  10.798 -0.1274  0.9151  0.4231
  783MPD2    H111551   2.603   2.138  11.034  1.0121  1.1557 -1.3380
  783MPD2    H211552   2.346   2.456  11.110  1.0207 -0.2103  1.0590
  783MPD2    H311553   2.555   2.325  11.167  0.1303  1.7691 -0.1431
  783MPD2     N11554   2.470   2.043  10.828  0.6276  0.3230  0.2062
  783MPD2    H511555   2.420   2.044  10.740  0.2756  0.3515  0.4091
  783MPD2    N111556   2.153   2.388  10.951  0.1110  0.3388  0.2024
  783MPD2    H711557   2.129   2.453  11.026  0.2441 -0.6597  1.1010
  784MPD2     C11558   4.567   2.796   1.653 -0.1616  0.0346 -1.0482
  784MPD2    C111559   4.601   2.922   1.617 -0.2256 -0.4890 -0.7634
  784MPD2    C211560   4.504   3.002   1.573  0.5290  0.5009 -0.7403
  784MPD2    C311561   4.374   2.965   1.556  0.5931 -0.4588  0.3877
  784MPD2    C411562   4.344   2.838   1.589  0.4849  0.0516  0.7683
  784MPD2    C511563   4.440   2.756   1.644  0.6382  0.0125  0.3264
  784MPD2     H11564   4.542   3.100   1.545  0.9189  0.0277 -1.8776
  784MPD2    H111565   4.242   2.802   1.586 -0.3223  2.4226 -0.1280
  784MPD2    H211566   4.639   2.725   1.691 -0.9653 -0.5231 -0.5794
  784MPD2    H311567   4.403   2.664   1.686 -0.2378  0.7773  1.2266
  784MPD2     N11568   4.279   3.065   1.510  0.2467  0.4969  0.6567
  784MPD2    H511569   4.322   3.156   1.492 -1.5200  1.1237 -0.4502
  784MPD2    N111570   0.011   2.967   1.601  0.1451  0.1938  0.5486
  784MPD2    H711571   0.016   3.066   1.579  2.9630 -0.0737 -0.1321
  785MPD2     C11572   0.671   0.642  10.783 -0.1681 -0.2256 -0.7057
  785MPD2    C111573   0.633   0.772  10.770  0.0053 -0.0728 -0.0846
  785MPD2    C211574   0.492   0.796  10.764  0.2584 -0.3513  1.0829
  785MPD2    C311575   0.409   0.689  10.751 -0.3339  0.6022  0.1502
  785MPD2    C411576   0.457   0.561  10.762 -0.6070  0.3325 -0.6263
  785MPD2    C511577   0.586   0.538  10.785 -0.5894  0.0820  0.4559
  785MPD2     H11578   0.446   0.894  10.763 -1.2092 -1.0696 -1.5590
  785MPD2    H111579   0.392   0.475  10.752 -0.1480 -0.1843  0.8343
  785MPD2    H211580   0.773   0.616  10.809  0.7891  3.0069 -1.1785
  785MPD2    H311581   0.626   0.438  10.797 -0.3024  0.2932  1.2636
  785MPD2     N11582   0.272   0.712  10.724 -0.1924 -0.0566 -0.9278
  785MPD2    H511583   0.250   0.811  10.713  1.6696  0.5792  1.1131
  785MPD2    N111584   0.731   0.862  10.795 -0.1787  0.2621  0.0255
  785MPD2    H711585   0.827   0.831  10.795 -0.2597 -0.0015 -1.9333
  786MPD2     C11586   3.129   4.019  15.081 -0.0792  0.2358 -0.1659
  786MPD2    C111587   3.251   4.041  15.018 -0.0159  0.1897 -0.8802
  786MPD2    C211588   3.369   4.069  15.088 -0.2364  0.1353 -0.1439
  786MPD2    C311589   3.366   4.058  15.227  0.1888 -0.1285  0.0771
  786MPD2    C411590   3.247   4.036  15.284 -0.2840  0.5183  0.1182
  786MPD2    C511591   3.133   4.011  15.216 -0.5955  0.0739  0.2880
  786MPD2     H11592   3.455   4.094  15.027 -0.2430  0.9439  0.1868
  786MPD2    H111593   3.250   4.035  15.393 -0.5460 -1.0955  0.1107
  786MPD2    H211594   3.028   4.013  15.042 -0.3362  0.3956  0.4783
  786MPD2    H311595   3.037   4.004  15.264 -0.6779 -1.6052 -0.1139
  786MPD2     N11596   3.480   4.077  15.316  0.1906  0.8248 -0.1259
  786MPD2    H511597   3.465   4.060  15.415  0.5582 -1.0929 -0.4054
  786MPD2    N111598   3.255   4.036  14.875  0.1893  0.7365  0.7553
  786MPD2    H711599   3.347   4.042  14.833  0.6247 -0.4690  1.5549
  787MPD2     C11600   3.278   3.560  14.337  0.3584 -0.8858  0.9222
  787MPD2    C111601   3.381   3.649  14.352  0.4406  0.5489  0.2804
  787MPD2    C211602   3.495   3.630  14.278  0.0857 -0.0859 -0.0307
  787MPD2    C311603   3.502   3.532  14.182 -0.3411 -0.0301 -0.0869
  787MPD2    C411604   3.395   3.441  14.170 -0.7224 -0.2565  0.3677
  787MPD2    C511605   3.292   3.458  14.254 -0.0713 -0.0158  0.0868
  787MPD2     H11606   3.588   3.684  14.291  0.8453 -1.4864  0.3483
  787MPD2    H111607   3.393   3.352  14.107 -1.0165  0.3445 -0.4622
  787MPD2    H211608   3.195   3.563  14.407  0.1627 -1.1258  0.7008
  787MPD2    H311609   3.216   3.381  14.254  0.5507 -0.6293 -0.2584
  787MPD2     N11610   3.626   3.521  14.112 -0.0825 -0.4126  0.3916
  787MPD2    H511611   3.697   3.592  14.128  0.4936 -1.0843  0.8146
  787MPD2    N111612   3.365   3.757  14.444 -0.1021  0.2093  0.2021
  787MPD2    H711613   3.270   3.752  14.481  0.9884  0.0179  2.9512
  788MPD2     C11614   0.732   2.460   0.969 -0.0534 -0.6385  0.8735
  788MPD2    C111615   0.723   2.345   0.891 -0.3288  0.4101 -0.0109
  788MPD2    C211616   0.708   2.355   0.759 -0.2560 -0.1311  0.2325
  788MPD2    C311617   0.692   2.477   0.697  0.7694  0.7679  0.6030
  788MPD2    C411618   0.689   2.593   0.774  0.0913 -0.3271 -0.2702
  788MPD2    C511619   0.700   2.583   0.909 -0.2436 -0.0590 -0.0722
  788MPD2     H11620   0.698   2.260   0.707 -0.8675 -0.2152  0.5049
  788MPD2    H111621   0.664   2.684   0.720 -0.7374 -1.9946 -2.7239
  788MPD2    H211622   0.742   2.456   1.077 -0.6092  1.7359  1.0260
  788MPD2    H311623   0.706   2.669   0.974  0.5520  0.3671 -0.7125
  788MPD2     N11624   0.673   2.478   0.557  0.3581  0.2372 -0.1085
  788MPD2    H511625   0.645   2.566   0.515 -0.7770  0.2817  0.7331
  788MPD2    N111626   0.727   2.215   0.937  0.5725 -0.6426 -0.3582
  788MPD2    H711627   0.700   2.140   0.875 -1.7831 -1.4104  1.6001
  789MPD2     C11628   0.909   2.104  16.280  0.1665  0.1714  0.9310
  789MPD2    C111629   0.864   2.026  16.389  0.2877  0.0283  0.3133
  789MPD2    C211630   0.743   2.059  16.443  0.2060  0.0665 -0.4380
  789MPD2    C311631   0.660   2.167  16.401 -0.2071 -0.5929  0.4182
  789MPD2    C411632   0.707   2.234  16.290  0.7501  0.2598 -0.5721
  789MPD2    C511633   0.829   2.207  16.235  0.1956 -0.1538  0.0872
  789MPD2     H11634   0.724   2.018  16.542 -2.0741  1.1276 -0.4371
  789MPD2    H111635   0.654   2.320  16.251  0.1436  0.0782 -0.1550
  789MPD2    H211636   1.005   2.096  16.229 -0.8168  0.4770 -0.9824
  789MPD2    H311637   0.858   2.270  16.151 -1.8285 -1.0404 -1.2874
  789MPD2     N11638   0.535   2.195  16.463  0.1139 -0.5309  0.5190
  789MPD2    H511639   0.470   2.265  16.427 -1.2863 -0.8987  2.3651
  789MPD2    N111640   0.929   1.922  16.454 -0.1642 -0.2833  0.5508
  789MPD2    H711641   0.878   1.874  16.527  0.0855 -2.2495 -0.5602
  790MPD2     C11642   1.319   3.680  13.663 -0.8086  0.1270 -0.3066
  790MPD2    C111643   1.447   3.633  13.648  0.4089  0.9028 -0.1279
  790MPD2    C211644   1.498   3.598  13.526 -0.1731 -0.3299  0.3706
  790MPD2    C311645   1.416   3.615  13.414  0.7643  1.0053  0.6103
  790MPD2    C411646   1.290   3.665  13.432  0.3086 -0.9954  0.0852
  790MPD2    C511647   1.240   3.687  13.553  0.5385 -0.6036  0.1281
  790MPD2     H11648   1.598   3.560  13.514  0.3540  1.3616 -0.5939
  790MPD2    H111649   1.215   3.695  13.359 -0.1497  1.1915  1.4687
  790MPD2    H211650   1.288   3.716  13.761 -0.0315  0.0844 -0.0502
  790MPD2    H311651   1.143   3.733  13.569  1.0360  0.0522  1.2673
  790MPD2     N11652   1.455   3.582  13.278  0.4138 -0.0818 -0.5040
  790MPD2    H511653   1.390   3.583  13.200  2.0822 -0.8921 -1.9116
  790MPD2    N111654   1.532   3.633  13.764 -0.3398 -0.2864  0.1713
  790MPD2    H711655   1.482   3.657  13.849 -3.0086 -0.6353 -1.2907
  791MPD2     C11656   1.254   3.396  12.519 -0.4278 -0.7701 -0.2330
  791MPD2    C111657   1.255   3.347  12.651 -0.5013  0.7956  0.1576
  791MPD2    C211658   1.137   3.290  12.695  0.4726 -0.0055 -0.6978
  791MPD2    C311659   1.028   3.284  12.608  0.1273 -0.5138  0.1630
  791MPD2    C411660   1.034   3.337  12.481  0.2439 -0.7358  0.4683
  791MPD2    C511661   1.144   3.392  12.440 -0.6693 -0.6096  0.3935
  791MPD2     H11662   1.123   3.257  12.797  2.3457 -0.0464 -0.4514
  791MPD2    H111663   0.951   3.325  12.412  0.1690 -0.0258  0.4356
  791MPD2    H211664   1.343   3.432  12.469 -1.5761  2.3761 -0.0161
  791MPD2    H311665   1.144   3.435  12.341  3.0666 -1.5812 -0.0199
  791MPD2     N11666   0.914   3.208  12.651 -0.0549 -0.1439  0.0070
  791MPD2    H511667   0.923   3.138  12.723  2.6402 -0.3483 -0.5328
  791MPD2    N111668   1.379   3.342  12.723 -0.2253  0.0436 -0.4862
  791MPD2    H711669   1.463   3.375  12.676 -0.1685 -0.9645 -1.0930
  792MPD2     C11670   2.374   3.400  11.557 -0.0022  0.1668 -0.4137
  792MPD2    C111671   2.276   3.461  11.485 -0.0347 -0.4675  0.0576
  792MPD2    C211672   2.217   3.392  11.380 -0.3735  0.2495 -1.3693
  792MPD2    C311673   2.267   3.269  11.337  0.0429 -0.4101  0.3656
  792MPD2    C411674   2.367   3.215  11.418  0.3044 -0.3820 -0.1649
  792MPD2    C511675   2.412   3.270  11.529 -0.2892  0.0698  0.0859
  792MPD2     H11676   2.137   3.446  11.330  0.3995  1.4144 -1.3585
  792MPD2    H111677   2.421   3.123  11.401 -0.5561 -1.1021  0.9966
  792MPD2    H211678   2.430   3.451  11.634 -0.8956  2.0377 -1.0057
  792MPD2    H311679   2.491   3.220  11.583 -0.3770  0.4340  0.5566
  792MPD2     N11680   2.222   3.205  11.226  0.6449 -0.1288 -0.3095
  792MPD2    H511681   2.269   3.115  11.219  2.3097  0.7866 -0.6070
  792MPD2    N111682   2.263   3.599  11.515 -0.2219 -0.0727 -0.3126
  792MPD2    H711683   2.315   3.632  11.596 -2.2359  1.5834  0.3257
  793MPD2     C11684   1.841   3.061  10.179 -0.8493  0.3830  0.2611
  793MPD2    C111685   1.979   3.051  10.190 -0.5810  0.1692  0.1040
  793MPD2    C211686   2.033   3.061  10.318  0.0851  0.2968 -0.5622
  793MPD2    C311687   1.958   3.089  10.434 -0.4160  0.6331 -0.0747
  793MPD2    C411688   1.825   3.108  10.414 -0.4943  0.2442 -0.0598
  793MPD2    C511689   1.769   3.102  10.289  0.4870 -0.0659 -0.5216
  793MPD2     H11690   2.137   3.035  10.334  0.8008  2.6513 -1.4013
  793MPD2    H111691   1.761   3.130  10.499 -1.7786  0.6260 -1.1355
  793MPD2    H211692   1.797   3.070  10.080  1.4322 -0.3769 -0.8184
  793MPD2    H311693   1.666   3.130  10.269 -0.2528 -0.3227  2.9049
  793MPD2     N11694   2.028   3.112  10.558 -0.8324  0.4563  0.2318
  793MPD2    H511695   2.125   3.084  10.557 -0.5722  1.3448  0.4767
  793MPD2    N111696   2.054   3.034  10.067  0.3742  0.1572 -0.1795
  793MPD2    H711697   2.008   3.042   9.977  1.3489  0.1946 -0.6672
  794MPD2     C11698   1.480   3.644  17.636 -0.4669 -0.1960  0.6669
  794MPD2    C111699   1.431   3.517  17.625  0.4263 -0.4826 -0.8098
  794MPD2    C211700   1.384   3.474  17.504  0.5381 -0.0670  0.6305
  794MPD2    C311701   1.406   3.543  17.381 -0.8196  0.1859 -0.1406
  794MPD2    C411702   1.460   3.668  17.396 -0.2777 -0.3211  0.3398
  794MPD2    C511703   1.491   3.721  17.523  0.2705 -0.8486 -0.0533
  794MPD2     H11704   1.331   3.379  17.504  0.4538 -0.0295 -1.3923
  794MPD2    H111705   1.473   3.738  17.315  1.5591 -1.6316 -0.5013
  794MPD2    H211706   1.518   3.695   0.041 -0.0259  2.3287 -0.9809
  794MPD2    H311707   1.521   3.825  17.527  1.3201 -1.1074 -1.1258
  794MPD2     N11708   1.364   3.502  17.254  0.6354 -0.0160 -0.0093
  794MPD2    H511709   1.385   3.562  17.175 -0.1039 -2.3404 -1.9671
  794MPD2    N111710   1.428   3.429   0.051 -0.0263  0.0216 -0.1584
  794MPD2    H711711   1.388   3.339   0.027  0.0784 -0.5401  1.8019
  795MPD2     C11712   4.280   0.471  13.347 -0.1486 -0.1825  0.0720
  795MPD2    C111713   4.238   0.340  13.361  0.0578 -0.2045  0.5543
  795MPD2    C211714   4.324   0.253  13.417  0.5136 -0.2447  0.5087
  795MPD2    C311715   4.456   0.292  13.443 -0.3003 -0.1062  0.0687
  795MPD2    C411716   4.496   0.420  13.423 -0.5650 -0.8500  0.5138
  795MPD2    C511717   4.411   0.504  13.372 -0.1787  0.2333 -0.7017
  795MPD2     H11718   4.298   0.149  13.428 -0.1285 -0.2585 -1.2475
  795MPD2    H111719   4.596   0.450  13.453 -1.3985  0.7888  1.6347
  795MPD2    H211720   4.213   0.550  13.316 -0.2178 -0.1040  0.4209
  795MPD2    H311721   4.440   0.608  13.357  0.2777  0.2736  0.4456
  795MPD2     N11722   4.552   0.210  13.511 -0.7966 -0.0854 -0.4123
  795MPD2    H511723   4.640   0.257  13.533 -0.6927 -1.0001  1.1585
  795MPD2    N111724   4.113   0.295  13.307  0.3023 -0.3284 -0.3356
  795MPD2    H711725   4.075   0.208  13.341 -1.6571  1.7712  2.8874
  796MPD2     C11726   3.411   1.913  15.917 -0.7115 -0.4761 -0.4940
  796MPD2    C111727   3.521   1.978  15.957 -0.6332 -0.3578  0.5619
  796MPD2    C211728   3.533   2.113  15.923 -0.1762 -0.1234 -0.3747
  796MPD2    C311729   3.432   2.179  15.845  0.2428  0.5166  0.7613
  796MPD2    C411730   3.325   2.102  15.797  0.4773 -0.4618 -0.2119
  796MPD2    C511731   3.315   1.976  15.838  0.0094 -0.1078 -0.5887
  796MPD2     H11732   3.614   2.173  15.964  1.4195 -1.2029 -1.9357
  796MPD2    H111733   3.235   2.140  15.750 -0.3970 -4.5107 -1.7525
  796MPD2    H211734   3.390   1.810  15.944 -1.5893  0.0727  0.9063
  796MPD2    H311735   3.234   1.913  15.804  0.6217 -0.1455 -1.9949
  796MPD2     N11736   3.445   2.323  15.832  0.1793  0.4327 -0.0930
  796MPD2    H511737   3.528   2.366  15.871  0.9624 -2.4745  1.5003
  796MPD2    N111738   3.614   1.908  16.029  0.3976 -0.7763  0.5339
  796MPD2    H711739   3.586   1.811  16.043 -0.6475 -0.7535 -1.3639
  797MPD2     C11740   0.546   1.463  17.170 -0.1527 -0.3127  0.1063
  797MPD2    C111741   0.412   1.485  17.173 -0.3219 -0.5101 -0.0699
  797MPD2    C211742   0.353   1.556  17.064 -0.1031  1.0931  0.4640
  797MPD2    C311743   0.426   1.603  16.955  0.1216  0.0213  0.0350
  797MPD2    C411744   0.557   1.566  16.951  0.1042 -0.2218 -0.2550
  797MPD2    C511745   0.615   1.492  17.049  0.3530 -0.3529  0.6705
  797MPD2     H11746   0.249   1.583  17.064 -0.0694  1.2313 -0.8747
  797MPD2    H111747   0.611   1.598  16.862 -0.4391  2.5513  0.3967
  797MPD2    H211748   0.596   1.406  17.247  0.6429 -0.3704 -0.4473
  797MPD2    H311749   0.722   1.475  17.047  0.5307  0.5860  2.3573
  797MPD2     N11750   0.354   1.671  16.855 -0.1148  0.2462 -0.0740
  797MPD2    H511751   0.255   1.693  16.868  0.0053  1.0801 -0.5764
  797MPD2    N111752   0.328   1.461  17.286  0.4907 -0.7135 -0.5826
  797MPD2    H711753   0.229   1.476  17.269  0.2304 -0.2392  1.3687
  798MPD2     C11754   4.551   1.930  17.125 -0.3048  0.1736 -0.1047
  798MPD2    C111755   4.683   1.896  17.105 -0.1212 -0.5561 -0.6256
  798MPD2    C211756   0.040   1.845  17.210 -0.1246  0.1149  0.5937
  798MPD2    C311757   4.700   1.841  17.336  0.4872 -0.1452 -0.1394
  798MPD2    C411758   4.572   1.875  17.359 -0.7660 -0.0021 -0.0983
  798MPD2    C511759   4.497   1.928  17.253 -0.7044  0.1322  0.2343
  798MPD2     H11760   0.142   1.814  17.188 -0.5626 -0.8775 -0.0674
  798MPD2    H111761   4.529   1.884  17.458 -1.7303 -1.4992 -0.3917
  798MPD2    H211762   4.484   1.958  17.045 -0.7267  1.4092  0.6922
  798MPD2    H311763   4.394   1.954  17.273 -0.5867  2.8312 -2.5459
  798MPD2     N11764   0.056   1.781  17.434  0.4857 -0.1915 -0.2335
  798MPD2    H511765   0.150   1.753  17.408  1.2741  1.8435  0.4215
  798MPD2    N111766   0.028   1.899  16.978 -0.6168  0.2498 -0.0062
  798MPD2    H711767   0.127   1.878  16.981 -0.7137  0.0464  1.7472
  799MPD2     C11768   3.135   3.256  14.556  0.8730  0.2710 -0.5828
  799MPD2    C111769   3.134   3.146  14.472 -0.4401 -0.2854  0.4563
  799MPD2    C211770   3.065   3.142  14.354  0.2592  0.4258 -0.2777
  799MPD2    C311771   2.998   3.256  14.319  0.2327  0.2866 -0.1418
  799MPD2    C411772   2.988   3.361  14.404  0.0268 -0.1529 -1.0724
  799MPD2    C511773   3.049   3.357  14.529 -0.6241 -0.0016  0.4991
  799MPD2     H11774   3.082   3.056  14.290  1.4061  1.1683 -0.9946
  799MPD2    H111775   2.932   3.450  14.378 -0.4230 -0.7915 -2.2867
  799MPD2    H211776   3.179   3.252  14.655 -3.3089 -2.2442  1.1947
  799MPD2    H311777   3.032   3.442  14.594 -0.2132  0.3809  0.1057
  799MPD2     N11778   2.938   3.267  14.193  0.2956 -0.3082 -0.5123
  799MPD2    H511779   2.883   3.351  14.181  0.4331 -0.1685 -0.1663
  799MPD2    N111780   3.222   3.038  14.489  0.5393  0.3149  0.7183
  799MPD2    H711781   3.208   2.968  14.416 -1.8374 -0.2221  1.6992
  800MPD2     C11782   4.009   4.306  14.052 -0.7585  0.3715  0.8117
  800MPD2    C111783   4.145   4.292  14.023  0.1322 -0.0284 -0.0827
  800MPD2    C211784   4.203   4.172  13.994  0.4830  0.1058  0.7679
  800MPD2    C311785   4.125   4.057  14.011  0.2624  0.1963  0.4279
  800MPD2    C411786   3.988   4.067  14.051  0.4393  0.6115  0.6184
  800MPD2    C511787   3.932   4.191  14.068 -0.3508 -0.1532  0.1495
  800MPD2     H11788   4.308   4.154  13.975  0.3225 -1.9634  1.8300
  800MPD2    H111789   3.919   3.983  14.048  0.3936  0.6329  1.0757
  800MPD2    H211790   3.965   4.403  14.071 -0.4132  0.8648 -0.9008
  800MPD2    H311791   3.825   4.202  14.054  0.2018  3.7427 -1.1535
  800MPD2     N11792   4.183   3.935  13.971 -0.0625  0.1905 -0.5497
  800MPD2    H511793   4.275   3.932  13.929  0.6243 -0.4450  0.9797
  800MPD2    N111794   4.218   4.409  14.027 -0.0865  0.8021  0.5477
  800MPD2    H711795   4.174   4.490  14.069 -2.1721 -0.4282  0.7607
  801MPD2     C11796   4.191   0.327  14.363 -0.0518 -0.6539 -0.3157
  801MPD2    C111797   4.150   0.199  14.324  0.2122  0.0021 -0.4246
  801MPD2    C211798   4.045   0.139  14.404 -0.6098  0.0260 -0.0964
  801MPD2    C311799   4.006   0.201  14.518 -0.8036  0.4865  0.9144
  801MPD2    C411800   4.050   0.327  14.548 -0.2644  0.3776  0.0430
  801MPD2    C511801   4.139   0.393  14.467 -0.3576 -0.0016  0.3854
  801MPD2     H11802   4.020   0.035  14.387  1.0754  0.2662 -4.0380
  801MPD2    H111803   4.014   0.374  14.639 -0.9320 -0.2263  0.0844
  801MPD2    H211804   4.249   0.389  14.296 -1.8267 -1.5413 -2.6800
  801MPD2    H311805   4.173   0.494  14.488  2.6216 -0.7137 -0.9703
  801MPD2     N11806   3.912   0.126  14.603  0.1451  0.6479  0.0897
  801MPD2    H511807   3.876   0.037  14.572  0.3012 -0.4645  3.0553
  801MPD2    N111808   4.203   0.126  14.216 -0.5381  0.2118 -0.2443
  801MPD2    H711809   4.188   0.026  14.222 -1.8662  0.4059 -0.4406
  802MPD2     C11810   2.732   0.018  17.113 -0.1534  0.0391 -0.3791
  802MPD2    C111811   2.853   0.019  17.177 -0.6490 -0.7962 -0.1343
  802MPD2    C211812   2.932   4.633  17.161  0.0124 -0.5318  0.0716
  802MPD2    C311813   2.906   4.530  17.074 -0.0257  0.2813 -1.0860
  802MPD2    C411814   2.784   4.524  17.014  0.0726 -0.0033 -0.4854
  802MPD2    C511815   2.698   4.629  17.040 -0.2464  0.6417  0.0302
  802MPD2     H11816   3.022   4.626  17.220 -0.5617  0.7527  1.0992
  802MPD2    H111817   2.746   4.451  16.944  1.8720 -0.7368 -0.7010
  802MPD2    H211818   2.650   0.084  17.140  1.2929  2.9771 -3.0950
  802MPD2    H311819   2.597   4.612  17.004  0.0530 -0.1547 -0.4308
  802MPD2     N11820   3.005   4.428  17.052  0.3355  0.5346  0.1607
  802MPD2    H511821   3.084   4.440  17.115 -0.6251  1.0827  1.2781
  802MPD2    N111822   2.914   0.119  17.261  0.1964 -0.7239  0.9128
  802MPD2    H711823   3.002   0.109  17.309  1.2461  1.5026 -0.5148
  803MPD2     C11824   4.327   3.489  11.861 -0.0302  0.0701  0.2938
  803MPD2    C111825   4.440   3.456  11.939  0.1202  0.1665 -0.3801
  803MPD2    C211826   4.425   3.420  12.073  0.9065  0.5033 -1.5409
  803MPD2    C311827   4.296   3.394  12.123 -0.8896  0.1025  0.1244
  803MPD2    C411828   4.186   3.418  12.051  0.2418  0.3092 -0.0644
  803MPD2    C511829   4.200   3.464  11.922 -0.7829  0.5727 -0.0366
  803MPD2     H11830   4.517   3.400  12.127 -0.0464  0.5633  0.1129
  803MPD2    H111831   4.082   3.401  12.077  0.6538 -2.1021  0.0460
  803MPD2    H211832   4.323   3.513  11.755 -1.3170 -0.4826  0.2202
  803MPD2    H311833   4.110   3.476  11.862  0.4503 -2.9189 -2.6126
  803MPD2     N11834   4.277   3.327  12.245 -0.0262 -0.2525 -0.4641
  803MPD2    H511835   4.184   3.333  12.284  0.5010  0.1375  0.7265
  803MPD2    N111836   4.576   3.467  11.893 -1.0686  0.7814 -0.4016
  803MPD2    H711837   4.648   3.458  11.964 -0.5426 -1.7718 -1.2808
  804MPD2     C11838   3.955   0.120  17.287  0.0529  0.4189 -0.7864
  804MPD2    C111839   4.003   0.028  17.379 -0.8754  0.1617  0.0059
  804MPD2    C211840   4.091   0.079  17.473  0.8914  0.3580 -0.1251
  804MPD2    C311841   4.145   0.206  17.459 -0.4576  0.3761  0.1336
  804MPD2    C411842   4.091   0.295  17.368  0.0842  0.8142 -0.8339
  804MPD2    C511843   3.998   0.251  17.285  0.9646  0.4992 -0.1582
  804MPD2     H11844   4.144   0.010  17.537 -0.7469 -0.4219  0.3738
  804MPD2    H111845   4.138   0.390  17.348 -0.2701  0.6125 -2.6491
  804MPD2    H211846   3.892   0.082  17.207 -0.5958  2.4229 -1.2314
  804MPD2    H311847   3.948   0.322  17.220  0.0179 -0.7193 -0.7570
  804MPD2     N11848   4.247   0.250  17.552  0.9282 -0.2423 -0.1894
  804MPD2    H511849   4.268   0.185  17.627 -1.3077 -1.7157 -0.8139
  804MPD2    N111850   3.977   4.604  17.379 -0.7214  0.6340  0.1588
  804MPD2    H711851   3.990   4.564  17.471  1.5697  0.7540 -0.1125
  805MPD2     C11852   2.939   3.294  15.429  0.8372  0.3384 -0.2847
  805MPD2    C111853   3.011   3.307  15.304 -0.3953  0.6857  0.3499
  805MPD2    C211854   3.150   3.310  15.300 -0.3677 -0.7235 -0.0349
  805MPD2    C311855   3.220   3.290  15.416  0.3208 -0.1095 -0.8225
  805MPD2    C411856   3.155   3.266  15.539 -0.4872 -0.7106  0.8016
  805MPD2    C511857   3.017   3.269  15.543 -0.2883 -1.1188 -0.3248
  805MPD2     H11858   3.203   3.329  15.208  1.3937  1.8421  1.5049
  805MPD2    H111859   3.211   3.260  15.631  2.5443 -2.1207 -1.1048
  805MPD2    H211860   2.832   3.294  15.444  0.6949  2.0174 -1.3006
  805MPD2    H311861   2.977   3.269  15.644 -2.0861 -1.2259 -1.0449
  805MPD2     N11862   3.362   3.268  15.400 -0.5946  0.1002 -0.0845
  805MPD2    H511863   3.393   3.304  15.310  0.1399 -1.0303 -0.2839
  805MPD2    N111864   2.941   3.330  15.188  0.4640  0.4040 -0.4095
  805MPD2    H711865   2.988   3.321  15.099  2.2000  0.7724  0.4847
  806MPD2     C11866   3.449   2.777   0.849 -0.4232  0.4510  0.3685
  806MPD2    C111867   3.560   2.713   0.896  0.2966 -0.3625 -0.7738
  806MPD2    C211868   3.632   2.624   0.823 -0.8906  0.2618 -0.1489
  806MPD2    C311869   3.587   2.598   0.693  1.2302  0.7145  0.0853
  806MPD2    C411870   3.474   2.656   0.643  0.0310  0.0095  0.0372
  806MPD2    C511871   3.409   2.741   0.726  0.2608 -0.2721 -0.0099
  806MPD2     H11872   3.712   2.569   0.871 -0.3985 -1.2696 -2.7571
  806MPD2    H111873   3.421   2.638   0.550  3.5188 -1.7277 -1.6210
  806MPD2    H211874   3.396   2.849   0.911 -1.0694  0.8653 -0.6634
  806MPD2    H311875   3.321   2.790   0.685 -0.7333 -1.6525  0.4894
  806MPD2     N11876   3.675   2.510   0.619  0.2758 -0.2649  0.0293
  806MPD2    H511877   3.750   2.479   0.680 -0.3315 -0.1517  0.8288
  806MPD2    N111878   3.610   2.739   1.029 -0.3317 -1.0926 -0.6715
  806MPD2    H711879   3.546   2.779   1.097  1.1013  1.1519 -0.6345
  807MPD2     C11880   3.379   2.524   1.710 -0.2780  0.0927 -0.0136
  807MPD2    C111881   3.517   2.555   1.732 -0.6039 -0.2252  0.1186
  807MPD2    C211882   3.564   2.531   1.860 -0.2095  0.3806 -0.3378
  807MPD2    C311883   3.493   2.473   1.959 -0.4025  0.1529  0.2201
  807MPD2    C411884   3.357   2.454   1.939  0.4405 -0.0080  0.7986
  807MPD2    C511885   3.301   2.485   1.820  0.1966 -0.7030  0.2609
  807MPD2     H11886   3.664   2.561   1.887 -0.8391  1.7915  0.4629
  807MPD2    H111887   3.284   2.428   2.015  0.8069 -1.8835  0.5016
  807MPD2    H211888   3.339   2.547   1.612 -3.6380 -1.1618  1.0835
  807MPD2    H311889   3.194   2.475   1.804  0.1723  0.9322 -0.5902
  807MPD2     N11890   3.561   2.466   2.084  0.3865 -0.9097  0.1144
  807MPD2    H511891   3.662   2.471   2.085  0.3009  1.0829 -0.0387
  807MPD2    N111892   3.612   2.606   1.637 -0.1959  0.4146 -0.0161
  807MPD2    H711893   3.711   2.595   1.655 -0.2739 -1.1451 -0.5217
  808MPD2     C11894   4.677   3.657   9.639  0.2566  1.1059 -0.5609
  808MPD2    C111895   4.587   3.762   9.639 -0.0885  0.6896  0.0857
  808MPD2    C211896   4.623   3.886   9.694 -0.4785  0.3541 -0.0850
  808MPD2    C311897   0.027   3.894   9.760  0.4504 -0.2507 -0.1188
  808MPD2    C411898   0.120   3.791   9.758 -0.2214  0.0232 -0.0232
  808MPD2    C511899   0.083   3.671   9.700 -0.1904 -0.3065  0.6845
  808MPD2     H11900   4.559   3.973   9.685  1.0717  1.7065  1.8317
  808MPD2    H111901   0.221   3.798   9.798 -1.2739 -1.8648  2.9754
  808MPD2    H211902   4.650   3.559   9.601  1.3546  0.9089 -0.8403
  808MPD2    H311903   0.149   3.584   9.701  2.4837  1.7345  2.1823
  808MPD2     N11904   0.076   4.009   9.822  0.2037 -0.1395  0.4349
  808MPD2    H511905   0.176   4.019   9.838  0.0901  1.3574  0.2207
  808MPD2    N111906   4.456   3.753   9.580  0.0409 -0.3359 -0.2283
  808MPD2    H711907   4.419   3.843   9.550 -0.6467 -1.3552 -2.4486
  809MPD2     C11908   0.938   4.431  10.067  0.0082 -0.4441  0.1394
  809MPD2    C111909   0.889   4.304  10.040  1.1901 -0.1025 -0.2969
  809MPD2    C211910   0.756   4.288  10.007  0.0525 -0.4038 -0.1484
  809MPD2    C311911   0.666   4.394  10.006 -0.4527 -0.4143 -0.2501
  809MPD2    C411912   0.718   4.521  10.035 -0.1288  0.3343 -0.9562
  809MPD2    C511913   0.850   4.541  10.069  0.0129  0.6788  0.3745
  809MPD2     H11914   0.716   4.188   9.995  0.6940 -0.8166  1.0951
  809MPD2    H111915   0.656   4.609  10.031  0.2872  0.5173 -3.1635
  809MPD2    H211916   1.038   4.459  10.098 -0.2104 -0.1995  0.6230
  809MPD2    H311917   0.878   4.637  10.112  1.0669  0.8476 -0.6695
  809MPD2     N11918   0.533   4.380   9.992  0.0146 -0.1077 -0.4568
  809MPD2    H511919   0.479   4.463  10.018 -1.4548 -1.7915  1.8902
  809MPD2    N111920   0.962   4.186  10.046  0.2080 -0.2617  0.1501
  809MPD2    H711921   0.910   4.100  10.030  1.2085 -0.9787  0.7767
  810MPD2     C11922   4.680   3.098  10.290 -0.2334 -0.0390 -0.3854
  810MPD2    C111923   4.637   3.157  10.180 -0.8892 -0.6374  0.6399
  810MPD2    C211924   0.006   3.235  10.104  0.3951 -0.1723  0.3709
  810MPD2    C311925   0.133   3.269  10.159  0.4819  0.4465  0.4043
  810MPD2    C411926   0.176   3.202  10.271 -0.2141  0.7968 -0.0076
  810MPD2    C511927   0.093   3.113  10.329 -0.2156 -0.7798  0.3580
  810MPD2     H11928   4.686   3.285  10.016  1.8357  4.6966  2.4919
  810MPD2    H111929   0.276   3.212  10.312 -0.7314 -0.4404  1.5631
  810MPD2    H211930   4.620   3.034  10.354  1.7543  0.6432  2.1918
  810MPD2    H311931   0.136   3.069  10.418  0.7201  1.5018  1.0371
  810MPD2     N11932   0.214   3.379  10.104 -0.6118 -0.2750 -0.3593
  810MPD2    H511933   0.284   3.412  10.170 -0.4820  1.7045 -1.4708
  810MPD2    N111934   4.510   3.140  10.122  0.2700 -1.0244 -0.4403
  810MPD2    H711935   4.506   3.159  10.022  5.2540 -1.8688 -0.7985
  811MPD2     C11936   3.827   3.266   9.615 -0.1908  0.1400  0.9783
  811MPD2    C111937   3.921   3.330   9.691 -0.4241  0.4652 -0.3799
  811MPD2    C211938   3.932   3.470   9.693 -0.4989 -0.3210  0.1931
  811MPD2    C311939   3.836   3.557   9.629 -0.4555 -0.0969 -0.0660
  811MPD2    C411940   3.742   3.486   9.551  0.2197 -0.1409  0.1187
  811MPD2    C511941   3.738   3.351   9.547 -0.3112 -0.9552  0.9863
  811MPD2     H11942   3.995   3.517   9.768  1.3612 -0.5449 -1.2189
  811MPD2    H111943   3.655   3.536   9.509  2.3350  1.8722 -1.8652
  811MPD2    H211944   3.821   3.158   9.608  1.4524  0.1010  0.3104
  811MPD2    H311945   3.652   3.307   9.498 -1.3382 -0.0313  1.9668
  811MPD2     N11946   3.836   3.695   9.645  0.4946 -0.1182  0.0620
  811MPD2    H511947   3.892   3.722   9.725  0.8470  2.7378 -1.1418
  811MPD2    N111948   4.001   3.244   9.776 -0.1642 -0.1674  0.3665
  811MPD2    H711949   3.978   3.146   9.774  1.3008 -0.5232  1.0835
  812MPD2     C11950   2.880   3.910  12.343  0.5868 -0.4711 -0.2883
  812MPD2    C111951   2.809   3.921  12.465  0.7151 -0.1161  0.1038
  812MPD2    C211952   2.791   3.809  12.545 -0.7639  0.4261 -0.4729
  812MPD2    C311953   2.829   3.681  12.497  0.9628 -0.4278  0.1534
  812MPD2    C411954   2.891   3.679  12.375  0.0464 -0.1771 -0.8242
  812MPD2    C511955   2.915   3.786  12.297 -0.0046 -0.0417  0.2980
  812MPD2     H11956   2.740   3.822  12.640 -2.4112  0.3732 -1.3474
  812MPD2    H111957   2.917   3.587  12.324  0.9708 -1.8035  2.6186
  812MPD2    H211958   2.910   3.997  12.285 -2.5614  1.7744  1.4354
  812MPD2    H311959   2.950   3.771  12.196 -0.4402 -0.6241  0.2317
  812MPD2     N11960   2.801   3.568  12.569 -0.4497 -0.0280  0.7325
  812MPD2    H511961   2.746   3.586  12.653 -1.0942  0.3184  0.2363
  812MPD2    N111962   2.770   4.049  12.506 -0.5373 -0.0150  0.2562
  812MPD2    H711963   2.814   4.118  12.446 -1.5588  0.3661 -0.0522
  813MPD2     C11964   2.109   0.359  12.905 -0.2228 -0.9590 -0.4966
  813MPD2    C111965   2.026   0.461  12.875  0.5233 -0.4373  0.2267
  813MPD2    C211966   1.907   0.480  12.938 -0.4598  0.0572  0.4369
  813MPD2    C311967   1.875   0.394  13.044 -0.6726 -0.5170  0.8050
  813MPD2    C411968   1.956   0.287  13.073 -0.3640  0.2175 -0.3386
  813MPD2    C511969   2.077   0.269  12.997  0.3202 -0.4093  0.5332
  813MPD2     H11970   1.842   0.562  12.908  0.9811  1.2648  0.6201
  813MPD2    H111971   1.931   0.217  13.152  1.0908 -0.1087 -0.1770
  813MPD2    H211972   2.207   0.348  12.862  0.7625 -1.6569  1.9462
  813MPD2    H311973   2.150   0.190  13.012 -0.1816 -0.9190  0.2970
  813MPD2     N11974   1.759   0.428  13.113 -0.1426  0.5733 -0.1274
  813MPD2    H511975   1.695   0.496  13.075  1.6530  0.8102 -2.6866
  813MPD2    N111976   2.075   0.547  12.775 -0.2425 -0.1078  0.6187
  813MPD2    H711977   2.164   0.525  12.732 -1.1688 -1.2030 -0.7676
  814MPD2     C11978   2.140   2.200  12.234  0.7967 -0.3875 -0.1443
  814MPD2    C111979   2.219   2.195  12.121  0.3591 -0.5559 -0.7274
  814MPD2    C211980   2.327   2.283  12.113  0.6794 -0.4509 -0.4708
  814MPD2    C311981   2.348   2.369  12.217 -0.8181  0.2523 -0.3909
  814MPD2    C411982   2.266   2.383  12.328 -0.3769  0.3378 -0.5381
  814MPD2    C511983   2.157   2.300  12.328 -0.2093 -0.0200 -0.5908
  814MPD2     H11984   2.396   2.270  12.030  0.6679  1.2291 -0.7341
  814MPD2    H111985   2.289   2.448  12.411  0.3403  0.0342 -0.5035
  814MPD2    H211986   2.058   2.133  12.253  0.9784  0.4037  3.4540
  814MPD2    H311987   2.082   2.319  12.403 -0.5903  1.3898 -1.3305
  814MPD2     N11988   2.466   2.454  12.226 -0.7616 -0.0015 -0.0746
  814MPD2    H511989   2.471   2.493  12.319  0.7751  0.4700 -0.3551
  814MPD2    N111990   2.195   2.109  12.012 -0.2451  0.3196 -0.4536
  814MPD2    H711991   2.258   2.131  11.935  0.6053 -0.9347 -0.1151
  815MPD2     C11992   3.192   0.410  11.945 -0.2858 -0.0446 -0.3163
  815MPD2    C111993   3.137   0.288  11.950  0.1603  0.2249  0.1354
  815MPD2    C211994   3.024   0.265  12.023 -0.9559  0.0061  0.2777
  815MPD2    C311995   2.959   0.367  12.089 -0.6587 -0.0950  0.0075
  815MPD2    C411996   3.022   0.493  12.079 -0.0576  1.0093  0.0253
  815MPD2    C511997   3.136   0.512  12.013 -0.0207 -0.2325  0.4944
  815MPD2     H11998   2.977   0.168  12.031  0.9690 -0.9217  0.2372
  815MPD2    H111999   2.974   0.585  12.110 -0.5455  0.7765 -0.0452
  815MPD2    H212000   3.280   0.431  11.885  0.1018  2.6322  1.2103
  815MPD2    H312001   3.182   0.610  12.003 -1.9899  0.7484  1.2027
  815MPD2     N12002   2.836   0.342  12.155 -0.1396  0.7965 -0.5191
  815MPD2    H512003   2.812   0.246  12.175  1.6419  0.4903  0.2028
  815MPD2    N112004   3.185   0.187  11.861  0.0063 -0.6003 -0.9949
  815MPD2    H712005   3.249   0.213  11.786 -1.3723 -0.8288 -2.2629
  816MPD2     C12006   2.848   4.648  17.630  0.1851 -0.4283  0.6151
  816MPD2    C112007   2.714   4.632  17.593 -0.9855  0.0527 -0.0887
  816MPD2    C212008   2.683   4.537  17.501  0.4225 -0.8799  0.5258
  816MPD2    C312009   2.775   4.449  17.447  0.1593 -0.1380 -0.8239
  816MPD2    C412010   2.904   4.464  17.482  0.2506  0.5946  0.1536
  816MPD2    C512011   2.939   4.555  17.578 -0.2786  0.3617 -0.6167
  816MPD2     H12012   2.578   4.529  17.476  0.0356  1.1613  1.5749
  816MPD2    H112013   2.983   4.403  17.442 -0.4399 -0.1583 -0.0595
  816MPD2    H212014   2.883   0.003   0.016  0.6969  1.3727 -1.6142
  816MPD2    H312015   3.043   4.559  17.609 -0.0670 -0.8778 -1.1481
  816MPD2     N12016   2.734   4.359  17.345  0.1587 -0.4145  0.0575
  816MPD2    H512017   2.643   4.371  17.301  0.1265 -0.8081  0.0113
  816MPD2    N112018   2.630   4.720  17.661  0.8202 -0.0795 -0.3729
  816MPD2    H712019   2.678   0.073   0.029 -0.8357  0.9809 -0.3346
  817MPD2     C12020   2.046   0.169   9.433 -0.2814  0.0525  0.2136
  817MPD2    C112021   2.064   0.063   9.344  0.1668 -0.3223  0.4731
  817MPD2    C212022   1.974   0.059   9.238 -0.2834  0.1731 -0.7382
  817MPD2    C312023   1.875   0.155   9.224 -0.3184  0.4067  0.6109
  817MPD2    C412024   1.871   0.271   9.302  0.3571  0.2029  0.1860
  817MPD2    C512025   1.958   0.276   9.407 -0.0560 -0.4687  1.0427
  817MPD2     H12026   1.983   4.690   9.178  0.3728 -2.1139  2.7717
  817MPD2    H112027   1.793   0.345   9.291 -0.0239 -0.1052  0.8165
  817MPD2    H212028   2.112   0.185   9.518 -1.1939 -1.4794  1.2092
  817MPD2    H312029   1.946   0.358   9.477 -0.7151 -0.6683  1.1602
  817MPD2     N12030   1.777   0.128   9.120  0.0363 -0.4396  0.5870
  817MPD2    H512031   1.791   0.039   9.074 -0.8756 -0.2916  0.0171
  817MPD2    N112032   2.148   4.675   9.365 -0.2105 -0.1819 -0.3493
  817MPD2    H712033   2.135   4.597   9.301 -1.1054  0.2425 -0.6894
  818MPD2     C12034   1.953   0.729  10.309  0.0025 -0.0540  0.2326
  818MPD2    C112035   1.829   0.685  10.291 -0.0670  0.3671  0.0896
  818MPD2    C212036   1.812   0.549  10.262  0.0657  0.8497 -0.3223
  818MPD2    C312037   1.917   0.469  10.231 -0.1855  0.9989 -0.4583
  818MPD2    C412038   2.044   0.523  10.251  0.1271 -0.3542 -0.2135
  818MPD2    C512039   2.066   0.649  10.290 -0.2364  0.2811 -0.4420
  818MPD2     H12040   1.716   0.500  10.250  1.0192 -1.1052  0.0393
  818MPD2    H112041   2.133   0.469  10.220  0.9927  0.3560  1.0314
  818MPD2    H212042   1.973   0.834  10.323 -0.5266  0.0377  0.2855
  818MPD2    H312043   2.168   0.682  10.304 -0.0906 -0.5921  0.5522
  818MPD2     N12044   1.897   0.334  10.217 -0.2467 -0.0821  0.0378
  818MPD2    H512045   1.973   0.269  10.237 -1.5160 -1.3529  0.7282
  818MPD2    N112046   1.716   0.760  10.319  0.5776  0.4076  0.2916
  818MPD2    H712047   1.627   0.710  10.321  0.3263  0.7755 -1.1808
  819MPD2     C12048   3.994   3.055  15.381 -0.2502  0.1576 -0.7465
  819MPD2    C112049   3.919   2.943  15.436  0.0388 -0.6494  1.0943
  819MPD2    C212050   3.977   2.863  15.533 -0.3613 -0.1802  0.1540
  819MPD2    C312051   4.099   2.904  15.594 -0.1925  0.2656 -0.2396
  819MPD2    C412052   4.176   3.012  15.543 -0.0889  0.9776 -0.1139
  819MPD2    C512053   4.115   3.082  15.442 -0.1360  0.0307  0.5174
  819MPD2     H12054   3.927   2.780  15.582  1.8461 -0.5163  1.8384
  819MPD2    H112055   4.269   3.040  15.591  0.9575 -0.6900 -1.1448
  819MPD2    H212056   3.954   3.110  15.296 -1.9302  1.2201  0.7365
  819MPD2    H312057   4.163   3.170  15.401  0.3589 -0.2994  0.3894
  819MPD2     N12058   4.138   2.819  15.698  0.0246 -0.2490  0.8854
  819MPD2    H512059   4.075   2.746  15.731  0.6996 -1.2822 -0.0839
  819MPD2    N112060   3.797   2.919  15.380 -0.1514 -0.1978  0.6630
  819MPD2    H712061   3.775   2.965  15.292  0.0842  0.9233  1.1902
  820MPD2     C12062   3.017   2.867  14.772 -0.6887 -0.0413 -0.0228
  820MPD2    C112063   3.042   2.985  14.845  0.3711  0.3473 -0.4156
  820MPD2    C212064   3.126   2.971  14.959  0.0653  0.5234 -0.6219
  820MPD2    C312065   3.193   2.853  14.990 -0.5515  0.8663 -0.5985
  820MPD2    C412066   3.165   2.745  14.911 -0.5728  0.1672  0.0292
  820MPD2    C512067   3.080   2.747  14.807 -0.7996  0.5475  0.1833
  820MPD2     H12068   3.124   3.058  15.023 -1.9802 -0.1979  0.2838
  820MPD2    H112069   3.204   2.646  14.932  2.4195  1.5958  1.1237
  820MPD2    H212070   2.960   2.878  14.681  0.0469 -2.8144 -0.8005
  820MPD2    H312071   3.062   2.665  14.740  0.3199 -0.6605  1.3623
  820MPD2     N12072   3.278   2.834  15.107  0.1049 -0.3726  0.6377
  820MPD2    H512073   3.292   2.740  15.141  2.5486 -0.6651 -1.1409
  820MPD2    N112074   2.967   3.095  14.802 -0.3067 -0.4023 -0.6638
  820MPD2    H712075   2.890   3.077  14.739 -2.5374 -2.0384  2.5681
  821MPD2     C12076   4.337   3.623  13.264 -0.4497 -0.0719 -0.4946
  821MPD2    C112077   4.389   3.729  13.330  0.0182  0.1672 -0.0275
  821MPD2    C212078   4.476   3.810  13.265  0.6115 -0.2502  0.2409
  821MPD2    C312079   4.526   3.781  13.135 -0.5530 -0.8086 -0.0557
  821MPD2    C412080   4.469   3.676  13.071  0.2335 -0.5487 -0.4387
  821MPD2    C512081   4.373   3.598  13.136  0.5258  0.6486 -0.4704
  821MPD2     H12082   4.539   3.877  13.322  0.0063 -0.1386  0.7659
  821MPD2    H112083   4.497   3.651  12.969 -0.2363  2.1841 -1.2462
  821MPD2    H212084   4.272   3.552  13.313 -0.9163 -0.0572 -1.0937
  821MPD2    H312085   4.324   3.507  13.104  2.0918 -0.3130 -0.1812
  821MPD2     N12086   4.632   3.855  13.070 -1.1488  0.1732 -0.3558
  821MPD2    H512087   4.668   3.821  12.981  0.4085  1.0946 -0.0816
  821MPD2    N112088   4.367   3.736  13.466  0.2071 -0.1544  0.4096
  821MPD2    H712089   4.415   3.813  13.511 -0.7673 -0.4309  1.9095
  822MPD2     C12090   4.541   4.143  15.634  0.5314 -0.0693 -0.1815
  822MPD2    C112091   4.560   4.100  15.763 -0.0581 -0.4316  0.1121
  822MPD2    C212092   4.535   4.187  15.868  0.5955 -0.3824 -0.0545
  822MPD2    C312093   4.505   4.323  15.847 -0.2461  0.1346 -0.3600
  822MPD2    C412094   4.480   4.364  15.719  0.5263 -1.0582  0.2097
  822MPD2    C512095   4.506   4.275  15.612  0.3353 -0.9744 -0.2587
  822MPD2     H12096   4.551   4.142  15.966 -0.7057  1.1250  0.8555
  822MPD2    H112097   4.449   4.466  15.699  1.1535 -1.3012 -1.9715
  822MPD2    H212098   4.587   4.093  15.550 -1.0118  0.9526 -1.6228
  822MPD2    H312099   4.499   4.318  15.513  1.3120 -2.4772 -0.9738
  822MPD2     N12100   4.495   4.408  15.960  0.7791 -0.3484 -0.0427
  822MPD2    H512101   4.502   4.369  16.053  0.3371 -1.4486 -0.4752
  822MPD2    N112102   4.620   3.967  15.797  0.5550  0.0803  0.2211
  822MPD2    H712103   4.633   3.952  15.897  0.6546 -2.2997 -0.1633
  823MPD2     C12104   4.430   0.006  16.707  0.8850 -0.8193 -0.4584
  823MPD2    C112105   4.379   4.636  16.618  0.8429  0.6860  0.1186
  823MPD2    C212106   4.325   4.514  16.658 -0.5330 -0.4117 -0.1322
  823MPD2    C312107   4.348   4.475  16.781 -0.3038 -0.2835  0.3648
  823MPD2    C412108   4.392   4.564  16.877  0.6376  0.0397  0.1039
  823MPD2    C512109   4.434   4.691  16.840 -0.4013 -0.3512 -0.3103
  823MPD2     H12110   4.287   4.448  16.581 -0.6934  0.3402 -0.7007
  823MPD2    H112111   4.408   4.540  16.981  1.3122  0.1324  0.0225
  823MPD2    H212112   4.481   0.097  16.678 -2.0848  1.0743  0.2518
  823MPD2    H312113   4.481   0.039  16.910 -0.2048  0.2127 -0.9989
  823MPD2     N12114   4.335   4.343  16.827  0.4818  0.0962  0.1336
  823MPD2    H512115   4.367   4.327  16.922 -0.1858 -1.1778  0.1429
  823MPD2    N112116   4.388   4.660  16.484 -0.2549 -0.3783 -0.4132
  823MPD2    H712117   4.438   0.025  16.459 -0.6327 -0.7689 -2.5263
  824MPD2     C12118   0.373   3.593  15.344  0.7912 -0.1120 -0.7403
  824MPD2    C112119   0.342   3.504  15.440  0.0004 -0.0868  0.5216
  824MPD2    C212120   0.398   3.379  15.447  0.4691  0.2271  0.4726
  824MPD2    C312121   0.486   3.338  15.347  0.0992 -0.4070  0.7086
  824MPD2    C412122   0.531   3.432  15.263  0.3158  0.5088 -0.1022
  824MPD2    C512123   0.471   3.560  15.261 -0.7272 -0.1529  0.8250
  824MPD2     H12124   0.368   3.307  15.522 -1.9185  1.0503  0.2941
  824MPD2    H112125   0.597   3.405  15.181 -1.1651 -0.5323 -0.9329
  824MPD2    H212126   0.324   3.688  15.328  0.9343 -0.1960 -1.6328
  824MPD2    H312127   0.489   3.628  15.178 -0.4455  2.7068  3.2349
  824MPD2     N12128   0.558   3.212  15.345 -0.1466  0.5121 -0.2820
  824MPD2    H512129   0.605   3.194  15.257 -2.0382  0.7725 -1.3624
  824MPD2    N112130   0.242   3.549  15.529  0.2217  0.0068  0.4110
  824MPD2    H712131   0.200   3.640  15.515 -1.8229 -1.3142 -2.0190
  825MPD2     C12132   1.264   3.082  15.246  0.0011 -0.2524  0.0827
  825MPD2    C112133   1.165   3.153  15.310  0.3629 -0.0255  0.4001
  825MPD2    C212134   1.180   3.283  15.337 -0.7519  0.0687  0.9120
  825MPD2    C312135   1.279   3.361  15.282  0.5543  0.0748 -0.7726
  825MPD2    C412136   1.378   3.292  15.220  0.4292  0.4493 -0.2104
  825MPD2    C512137   1.375   3.155  15.213  0.1458 -0.1783 -0.1864
  825MPD2     H12138   1.098   3.334  15.386 -0.5688  2.5865 -1.3908
  825MPD2    H112139   1.460   3.348  15.177  0.1827  0.3848 -0.7752
  825MPD2    H212140   1.267   2.981  15.209  1.1007 -0.8778  1.8698
  825MPD2    H312141   1.462   3.106  15.171  1.1190  1.0456  0.3884
  825MPD2     N12142   1.298   3.501  15.299  0.1081 -0.4409 -0.7769
  825MPD2    H512143   1.382   3.538  15.256 -0.0431  0.0371 -0.6546
  825MPD2    N112144   1.038   3.103  15.355 -0.0095 -0.5997 -0.4154
  825MPD2    H712145   0.966   3.163  15.394 -0.5354 -0.3736 -1.7208
  826MPD2     C12146   0.994   3.208  14.060 -0.1978  0.5471 -0.5136
  826MPD2    C112147   0.911   3.175  13.948 -0.4214  0.1849 -0.1357
  826MPD2    C212148   0.779   3.219  13.946  0.1089 -0.0636  0.6967
  826MPD2    C312149   0.730   3.295  14.050 -0.2800 -0.5865  0.3248
  826MPD2    C412150   0.816   3.328  14.154 -0.4045 -0.1062  0.7816
  826MPD2    C512151   0.943   3.288  14.155  0.5163  0.6672 -0.3375
  826MPD2     H12152   0.714   3.181  13.868 -1.7211  1.9328  1.2545
  826MPD2    H112153   0.783   3.395  14.232 -0.4880  1.2976 -0.4537
  826MPD2    H212154   1.099   3.182  14.059  0.4031  3.0416 -2.3891
  826MPD2    H312155   0.999   3.296  14.248 -1.1469 -0.3582  0.7552
  826MPD2     N12156   0.593   3.337  14.053 -0.2806 -0.0037  0.5923
  826MPD2    H512157   0.568   3.403  14.127  1.4060  0.0518  1.1168
  826MPD2    N112158   0.969   3.092  13.855  0.2660 -0.6528  0.1949
  826MPD2    H712159   1.068   3.071  13.861  0.2880 -0.8145 -0.8183
  827MPD2     C12160   1.584   4.258  10.390  0.0498  0.9834 -0.3444
  827MPD2    C112161   1.707   4.213  10.439 -0.5081 -0.4185 -0.1648
  827MPD2    C212162   1.750   4.090  10.388 -0.5685  0.4883 -0.6080
  827MPD2    C312163   1.668   4.015  10.298  0.7248  0.4646  0.6197
  827MPD2    C412164   1.545   4.063  10.259  0.2636  0.7015 -0.9669
  827MPD2    C512165   1.505   4.184  10.300  0.2550  0.2797  0.5352
  827MPD2     H12166   1.845   4.055  10.426 -3.1586 -2.2545  3.3195
  827MPD2    H112167   1.472   4.024  10.190 -1.1094 -1.8825  1.9236
  827MPD2    H212168   1.545   4.351  10.430 -1.8712  0.5246 -1.1330
  827MPD2    H312169   1.406   4.225  10.280  0.4260 -0.0416 -0.8912
  827MPD2     N12170   1.715   3.884  10.275 -0.1397 -0.4468  0.2088
  827MPD2    H512171   1.810   3.863  10.304  0.5587  1.6161 -0.5750
  827MPD2    N112172   1.780   4.292  10.531  0.2802 -0.4818  1.0725
  827MPD2    H712173   1.727   4.367  10.574 -1.3537 -0.0515 -1.7385
  828MPD2     C12174   0.296   4.310  12.598 -0.6925  0.3079  0.4172
  828MPD2    C112175   0.240   4.313  12.476  0.4803  0.4373 -0.4821
  828MPD2    C212176   0.303   4.243  12.371 -0.7518  0.4988 -0.5032
  828MPD2    C312177   0.425   4.186  12.392 -0.0487 -0.3977  0.9729
  828MPD2    C412178   0.472   4.172  12.520 -0.6055 -0.4755 -0.1455
  828MPD2    C512179   0.410   4.239  12.617 -0.8975 -0.4724  0.3602
  828MPD2     H12180   0.259   4.250  12.272  0.0180 -0.8055 -0.9524
  828MPD2    H112181   0.561   4.118  12.550  1.1426  2.1998 -0.4584
  828MPD2    H212182   0.259   4.364  12.684 -0.7115 -0.4648  0.8891
  828MPD2    H312183   0.457   4.234  12.714 -2.9872  0.3527  1.4113
  828MPD2     N12184   0.503   4.121  12.289  0.4643 -0.4327 -0.6204
  828MPD2    H512185   0.591   4.082  12.319 -0.7141 -1.6204  1.2763
  828MPD2    N112186   0.122   4.380  12.445 -1.0302  0.2864 -0.1520
  828MPD2    H712187   0.100   4.401  12.349 -0.3251  1.6319 -0.0230
  829MPD2     C12188   4.535   0.006  11.789 -0.6729  0.1659 -0.1870
  829MPD2    C112189   4.459   0.062  11.891 -0.2845  1.1245  0.2598
  829MPD2    C212190   4.503   0.055  12.024 -0.4386 -0.4413  0.1368
  829MPD2    C312191   4.620   4.704  12.050 -0.4094 -0.3721  0.1756
  829MPD2    C412192   4.696   4.644  11.949 -0.2304 -0.9668  0.0183
  829MPD2    C512193   4.648   4.655  11.814  0.0983  0.0434  0.1593
  829MPD2     H12194   4.450   0.098  12.108  0.6258  0.1177  0.5165
  829MPD2    H112195   0.066   4.587  11.967  0.9592  1.8070  2.8790
  829MPD2    H212196   4.508   0.025  11.685 -0.5708 -0.4482 -0.3264
  829MPD2    H312197   4.711   4.625  11.730  2.2816 -0.4944  2.0071
  829MPD2     N12198   4.673   4.699  12.176  0.3398  0.1261  0.5435
  829MPD2    H512199   0.028   4.634  12.197  0.5912 -0.2912 -1.6661
  829MPD2    N112200   4.340   0.134  11.857  0.3882 -0.1560 -0.1164
  829MPD2    H712201   4.313   0.134  11.759 -0.9609  0.5007  0.2584
  830MPD2     C12202   4.550   2.119  15.547 -0.4078 -0.8747 -0.0793
  830MPD2    C112203   4.445   2.207  15.537  0.5607  0.4704  0.4039
  830MPD2    C212204   4.364   2.200  15.424  0.0230  0.5055 -0.9226
  830MPD2    C312205   4.413   2.123  15.319  0.2669 -0.0028 -0.2462
  830MPD2    C412206   4.515   2.034  15.327 -0.3620 -0.5631 -0.3934
  830MPD2    C512207   4.577   2.028  15.446 -0.6771  0.3197 -0.2613
  830MPD2     H12208   4.275   2.261  15.418 -0.4233 -0.2569 -2.0297
  830MPD2    H112209   4.544   1.972  15.243 -1.0084  0.7931 -1.6297
  830MPD2    H212210   4.602   2.119  15.643  0.4565 -2.5950 -0.5427
  830MPD2    H312211   4.659   1.959  15.463 -1.7884 -0.5266  1.7128
  830MPD2     N12212   4.365   2.141  15.190 -0.4965  0.4787  0.0599
  830MPD2    H512213   4.387   2.066  15.125 -0.3103  1.1943 -0.6874
  830MPD2    N112214   4.415   2.281  15.649 -0.1437 -0.6558  0.3470
  830MPD2    H712215   4.477   2.278  15.729  0.0634  1.6577  0.2490
  831MPD2     C12216   0.092   4.246  16.397 -0.2965 -0.4098 -0.0124
  831MPD2    C112217   0.043   4.190  16.282 -0.6114  0.4940 -0.1702
  831MPD2    C212218   4.628   4.189  16.252  0.3615 -0.2139  0.4555
  831MPD2    C312219   4.535   4.244  16.343  0.1267  0.5431 -0.9738
  831MPD2    C412220   4.581   4.304  16.464 -0.1624  0.5369 -0.3751
  831MPD2    C512221   4.718   4.299  16.488 -0.0555 -0.4005 -0.1158
  831MPD2     H12222   4.587   4.149  16.159  0.2659  0.4605  0.2110
  831MPD2    H112223   4.517   4.347  16.541  0.3097  0.4713  0.0558
  831MPD2    H212224   0.198   4.260  16.414 -0.0390 -0.4560 -1.6510
  831MPD2    H312225   0.035   4.352  16.575 -0.3864 -3.6349  1.9728
  831MPD2     N12226   4.394   4.233  16.329 -0.0366 -0.6632  0.2090
  831MPD2    H512227   4.345   4.267  16.411  1.5232  0.5726  0.6242
  831MPD2    N112228   0.140   4.144  16.188 -0.3044 -0.4524  0.5693
  831MPD2    H712229   0.232   4.186  16.191 -0.8234  0.8206 -1.0795
  832MPD2     C12230   3.282   0.325  17.087  0.2091 -0.1734 -0.5254
  832MPD2    C112231   3.287   0.463  17.093  0.0100 -0.2336 -0.3386
  832MPD2    C212232   3.182   0.540  17.047 -0.0116  0.6278 -0.0045
  832MPD2    C312233   3.074   0.480  16.999 -1.3163 -0.1169  0.1154
  832MPD2    C412234   3.064   0.342  16.984  0.4785  0.2547 -0.2936
  832MPD2    C512235   3.169   0.262  17.035  0.2786 -0.6368  0.2905
  832MPD2     H12236   3.171   0.645  17.070  1.4974  1.0797 -1.3505
  832MPD2    H112237   2.977   0.287  16.949  0.3319  0.2255  0.1235
  832MPD2    H212238   3.360   0.262  17.125  0.9395  0.8752 -0.2778
  832MPD2    H312239   3.162   0.155  17.048  0.7970 -0.7398 -0.2733
  832MPD2     N12240   2.960   0.559  16.970  0.4751  0.0470 -0.0610
  832MPD2    H512241   2.884   0.500  16.939  0.8713 -1.4291  1.8319
  832MPD2    N112242   3.399   0.520  17.156 -0.3190  0.4260 -0.0605
  832MPD2    H712243   3.471   0.456  17.186  1.3603  1.1112 -2.6247
  833MPD2     C12244   0.925   2.358  12.634 -0.1505  0.0530  0.4231
  833MPD2    C112245   0.986   2.420  12.529 -0.1624 -0.6404  0.4540
  833MPD2    C212246   1.070   2.348  12.448  0.1627 -0.1413  0.3609
  833MPD2    C312247   1.096   2.219  12.483  0.6119  0.7639  0.2447
  833MPD2    C412248   1.041   2.150  12.587  0.1329  0.1792  0.5869
  833MPD2    C512249   0.952   2.229  12.663  0.4940 -0.1303  0.5745
  833MPD2     H12250   1.121   2.398  12.366 -1.8366  0.7995 -0.3356
  833MPD2    H112251   1.046   2.043  12.602 -1.2443  0.0721  0.3150
  833MPD2    H212252   0.847   2.408  12.689 -1.2590 -0.7305 -0.4498
  833MPD2    H312253   0.889   2.180  12.736 -0.1683 -0.4052 -0.1853
  833MPD2     N12254   1.198   2.163  12.403 -0.2961 -0.1091 -0.0105
  833MPD2    H512255   1.228   2.222  12.326  0.4580  0.6002  0.8244
  833MPD2    N112256   0.934   2.553  12.502 -0.0873  0.3336 -0.4647
  833MPD2    H712257   0.863   2.585  12.568  1.3178 -2.2181  2.3131
  834MPD2     C12258   0.782   1.548  11.722  0.6205  0.1662  0.9143
  834MPD2    C112259   0.871   1.624  11.655  0.5206  0.2805 -0.0563
  834MPD2    C212260   0.957   1.718  11.712 -0.1247  0.5703  0.6224
  834MPD2    C312261   0.958   1.718  11.852 -0.1119 -0.0700 -0.1135
  834MPD2    C412262   0.875   1.633  11.925  0.5733 -0.1493  0.1495
  834MPD2    C512263   0.770   1.567  11.857 -0.3627  0.0522 -0.3937
  834MPD2     H12264   1.032   1.774  11.658 -1.5634  0.8014 -1.1342
  834MPD2    H112265   0.862   1.632  12.033 -1.0783 -0.5188 -0.0455
  834MPD2    H212266   0.705   1.489  11.674  0.9361  0.7434 -0.2892
  834MPD2    H312267   0.691   1.511  11.904  0.6942  1.1731  2.7032
  834MPD2     N12268   1.048   1.795  11.926 -0.1088 -0.0232  0.4848
  834MPD2    H512269   1.115   1.851  11.874 -0.4132  0.2469  0.3792
  834MPD2    N112270   0.869   1.595  11.519  0.0945  1.0671 -0.2754
  834MPD2    H712271   0.787   1.565  11.467  0.2636 -1.7679  1.1138
  835MPD2     C12272   0.864   4.005  11.478  0.5884  0.4780  0.1403
  835MPD2    C112273   0.779   4.101  11.522  0.5451  0.3783  0.2484
  835MPD2    C212274   0.818   4.173  11.630 -0.2625  0.8721  0.0308
  835MPD2    C312275   0.942   4.143  11.687  0.3207 -0.6974  0.3355
  835MPD2    C412276   1.028   4.059  11.634  0.0273  0.0903 -0.2575
  835MPD2    C512277   0.985   3.985  11.527 -0.2610 -0.0161  0.8013
  835MPD2     H12278   0.745   4.242  11.672 -1.0291  1.0657 -1.6350
  835MPD2    H112279   1.116   4.027  11.689 -0.5769  1.3061  1.4104
  835MPD2    H212280   0.829   3.942  11.397  1.5200 -0.3516  0.3810
  835MPD2    H312281   1.039   3.898  11.490 -1.0348  1.0171 -2.7736
  835MPD2     N12282   0.997   4.212  11.802 -0.1722  0.1874  0.2517
  835MPD2    H512283   1.096   4.199  11.815 -0.5002 -1.6945  0.8211
  835MPD2    N112284   0.651   4.122  11.460 -0.7844 -0.7393 -0.6375
  835MPD2    H712285   0.592   4.195  11.498  1.2475 -0.0018  1.0941
  836MPD2     C12286   0.744   0.178  11.958  0.4304 -0.9649  0.0877
  836MPD2    C112287   0.817   0.130  12.060 -0.1205  0.1195  0.7445
  836MPD2    C212288   0.784   0.139  12.190 -0.2139 -0.1122 -0.4242
  836MPD2    C312289   0.668   0.210  12.225 -0.7871 -0.8324 -0.3918
  836MPD2    C412290   0.598   0.273  12.125  0.2787  0.0353  0.6921
  836MPD2    C512291   0.629   0.252  11.992  0.8138 -0.0158  0.1115
  836MPD2     H12292   0.844   0.094  12.268 -0.2508  0.6021  0.0113
  836MPD2    H112293   0.500   0.315  12.146  0.2563 -0.5207  1.7321
  836MPD2    H212294   0.765   0.177  11.852 -0.5989 -0.4505 -0.1157
  836MPD2    H312295   0.559   0.285  11.916  0.9450  0.4237  0.1798
  836MPD2     N12296   0.619   0.227  12.353  0.4040  0.2452 -0.7329
  836MPD2    H512297   0.527   0.270  12.352 -0.9797 -2.6689 -0.6581
  836MPD2    N112298   0.925   0.046  12.025  0.4860  0.4930 -0.5429
  836MPD2    H712299   0.934   0.004  11.933  1.7666  0.5653 -0.4435
  837MPD2     C12300   3.658   4.150  10.189  0.3683  0.1237  0.2204
  837MPD2    C112301   3.658   4.238  10.081 -0.6947  0.3756  0.7930
  837MPD2    C212302   3.582   4.358  10.094  0.7726  0.5117 -0.3718
  837MPD2    C312303   3.510   4.387  10.207 -0.1187  0.3520 -0.0243
  837MPD2    C412304   3.521   4.305  10.318 -0.3685 -0.1421 -0.3063
  837MPD2    C512305   3.591   4.190  10.305 -0.3918 -0.2339  0.2275
  837MPD2     H12306   3.572   4.421  10.007 -1.3867  1.9333  0.8888
  837MPD2    H112307   3.456   4.306  10.405 -0.6347 -0.3162 -0.5013
  837MPD2    H212308   3.713   4.056  10.188 -0.8900 -0.5975 -2.6253
  837MPD2    H312309   3.580   4.114  10.382 -0.9240  1.8020  2.1636
  837MPD2     N12310   3.423   4.497  10.201  0.3214 -0.5155  0.1353
  837MPD2    H512311   3.442   4.558  10.122  1.3699 -1.0023  0.0027
  837MPD2    N112312   3.723   4.211   9.959 -0.0819 -0.3397 -0.0034
  837MPD2    H712313   3.705   4.290   9.897  0.0785  0.2007  0.6445
  838MPD2     C12314   2.435   2.933  11.985 -0.3840 -0.0548 -0.0922
  838MPD2    C112315   2.375   2.815  11.940  0.8138 -0.4247  0.0515
  838MPD2    C212316   2.285   2.747  12.019  0.7875  0.0692  0.5160
  838MPD2    C312317   2.237   2.803  12.134 -0.2109 -0.8060 -1.0631
  838MPD2    C412318   2.293   2.925  12.179  0.6623 -0.3311  0.3812
  838MPD2    C512319   2.387   2.987  12.104 -0.3624 -0.3851  0.1559
  838MPD2     H12320   2.250   2.647  12.000  0.2352 -0.0622  2.2751
  838MPD2    H112321   2.264   2.975  12.271  0.1869  1.2672 -0.6308
  838MPD2    H212322   2.521   2.976  11.935 -0.4373  0.7512  0.5169
  838MPD2    H312323   2.421   3.085  12.139  0.0083 -0.2838 -0.4815
  838MPD2     N12324   2.126   2.749  12.200  0.4989  0.1023 -0.2072
  838MPD2    H512325   2.092   2.659  12.166 -1.8908  0.3350  1.6179
  838MPD2    N112326   2.407   2.754  11.820 -0.1599  0.3217  0.4878
  838MPD2    H712327   2.371   2.659  11.817 -0.7879  0.5991 -0.8686
  839MPD2     C12328   1.898   2.180  11.723  0.2055 -0.3379  0.3507
  839MPD2    C112329   1.934   2.185  11.591 -0.4221 -0.0169  0.1702
  839MPD2    C212330   2.039   2.261  11.554 -0.2661 -0.2515  0.4363
  839MPD2    C312331   2.115   2.328  11.645 -0.3021 -0.2460  0.2217
  839MPD2    C412332   2.075   2.330  11.777 -0.1282 -0.4233 -0.4419
  839MPD2    C512333   1.964   2.261  11.814 -0.7436 -0.3230  0.1817
  839MPD2     H12334   2.058   2.271  11.447  1.6531  2.2330  1.0043
  839MPD2    H112335   2.128   2.392  11.849  1.1798 -1.5813 -0.4102
  839MPD2    H212336   1.818   2.115  11.759  0.8817 -0.3004  1.9118
  839MPD2    H312337   1.951   2.256  11.921  0.0710 -1.9050  0.2010
  839MPD2     N12338   2.228   2.403  11.616  0.1202 -0.0631  0.5920
  839MPD2    H512339   2.273   2.445  11.697  0.4467 -1.3003  1.0480
  839MPD2    N112340   1.858   2.110  11.494  0.1736  0.6351 -0.7581
  839MPD2    H712341   1.888   2.113  11.397 -0.7843  2.7126 -0.9927
  840MPD2     C12342   2.531   4.397  10.647 -0.3357 -0.2050  0.5174
  840MPD2    C112343   2.469   4.407  10.770  0.7119  0.2885 -0.0977
  840MPD2    C212344   2.525   4.487  10.867  0.0049  0.8390  0.1322
  840MPD2    C312345   2.647   4.543  10.847 -0.2201  0.0659 -0.2269
  840MPD2    C412346   2.714   4.532  10.734  0.1398  0.4954 -0.4368
  840MPD2    C512347   2.656   4.459  10.630 -0.5292 -0.1929  0.0560
  840MPD2     H12348   2.486   4.514  10.965  1.5917  0.6961  0.8054
  840MPD2    H112349   2.809   4.578  10.713  0.6296  0.2331  1.1883
  840MPD2    H212350   2.483   4.345  10.565  0.1520 -1.7933  1.2469
  840MPD2    H312351   2.714   4.451  10.539  1.7220 -0.8786  1.5345
  840MPD2     N12352   2.714   4.617  10.942 -0.5917  0.2068 -0.5797
  840MPD2    H512353   2.796   4.668  10.911  0.1012 -0.0435  0.8363
  840MPD2    N112354   2.334   4.361  10.775  0.4937 -0.2425  0.2671
  840MPD2    H712355   2.300   4.314  10.691  0.6662  0.1409 -0.0164
  841MPD2     C12356   1.709   0.057  14.373 -0.2098 -0.1975 -0.0002
  841MPD2    C112357   1.702   4.662  14.448 -0.1746 -0.3609  0.5764
  841MPD2    C212358   1.805   4.627  14.535  0.1216  0.0531 -0.3574
  841MPD2    C312359   1.910   4.717  14.555  0.3011 -0.1768  0.6076
  841MPD2    C412360   1.906   0.115  14.488  0.2159 -0.4633 -0.0326
  841MPD2    C512361   1.812   0.144  14.400  1.0066  0.9323  0.0731
  841MPD2     H12362   1.802   4.531  14.584  1.4486  0.4282  0.4687
  841MPD2    H112363   1.980   0.193  14.503  0.3263 -0.1980 -1.9633
  841MPD2    H212364   1.637   0.089  14.299  1.6899  1.1759 -1.2667
  841MPD2    H312365   1.823   0.236  14.344 -3.1140  0.3079 -1.7626
  841MPD2     N12366   2.014   4.683  14.647 -0.8867 -0.8082 -0.4578
  841MPD2    H512367   2.005   4.592  14.692  1.0627 -0.2059  1.1271
  841MPD2    N112368   1.592   4.571  14.427  0.0912 -0.3111  0.0870
  841MPD2    H712369   1.594   4.479  14.470 -0.0364 -0.3583 -0.0065
  842MPD2     C12370   2.551   1.265  16.579  0.0403  0.4415 -0.2418
  842MPD2    C112371   2.448   1.198  16.634  0.2280  0.2847  0.5458
  842MPD2    C212372   2.446   1.176  16.772 -0.4572  0.6120  0.4357
  842MPD2    C312373   2.548   1.221  16.852  0.2403 -0.0951  0.6576
  842MPD2    C412374   2.650   1.289  16.793  1.1146 -0.1871  0.4581
  842MPD2    C512375   2.650   1.313  16.662  0.8807 -0.7213  0.2017
  842MPD2     H12376   2.362   1.135  16.826 -1.5762 -0.8593 -2.3967
  842MPD2    H112377   2.727   1.335  16.854  0.2597  2.2589 -0.2937
  842MPD2    H212378   2.550   1.274  16.471 -0.1859 -2.8505 -0.5342
  842MPD2    H312379   2.733   1.373  16.625  0.2546  0.7696  1.2123
  842MPD2     N12380   2.551   1.204  16.993  0.4474 -0.1400  0.0307
  842MPD2    H512381   2.616   1.264  17.044 -0.0155  0.1788  0.2528
  842MPD2    N112382   2.345   1.158  16.548 -0.0598  0.4883  0.2698
  842MPD2    H712383   2.346   1.181  16.449 -0.1013  1.4781  0.5038
  843MPD2     C12384   0.020   1.353   0.470 -0.3021  0.2582  0.3866
  843MPD2    C112385   4.719   1.483   0.523 -0.0844 -0.2288 -0.1593
  843MPD2    C212386   4.648   1.573   0.445  0.4718  0.0112  0.3221
  843MPD2    C312387   4.596   1.550   0.314 -0.5549  0.4840  0.0835
  843MPD2    C412388   4.624   1.423   0.261  0.1343 -0.2556  0.0556
  843MPD2    C512389   4.696   1.330   0.339  0.2790 -0.0260 -0.1545
  843MPD2     H12390   4.631   1.670   0.491  1.5865 -0.2750  1.3254
  843MPD2    H112391   4.592   1.396   0.161  0.5975 -2.0097  0.3877
  843MPD2    H212392   0.067   1.275   0.530  0.7516  0.5556 -0.0563
  843MPD2    H312393   0.013   1.235   0.304  0.0994 -0.3745  0.6088
  843MPD2     N12394   4.535   1.645   0.224 -0.2770 -0.5455  0.1725
  843MPD2    H512395   4.530   1.631   0.123 -1.2853  2.8408 -0.2576
  843MPD2    N112396   0.043   1.510   0.653 -0.2315  0.3898  0.2158
  843MPD2    H712397   0.102   1.436   0.690 -1.6525 -0.9724 -0.2559
  844MPD2     C12398   2.691   0.443  16.429 -0.0994  0.0797  0.8205
  844MPD2    C112399   2.783   0.343  16.436  0.7200 -1.0860 -0.4268
  844MPD2    C212400   2.914   0.369  16.475 -0.0064  0.3378 -0.0983
  844MPD2    C312401   2.944   0.494  16.519 -0.2247  0.2168  0.0474
  844MPD2    C412402   2.844   0.595  16.513 -0.4778  0.2593  0.1763
  844MPD2    C512403   2.723   0.569  16.463 -0.4291  0.0195 -0.2824
  844MPD2     H12404   2.984   0.287  16.483 -1.5834 -0.8420  1.6592
  844MPD2    H112405   2.869   0.696  16.545 -2.0479  0.6506  0.1628
  844MPD2    H212406   2.594   0.422  16.385 -0.9185  1.8044  1.7993
  844MPD2    H312407   2.643   0.642  16.467 -0.3902 -0.0290  1.4157
  844MPD2     N12408   3.071   0.512  16.573  0.0874  0.4312 -0.8019
  844MPD2    H512409   3.130   0.431  16.585 -0.3655  0.1741 -0.2957
  844MPD2    N112410   2.753   0.208  16.402  0.2552 -0.1934 -0.4471
  844MPD2    H712411   2.834   0.148  16.400 -0.6516 -1.4188 -0.0757
  845MPD2     C12412   3.816   1.179  17.021  0.0815  0.4176  0.9411
  845MPD2    C112413   3.699   1.204  16.950  0.0465  0.2675 -1.2318
  845MPD2    C212414   3.633   1.099  16.905  0.2443 -1.3667  0.3226
  845MPD2    C312415   3.673   0.968  16.929  0.4741 -0.1812 -0.6944
  845MPD2    C412416   3.791   0.944  16.992 -0.2129  0.3463  0.2358
  845MPD2    C512417   3.866   1.046  17.037  0.2131 -0.3475 -0.5984
  845MPD2     H12418   3.530   1.112  16.874  0.2181  0.9609  1.4041
  845MPD2    H112419   3.827   0.843  17.007  1.1052  0.8383  0.4117
  845MPD2    H212420   3.882   1.257  17.056  1.0751  0.2728 -0.6210
  845MPD2    H312421   3.961   1.024  17.085  0.6010  3.0028  0.2001
  845MPD2     N12422   3.596   0.855  16.886  0.7221  0.3699 -0.3058
  845MPD2    H512423   3.642   0.764  16.893 -2.3570 -0.9978  2.2361
  845MPD2    N112424   3.647   1.341  16.932  0.0319 -0.2491  0.1892
  845MPD2    H712425   3.699   1.419  16.972 -3.1935  1.8016  0.3655
  846MPD2     C12426   4.584   1.714  14.013 -0.1573 -0.5482 -0.2285
  846MPD2    C112427   4.538   1.830  13.950  0.3518  0.3549 -0.4567
  846MPD2    C212428   4.421   1.896  13.993  0.0310 -0.7110  0.5121
  846MPD2    C312429   4.376   1.862  14.116 -0.4494 -0.5486 -0.3013
  846MPD2    C412430   4.420   1.747  14.183  0.0642 -0.4719 -0.6717
  846MPD2    C512431   4.516   1.672  14.126 -0.0328 -0.4194  0.0922
  846MPD2     H12432   4.390   1.990  13.949  2.1848 -0.6324 -0.8668
  846MPD2    H112433   4.385   1.717  14.281 -2.0111  2.6395 -0.4573
  846MPD2    H212434   4.672   1.661  13.978 -0.6589 -0.5663 -1.4346
  846MPD2    H312435   4.554   1.581  14.169 -1.2646 -1.0608 -0.1884
  846MPD2     N12436   4.284   1.956  14.170  0.1129  0.1119 -0.0274
  846MPD2    H512437   4.284   2.045  14.121 -1.0425 -0.8513 -1.7999
  846MPD2    N112438   4.604   1.888  13.833  0.2690 -0.0439 -0.3706
  846MPD2    H712439   4.571   1.979  13.804 -0.2196 -0.0680  0.1029
  847MPD2     C12440   4.581   2.675  14.266  0.0552 -0.2322 -1.1696
  847MPD2    C112441   4.638   2.700  14.382  0.0086 -0.1987 -0.6326
  847MPD2    C212442   4.669   2.595  14.462  0.3255 -0.6789 -0.0254
  847MPD2    C312443   4.653   2.464  14.416  0.3626 -0.7275  0.3960
  847MPD2    C412444   4.600   2.438  14.291  0.3241  0.0574 -0.2445
  847MPD2    C512445   4.566   2.547  14.214  0.1941 -0.1323 -0.1421
  847MPD2     H12446   0.006   2.615  14.552  0.9735 -0.4240 -0.4918
  847MPD2    H112447   4.583   2.343  14.242 -1.1002 -0.6108  1.5878
  847MPD2    H212448   4.548   2.752  14.198 -0.4233  0.2978 -0.3377
  847MPD2    H312449   4.519   2.538  14.117  0.4633  1.5446 -0.4351
  847MPD2     N12450   4.714   2.365  14.488  0.1262  0.3909 -0.1508
  847MPD2    H512451   0.039   2.392  14.574  0.6567  0.8526 -0.5731
  847MPD2    N112452   4.664   2.826  14.437 -0.4083 -0.5062 -0.4149
  847MPD2    H712453   4.693   2.829  14.534 -0.9405  0.0519 -0.2683
  848MPD2     C12454   2.579   0.874  16.368 -0.2472  0.5339  0.6090
  848MPD2    C112455   2.678   0.945  16.433 -0.4756 -0.1314 -0.2550
  848MPD2    C212456   2.766   1.020  16.345  0.3353  0.6634  0.2211
  848MPD2    C312457   2.750   1.022  16.206 -0.6250 -0.4829  0.4697
  848MPD2    C412458   2.646   0.954  16.151 -0.6548  0.1621  0.4268
  848MPD2    C512459   2.556   0.881  16.232 -0.1488  0.8422  0.6116
  848MPD2     H12460   2.851   1.069  16.391  1.0460 -0.5943  0.2362
  848MPD2    H112461   2.626   0.971  16.045  0.1490 -1.3510  0.0276
  848MPD2    H212462   2.507   0.809  16.418 -2.6280  0.4458 -2.9589
  848MPD2    H312463   2.469   0.832  16.188 -1.4120  0.9859  2.9621
  848MPD2     N12464   2.827   1.094  16.119 -0.0239 -0.1506  0.0007
  848MPD2    H512465   2.794   1.089  16.023 -1.2962 -3.5020  0.6154
  848MPD2    N112466   2.696   0.938  16.574  0.1096 -0.1228  0.2364
  848MPD2    H712467   2.779   0.988  16.604  0.1703 -0.2843  0.3414
  849MPD2     C12468   1.597   0.579  13.939  0.3545 -0.0725 -0.1507
  849MPD2    C112469   1.650   0.706  13.946  0.7686  0.0668 -0.0228
  849MPD2    C212470   1.759   0.724  14.023  0.0398  0.3372 -0.1501
  849MPD2    C312471   1.820   0.618  14.091  0.5021 -0.2299  0.0096
  849MPD2    C412472   1.757   0.497  14.085 -0.2027 -0.2686  0.2382
  849MPD2    C512473   1.644   0.477  14.020  1.2966  0.2670  0.4728
  849MPD2     H12474   1.816   0.816  14.020 -1.4200  1.1773 -1.6470
  849MPD2    H112475   1.796   0.406  14.129 -0.7396 -0.6618 -0.0836
  849MPD2    H212476   1.509   0.558  13.880 -0.0898  2.1217 -0.2751
  849MPD2    H312477   1.600   0.378  14.010  2.3349 -0.3424  1.9033
  849MPD2     N12478   1.954   0.613  14.137  0.3553 -0.1373 -0.2494
  849MPD2    H512479   2.005   0.526  14.129 -1.7424 -1.3056 -0.8731
  849MPD2    N112480   1.600   0.799  13.859 -0.8841  0.8195 -0.2171
  849MPD2    H712481   1.535   0.770  13.786  0.3609  1.3273 -1.5395
  850MPD2     C12482   0.343   3.064  15.002 -0.1513 -0.2701  0.0933
  850MPD2    C112483   0.352   3.204  14.996 -0.0004  0.4605  0.7633
  850MPD2    C212484   0.479   3.264  14.982  0.0325 -0.1869  0.0408
  850MPD2    C312485   0.595   3.188  14.981 -0.1984  1.0588 -0.0199
  850MPD2    C412486   0.586   3.050  14.995  0.6933  0.1409 -0.0145
  850MPD2    C512487   0.463   2.994  15.008  0.1801  0.5930  0.5669
  850MPD2     H12488   0.485   3.371  14.968  0.3703 -0.4297 -1.7083
  850MPD2    H112489   0.670   2.983  14.981 -0.2659 -0.9998 -0.2009
  850MPD2    H212490   0.253   3.018  15.041  1.1517 -3.2119 -0.3535
  850MPD2    H312491   0.460   2.886  15.022  1.1585  0.1223 -2.8334
  850MPD2     N12492   0.728   3.239  14.985  0.3979  0.5186  0.3759
  850MPD2    H512493   0.808   3.179  15.004  1.1406  0.6389 -2.3945
  850MPD2    N112494   0.235   3.276  15.025 -0.2351 -0.0736  0.0519
  850MPD2    H712495   0.148   3.226  15.041  0.3763 -0.9530  0.5884
  851MPD2     C12496   4.663   3.077  15.550  0.0722 -0.1661  0.2280
  851MPD2    C112497   4.604   3.102  15.428 -0.8423 -0.2769 -0.9745
  851MPD2    C212498   4.529   3.003  15.364 -0.3469 -0.7127 -0.3212
  851MPD2    C312499   4.524   2.880  15.419  0.2734  0.6887 -0.3223
  851MPD2    C412500   4.580   2.855  15.547  1.1399 -0.6032  0.1558
  851MPD2    C512501   4.646   2.956  15.613 -0.1473  0.5296 -0.8094
  851MPD2     H12502   4.485   3.014  15.266  2.8172  0.1155 -1.6458
  851MPD2    H112503   4.564   2.761  15.599  1.9384 -1.3736 -1.0137
  851MPD2    H212504   4.718   3.150  15.607 -0.8857 -0.1809  1.1690
  851MPD2    H312505   4.691   2.943  15.711  1.1144 -0.0363 -1.4677
  851MPD2     N12506   4.450   2.778  15.353  0.3007  0.0609 -0.5997
  851MPD2    H512507   4.393   2.811  15.276  0.1429 -0.1781 -0.5837
  851MPD2    N112508   4.615   3.225  15.361 -0.0008  0.3263  0.4656
  851MPD2    H712509   4.578   3.223  15.267  2.0252 -0.2723 -0.3235
  852MPD2     C12510   0.103   0.728   9.937 -0.6362 -0.2414  0.0408
  852MPD2    C112511   0.198   0.777  10.015 -0.0455  0.3066  0.1052
  852MPD2    C212512   0.326   0.802   9.964  0.3069 -0.4724  0.2621
  852MPD2    C312513   0.351   0.792   9.831  0.2581  0.1280 -0.1548
  852MPD2    C412514   0.251   0.735   9.752  0.0941 -0.5622 -0.3406
  852MPD2    C512515   0.132   0.709   9.801 -0.7519 -0.3068 -0.4628
  852MPD2     H12516   0.405   0.844  10.024 -0.2372  1.7236 -0.5474
  852MPD2    H112517   0.260   0.713   9.646 -2.0567 -2.0371 -0.2149
  852MPD2    H212518   0.007   0.700   9.979  0.6304 -3.1776  1.0184
  852MPD2    H312519   0.060   0.665   9.733  1.2504  0.2007 -2.9283
  852MPD2     N12520   0.489   0.811   9.792  0.2059  0.0411 -0.0584
  852MPD2    H512521   0.555   0.805   9.869 -0.7441  2.2135  0.9274
  852MPD2    N112522   0.173   0.807  10.152 -0.1667  0.4068  0.2661
  852MPD2    H712523   0.235   0.867  10.206  2.3892 -2.0178  0.0133
  853MPD2     C12524   1.775   1.013  12.433 -0.2098  0.1432 -0.2413
  853MPD2    C112525   1.729   1.140  12.416 -0.1018 -0.3780 -0.0428
  853MPD2    C212526   1.742   1.195  12.283 -0.8905 -0.0169  0.3030
  853MPD2    C312527   1.801   1.114  12.185  0.0743  0.5024  0.2474
  853MPD2    C412528   1.854   0.987  12.217 -0.2003  0.4106  0.6457
  853MPD2    C512529   1.837   0.932  12.337  0.1571 -0.1027  0.5978
  853MPD2     H12530   1.688   1.284  12.253  1.8143  1.6164  0.2661
  853MPD2    H112531   1.905   0.923  12.145 -2.2699  0.5959 -0.9731
  853MPD2    H212532   1.761   0.966  12.529 -0.1406 -0.3994 -0.4976
  853MPD2    H312533   1.881   0.836  12.360  0.6022  0.4813  2.1832
  853MPD2     N12534   1.820   1.154  12.051 -0.6607 -0.5464 -0.6086
  853MPD2    H512535   1.853   1.080  11.990 -0.1675 -0.1285 -0.8508
  853MPD2    N112536   1.658   1.208  12.524  0.0640 -0.1036  0.1894
  853MPD2    H712537   1.653   1.152  12.609 -1.2886  0.6268  0.5958
  854MPD2     C12538   3.558   0.644  12.987  0.2308  0.7882  0.5338
  854MPD2    C112539   3.627   0.675  12.872  0.3808  0.4040  0.4092
  854MPD2    C212540   3.764   0.697  12.886 -0.9042  0.3779 -0.2576
  854MPD2    C312541   3.834   0.687  13.004 -0.5027 -0.2190 -0.2748
  854MPD2    C412542   3.758   0.661  13.113 -0.5065 -0.0691 -0.5803
  854MPD2    C512543   3.623   0.633  13.104 -0.3675  0.1513  0.2503
  854MPD2     H12544   3.827   0.723  12.801  2.7567 -1.1082  1.9657
  854MPD2    H112545   3.796   0.665  13.214 -2.6339  0.9914  0.1759
  854MPD2    H212546   3.456   0.607  12.988 -0.1152  1.7689  1.1975
  854MPD2    H312547   3.564   0.608  13.192 -1.3659 -1.5458 -0.8961
  854MPD2     N12548   3.972   0.711  13.017 -0.7459 -0.3395 -0.2429
  854MPD2    H512549   4.013   0.701  13.110  1.5297  2.7010 -0.9336
  854MPD2    N112550   3.566   0.668  12.745 -0.7313 -0.4349 -0.0528
  854MPD2    H712551   3.475   0.625  12.738 -0.1194 -1.3526 -2.5333
  855MPD2     C12552   4.617   0.974  13.687 -0.3570 -0.2738 -0.4490
  855MPD2    C112553   4.518   0.883  13.665  0.2828  0.2552  0.3704
  855MPD2    C212554   4.466   0.874  13.537 -0.2269  0.9117  0.1333
  855MPD2    C312555   4.507   0.949  13.433  0.2055 -1.1434  0.0601
  855MPD2    C412556   4.616   1.032  13.458 -0.2584  0.3659 -0.4145
  855MPD2    C512557   4.671   1.047  13.585  0.8293  0.1183  0.3603
  855MPD2     H12558   4.385   0.802  13.527  0.8161 -0.0589 -1.2494
  855MPD2    H112559   4.654   1.091  13.376  2.4290 -1.2196 -0.3042
  855MPD2    H212560   4.655   0.988  13.787 -0.5557  3.9936 -0.9483
  855MPD2    H312561   0.032   1.114  13.608  1.7027 -0.8749  0.1809
  855MPD2     N12562   4.451   0.944  13.305  0.0745  0.0960  0.1247
  855MPD2    H512563   4.495   0.988  13.225 -0.7070  0.2888 -0.1918
  855MPD2    N112564   4.454   0.804  13.764  0.4993  0.3357 -0.6786
  855MPD2    H712565   4.373   0.749  13.736 -1.9672  3.5611  0.2093
  856MPD2     C12566   0.988   2.415  13.602  0.2484  0.6215  0.1019
  856MPD2    C112567   0.996   2.464  13.727 -0.2190 -0.3930 -0.4727
  856MPD2    C212568   0.903   2.553  13.766  0.2802  0.3855 -0.1480
  856MPD2    C312569   0.790   2.578  13.694  0.5858 -0.2166  0.6590
  856MPD2    C412570   0.778   2.524  13.566 -0.9103 -0.1770 -0.4726
  856MPD2    C512571   0.881   2.442  13.526  0.6157  0.3122 -1.0090
  856MPD2     H12572   0.926   2.596  13.863 -0.2554 -1.6446  0.8610
  856MPD2    H112573   0.692   2.532  13.500 -1.2280  4.6386  0.5436
  856MPD2    H212574   1.069   2.362  13.552  0.8950  2.9846 -1.3534
  856MPD2    H312575   0.880   2.395  13.428 -1.5458  0.2374 -0.9586
  856MPD2     N12576   0.685   2.663  13.736  0.3480  0.1176 -0.2450
  856MPD2    H512577   0.603   2.671  13.677  1.5499 -1.3609 -2.1336
  856MPD2    N112578   1.102   2.441  13.819  0.2286  0.5112  0.0559
  856MPD2    H712579   1.096   2.485  13.910 -1.8012 -1.6927  0.9978
  857MPD2     C12580   2.298   4.048  13.369 -0.1494 -0.2108  0.0625
  857MPD2    C112581   2.430   4.045  13.346 -0.3358 -0.1083 -0.0629
  857MPD2    C212582   2.505   4.165  13.353 -0.0789 -0.2908  0.2679
  857MPD2    C312583   2.450   4.277  13.403  0.1201 -0.0587 -0.3530
  857MPD2    C412584   2.318   4.273  13.443  0.8033  0.1926 -0.0174
  857MPD2    C512585   2.242   4.160  13.425  0.2530  0.0929  0.6759
  857MPD2     H12586   2.607   4.167  13.315 -0.6660  0.1153 -1.2743
  857MPD2    H112587   2.267   4.358  13.487 -2.5047 -1.1265 -1.2638
  857MPD2    H212588   2.232   3.970  13.333  1.3941 -1.1032 -0.8152
  857MPD2    H312589   2.139   4.150  13.459 -0.3770  1.2657 -0.8723
  857MPD2     N12590   2.532   4.392  13.406 -0.1521 -0.0518  0.0237
  857MPD2    H512591   2.607   4.396  13.337  0.5982 -0.6672  0.8100
  857MPD2    N112592   2.500   3.946  13.283 -0.5679 -0.4771  0.5267
  857MPD2    H712593   2.437   3.877  13.243  0.9917 -0.7122 -1.5141
  858MPD2     C12594   2.823   3.506  16.761  0.6466 -0.8194 -0.5121
  858MPD2    C112595   2.958   3.465  16.756 -0.3533  0.6394 -0.7020
  858MPD2    C212596   3.035   3.468  16.869 -0.0182  1.0055 -0.4999
  858MPD2    C312597   2.976   3.508  16.984 -0.0902 -0.9737  0.0148
  858MPD2    C412598   2.841   3.541  16.990 -0.4480 -0.2482  0.0642
  858MPD2    C512599   2.767   3.534  16.881 -0.3620  0.3789  0.7027
  858MPD2     H12600   3.139   3.440  16.857  0.0035 -0.0034  2.1835
  858MPD2    H112601   2.796   3.579  17.081  1.5395  1.4084  0.3552
  858MPD2    H212602   2.765   3.522  16.671 -0.1112 -0.0988  0.1084
  858MPD2    H312603   2.664   3.568  16.886 -0.9016 -1.1234 -0.1957
  858MPD2     N12604   3.043   3.536  17.101  0.5947  0.1929  0.1538
  858MPD2    H512605   2.991   3.563  17.184  2.5548 -1.0815  1.8062
  858MPD2    N112606   3.007   3.430  16.624  0.4851 -0.3025 -0.4668
  858MPD2    H712607   2.941   3.437  16.548  0.5826 -0.0910 -0.5319
  859MPD2     C12608   1.433   0.778  15.451  0.8230 -0.1040  0.1587
  859MPD2    C112609   1.562   0.732  15.413 -0.0998  0.2597 -0.5646
  859MPD2    C212610   1.610   0.611  15.461  0.1185 -0.0982  0.7870
  859MPD2    C312611   1.537   0.542  15.557 -0.2688  0.7306  0.1871
  859MPD2    C412612   1.411   0.583  15.589  0.4322 -0.4502 -0.0277
  859MPD2    C512613   1.361   0.701  15.535 -0.1826 -0.0306 -0.1559
  859MPD2     H12614   1.707   0.572  15.433  0.5674  0.4976  1.5046
  859MPD2    H112615   1.349   0.536  15.664 -1.4563  0.3143 -1.0926
  859MPD2    H212616   1.390   0.873  15.423  1.3556 -0.2186 -1.0946
  859MPD2    H312617   1.259   0.716  15.568  0.0003  1.2287 -0.1762
  859MPD2     N12618   1.588   0.435  15.634  0.2288 -0.3180 -0.1037
  859MPD2    H512619   1.531   0.401  15.711  1.2674  0.0630  0.8301
  859MPD2    N112620   1.640   0.813  15.326  0.0781  0.0593 -0.0211
  859MPD2    H712621   1.591   0.895  15.293 -0.9225 -0.6554 -0.3080
  860MPD2     C12622   0.154   0.924  11.350 -0.0190 -0.2642  0.1588
  860MPD2    C112623   0.194   0.937  11.485 -0.2541  0.5084  0.4341
  860MPD2    C212624   0.099   0.960  11.585  0.1527  0.4697  1.0276
  860MPD2    C312625   4.688   0.964  11.553 -0.3517  0.4600  0.0876
  860MPD2    C412626   4.647   0.955  11.422  0.2078  0.2579  0.1839
  860MPD2    C512627   0.021   0.937  11.322 -0.2090  0.7036 -0.4574
  860MPD2     H12628   0.123   0.955  11.691 -0.0438 -3.0075  0.9015
  860MPD2    H112629   4.544   0.944  11.389  0.4898  2.2164 -1.3674
  860MPD2    H212630   0.225   0.929  11.268 -2.8798  2.0575 -2.1743
  860MPD2    H312631   4.711   0.912  11.221 -0.3794  1.0809 -0.4988
  860MPD2     N12632   4.590   0.987  11.659 -0.4016  0.2210  0.0400
  860MPD2    H512633   4.616   0.999  11.756  1.1614 -1.2419 -0.1925
  860MPD2    N112634   0.318   0.898  11.537  0.2065 -0.1353  0.1836
  860MPD2    H712635   0.324   0.924  11.635  0.0774 -1.8374  0.6379
  861MPD2     C12636   3.394   3.464  11.025  0.5791  0.0701 -0.4138
  861MPD2    C112637   3.381   3.588  11.099 -0.5976  0.5203  0.0767
  861MPD2    C212638   3.288   3.686  11.054  0.0970  0.4267  0.3000
  861MPD2    C312639   3.219   3.672  10.934  0.1720 -0.2930  0.0463
  861MPD2    C412640   3.254   3.570  10.853 -0.6638 -0.2548  0.2240
  861MPD2    C512641   3.336   3.470  10.902  0.2756 -0.5126 -0.3767
  861MPD2     H12642   3.284   3.784  11.102 -2.5596  0.0234  0.8674
  861MPD2    H112643   3.220   3.562  10.750 -1.4257 -1.4437  0.5755
  861MPD2    H212644   3.456   3.379  11.053  1.7987  1.4441  1.0625
  861MPD2    H312645   3.368   3.402  10.823 -0.7332 -1.0271 -0.3387
  861MPD2     N12646   3.121   3.769  10.890  0.2134  0.2194  0.7226
  861MPD2    H512647   3.083   3.751  10.798 -0.4942 -1.5014  1.3474
  861MPD2    N112648   3.453   3.611  11.228  0.7816  0.8226  0.1961
  861MPD2    H712649   3.423   3.691  11.283 -0.8692  0.1658  0.2741
  862MPD2     C12650   2.830   4.048  10.270 -0.4998 -0.6381 -0.3972
  862MPD2    C112651   2.897   3.958  10.351 -0.7150 -0.0414 -0.0410
  862MPD2    C212652   2.944   3.838  10.298  0.4405 -0.4164  0.4315
  862MPD2    C312653   2.946   3.816  10.158  0.2160  0.5087 -0.4840
  862MPD2    C412654   2.874   3.900  10.081  0.1228  1.2940 -0.4799
  862MPD2    C512655   2.813   4.013  10.133  0.1115 -0.5531 -0.2635
  862MPD2     H12656   2.989   3.773  10.372  2.2708  0.7166  0.3016
  862MPD2    H112657   2.874   3.883   9.974  2.5315  1.2810 -0.4811
  862MPD2    H212658   2.805   4.146  10.308  2.7194 -0.1124  0.3895
  862MPD2    H312659   2.763   4.075  10.060 -1.8942 -2.7276 -0.7400
  862MPD2     N12660   3.022   3.711  10.091  0.6122 -0.2561 -0.5674
  862MPD2    H512661   3.020   3.702   9.990  0.1247 -2.0958 -0.3824
  862MPD2    N112662   2.924   3.983  10.492 -0.8391  0.0646  0.5494
  862MPD2    H712663   2.981   3.920  10.548 -1.5989  0.3090  1.5939
  863MPD2     C12664   1.280   1.919  17.076 -0.1677  0.3551 -0.5421
  863MPD2    C112665   1.373   1.989  17.006  0.6703  0.5823 -0.2116
  863MPD2    C212666   1.484   2.048  17.074 -0.2172  0.3188  0.2819
  863MPD2    C312667   1.503   2.006  17.204  0.1198 -0.4272  0.3187
  863MPD2    C412668   1.415   1.913  17.264 -0.3953  0.2817  0.4782
  863MPD2    C512669   1.300   1.880  17.204 -0.2979  0.1092 -0.0355
  863MPD2     H12670   1.550   2.114  17.020 -1.0777 -0.2101 -1.4570
  863MPD2    H112671   1.428   1.884  17.368  0.9258  0.4369  0.3538
  863MPD2    H212672   1.192   1.889  17.020 -0.7448  0.2828  0.4103
  863MPD2    H312673   1.227   1.815  17.250 -0.9076  0.2279 -0.8369
  863MPD2     N12674   1.606   2.048  17.291  0.6362 -0.3883  0.8779
  863MPD2    H512675   1.602   2.009  17.385  1.3594  1.6944  1.7768
  863MPD2    N112676   1.335   2.022  16.875  0.1313 -0.0322  0.0849
  863MPD2    H712677   1.242   1.991  16.849  0.3450  2.4090 -3.5021
  864MPD2     C12678   1.573   3.117  17.296  0.0540 -0.4334 -0.1694
  864MPD2    C112679   1.600   3.079  17.168 -0.8808  0.1814 -0.0718
  864MPD2    C212680   1.697   3.152  17.095  0.2484 -0.4215 -0.1813
  864MPD2    C312681   1.758   3.259  17.149 -0.4151  0.9475  0.3914
  864MPD2    C412682   1.728   3.300  17.276  0.1405 -0.4692 -0.7947
  864MPD2    C512683   1.635   3.226  17.345  0.9823 -0.5955 -0.4293
  864MPD2     H12684   1.733   3.115  17.000 -0.3089  1.6227 -1.1773
  864MPD2    H112685   1.776   3.386  17.320 -0.8268 -0.8364  0.9805
  864MPD2    H212686   1.492   3.075  17.354 -0.3440  2.0775  1.0908
  864MPD2    H312687   1.611   3.263  17.444  1.2441 -0.6902 -0.3301
  864MPD2     N12688   1.866   3.327  17.086  0.1437 -0.0460  0.2085
  864MPD2    H512689   1.904   3.395  17.151  0.0823 -0.9852  1.2312
  864MPD2    N112690   1.524   2.971  17.103  0.2457 -0.7385 -0.6069
  864MPD2    H712691   1.453   2.925  17.159  1.2661 -0.6924  0.7212
  865MPD2     C12692   1.979   3.837  16.451 -0.2193 -0.1469  0.1685
  865MPD2    C112693   2.036   3.707  16.449  0.0590 -0.1990 -0.0397
  865MPD2    C212694   2.124   3.676  16.552 -0.2733 -0.9484 -0.8384
  865MPD2    C312695   2.129   3.755  16.664 -0.2772 -0.0269  0.1859
  865MPD2    C412696   2.065   3.883  16.669 -0.3236  0.1942 -0.0834
  865MPD2    C512697   2.000   3.917  16.558 -0.3005  0.2750  0.3606
  865MPD2     H12698   2.191   3.590  16.548  1.1812  0.0741  1.4282
  865MPD2    H112699   2.079   3.957  16.747 -2.7490 -0.5355  1.0476
  865MPD2    H212700   1.910   3.878  16.377  0.8960 -1.8140 -1.7976
  865MPD2    H312701   1.956   4.016  16.559  0.6506  0.6685  2.7507
  865MPD2     N12702   2.193   3.697  16.779  0.0093 -0.0798  0.6155
  865MPD2    H512703   2.231   3.604  16.767  0.1144  0.2845 -1.8364
  865MPD2    N112704   2.011   3.609  16.343  0.1632 -0.0887  0.7217
  865MPD2    H712705   1.954   3.638  16.264 -0.3971  1.0797  1.5614
  866MPD2     C12706   3.979   4.599  10.910  0.1224  0.2954 -0.0012
  866MPD2    C112707   3.915   4.514  10.825 -0.3058  0.8424 -0.0147
  866MPD2    C212708   3.778   4.485  10.859  0.5568 -0.3643 -0.2693
  866MPD2    C312709   3.717   4.536  10.972  0.3339  0.2598  0.3967
  866MPD2    C412710   3.791   4.609  11.059  0.5965  0.2491  0.4564
  866MPD2    C512711   3.923   4.627  11.036  0.2002 -0.5680  0.6451
  866MPD2     H12712   3.724   4.411  10.801 -0.8501 -0.7339  1.4910
  866MPD2    H112713   3.747   4.651  11.149 -0.7620  1.0495 -0.5747
  866MPD2    H212714   4.087   4.608  10.898  0.4023  1.2212  2.9984
  866MPD2    H312715   3.979   4.679  11.113  1.9416 -1.6518  0.1259
  866MPD2     N12716   3.584   4.495  10.999 -0.1130  0.2056  0.4542
  866MPD2    H512717   3.539   4.436  10.930 -2.9703  3.5209 -0.5302
  866MPD2    N112718   3.979   4.470  10.705 -0.5860 -0.6742  0.3521
  866MPD2    H712719   4.076   4.498  10.697 -1.5617  1.6548 -3.1993
  867MPD2     C12720   0.946   3.581  16.504 -0.7258 -0.4455 -0.3865
  867MPD2    C112721   0.967   3.620  16.632 -0.0084  0.7668  0.3606
  867MPD2    C212722   0.930   3.752  16.667 -0.7252  0.0202 -0.5470
  867MPD2    C312723   0.878   3.841  16.578 -0.1287  0.7667  0.7109
  867MPD2    C412724   0.861   3.804  16.451 -0.4713 -0.3610 -0.8926
  867MPD2    C512725   0.892   3.673  16.413  0.1771  0.3872 -0.3366
  867MPD2     H12726   0.944   3.784  16.770  1.1796 -0.8263 -0.5435
  867MPD2    H112727   0.829   3.877  16.378 -4.0906 -0.9128  0.1410
  867MPD2    H212728   0.972   3.485  16.462 -0.6964 -0.0830 -1.1861
  867MPD2    H312729   0.898   3.646  16.308  0.5027  0.2746 -0.2913
  867MPD2     N12730   0.824   3.965  16.616  0.9344 -0.7225 -0.2237
  867MPD2    H512731   0.774   4.020  16.547  1.4886  0.3688  0.2343
  867MPD2    N112732   1.030   3.525  16.716 -0.1512  0.6521 -0.7240
  867MPD2    H712733   1.037   3.431  16.678  0.3576 -0.5802  2.4884
  868MPD2     C12734   3.091   1.873  13.156  0.2617 -0.8331  0.0522
  868MPD2    C112735   3.097   1.970  13.053 -0.2155  0.7718  0.6944
  868MPD2    C212736   2.972   2.021  13.007 -0.9510  0.5961  0.8464
  868MPD2    C312737   2.853   1.979  13.062 -0.3427  0.0028 -0.1799
  868MPD2    C412738   2.859   1.891  13.166  0.0310 -0.6087  0.5535
  868MPD2    C512739   2.973   1.834  13.209  0.6102 -0.6136  0.3209
  868MPD2     H12740   2.968   2.086  12.921 -1.0101  0.0189  0.4139
  868MPD2    H112741   2.774   1.869  13.228 -0.5856 -4.1327 -1.5463
  868MPD2    H212742   3.180   1.836  13.207  0.1298  0.8846  1.5248
  868MPD2    H312743   2.967   1.762  13.290 -1.4338  0.7090  1.3566
  868MPD2     N12744   2.734   2.044  13.021  0.0263  0.6862  0.1892
  868MPD2    H512745   2.741   2.126  12.962 -1.2631 -0.7328 -1.9391
  868MPD2    N112746   3.221   2.012  13.005 -0.1741  0.7994 -0.1368
  868MPD2    H712747   3.303   1.973  13.050 -0.7856  1.2698  1.3956
  869MPD2     C12748   0.583   1.849   2.290  0.9348 -0.1008  0.4959
  869MPD2    C112749   0.490   1.754   2.260 -0.0796  0.5796  1.1581
  869MPD2    C212750   0.388   1.783   2.167  0.0601  0.0053  0.1300
  869MPD2    C312751   0.383   1.909   2.111  0.3221  0.5791  0.2773
  869MPD2    C412752   0.486   2.003   2.129  0.5474  0.7883 -0.7649
  869MPD2    C512753   0.579   1.972   2.222 -0.3404  1.0209 -0.9896
  869MPD2     H12754   0.305   1.714   2.160 -1.4272  1.5526  2.5357
  869MPD2    H112755   0.471   2.104   2.092 -1.0795  0.7174 -0.2873
  869MPD2    H212756   0.667   1.821   2.352  2.6444  1.3160 -1.2258
  869MPD2    H312757   0.657   2.043   2.247 -2.1230  2.7930 -0.4812
  869MPD2     N12758   0.271   1.960   2.048  0.1628 -0.2992 -0.1471
  869MPD2    H512759   0.279   2.052   2.005 -1.3444 -0.0335  0.1456
  869MPD2    N112760   0.475   1.636   2.346  0.9855 -0.4437  0.1391
  869MPD2    H712761   0.528   1.637   2.432 -0.6809  2.7958  1.1333
  870MPD2     C12762   3.562   3.745   1.933 -0.2774  0.2729 -0.0318
  870MPD2    C112763   3.510   3.664   1.831 -0.5848 -0.3073  0.1738
  870MPD2    C212764   3.430   3.735   1.739 -0.0701  0.4347 -0.5351
  870MPD2    C312765   3.387   3.865   1.755  0.1344  0.5290 -0.4299
  870MPD2    C412766   3.428   3.935   1.860 -0.5550  0.2445  0.3404
  870MPD2    C512767   3.519   3.873   1.941  0.0679 -0.5139 -0.2731
  870MPD2     H12768   3.398   3.672   1.656 -1.9726  0.7527 -0.0378
  870MPD2    H112769   3.404   4.037   1.888  1.8615  1.0481 -0.5445
  870MPD2    H212770   3.622   3.695   2.007  0.6781  0.0957 -0.9237
  870MPD2    H312771   3.556   3.928   2.027  1.3335 -0.3118 -0.9455
  870MPD2     N12772   3.282   3.913   1.680  0.2422  0.2938  0.2616
  870MPD2    H512773   3.237   3.851   1.613 -0.2099 -1.5522  2.2585
  870MPD2    N112774   3.544   3.529   1.821  0.6789 -0.4321 -0.3925
  870MPD2    H712775   3.617   3.508   1.887  0.1763  0.6495  0.4959
  871MPD2     C12776   4.145   3.714  16.340 -0.1305  0.7225 -0.0621
  871MPD2    C112777   4.160   3.672  16.476 -0.1866 -0.9519  0.1951
  871MPD2    C212778   4.115   3.547  16.517  0.1173  0.3505  0.4325
  871MPD2    C312779   4.041   3.467  16.433 -0.6990  0.4783 -0.0478
  871MPD2    C412780   4.013   3.512  16.302 -0.0395 -0.0201  0.2808
  871MPD2    C512781   4.064   3.635  16.259 -0.0372 -0.1260 -0.1242
  871MPD2     H12782   4.123   3.497  16.613 -0.3848 -0.7479 -0.1055
  871MPD2    H112783   3.943   3.457  16.239  1.7088 -1.9869  0.0727
  871MPD2    H212784   4.197   3.801  16.300  0.1441  0.8266  0.5320
  871MPD2    H312785   4.028   3.675  16.165 -1.3905 -1.0643 -0.0088
  871MPD2     N12786   3.993   3.346  16.479  0.2407 -0.4649 -0.2737
  871MPD2    H512787   4.017   3.331  16.576 -1.7118  0.0636  0.2886
  871MPD2    N112788   4.232   3.761  16.562  0.5143 -0.1384  0.2375
  871MPD2    H712789   4.272   3.837  16.509 -0.4398  0.6197  0.5981
  872MPD2     C12790   1.221   1.400  13.733 -0.3634  0.3030  0.5451
  872MPD2    C112791   1.173   1.504  13.805  0.2545  0.0059 -0.0534
  872MPD2    C212792   1.044   1.500  13.860 -0.9289 -0.1938  0.0214
  872MPD2    C312793   0.986   1.373  13.874  0.0279 -0.2509  0.4538
  872MPD2    C412794   1.051   1.261  13.815  0.3136 -0.1672  0.3455
  872MPD2    C512795   1.160   1.278  13.732 -0.5863 -0.6250  0.0552
  872MPD2     H12796   1.002   1.591  13.902  1.2422  0.6503  0.3443
  872MPD2    H112797   1.011   1.162  13.802  0.0465 -0.2984  2.1145
  872MPD2    H212798   1.314   1.412  13.679 -1.8016  0.4023 -1.8655
  872MPD2    H312799   1.203   1.195  13.676 -1.6541 -2.8169  2.5083
  872MPD2     N12800   0.860   1.343  13.935  0.4345 -0.7125  0.6406
  872MPD2    H512801   0.843   1.244  13.948  0.2430 -0.8775 -0.9451
  872MPD2    N112802   1.242   1.625  13.798  0.0608  0.1513 -0.5267
  872MPD2    H712803   1.194   1.709  13.829  1.0995  1.2421 -1.8452
  873MPD2     C12804   2.634   1.593   0.922  0.0302 -0.3299 -0.1540
  873MPD2    C112805   2.654   1.574   1.057 -0.3213  0.1072  0.0168
  873MPD2    C212806   2.626   1.453   1.111 -0.3561  0.2289 -0.1509
  873MPD2    C312807   2.584   1.350   1.023 -0.3012 -0.0741  0.7755
  873MPD2    C412808   2.583   1.362   0.885  0.2852  0.4476 -0.0161
  873MPD2    C512809   2.587   1.487   0.841  0.4061 -0.0852  0.2870
  873MPD2     H12810   2.631   1.440   1.218 -0.6858 -2.1386 -0.4233
  873MPD2    H112811   2.548   1.276   0.830 -0.7242  0.0590  1.2241
  873MPD2    H212812   2.642   1.689   0.872 -3.4026  0.1554  0.1838
  873MPD2    H312813   2.551   1.507   0.741 -0.1336 -0.0906  0.4838
  873MPD2     N12814   2.566   1.217   1.070 -0.0627  0.1166  0.0083
  873MPD2    H512815   2.546   1.149   0.997  0.7074 -1.5504  1.3553
  873MPD2    N112816   2.710   1.685   1.123 -0.0226 -0.2466 -0.1770
  873MPD2    H712817   2.702   1.775   1.077  1.2883 -0.1331 -0.1739
  874MPD2     C12818   2.185   1.523  15.963 -0.1891  0.5417 -0.0961
  874MPD2    C112819   2.246   1.411  16.012 -0.0481 -0.0563 -0.3826
  874MPD2    C212820   2.372   1.383  15.967  0.0878  0.4117  0.3626
  874MPD2    C312821   2.441   1.460  15.871  1.0540 -0.7584  0.8929
  874MPD2    C412822   2.374   1.563  15.815 -0.1445  1.2866 -0.1321
  874MPD2    C512823   2.255   1.601  15.875 -0.2718 -0.9808 -0.4573
  874MPD2     H12824   2.415   1.297  16.017 -2.0081 -0.1558  1.2105
  874MPD2    H112825   2.419   1.636  15.749 -1.1122  2.2009  0.2141
  874MPD2    H212826   2.087   1.563  15.989 -0.1698  0.3049  0.3518
  874MPD2    H312827   2.201   1.686  15.836 -0.4214 -0.8073  0.1359
  874MPD2     N12828   2.571   1.430  15.832  0.7823 -0.6530  0.3462
  874MPD2    H512829   2.609   1.504  15.773  0.5217 -1.7535 -1.2251
  874MPD2    N112830   2.176   1.337  16.110 -0.4599  0.0538  0.2469
  874MPD2    H712831   2.077   1.351  16.124 -0.6208 -1.5731  0.8107
  875MPD2     C12832   3.231   4.391  14.634  0.0970  0.3965 -0.8396
  875MPD2    C112833   3.129   4.390  14.725 -0.8616  0.0017 -0.0335
  875MPD2    C212834   3.151   4.388  14.858  0.2841 -0.2213  0.0196
  875MPD2    C312835   3.282   4.386  14.905  0.0929 -0.1302  0.6978
  875MPD2    C412836   3.385   4.389  14.820 -0.3525 -0.2586  0.1431
  875MPD2    C512837   3.360   4.391  14.687  0.3565  0.2049  0.4626
  875MPD2     H12838   3.073   4.388  14.933  1.9611  1.5762  1.7573
  875MPD2    H112839   3.485   4.362  14.851 -0.7917  0.2101  1.9536
  875MPD2    H212840   3.229   4.389  14.526  0.0528  0.9032 -0.8477
  875MPD2    H312841   3.436   4.379  14.610  1.5189 -0.7238  1.7428
  875MPD2     N12842   3.319   4.397  15.041  0.2153  0.7612  0.1703
  875MPD2    H512843   3.411   4.437  15.060  0.3706 -0.0439  1.1207
  875MPD2    N112844   2.991   4.387  14.692  0.7198  0.3979 -0.4063
  875MPD2    H712845   2.936   4.400  14.776 -0.2127 -0.8350 -0.8143
  876MPD2     C12846   1.896   1.123  15.997  0.0554  0.3703  0.2862
  876MPD2    C112847   2.014   1.086  15.931  0.5421  0.4599 -0.3719
  876MPD2    C212848   2.091   0.980  15.979  0.0150  0.1615  0.0461
  876MPD2    C312849   2.040   0.906  16.091  0.8034  0.7994  0.7679
  876MPD2    C412850   1.922   0.947  16.158  0.3587  0.4694  0.7733
  876MPD2    C512851   1.849   1.046  16.104 -0.1580  0.1581 -0.0396
  876MPD2     H12852   2.184   0.940  15.940 -0.9750 -1.3156 -0.8080
  876MPD2    H112853   1.872   0.899  16.241 -2.4151  1.6618 -0.2126
  876MPD2    H212854   1.837   1.211  15.972 -1.3269 -0.7294 -0.3213
  876MPD2    H312855   1.751   1.068  16.145  0.7526 -1.4338  3.0170
  876MPD2     N12856   2.124   0.798  16.132  0.4194 -0.9788 -0.3320
  876MPD2    H512857   2.207   0.778  16.076 -0.4803  1.3265 -2.4946
  876MPD2    N112858   2.063   1.170  15.829 -0.0083  0.4280 -0.5795
  876MPD2    H712859   2.016   1.256  15.804 -0.7885  0.2301  0.2283
  877MPD2     C12860   1.882   1.415  15.179 -0.5173  0.2852 -0.1352
  877MPD2    C112861   2.004   1.473  15.172 -0.5067  0.5530  0.6875
  877MPD2    C212862   2.061   1.499  15.044  0.0142 -0.0172 -0.0680
  877MPD2    C312863   1.993   1.469  14.927  0.0503 -0.3156  0.0510
  877MPD2    C412864   1.872   1.407  14.936 -0.0687 -0.1327  0.4424
  877MPD2    C512865   1.821   1.385  15.064  0.2641 -0.1324 -0.8289
  877MPD2     H12866   2.165   1.530  15.051  0.1319 -0.3273 -0.4686
  877MPD2    H112867   1.796   1.395  14.860  0.5516  1.7950 -0.4769
  877MPD2    H212868   1.825   1.394  15.269 -4.0785  1.2390 -2.1672
  877MPD2    H312869   1.722   1.341  15.059  0.3541 -0.4335  0.0954
  877MPD2     N12870   2.035   1.502  14.797 -0.1298 -0.1433  0.3081
  877MPD2    H512871   1.995   1.452  14.718 -0.1080  1.7819 -0.9164
  877MPD2    N112872   2.080   1.475  15.286  0.5278 -0.3445  0.3326
  877MPD2    H712873   2.176   1.505  15.277 -0.1474  0.8915 -2.5869
  878MPD2     C12874   2.227   0.567  13.156  0.4043  0.2026 -0.4951
  878MPD2    C112875   2.217   0.702  13.125  0.4394 -0.1159 -0.7411
  878MPD2    C212876   2.135   0.779  13.213  0.2196 -0.1813  0.3148
  878MPD2    C312877   2.043   0.721  13.299  0.6097 -0.3980 -0.2266
  878MPD2    C412878   2.057   0.585  13.328 -0.2007 -0.6358  0.5461
  878MPD2    C512879   2.148   0.513  13.254 -0.4152  0.4500  0.0925
  878MPD2     H12880   2.117   0.884  13.189 -3.2231 -1.4788 -2.7659
  878MPD2    H112881   2.000   0.526  13.399 -2.3824 -0.5293 -1.1029
  878MPD2    H212882   2.282   0.503  13.087  4.5396  4.2130 -0.9193
  878MPD2    H312883   2.159   0.408  13.280 -1.1103  1.0244  2.7151
  878MPD2     N12884   1.947   0.811  13.350  0.0702 -0.0524  0.2802
  878MPD2    H512885   1.960   0.908  13.325  0.6814 -0.7515 -2.1335
  878MPD2    N112886   2.287   0.754  13.012  0.0544  0.4944 -0.8793
  878MPD2    H712887   2.339   0.688  12.956  0.3279  0.4532 -0.5786
  879MPD2     C12888   2.503   2.396  16.558  0.2389 -0.3720  0.5188
  879MPD2    C112889   2.509   2.309  16.661 -0.2424  0.0532  0.4865
  879MPD2    C212890   2.526   2.175  16.634  0.4438 -0.4725 -0.0188
  879MPD2    C312891   2.535   2.130  16.500  0.1895  0.2327  0.4813
  879MPD2    C412892   2.498   2.219  16.401  0.0096  0.3641  0.2616
  879MPD2    C512893   2.491   2.352  16.427 -0.2944  0.3242  0.0722
  879MPD2     H12894   2.569   2.108  16.708 -1.1933  0.7356  2.0115
  879MPD2    H112895   2.487   2.195  16.296  2.0585  2.3821 -0.4235
  879MPD2    H212896   2.484   2.500  16.583  0.4588 -0.3017  0.3887
  879MPD2    H312897   2.468   2.416  16.342 -0.9331 -2.2184 -1.6839
  879MPD2     N12898   2.575   2.002  16.451 -0.5269  0.6813  0.7054
  879MPD2    H512899   2.559   1.988  16.352 -0.1191  2.5943  0.3736
  879MPD2    N112900   2.503   2.363  16.792 -0.0014  0.0432 -0.6745
  879MPD2    H712901   2.478   2.462  16.797  0.2617  0.1043 -0.5522
  880MPD2     C12902   3.661   3.292   0.701 -1.0500  0.2846 -0.1449
  880MPD2    C112903   3.662   3.404   0.782  0.9934 -0.2196  0.8079
  880MPD2    C212904   3.696   3.393   0.914  0.2817 -0.7384  0.8996
  880MPD2    C312905   3.739   3.277   0.966  0.3417 -0.8255 -0.5792
  880MPD2    C412906   3.732   3.161   0.890 -0.3801  0.0489  0.7507
  880MPD2    C512907   3.687   3.174   0.766 -0.2156 -0.2140 -0.1111
  880MPD2     H12908   3.683   3.487   0.968 -1.3322 -1.6833  2.1663
  880MPD2    H112909   3.760   3.063   0.927  0.3542  0.1705  0.5296
  880MPD2    H212910   3.634   3.297   0.597  0.9847 -0.0702 -0.6834
  880MPD2    H312911   3.669   3.082   0.713  1.3814  0.0972 -1.2206
  880MPD2     N12912   3.786   3.280   1.100  0.3999  0.5423  0.0129
  880MPD2    H512913   3.779   3.374   1.138  1.8438 -0.8507  3.7184
  880MPD2    N112914   3.623   3.525   0.734 -0.2775  0.1382  0.2808
  880MPD2    H712915   3.614   3.596   0.806  2.2333  0.7716 -0.0054
  881MPD2     C12916   3.509   4.435   0.145 -0.4086  0.3379 -0.1888
  881MPD2    C112917   3.585   4.324   0.114  0.1225  0.1256 -1.0202
  881MPD2    C212918   3.564   4.208   0.192 -0.0764  0.1796 -0.1132
  881MPD2    C312919   3.487   4.211   0.308 -0.7292 -0.2285 -0.3507
  881MPD2    C412920   3.417   4.329   0.335  0.6771 -0.6233 -0.1300
  881MPD2    C512921   3.423   4.434   0.251 -0.4711 -0.1247  0.1937
  881MPD2     H12922   3.628   4.122   0.175  0.7720  0.9039 -0.6170
  881MPD2    H112923   3.346   4.340   0.416 -1.2402  0.6717 -1.9905
  881MPD2    H212924   3.498   4.514   0.072  1.6874 -0.2427 -1.1341
  881MPD2    H312925   3.361   4.521   0.268 -0.5396  0.4062 -2.9619
  881MPD2     N12926   3.475   4.099   0.391  0.5551 -0.1648  0.3830
  881MPD2    H512927   3.401   4.113   0.459  1.2760  1.0490  0.9175
  881MPD2    N112928   3.657   4.335  17.673  0.3594 -0.6628  0.9018
  881MPD2    H712929   3.653   4.425  17.627  1.0938 -0.2502  1.6565
  882MPD2     C12930   2.139   1.286  14.089 -0.5242  0.0744 -0.8138
  882MPD2    C112931   2.056   1.386  14.134  0.1981  0.1125 -0.1023
  882MPD2    C212932   1.930   1.396  14.086 -0.3983  0.0382  0.2306
  882MPD2    C312933   1.873   1.305  14.001 -0.3686 -0.4616 -0.1246
  882MPD2    C412934   1.945   1.196  13.961 -0.2566 -0.1820  0.2354
  882MPD2    C512935   2.084   1.197  14.002 -0.3328 -0.1933 -0.0806
  882MPD2     H12936   1.881   1.489  14.112 -0.4155  0.2403 -0.5452
  882MPD2    H112937   1.893   1.125  13.899 -0.0882 -0.6780  0.6611
  882MPD2    H212938   2.241   1.282  14.127 -0.5014  1.9106 -0.6866
  882MPD2    H312939   2.140   1.108  13.979  1.1530  1.0900 -1.4086
  882MPD2     N12940   1.731   1.313  13.966  0.0036  0.0746  0.2776
  882MPD2    H512941   1.693   1.226  13.931  0.9362 -0.1003 -0.3088
  882MPD2    N112942   2.111   1.472  14.231 -0.0518  0.1422  0.0393
  882MPD2    H712943   2.209   1.459  14.252 -0.2193  2.2883  2.2144
  883MPD2     C12944   4.056   1.371  16.089 -0.3192 -0.5744 -0.4860
  883MPD2    C112945   4.144   1.337  15.989 -0.2659  0.6543  0.8716
  883MPD2    C212946   4.284   1.334  16.006  0.1079  0.1221  0.1188
  883MPD2    C312947   4.348   1.368  16.125  0.2901 -0.2498  0.5346
  883MPD2    C412948   4.258   1.408  16.221 -0.5261 -0.4523 -0.4969
  883MPD2    C512949   4.117   1.419  16.201  0.0530  0.0266 -0.3878
  883MPD2     H12950   4.344   1.306  15.920  2.7431  1.4128  1.5495
  883MPD2    H112951   4.295   1.447  16.315 -1.5484  0.2075 -0.3558
  883MPD2    H212952   3.949   1.386  16.084 -0.4190 -0.9104  0.4826
  883MPD2    H312953   4.053   1.454  16.281 -1.1636 -3.8290  0.3500
  883MPD2     N12954   4.491   1.354  16.137  0.0200 -0.3340  0.2930
  883MPD2    H512955   4.555   1.326  16.063 -0.7000 -1.0995 -0.0519
  883MPD2    N112956   4.106   1.316  15.852  0.4383 -0.3123 -0.3340
  883MPD2    H712957   4.179   1.279  15.792 -1.9086 -2.0086 -2.1589
  884MPD2     C12958   1.093   1.893  15.451 -0.6513  0.4118 -0.4243
  884MPD2    C112959   1.080   1.981  15.351  0.8143  0.6304 -0.3729
  884MPD2    C212960   0.961   2.043  15.335 -0.3455 -0.1788 -0.4262
  884MPD2    C312961   0.855   2.012  15.419  0.1994  0.7744 -0.1394
  884MPD2    C412962   0.872   1.923  15.522 -0.0726  0.2483 -0.5090
  884MPD2    C512963   0.990   1.869  15.541  0.1812  0.3675  0.0494
  884MPD2     H12964   0.930   2.098  15.247 -1.2713 -1.3539 -0.8303
  884MPD2    H112965   0.796   1.898  15.596  1.2405  2.0647  1.4573
  884MPD2    H212966   1.189   1.844  15.462 -0.8307 -0.3562 -2.3322
  884MPD2    H312967   1.006   1.798  15.622 -2.5255  1.3027  1.3907
  884MPD2     N12968   0.733   2.084  15.392  0.0214  0.1870 -0.7141
  884MPD2    H512969   0.727   2.160  15.325  0.5830 -0.3216 -1.3521
  884MPD2    N112970   1.173   1.998  15.247 -0.5343  0.5420  0.4250
  884MPD2    H712971   1.138   2.053  15.170  0.6337 -1.1134 -1.2925
  885MPD2     C12972   4.062   2.175   0.346  0.7843 -0.2903  0.1175
  885MPD2    C112973   4.162   2.269   0.338 -0.0608 -0.4339  0.1603
  885MPD2    C212974   4.175   2.347   0.219 -0.4941 -0.5596  1.1958
  885MPD2    C312975   4.081   2.347   0.120  0.0624  0.3472 -0.7035
  885MPD2    C412976   3.976   2.261   0.137  0.4358 -0.5850 -0.0554
  885MPD2    C512977   3.964   2.172   0.243 -0.5806  0.4180 -0.0334
  885MPD2     H12978   4.254   2.421   0.210  0.4400 -1.5734  1.0373
  885MPD2    H112979   3.901   2.257   0.059  1.5283  2.9388 -1.3041
  885MPD2    H212980   4.046   2.115   0.435  0.6492 -0.3220  0.0723
  885MPD2    H312981   3.876   2.111   0.261 -0.3893  0.1141 -0.1205
  885MPD2     N12982   4.104   2.420   0.004 -0.6878  0.0028  0.3729
  885MPD2    H512983   4.199   2.454  17.677 -0.5876 -0.4297 -0.0998
  885MPD2    N112984   4.259   2.267   0.434 -0.6814 -0.5622  0.1033
  885MPD2    H712985   4.261   2.184   0.493 -0.0440  0.9516  2.2191
  886MPD2     C12986   0.930   0.637  15.306 -0.6026 -0.1508 -0.2035
  886MPD2    C112987   0.945   0.711  15.423 -0.3997 -0.0060 -0.0009
  886MPD2    C212988   0.920   0.844  15.425  0.4127  0.0738  0.2251
  886MPD2    C312989   0.870   0.900  15.315 -0.1179 -0.1236 -0.1961
  886MPD2    C412990   0.856   0.834  15.197  0.2354 -0.2777 -0.6144
  886MPD2    C512991   0.894   0.700  15.187  0.4148 -0.4073 -0.7088
  886MPD2     H12992   0.930   0.895  15.520 -0.1019 -0.6334  0.6538
  886MPD2    H112993   0.816   0.881  15.107 -0.8964 -1.6361 -0.8291
  886MPD2    H212994   0.975   0.540  15.293  2.4957  1.8460 -4.6083
  886MPD2    H312995   0.886   0.643  15.095  2.3400  0.2010 -1.2743
  886MPD2     N12996   0.840   1.040  15.322  0.0569 -0.1052 -0.1776
  886MPD2    H512997   0.865   1.093  15.405 -1.3051  0.8129 -0.3443
  886MPD2    N112998   0.976   0.643  15.541  0.5829  0.3580 -0.7136
  886MPD2    H712999   0.967   0.705  15.621 -0.3291 -1.8093  0.8715
  887MPD2     C13000   1.346   0.814  16.133  0.1606 -0.6496 -0.3046
  887MPD2    C113001   1.222   0.833  16.079 -0.1227  0.1902  0.5230
  887MPD2    C213002   1.174   0.963  16.066 -0.3289 -0.2944  0.2323
  887MPD2    C313003   1.248   1.070  16.112  0.1181 -0.3501  1.0716
  887MPD2    C413004   1.375   1.052  16.164  0.0370  0.5245  0.5074
  887MPD2    C513005   1.420   0.922  16.166  0.1430  0.0450 -0.1623
  887MPD2     H13006   1.072   0.973  16.031 -0.9055  0.0638  2.0536
  887MPD2    H113007   1.438   1.134  16.198 -0.6933  2.0142 -1.6651
  887MPD2    H213008   1.395   0.718  16.143  0.4809 -0.2828  1.6349
  887MPD2    H313009   1.523   0.913  16.198  0.7413  1.2526 -1.7381
  887MPD2     N13010   1.193   1.202  16.092 -0.0976 -0.1379  0.2928
  887MPD2    H513011   1.101   1.207  16.049  0.3129 -2.1712 -0.8039
  887MPD2    N113012   1.138   0.718  16.041 -0.3628  0.1294  0.4223
  887MPD2    H713013   1.046   0.736  16.003 -0.0146  0.4919 -0.2495
  888MPD2     C13014   3.230   0.915  15.038 -0.1749 -0.0624 -0.2834
  888MPD2    C113015   3.214   0.974  15.157 -0.2350 -0.0934 -0.8831
  888MPD2    C213016   3.215   1.113  15.163 -0.3285  0.3342  0.1821
  888MPD2    C313017   3.240   1.193  15.055  0.1519  0.3855  0.3325
  888MPD2    C413018   3.245   1.129  14.928  0.5924 -0.1229 -0.0146
  888MPD2    C513019   3.253   0.990  14.931 -0.2602  0.4984 -0.7506
  888MPD2     H13020   3.205   1.156  15.262 -2.8179  3.0045 -1.2306
  888MPD2    H113021   3.248   1.181  14.833 -0.3790 -0.2658 -0.1156
  888MPD2    H213022   3.218   0.810  15.015 -1.9590  0.1175 -0.1330
  888MPD2    H313023   3.281   0.939  14.840  0.8851  2.7888 -1.6881
  888MPD2     N13024   3.251   1.332  15.069  0.2522 -0.1227 -0.1685
  888MPD2    H513025   3.237   1.366  15.164  3.3350  0.8971 -0.0796
  888MPD2    N113026   3.192   0.900  15.272  0.3178 -0.1406  0.5786
  888MPD2    H713027   3.163   0.946  15.357  0.4191 -0.2432  0.6687
  889MPD2     C13028   2.628   0.503  13.705  0.3881  0.3261 -0.1730
  889MPD2    C113029   2.731   0.456  13.622  0.4802  0.1845  0.1096
  889MPD2    C213030   2.836   0.537  13.601  0.8398  0.3915 -0.2016
  889MPD2    C313031   2.861   0.650  13.679  0.0026 -0.3279 -0.0688
  889MPD2    C413032   2.762   0.686  13.770  0.5446 -0.2421 -0.4473
  889MPD2    C513033   2.651   0.616  13.779  0.1525 -0.8522 -0.6056
  889MPD2     H13034   2.916   0.492  13.544 -0.8189 -2.1483 -0.5012
  889MPD2    H113035   2.760   0.774  13.833  0.8907 -0.7660  0.3013
  889MPD2    H213036   2.534   0.452  13.726 -0.3316  1.1520 -1.3507
  889MPD2    H313037   2.566   0.644  13.840  0.3949 -1.1660 -0.1266
  889MPD2     N13038   2.985   0.709  13.681 -0.5153  0.6207  0.1851
  889MPD2    H513039   3.053   0.681  13.612  0.0861  1.4787  0.4346
  889MPD2    N113040   2.728   0.329  13.548 -0.3429  0.2108  0.2263
  889MPD2    H713041   2.819   0.305  13.510 -0.5581  0.8191 -0.6704
  890MPD2     C13042   1.946   2.051  14.369 -1.1146  0.0834 -0.3386
  890MPD2    C113043   1.950   2.119  14.493  0.3542  0.3615 -0.3901
  890MPD2    C213044   1.912   2.051  14.605  0.0179 -0.2424  0.5617
  890MPD2    C313045   1.859   1.928  14.595  0.4827 -0.5349  0.0831
  890MPD2    C413046   1.846   1.865  14.473  0.4347 -0.3639  0.1762
  890MPD2    C513047   1.896   1.925  14.360 -0.4581 -0.5275  0.1478
  890MPD2     H13048   1.913   2.100  14.701  1.4494 -1.3889  1.1216
  890MPD2    H113049   1.821   1.759  14.468 -0.2692 -0.2324  0.9652
  890MPD2    H213050   1.972   2.103  14.277 -1.7162  1.7763  0.4487
  890MPD2    H313051   1.892   1.867  14.268 -1.7157  0.2756 -0.3031
  890MPD2     N13052   1.822   1.872  14.719  0.1985  0.0826 -0.2591
  890MPD2    H513053   1.840   1.943  14.789  0.1410 -0.1879  0.0280
  890MPD2    N113054   1.994   2.252  14.488 -0.3120  0.1911  0.6999
  890MPD2    H713055   2.046   2.285  14.407  0.7443  0.2532  1.3967
  891MPD2     C13056   0.611   0.560  16.608 -0.4976  0.1215  0.1615
  891MPD2    C113057   0.530   0.588  16.717  0.2129 -0.1121  0.3432
  891MPD2    C213058   0.542   0.514  16.829 -0.9338 -0.0856  0.0852
  891MPD2    C313059   0.625   0.407  16.829 -0.0619  0.1992 -0.5596
  891MPD2    C413060   0.704   0.376  16.725  0.5088 -0.1616  0.2418
  891MPD2    C513061   0.691   0.454  16.616 -0.3470  0.7039  0.2276
  891MPD2     H13062   0.490   0.539  16.920  0.5687 -0.7049  1.1125
  891MPD2    H113063   0.776   0.295  16.719 -0.0206 -0.5522 -0.6542
  891MPD2    H213064   0.608   0.614  16.514 -0.3199  0.7226  0.5040
  891MPD2    H313065   0.752   0.431  16.529  0.4071  0.9392  0.6948
  891MPD2     N13066   0.634   0.341  16.956 -0.5366  0.0465 -0.0461
  891MPD2    H513067   0.565   0.365  17.026  1.0961 -2.6444  2.4891
  891MPD2    N113068   0.437   0.692  16.712 -0.1119 -0.5958  0.2143
  891MPD2    H713069   0.434   0.750  16.629  1.9605  0.8086  1.1255
  892MPD2     C13070   1.219   1.842  14.633  0.5816 -0.6968 -0.3095
  892MPD2    C113071   1.110   1.792  14.566  0.0479 -0.4168  0.1072
  892MPD2    C213072   1.145   1.703  14.459  0.5659 -0.1921 -0.1475
  892MPD2    C313073   1.272   1.680  14.418  0.4269  0.6538  0.4518
  892MPD2    C413074   1.376   1.744  14.480 -0.3741 -0.2985  0.5892
  892MPD2    C513075   1.349   1.831  14.587 -0.5549 -0.3845  0.3369
  892MPD2     H13076   1.068   1.651  14.403  0.9426 -2.9039  1.8806
  892MPD2    H113077   1.481   1.724  14.462 -0.8800 -2.4360  0.0317
  892MPD2    H213078   1.204   1.905  14.719 -3.5994 -0.9962 -0.8016
  892MPD2    H313079   1.435   1.865  14.644 -0.7524  2.2425 -0.9213
  892MPD2     N13080   1.309   1.588  14.312  0.0416  0.9159  0.0590
  892MPD2    H513081   1.409   1.576  14.300 -0.1370  1.8579 -2.2965
  892MPD2    N113082   0.973   1.805  14.603  0.3589 -0.6212  0.1979
  892MPD2    H713083   0.910   1.752  14.544  1.5459 -0.0095 -1.6063
  893MPD2     C13084   4.427   0.234   2.076  0.4620 -0.1420 -0.0291
  893MPD2    C113085   4.460   0.240   1.941  0.0892  0.0626  0.4564
  893MPD2    C213086   4.383   0.181   1.839 -0.0200 -0.0803  0.5175
  893MPD2    C313087   4.271   0.105   1.874  0.8009  0.3396 -0.5308
  893MPD2    C413088   4.238   0.098   2.010  0.5166  0.4064 -0.3446
  893MPD2    C513089   4.310   0.166   2.102  0.1908  0.5732 -0.0994
  893MPD2     H13090   4.413   0.201   1.736  0.2735  1.7052  0.9480
  893MPD2    H113091   4.159   0.031   2.040  1.2834  0.3572  1.5907
  893MPD2    H213092   4.476   0.297   2.150  0.8706  0.2569 -0.6433
  893MPD2    H313093   4.270   0.152   2.202 -0.2493  1.7781 -0.1060
  893MPD2     N13094   4.191   0.026   1.779 -0.7449 -0.0413 -0.2885
  893MPD2    H513095   4.117   4.690   1.820 -0.9151 -0.0959 -0.6652
  893MPD2    N113096   4.568   0.323   1.913 -0.3141 -0.6278  0.0188
  893MPD2    H713097   4.596   0.378   1.994 -1.0977 -0.0809 -0.0812
  894MPD2     C13098   1.283   3.098   1.106 -0.6050  0.6805 -0.9801
  894MPD2    C113099   1.381   3.131   1.204  0.6674  0.1225  0.7823
  894MPD2    C213100   1.438   3.259   1.184  0.4253 -0.1897 -0.4943
  894MPD2    C313101   1.406   3.347   1.078 -0.2356  0.0564 -0.1541
  894MPD2    C413102   1.305   3.305   0.989 -0.2304 -0.3447  0.4553
  894MPD2    C513103   1.244   3.187   1.008 -0.6027  1.0112  0.5414
  894MPD2     H13104   1.512   3.297   1.253 -0.0620  1.3022 -0.7993
  894MPD2    H113105   1.268   3.366   0.908 -1.3674  0.4304  1.5694
  894MPD2    H213106   1.231   3.002   1.104  2.1785 -0.8854  2.4890
  894MPD2    H313107   1.157   3.162   0.948  0.4598 -0.5640 -0.3347
  894MPD2     N13108   1.462   3.480   1.079 -0.3186 -0.6833  0.8370
  894MPD2    H513109   1.523   3.503   1.157  0.6041 -1.9453  0.4927
  894MPD2    N113110   1.417   3.048   1.309  0.2593  0.0953  0.6795
  894MPD2    H713111   1.488   3.074   1.376  0.2127 -1.4768  1.3506
  895MPD2     C13112   0.631   1.031  13.960 -0.4553  0.7104 -0.2264
  895MPD2    C113113   0.687   1.055  13.835 -0.1209 -0.9032 -0.2802
  895MPD2    C213114   0.804   0.988  13.809 -0.4315  0.2821 -0.6066
  895MPD2    C313115   0.846   0.882  13.882 -0.4607 -0.1070 -0.4562
  895MPD2    C413116   0.775   0.849  13.994  0.1515 -0.3769 -0.0899
  895MPD2    C513117   0.675   0.929  14.037 -0.2270 -0.0045 -0.5406
  895MPD2     H13118   0.850   1.008  13.713 -1.0039  2.2700 -0.4595
  895MPD2    H113119   0.809   0.760  14.045  2.6210  0.3349 -0.4872
  895MPD2    H213120   0.549   1.092  13.997  0.8890  1.2286  1.9182
  895MPD2    H313121   0.626   0.888  14.124  0.8215  0.9607  0.5205
  895MPD2     N13122   0.942   0.797  13.839 -0.5875 -0.5103  0.1517
  895MPD2    H513123   0.948   0.704  13.881  0.0653 -0.1548  0.8471
  895MPD2    N113124   0.641   1.140  13.736  0.1150  0.1399 -0.1202
  895MPD2    H713125   0.683   1.122  13.645  1.1985 -2.3223  0.8577
  896MPD2     C13126   2.882   3.767   1.306 -0.6652  0.4393  0.2195
  896MPD2    C113127   2.824   3.741   1.183  0.1714 -0.0535  0.2720
  896MPD2    C213128   2.691   3.770   1.164  0.8546 -0.3824 -0.0168
  896MPD2    C313129   2.610   3.824   1.261  0.0210 -0.0311  0.5037
  896MPD2    C413130   2.676   3.874   1.379 -0.0909  0.0157 -0.7974
  896MPD2    C513131   2.809   3.840   1.393  0.3111  0.6684 -0.1098
  896MPD2     H13132   2.654   3.742   1.066  0.6017 -0.0133 -0.0265
  896MPD2    H113133   2.629   3.925   1.462  0.4733 -1.5357  0.4555
  896MPD2    H213134   2.984   3.742   1.334 -0.5129 -0.0725 -0.8113
  896MPD2    H313135   2.855   3.848   1.491 -0.8415  1.6999  0.3491
  896MPD2     N13136   2.469   3.834   1.237  0.1321  0.1350  0.5165
  896MPD2    H513137   2.432   3.775   1.163  0.2359 -2.9739  2.9344
  896MPD2    N113138   2.901   3.674   1.092 -0.0786  0.3872  0.2379
  896MPD2    H713139   2.995   3.650   1.124 -0.4697  0.6750  1.6108
  897MPD2     C13140   3.988   4.500  10.148 -0.1831  0.0158  0.4387
  897MPD2    C113141   4.035   4.623  10.174  0.0647  0.1832  0.1163
  897MPD2    C213142   3.976   4.699  10.277  0.0431 -0.1884  0.1438
  897MPD2    C313143   3.877   4.655  10.354  0.6101 -0.1446 -0.1620
  897MPD2    C413144   3.813   4.531  10.321  0.4428 -0.5676  0.2389
  897MPD2    C513145   3.874   4.454  10.222 -0.6035  0.9853 -0.0311
  897MPD2     H13146   4.010   0.080  10.298 -0.4691 -0.1670  0.8398
  897MPD2    H113147   3.737   4.487  10.385 -0.9023  1.0471 -0.2556
  897MPD2    H213148   4.044   4.434  10.082 -0.3290  1.1426 -0.8084
  897MPD2    H313149   3.838   4.359  10.182  2.1660 -0.5745  1.1753
  897MPD2     N13150   3.839   0.011  10.467 -0.3493 -0.5360 -0.3639
  897MPD2    H513151   3.896   0.093  10.488 -0.3752 -0.6255  0.0683
  897MPD2    N113152   4.139   4.674  10.095 -0.2577 -0.4902  0.3648
  897MPD2    H713153   4.164   4.629  10.007  0.8830  0.7134  0.0595
  898MPD2     C13154   0.928   1.354   0.806 -0.7148  0.0035 -0.1520
  898MPD2    C113155   1.009   1.308   0.701 -0.2090  0.2942  1.0600
  898MPD2    C213156   0.970   1.339   0.574  0.3046 -0.3992 -0.0436
  898MPD2    C313157   0.857   1.419   0.545 -1.0142  0.2812 -0.4529
  898MPD2    C413158   0.770   1.450   0.648  0.2900  0.6080  0.7375
  898MPD2    C513159   0.806   1.410   0.773 -0.9970  0.4265  0.3413
  898MPD2     H13160   1.024   1.294   0.491  1.2109  2.0539 -0.7665
  898MPD2    H113161   0.682   1.512   0.655 -0.7451 -0.7488 -0.2223
  898MPD2    H213162   0.948   1.342   0.912  2.6535  1.0426 -0.6846
  898MPD2    H313163   0.740   1.449   0.850  0.4239 -1.6176  2.6111
  898MPD2     N13164   0.820   1.456   0.411 -0.2644  0.3816  0.0324
  898MPD2    H513165   0.873   1.411   0.337  1.9782 -0.4281  2.1163
  898MPD2    N113166   1.133   1.240   0.721 -0.0131  0.3565  0.4080
  898MPD2    H713167   1.188   1.209   0.642  0.4206  1.2676  0.3579
  899MPD2     C13168   1.637   1.901   0.196 -1.0686  0.0284  0.2299
  899MPD2    C113169   1.666   2.032   0.208  0.0849  0.7822  0.3861
  899MPD2    C213170   1.662   2.103   0.326  0.1679  0.8444 -0.5578
  899MPD2    C313171   1.633   2.028   0.438 -0.0213 -0.8898 -0.0708
  899MPD2    C413172   1.605   1.895   0.431  0.8593  0.0663  0.4700
  899MPD2    C513173   1.619   1.833   0.311 -0.0974  0.1296 -0.2437
  899MPD2     H13174   1.660   2.211   0.326 -0.7083  0.8335 -1.1470
  899MPD2    H113175   1.582   1.837   0.519 -1.0218  0.6897  0.3818
  899MPD2    H213176   1.647   1.845   0.104 -2.1989  1.3483 -0.6904
  899MPD2    H313177   1.619   1.726   0.324  0.6344  0.1122 -0.3560
  899MPD2     N13178   1.615   2.084   0.564 -0.9222 -0.7974 -0.7838
  899MPD2    H513179   1.580   2.022   0.636 -0.4669 -0.8244 -0.5844
  899MPD2    N113180   1.697   2.085   0.087 -0.9368  0.0031  0.1445
  899MPD2    H713181   1.698   2.028   0.003 -0.0293  1.5219 -0.8574
  900MPD2     C13182   1.754   3.555  12.504  0.1164  0.1716 -0.8013
  900MPD2    C113183   1.712   3.445  12.435 -0.1908 -0.6451  0.2357
  900MPD2    C213184   1.609   3.466  12.343  0.1893  0.8399  0.1294
  900MPD2    C313185   1.539   3.584  12.338  0.6972  0.1475  0.8575
  900MPD2    C413186   1.578   3.692  12.416  0.5121 -1.4285 -0.3027
  900MPD2    C513187   1.690   3.675  12.493  0.2055  0.0153  0.0939
  900MPD2     H13188   1.568   3.389  12.278  0.4429  0.6985  0.1373
  900MPD2    H113189   1.524   3.786  12.418  2.6898 -0.2059  0.9593
  900MPD2    H213190   1.841   3.546  12.568 -0.3953 -1.6017 -0.3395
  900MPD2    H313191   1.718   3.759  12.555 -0.7683  0.6734 -0.3509
  900MPD2     N13192   1.421   3.585  12.251 -0.0125 -0.4288 -1.0317
  900MPD2    H513193   1.396   3.498  12.204 -3.3135  1.0166 -1.9384
  900MPD2    N113194   1.760   3.320  12.475  0.3168  0.7151 -0.9440
  900MPD2    H713195   1.829   3.327  12.549 -3.1706 -0.9568  2.4526
  901MPD2     C13196   1.331   2.345  12.736 -0.2910  0.4231 -0.4286
  901MPD2    C113197   1.464   2.308  12.730  0.4142  0.3609 -0.0883
  901MPD2    C213198   1.560   2.407  12.687  0.1724 -0.1026 -0.1626
  901MPD2    C313199   1.513   2.529  12.641  0.0897  0.1350  0.2197
  901MPD2    C413200   1.379   2.556  12.659 -0.4435  0.2966  0.5700
  901MPD2    C513201   1.290   2.477  12.719 -0.5248 -0.1323  0.4931
  901MPD2     H13202   1.667   2.393  12.673  0.0472 -1.2803  0.0122
  901MPD2    H113203   1.341   2.653  12.629  3.7074  0.9018 -2.7860
  901MPD2    H213204   1.260   2.266  12.755  0.5666 -0.3485 -0.4417
  901MPD2    H313205   1.189   2.512  12.738 -0.5954  0.7857 -1.5418
  901MPD2     N13206   1.609   2.628  12.593 -0.0109 -0.6124  0.3119
  901MPD2    H513207   1.707   2.601  12.597  0.5011  0.4944 -4.3047
  901MPD2    N113208   1.500   2.174  12.771 -0.2004  0.6336  0.8541
  901MPD2    H713209   1.425   2.107  12.786  0.5059 -0.5946 -1.0365
  902MPD2     C13210   1.221   1.087  12.948  0.0769  0.2339 -0.5065
  902MPD2    C113211   1.161   1.141  12.836  0.2002 -0.1115  0.1210
  902MPD2    C213212   1.206   1.113  12.712  0.3980 -0.6870  1.1784
  902MPD2    C313213   1.309   1.021  12.688 -0.1277  0.5077  0.2309
  902MPD2    C413214   1.353   0.955  12.797 -0.9138  0.0646 -0.3159
  902MPD2    C513215   1.314   0.988  12.926  0.4715  0.9162  0.4445
  902MPD2     H13216   1.168   1.174  12.631  0.0268 -1.4271  0.7943
  902MPD2    H113217   1.428   0.880  12.771 -2.7276 -1.9411  0.2358
  902MPD2    H213218   1.184   1.117  13.046 -2.6571  0.0174 -1.4768
  902MPD2    H313219   1.357   0.929  13.006 -1.3133 -1.9772 -0.7683
  902MPD2     N13220   1.355   0.989  12.561 -0.1120 -0.5540  0.2336
  902MPD2    H513221   1.404   0.900  12.562 -0.5034 -0.7539  1.6239
  902MPD2    N113222   1.063   1.235  12.859 -0.8040  0.1624  0.2875
  902MPD2    H713223   1.039   1.261  12.955  0.6492  2.5382 -0.0010
  903MPD2     C13224   1.185   1.311  11.879 -0.0573 -0.3462 -0.6236
  903MPD2    C113225   1.202   1.177  11.889  1.0690  0.9810  0.0482
  903MPD2    C213226   1.108   1.095  11.826  0.5915  0.1078 -0.4864
  903MPD2    C313227   0.997   1.141  11.756  0.6727  0.6860 -0.8188
  903MPD2    C413228   0.983   1.278  11.749 -0.0331 -0.0319  0.2674
  903MPD2    C513229   1.083   1.362  11.802  0.2420  0.5542  0.8274
  903MPD2     H13230   1.114   0.986  11.828 -2.0921 -0.0177  0.9428
  903MPD2    H113231   0.894   1.323  11.706 -0.4336 -0.1000  1.0278
  903MPD2    H213232   1.241   1.386  11.933  0.1018 -0.9030 -0.0133
  903MPD2    H313233   1.066   1.469  11.800  1.8516  0.8099  1.4650
  903MPD2     N13234   0.904   1.044  11.723  0.0574  1.2382  0.8282
  903MPD2    H513235   0.922   0.947  11.742  0.7922  1.3134  0.4988
  903MPD2    N113236   1.299   1.129  11.974 -0.4827  0.4101 -0.1373
  903MPD2    H713237   1.345   1.206  12.021  0.9457 -0.6094  0.1489
  904MPD2     C13238   0.523   0.640  13.519 -0.1117  0.1807 -0.8264
  904MPD2    C113239   0.453   0.527  13.554 -0.1728  0.1938  0.2579
  904MPD2    C213240   0.487   0.455  13.669  0.0868 -0.3008  0.2401
  904MPD2    C313241   0.587   0.505  13.755 -0.6848 -0.0628  0.2958
  904MPD2    C413242   0.650   0.623  13.727 -0.3915  0.8003 -0.3487
  904MPD2    C513243   0.615   0.686  13.608 -0.2034 -0.0449  0.2048
  904MPD2     H13244   0.423   0.371  13.693  0.1415  0.1739  2.0465
  904MPD2    H113245   0.725   0.672  13.787 -1.7597  0.4885  1.6359
  904MPD2    H213246   0.512   0.699  13.429  0.7451  1.3732 -0.1480
  904MPD2    H313247   0.668   0.779  13.588  0.0656 -0.4257 -0.8684
  904MPD2     N13248   0.629   0.423  13.855 -0.1987 -0.3054  0.6138
  904MPD2    H513249   0.585   0.332  13.866 -0.0274 -0.6141 -1.3252
  904MPD2    N113250   0.350   0.471  13.479  0.1602  0.5112  0.2918
  904MPD2    H713251   0.327   0.374  13.497  0.0460  0.5989  0.6261
  905MPD2     C13252   0.527   0.664  12.983  1.2483  0.0205  0.0354
  905MPD2    C113253   0.538   0.754  13.091  0.4479  0.2893  0.3245
  905MPD2    C213254   0.648   0.753  13.166  0.6315 -0.2563 -0.5182
  905MPD2    C313255   0.747   0.663  13.137  0.1886 -0.3965  0.7160
  905MPD2    C413256   0.739   0.581  13.027  0.2748 -0.0295 -0.5271
  905MPD2    C513257   0.624   0.578  12.960 -0.6839  0.1692 -0.6140
  905MPD2     H13258   0.659   0.827  13.244  0.4607  0.4628 -1.1677
  905MPD2    H113259   0.808   0.502  12.998 -0.0105 -1.3704  2.4383
  905MPD2    H213260   0.429   0.658  12.936  1.0669  1.6577  0.2047
  905MPD2    H313261   0.619   0.513  12.873  0.2855 -0.0466 -0.5175
  905MPD2     N13262   0.853   0.648  13.220 -1.0474 -0.4801 -0.0198
  905MPD2    H513263   0.918   0.571  13.206 -0.8485 -0.3107 -0.0301
  905MPD2    N113264   0.425   0.830  13.127  0.3341 -1.0057 -0.6225
  905MPD2    H713265   0.332   0.822  13.088  1.1015  0.1974 -2.6418
  906MPD2     C13266   2.735   0.139  11.781 -0.0435  0.1967 -0.4318
  906MPD2    C113267   2.665   0.093  11.676 -1.2578  0.1280  0.0085
  906MPD2    C213268   2.542   0.041  11.700  0.4647 -0.1018 -0.4358
  906MPD2    C313269   2.483   0.034  11.822  0.1983  0.4148  0.0242
  906MPD2    C413270   2.556   0.076  11.927  0.9154 -0.5080  0.0041
  906MPD2    C513271   2.682   0.124  11.907 -0.4964 -0.3762  0.4640
  906MPD2     H13272   2.488   4.717  11.617 -2.0569  0.8796  0.7090
  906MPD2    H113273   2.513   0.079  12.027 -1.1826  0.5878 -0.9364
  906MPD2    H213274   2.828   0.194  11.781 -2.1128  3.7757  2.9530
  906MPD2    H313275   2.737   0.158  11.994 -0.4842  1.3706 -0.2225
  906MPD2     N13276   2.350   4.714  11.834  0.2108 -0.6596 -0.1681
  906MPD2    H513277   2.296   4.708  11.748  0.7970 -1.6395 -0.4638
  906MPD2    N113278   2.710   0.096  11.539 -0.0271  0.0680  0.1416
  906MPD2    H713279   2.643   0.053  11.476  0.2251 -1.1691  0.7165
  907MPD2     C13280   1.184   4.148  15.839 -0.3755  0.4984  1.1591
  907MPD2    C113281   1.256   4.037  15.812 -0.3262  0.2194 -0.3879
  907MPD2    C213282   1.323   3.976  15.917  0.5432  0.2856 -0.8740
  907MPD2    C313283   1.321   4.026  16.046  0.1763  0.4262  0.4363
  907MPD2    C413284   1.255   4.145  16.073 -0.0882 -0.8539  0.2669
  907MPD2    C513285   1.193   4.200  15.962 -0.3656 -0.0820 -0.3738
  907MPD2     H13286   1.364   3.877  15.899 -0.5363  0.1804 -2.7461
  907MPD2    H113287   1.264   4.196  16.168  0.9540 -1.0920  0.2992
  907MPD2    H213288   1.135   4.212  15.766 -2.4184 -0.3676  1.7803
  907MPD2    H313289   1.140   4.294  15.977 -0.6055  0.1559 -2.7225
  907MPD2     N13290   1.392   3.956  16.150 -0.2832 -0.0330 -0.0561
  907MPD2    H513291   1.446   3.873  16.126 -0.6616 -0.2748 -0.0820
  907MPD2    N113292   1.244   3.967  15.690  0.0183  0.1506 -0.2302
  907MPD2    H713293   1.291   3.879  15.670  0.6204  0.5295 -0.4822
  908MPD2     C13294   4.448   4.498   9.313  0.4531 -0.2980  0.0009
  908MPD2    C113295   4.556   4.490   9.398  0.4089 -0.0448  0.3101
  908MPD2    C213296   4.555   4.563   9.520  0.2491  0.4278 -0.7399
  908MPD2    C313297   4.453   4.649   9.540 -0.5428 -0.1168  0.2358
  908MPD2    C413298   4.343   4.660   9.450 -0.3248 -0.2219 -0.3222
  908MPD2    C513299   4.345   4.586   9.336  0.3414 -0.4162 -0.4669
  908MPD2     H13300   4.644   4.552   9.579 -0.0242  1.6830 -0.0985
  908MPD2    H113301   4.264   0.012   9.469  0.7028  1.0479 -0.8673
  908MPD2    H213302   4.438   4.430   9.229 -0.7988 -3.2887  2.6153
  908MPD2    H313303   4.261   4.597   9.268 -0.3867  1.0211  0.6735
  908MPD2     N13304   4.448   4.717   9.664 -0.3949  0.0132 -0.1296
  908MPD2    H513305   4.507   4.681   9.738  0.9529  1.1918 -0.6455
  908MPD2    N113306   4.638   4.376   9.376  0.7175  0.9443  0.6812
  908MPD2    H713307   4.618   4.317   9.295  1.8349  0.9403  0.3958
  909MPD2     C13308   0.011   2.261  11.650 -0.1179  0.2190 -0.1219
  909MPD2    C113309   4.689   2.357  11.563 -0.2228  0.3206  0.4358
  909MPD2    C213310   4.626   2.466  11.615 -0.1708  0.2082  0.4377
  909MPD2    C313311   4.589   2.480  11.746 -0.3203  0.3303 -0.8186
  909MPD2    C413312   4.617   2.379  11.837 -0.2859  0.1015  0.4221
  909MPD2    C513313   4.690   2.275  11.783  0.1751  0.0765  0.5601
  909MPD2     H13314   4.624   2.548  11.544 -1.6661 -0.5574 -0.4333
  909MPD2    H113315   4.609   2.389  11.944 -1.4389  0.1352  0.3335
  909MPD2    H213316   0.068   2.174  11.620  0.0166  0.4063 -0.4060
  909MPD2    H313317   0.005   2.208  11.861  1.5489 -0.3943 -0.4564
  909MPD2     N13318   4.533   2.602  11.778  0.1692 -0.8330 -0.3562
  909MPD2    H513319   4.534   2.672  11.704 -0.7051 -1.6572 -1.1400
  909MPD2    N113320   0.017   2.362  11.430  0.1478  0.2003 -0.1613
  909MPD2    H713321   0.025   2.457  11.395  2.8669  0.2259  0.5045
  910MPD2     C13322   0.280   4.688  15.892  0.2144 -0.3109 -0.1187
  910MPD2    C113323   0.381   4.623  15.821 -1.2401 -0.7792  0.2019
  910MPD2    C213324   0.396   4.657  15.689 -0.7288 -0.2906  0.4057
  910MPD2    C313325   0.302   0.026  15.627 -0.4863  0.0874 -0.9879
  910MPD2    C413326   0.202   0.082  15.698 -0.5741  0.5574 -0.1785
  910MPD2    C513327   0.190   0.048  15.827 -0.9940 -0.2604  0.1461
  910MPD2     H13328   0.468   4.598  15.633 -2.6467 -2.6038  0.3834
  910MPD2    H113329   0.133   0.157  15.662 -1.1736  0.7560  1.3781
  910MPD2    H213330   0.266   4.675  15.998 -1.1697  0.4894 -0.1996
  910MPD2    H313331   0.110   0.092  15.885  0.9244  2.5673  0.6326
  910MPD2     N13332   0.308   0.059  15.490 -0.0372 -0.0757  0.4413
  910MPD2    H513333   0.250   0.136  15.458 -0.8107 -0.8045  0.0878
  910MPD2    N113334   0.468   4.529  15.889 -0.1417  0.3705 -0.2917
  910MPD2    H713335   0.543   4.498  15.827  0.1524  1.2715 -0.3928
  911MPD2     C13336   3.562   0.452  16.399  0.3339 -0.4891 -0.1149
  911MPD2    C113337   3.570   0.582  16.429 -0.2018 -0.2030 -0.1587
  911MPD2    C213338   3.462   0.667  16.396 -0.7007  0.4887 -0.0942
  911MPD2    C313339   3.348   0.615  16.337  0.5405  0.0780  0.2261
  911MPD2    C413340   3.342   0.479  16.320 -0.6772 -0.3549  0.1445
  911MPD2    C513341   3.448   0.399  16.363  0.0147 -0.3802 -0.4464
  911MPD2     H13342   3.462   0.770  16.429 -2.0598 -0.0094  1.4921
  911MPD2    H113343   3.252   0.431  16.284 -2.5784  3.2666  0.1036
  911MPD2    H213344   3.639   0.382  16.430  1.1161  0.9511  1.1694
  911MPD2    H313345   3.438   0.291  16.357  1.6785 -0.6762  2.0969
  911MPD2     N13346   3.242   0.690  16.283  1.0028 -0.1280  0.0593
  911MPD2    H513347   3.164   0.638  16.244  0.5563  1.2247 -0.8272
  911MPD2    N113348   3.696   0.625  16.475  0.2800  0.2115 -0.4401
  911MPD2    H713349   3.763   0.550  16.487 -0.2198 -0.3153 -0.9010
  912MPD2     C13350   2.621   0.528  15.835 -0.0978  0.0412  0.1585
  912MPD2    C113351   2.721   0.506  15.927 -0.0433  0.4492  0.6009
  912MPD2    C213352   2.742   0.382  15.979  0.2266 -0.4080 -0.1203
  912MPD2    C313353   2.674   0.271  15.937  0.3337  0.2767  0.5191
  912MPD2    C413354   2.573   0.293  15.841 -0.0388 -0.5209 -0.2113
  912MPD2    C513355   2.555   0.418  15.792 -0.5223  0.1293  0.1737
  912MPD2     H13356   2.818   0.362  16.054 -1.2368  2.7164  2.1896
  912MPD2    H113357   2.519   0.209  15.800  1.1682 -1.6762  0.5539
  912MPD2    H213358   2.598   0.621  15.783  0.9898 -0.1494 -0.6646
  912MPD2    H313359   2.483   0.437  15.713  0.3387 -4.6209 -1.7280
  912MPD2     N13360   2.687   0.149  16.007  0.1120 -0.0880  0.1686
  912MPD2    H513361   2.754   0.145  16.082 -1.1712 -1.4125  1.2479
  912MPD2    N113362   2.807   0.619  15.958 -0.1614 -0.3170 -0.1220
  912MPD2    H713363   2.763   0.703  15.921 -0.2727  0.2047  1.2043
  913MPD2     C13364   4.251   2.648  10.931 -0.6765 -0.2514 -0.2557
  913MPD2    C113365   4.214   2.535  10.862  0.0516 -0.0425  0.1482
  913MPD2    C213366   4.244   2.529  10.725 -0.0758 -0.2814 -0.3887
  913MPD2    C313367   4.313   2.634  10.663 -0.5865 -0.1782 -0.8230
  913MPD2    C413368   4.345   2.747  10.733  0.1941 -0.0740 -0.3600
  913MPD2    C513369   4.319   2.750  10.871  0.4932  0.3213 -0.6490
  913MPD2     H13370   4.200   2.447  10.669  1.9623 -1.6634  0.0474
  913MPD2    H113371   4.409   2.826  10.695 -0.5182 -0.0118 -1.4065
  913MPD2    H213372   4.229   2.662  11.036  1.4071  2.8237 -0.2365
  913MPD2    H313373   4.350   2.838  10.925  1.5457  0.1123 -0.9151
  913MPD2     N13374   4.333   2.636  10.519 -0.0373 -0.2438 -0.6811
  913MPD2    H513375   4.388   2.716  10.489  0.4112 -0.6405 -0.9029
  913MPD2    N113376   4.137   2.433  10.931 -0.3876  0.3872 -0.3000
  913MPD2    H713377   4.110   2.453  11.027 -0.6421 -1.4991  0.0143
  914MPD2     C13378   1.643   2.141  12.019  0.2632  0.6895  0.8152
  914MPD2    C113379   1.684   2.216  12.139 -0.6573  0.1497  0.0933
  914MPD2    C213380   1.688   2.145  12.258  0.1898 -0.0126 -0.8566
  914MPD2    C313381   1.644   2.016  12.275  0.0981 -1.0288 -0.0429
  914MPD2    C413382   1.603   1.950  12.164  0.1150  0.0460 -0.3163
  914MPD2    C513383   1.603   2.012  12.041  0.2557 -0.1861 -0.1719
  914MPD2     H13384   1.717   2.202  12.346  3.4202  2.1720 -3.3683
  914MPD2    H113385   1.558   1.852  12.173  3.3774 -1.5497 -1.3427
  914MPD2    H213386   1.630   2.188  11.922  4.3835  0.1416 -0.0097
  914MPD2    H313387   1.573   1.959  11.951 -0.0883  1.9251 -1.3051
  914MPD2     N13388   1.633   1.958  12.405 -0.6624 -0.0519 -0.0801
  914MPD2    H513389   1.671   2.017  12.478 -0.7607  0.3872 -0.3827
  914MPD2    N113390   1.726   2.351  12.124  0.1250  0.3226  0.0727
  914MPD2    H713391   1.731   2.387  12.029  0.6398  0.4046  0.1330
  915MPD2     C13392   4.225   1.864  15.600 -0.7907  0.2009 -0.1345
  915MPD2    C113393   4.131   1.948  15.552  0.4683  0.5671  0.3694
  915MPD2    C213394   4.084   2.050  15.634 -0.7791  0.1745 -0.4831
  915MPD2    C313395   4.135   2.068  15.762  0.3394  0.7640  0.5553
  915MPD2    C413396   4.237   1.985  15.806  0.5586 -0.3719  0.0875
  915MPD2    C513397   4.277   1.880  15.724 -0.1971  0.5107 -0.5581
  915MPD2     H13398   4.013   2.115  15.583 -1.4914  1.8762  2.6574
  915MPD2    H113399   4.294   1.994  15.897 -1.7628 -1.2709  1.6467
  915MPD2    H213400   4.272   1.798  15.528 -0.1715 -0.9263  1.2919
  915MPD2    H313401   4.353   1.813  15.761 -0.7878  0.7283  1.0339
  915MPD2     N13402   4.075   2.164  15.847 -0.4345  0.4471  0.1111
  915MPD2    H513403   4.005   2.218  15.797 -2.2050 -0.2738  1.8193
  915MPD2    N113404   4.093   1.932  15.419 -0.0120 -0.3069 -0.2159
  915MPD2    H713405   4.118   1.842  15.378 -1.3788 -1.0297  0.4998
  916MPD2     C13406   2.096   0.330  15.768  0.2163 -0.0684  0.0089
  916MPD2    C113407   2.192   0.282  15.853  0.5362 -0.5568  0.4159
  916MPD2    C213408   2.265   0.177  15.811  0.0664  0.2372 -0.2372
  916MPD2    C313409   2.271   0.138  15.677 -0.6585 -0.7447 -0.2492
  916MPD2    C413410   2.183   0.203  15.587 -0.4162 -0.1609 -0.2595
  916MPD2    C513411   2.082   0.285  15.637  0.0892 -0.1192  0.4629
  916MPD2     H13412   2.339   0.128  15.873 -0.3242 -0.8288 -0.6027
  916MPD2    H113413   2.173   0.179  15.482 -0.0247  1.6532 -0.7170
  916MPD2    H213414   2.015   0.399  15.790 -0.0733  0.1212 -1.6150
  916MPD2    H313415   2.012   0.333  15.569  1.8050  1.4425 -0.2246
  916MPD2     N13416   2.361   0.039  15.639 -0.1558 -0.4065  0.2927
  916MPD2    H513417   2.406   4.700  15.708 -0.1978 -2.7629 -1.6953
  916MPD2    N113418   2.199   0.329  15.981 -0.2495 -0.2383  0.6050
  916MPD2    H713419   2.138   0.408  16.003 -1.4800 -1.9538  3.2641
  917MPD2     C13420   3.136   2.500  11.072  0.3917 -0.0100 -0.4282
  917MPD2    C113421   3.180   2.562  11.184 -0.2255 -0.0263 -0.5618
  917MPD2    C213422   3.280   2.651  11.171  0.8049 -0.5283 -0.0752
  917MPD2    C313423   3.334   2.684  11.046 -0.2765  0.4290 -0.2615
  917MPD2    C413424   3.285   2.623  10.930 -0.6549  0.7129  0.3783
  917MPD2    C513425   3.180   2.536  10.947 -0.7375  0.4575  0.4107
  917MPD2     H13426   3.311   2.699  11.264 -1.8973  0.7762  0.1397
  917MPD2    H113427   3.326   2.640  10.831 -0.0406  1.4222  0.7641
  917MPD2    H213428   3.048   2.437  11.083  1.4539 -0.9539  2.5532
  917MPD2    H313429   3.133   2.483  10.865  0.0820 -1.7423  1.3651
  917MPD2     N13430   3.435   2.784  11.029 -0.0600 -0.0786 -0.2745
  917MPD2    H513431   3.475   2.810  10.940 -1.0799 -0.3112 -0.8031
  917MPD2    N113432   3.108   2.522  11.304 -0.2643  0.5800  0.0839
  917MPD2    H713433   3.024   2.467  11.295  0.2592  0.1586 -2.1874
  918MPD2     C13434   3.038   3.024  12.180 -0.2010 -0.0440  0.4334
  918MPD2    C113435   3.152   2.988  12.100 -0.0836  0.2145 -0.5606
  918MPD2    C213436   3.122   2.927  11.979 -0.8944  0.0157 -0.4514
  918MPD2    C313437   2.995   2.912  11.935  1.0110  0.5122  0.3064
  918MPD2    C413438   2.887   2.959  12.010  0.2688  0.2825 -0.5284
  918MPD2    C513439   2.911   3.016  12.132  0.3089 -0.0729 -0.2263
  918MPD2     H13440   3.202   2.878  11.926 -1.1541  0.0797 -0.9029
  918MPD2    H113441   2.783   2.950  11.982  0.1361  1.3281 -0.3698
  918MPD2    H213442   3.047   3.068  12.278  1.1457  2.2312 -0.7175
  918MPD2    H313443   2.827   3.050  12.191 -0.1050  0.6578 -1.2336
  918MPD2     N13444   2.981   2.821  11.823 -0.0281  0.6070 -0.5551
  918MPD2    H513445   3.064   2.777  11.787  1.0956  2.0420  0.2656
  918MPD2    N113446   3.284   2.998  12.137  0.8787 -0.2361  0.6313
  918MPD2    H713447   3.353   2.966  12.069 -0.2889 -0.3765 -0.4951
  919MPD2     C13448   4.006   1.479  11.612  0.2392 -0.9364  0.4576
  919MPD2    C113449   4.000   1.361  11.534  0.0589  0.9193  0.1514
  919MPD2    C213450   4.019   1.367  11.395 -0.1346  0.1400  0.2114
  919MPD2    C313451   4.051   1.496  11.343 -0.2403  0.2842  0.0891
  919MPD2    C413452   4.055   1.605  11.425  0.0778  0.0181 -0.1983
  919MPD2    C513453   4.034   1.597  11.557 -0.5108 -0.5796 -0.7409
  919MPD2     H13454   4.006   1.273  11.343 -1.2946  0.6989 -0.5072
  919MPD2    H113455   4.071   1.705  11.386 -1.7315  1.6864  3.3284
  919MPD2    H213456   3.994   1.473  11.719 -1.2345 -0.7799  0.2943
  919MPD2    H313457   4.032   1.689  11.614  1.8793  0.9719 -3.1651
  919MPD2     N13458   4.069   1.527  11.204  0.1086 -0.2320 -0.0541
  919MPD2    H513459   4.085   1.621  11.169  0.8862 -0.5602 -0.5739
  919MPD2    N113460   3.974   1.233  11.589 -0.1751  0.5221 -0.5379
  919MPD2    H713461   3.972   1.167  11.512  1.0759  1.5390 -1.4530
  920MPD2     C13462   3.743   2.069  10.432  0.1351 -0.1112  0.1106
  920MPD2    C113463   3.676   1.953  10.413  0.0507  0.2135  0.2645
  920MPD2    C213464   3.716   1.844  10.491  0.3149  0.4918 -0.5659
  920MPD2    C313465   3.807   1.851  10.594 -0.1587 -0.9887  0.6256
  920MPD2    C413466   3.873   1.976  10.617 -0.6080  0.0616 -0.1624
  920MPD2    C513467   3.842   2.080  10.530 -0.1803 -0.4419  0.3530
  920MPD2     H13468   3.668   1.750  10.465  1.3085  0.3144 -1.7533
  920MPD2    H113469   3.954   1.990  10.688  1.3679 -1.9497 -2.0131
  920MPD2    H213470   3.721   2.162  10.382 -2.2886 -0.7729 -0.0372
  920MPD2    H313471   3.890   2.174  10.554  0.3525 -0.7348  0.4448
  920MPD2     N13472   3.843   1.734  10.670 -0.0732 -0.4995 -0.2617
  920MPD2    H513473   3.802   1.644  10.647  0.8197 -0.2970 -2.7360
  920MPD2    N113474   3.577   1.933  10.309 -0.1697 -0.3869 -0.2934
  920MPD2    H713475   3.531   1.843  10.300 -0.7105 -0.2574  1.2107
  921MPD2     C13476   4.407   1.228  16.914 -0.1142 -0.5586  0.6130
  921MPD2    C113477   4.449   1.100  16.879 -0.7442 -0.6004 -0.2411
  921MPD2    C213478   4.360   0.996  16.846  0.4073  0.5644  0.1749
  921MPD2    C313479   4.222   1.025  16.836 -0.3272 -0.3356  0.3513
  921MPD2    C413480   4.183   1.148  16.885 -0.2202  0.4686 -0.0068
  921MPD2    C513481   4.270   1.250  16.919  0.1263 -0.1469 -0.0127
  921MPD2     H13482   4.406   0.898  16.833 -1.9746 -0.7992  1.9361
  921MPD2    H113483   4.077   1.172  16.893 -0.6577 -1.4314 -0.0611
  921MPD2    H213484   4.474   1.310  16.935  1.5528 -2.3614  2.2739
  921MPD2    H313485   4.238   1.345  16.962 -1.1100  0.0974 -1.4776
  921MPD2     N13486   4.122   0.936  16.792  0.1728  0.2600 -0.0023
  921MPD2    H513487   4.032   0.974  16.766 -0.7503 -1.3440  0.8307
  921MPD2    N113488   4.594   1.085  16.863 -0.5124  0.4304 -0.4599
  921MPD2    H713489   4.639   1.176  16.863  2.5575 -1.0999  0.7652
  922MPD2     C13490   0.559   3.017  16.796 -0.1523  0.1919  0.3182
  922MPD2    C113491   0.564   3.096  16.910 -0.2029  0.0340 -0.2311
  922MPD2    C213492   0.461   3.094  17.002 -0.6130 -0.1799 -0.1270
  922MPD2    C313493   0.345   3.037  16.976 -0.0731  0.0766 -0.0160
  922MPD2    C413494   0.337   2.949  16.868 -0.0913 -0.4175  0.5203
  922MPD2    C513495   0.445   2.944  16.784 -0.7121  0.5433 -0.1834
  922MPD2     H13496   0.467   3.159  17.088 -1.5490 -1.0110  0.5640
  922MPD2    H113497   0.246   2.890  16.867 -0.3998  0.0802 -0.9045
  922MPD2    H213498   0.630   3.028  16.715  0.2559 -0.6624  0.5604
  922MPD2    H313499   0.436   2.877  16.698 -3.0417  2.6142 -1.5491
  922MPD2     N13500   0.252   3.055  17.080 -0.4097  0.0030  0.2787
  922MPD2    H513501   0.276   3.118  17.156 -0.8996 -1.1524  1.3755
  922MPD2    N113502   0.653   3.203  16.939 -0.6401 -0.3105  0.5216
  922MPD2    H713503   0.642   3.251  17.028 -2.1563  1.5252 -0.6680
  923MPD2     C13504   1.340   3.619   9.112 -0.3196  0.3899 -0.3254
  923MPD2    C113505   1.369   3.721   9.194 -0.6516  0.1027  0.0529
  923MPD2    C213506   1.490   3.720   9.265 -0.3525 -0.7281  0.0976
  923MPD2    C313507   1.580   3.614   9.254 -0.4584 -0.0112  0.0278
  923MPD2    C413508   1.537   3.509   9.176 -0.2646 -0.1020  0.2648
  923MPD2    C513509   1.422   3.510   9.110 -0.2152  0.0045 -0.1132
  923MPD2     H13510   1.515   3.814   9.314 -0.6139 -1.0076  0.7664
  923MPD2    H113511   1.591   3.418   9.154  0.3749  0.6540 -1.2998
  923MPD2    H213512   1.241   3.611   9.069 -1.3065  0.7448  1.8465
  923MPD2    H313513   1.392   3.425   9.050 -1.1895 -1.6291  2.6494
  923MPD2     N13514   1.708   3.606   9.315 -0.0610  0.1463  0.0177
  923MPD2    H513515   1.760   3.524   9.285  0.8523  1.3438 -1.6405
  923MPD2    N113516   1.289   3.841   9.193  0.3520  0.5104 -0.7397
  923MPD2    H713517   1.231   3.846   9.110 -1.6517  0.6392  0.6708
  924MPD2     C13518   1.776   3.514  15.809 -0.2727  0.2216 -0.9014
  924MPD2    C113519   1.705   3.446  15.908  0.3885 -0.3040 -0.9971
  924MPD2    C213520   1.690   3.502  16.032 -0.5769  0.5700 -0.4488
  924MPD2    C313521   1.733   3.629  16.057  0.1082 -0.6101  0.2744
  924MPD2    C413522   1.795   3.698  15.952 -0.1333 -0.1197  0.2799
  924MPD2    C513523   1.819   3.644  15.832  0.3410  0.7438  0.3642
  924MPD2     H13524   1.655   3.436  16.111  0.4874 -1.7057 -1.8695
  924MPD2    H113525   1.833   3.797  15.975 -0.9299 -0.5443  3.4187
  924MPD2    H213526   1.790   3.457  15.719 -0.7495 -1.3300  0.0160
  924MPD2    H313527   1.851   3.702  15.747 -1.5293  0.1890 -0.7173
  924MPD2     N13528   1.712   3.696  16.178  0.0389 -0.5705  0.0631
  924MPD2    H513529   1.727   3.796  16.178  0.0519 -0.5750 -0.6014
  924MPD2    N113530   1.673   3.310  15.889  0.3684 -0.0858  0.2467
  924MPD2    H713531   1.736   3.269  15.821  0.3559 -0.3719  0.4105
  925MPD2     C13532   0.723   1.024  14.602  0.3810  0.4437  0.5709
  925MPD2    C113533   0.610   1.104  14.589 -0.1886 -0.2017  0.6308
  925MPD2    C213534   0.535   1.131  14.705 -0.1457  0.4691 -0.3165
  925MPD2    C313535   0.567   1.073  14.828 -0.2266 -0.3480 -0.3439
  925MPD2    C413536   0.688   1.006  14.836 -0.2385  0.4377 -0.4293
  925MPD2    C513537   0.759   0.983  14.725  0.1347 -0.0732  0.1971
  925MPD2     H13538   0.450   1.198  14.696  1.0259  1.8667 -1.0907
  925MPD2    H113539   0.720   0.968  14.933 -0.3585  1.7505  0.1211
  925MPD2    H213540   0.797   1.007  14.525  0.4382 -0.1198  0.7457
  925MPD2    H313541   0.855   0.934  14.731  0.5946  0.4103 -3.2545
  925MPD2     N13542   0.487   1.097  14.940 -0.3230  0.0710  0.0576
  925MPD2    H513543   0.520   1.052  15.024 -1.5347 -1.9983 -0.5786
  925MPD2    N113544   0.570   1.168  14.465 -0.5907 -0.4787 -0.2719
  925MPD2    H713545   0.486   1.224  14.473 -0.6664 -0.5253 -0.7558
  926MPD2     C13546   3.853   4.443  13.698  0.2722 -0.0575  0.6893
  926MPD2    C113547   3.839   4.552  13.614  0.0618 -0.7348  0.3737
  926MPD2    C213548   3.945   4.583  13.528 -0.1835  0.1474  0.4545
  926MPD2    C313549   4.060   4.505  13.516  0.4355  0.8123 -0.6374
  926MPD2    C413550   4.068   4.395  13.599 -0.5531 -0.1062  0.5004
  926MPD2    C513551   3.968   4.371  13.688  0.4497 -0.2842  0.1097
  926MPD2     H13552   3.933   4.674  13.472 -0.6729  0.2278  0.6918
  926MPD2    H113553   4.158   4.335  13.605 -0.7866 -0.4704  0.4036
  926MPD2    H213554   3.776   4.410  13.767  0.3092 -0.0226  0.7466
  926MPD2    H313555   3.969   4.287  13.757 -1.5820  0.9362  1.6418
  926MPD2     N13556   4.164   4.534  13.431  0.5779  0.7981 -0.3046
  926MPD2    H513557   4.229   4.456  13.422  1.0046  1.1210 -0.0384
  926MPD2    N113558   3.724   4.633  13.611  0.1479  0.9086 -0.2698
  926MPD2    H713559   3.731   4.708  13.544  4.1746  1.6411  1.0003
  927MPD2     C13560   3.876   1.897   0.752 -0.1613 -0.2870  0.6251
  927MPD2    C113561   3.806   1.975   0.668  0.8387  0.4509 -0.6667
  927MPD2    C213562   3.821   1.960   0.536 -0.9360 -0.4067 -0.3820
  927MPD2    C313563   3.904   1.860   0.487  0.0221 -0.1240  0.7686
  927MPD2    C413564   3.979   1.783   0.573 -0.7072 -0.4235 -0.4368
  927MPD2    C513565   3.961   1.799   0.707  0.2225  0.3528  0.9000
  927MPD2     H13566   3.754   2.004   0.464  0.3192  0.2354 -1.1589
  927MPD2    H113567   4.042   1.698   0.550  1.0844  1.0011 -0.7612
  927MPD2    H213568   3.870   1.897   0.860 -0.2290  0.9577  0.6164
  927MPD2    H313569   4.003   1.726   0.775  1.6167  0.0811 -0.2685
  927MPD2     N13570   3.918   1.854   0.348  0.1284 -0.0830  0.1787
  927MPD2    H513571   3.847   1.898   0.290  0.0701 -0.2406  0.1294
  927MPD2    N113572   3.716   2.066   0.727  0.3219  0.1505 -0.0842
  927MPD2    H713573   3.703   2.052   0.827 -0.0785 -0.0784 -0.1666
  928MPD2     C13574   1.370   0.905   0.942 -0.5220  0.1785  0.4530
  928MPD2    C113575   1.475   0.969   1.003  0.1310  0.2691  0.1626
  928MPD2    C213576   1.597   0.969   0.938  0.2216 -0.4156  0.3032
  928MPD2    C313577   1.608   0.918   0.813 -0.1865  0.1806 -0.1824
  928MPD2    C413578   1.506   0.845   0.756  0.0678  0.0740 -0.1002
  928MPD2    C513579   1.381   0.842   0.820  0.4400 -0.8759  0.1281
  928MPD2     H13580   1.678   1.025   0.982 -0.5326  0.2384  0.8676
  928MPD2    H113581   1.513   0.803   0.657  1.2804  1.4245 -0.5875
  928MPD2    H213582   1.273   0.890   0.989 -0.5561  0.0202  0.3338
  928MPD2    H313583   1.296   0.797   0.769  1.3504 -0.4615 -1.7525
  928MPD2     N13584   1.725   0.940   0.736  0.7026 -1.0539  0.0115
  928MPD2    H513585   1.735   0.895   0.646 -0.2175 -1.3630  0.0636
  928MPD2    N113586   1.440   1.025   1.128 -0.3277  0.0538 -0.1053
  928MPD2    H713587   1.343   1.039   1.152 -0.5985  1.1093 -1.8052
  929MPD2     C13588   2.119   4.676  10.937 -0.1804  0.2230 -0.0709
  929MPD2    C113589   1.979   4.657  10.926  0.0440 -0.1191 -0.4046
  929MPD2    C213590   1.932   4.658  10.797  0.1926  0.8344  0.5696
  929MPD2    C313591   2.012   4.672  10.681  0.0092  0.0723  0.1680
  929MPD2    C413592   2.146   4.687  10.696 -0.1274  0.9492 -0.2332
  929MPD2    C513593   2.195   4.686  10.822 -0.7889  0.0732  0.3492
  929MPD2     H13594   1.824   4.665  10.788  0.3843  1.8259 -1.1007
  929MPD2    H113595   2.211   4.698  10.610  1.7295  0.1116  1.0679
  929MPD2    H213596   2.184   4.685  11.024  2.0258 -2.2250 -1.4523
  929MPD2    H313597   2.303   4.683  10.827 -0.8418  1.4711  2.2594
  929MPD2     N13598   1.955   4.687  10.557 -0.3043 -0.1238  0.3717
  929MPD2    H513599   2.013   4.708  10.477  1.1374 -0.6693  1.2604
  929MPD2    N113600   1.908   4.650  11.044  0.5976 -0.4351 -0.9125
  929MPD2    H713601   1.961   4.668  11.128 -1.6023  3.1477 -0.2860
  930MPD2     C13602   2.837   2.696  13.963  0.3776  0.5965 -0.8870
  930MPD2    C113603   2.967   2.675  13.925 -0.1285  0.6639 -0.2050
  930MPD2    C213604   3.005   2.578  13.846  0.1344  0.0880  0.6760
  930MPD2    C313605   2.905   2.501  13.791  0.6914 -0.5087  0.1408
  930MPD2    C413606   2.779   2.505  13.841  0.3405  0.2408 -0.5480
  930MPD2    C513607   2.743   2.604  13.926 -0.0267  0.5161 -1.1029
  930MPD2     H13608   3.109   2.551  13.831  0.1256  1.1937 -1.2578
  930MPD2    H113609   2.704   2.447  13.789  0.3529 -0.5111  0.2594
  930MPD2    H213610   2.809   2.783  14.021 -0.6254 -0.9122  0.8909
  930MPD2    H313611   2.639   2.617  13.956  0.7894 -0.6745  2.2917
  930MPD2     N13612   2.922   2.410  13.687  0.2610 -0.2175  0.1960
  930MPD2    H513613   2.837   2.367  13.649 -1.1199  2.0125  0.7891
  930MPD2    N113614   3.058   2.780  13.958  0.3483  0.0354 -0.6560
  930MPD2    H713615   3.027   2.860  14.013 -0.4822 -0.2646 -0.6889
  931MPD2     C13616   3.948   2.260   1.230  0.1119  0.9099  0.0594
  931MPD2    C113617   3.815   2.281   1.246  0.2127 -0.4006 -0.2896
  931MPD2    C213618   3.760   2.285   1.373  0.8028 -0.6767 -0.6910
  931MPD2    C313619   3.839   2.267   1.487  0.7598 -0.1575 -0.7753
  931MPD2    C413620   3.976   2.269   1.470 -0.0748 -0.5577 -0.4273
  931MPD2    C513621   4.028   2.271   1.342 -0.2683  0.6087 -0.0486
  931MPD2     H13622   3.652   2.288   1.385  0.7889 -0.8076 -0.7789
  931MPD2    H113623   4.041   2.277   1.556  0.8498  0.7477 -1.2439
  931MPD2    H213624   3.990   2.246   1.131 -1.4605  0.2267 -0.5228
  931MPD2    H313625   4.135   2.287   1.335  0.3372 -3.5721 -0.1183
  931MPD2     N13626   3.789   2.262   1.618  1.0361  0.2626 -0.3015
  931MPD2    H513627   3.853   2.271   1.696 -0.2145 -2.4361  1.0183
  931MPD2    N113628   3.741   2.298   1.130  0.0933  0.3048  0.5399
  931MPD2    H713629   3.796   2.275   1.048 -1.3346  0.7306 -0.5357
  932MPD2     C13630   0.533   1.161  11.070 -0.8803 -0.0846 -0.0199
  932MPD2    C113631   0.645   1.180  11.141  0.1431 -0.0153  0.4792
  932MPD2    C213632   0.706   1.065  11.194  0.5426  0.8269 -0.2245
  932MPD2    C313633   0.647   0.936  11.189  0.4102  0.0259  0.4924
  932MPD2    C413634   0.528   0.923  11.121  0.5362  0.0769  0.0573
  932MPD2    C513635   0.480   1.032  11.061  0.2791  0.1567  0.1372
  932MPD2     H13636   0.802   1.082  11.241 -0.5604  3.0635  1.2400
  932MPD2    H113637   0.479   0.827  11.110 -0.2218  0.3493  1.1151
  932MPD2    H213638   0.481   1.241  11.019  0.4319  2.2874  2.3795
  932MPD2    H313639   0.397   1.016  10.993 -0.4489 -0.2052  1.1156
  932MPD2     N13640   0.706   0.825  11.250 -0.1322 -0.7830 -0.2166
  932MPD2    H513641   0.658   0.740  11.221  1.0158 -1.1698 -1.0028
  932MPD2    N113642   0.704   1.305  11.164  0.6022 -0.2377  0.0876
  932MPD2    H713643   0.776   1.304  11.235  0.7491  0.2595 -0.0553
  933MPD2     C13644   0.883   1.350   1.204  0.2337 -0.4338  0.1634
  933MPD2    C113645   0.956   1.396   1.307  0.7043 -0.2074 -0.5636
  933MPD2    C213646   0.908   1.496   1.388  0.0137 -0.1050 -0.4752
  933MPD2    C313647   0.784   1.549   1.363  0.0786 -0.0015  0.0823
  933MPD2    C413648   0.704   1.506   1.260 -0.8070 -0.1000  1.0079
  933MPD2    C513649   0.753   1.402   1.187  0.3868 -0.2179 -0.3609
  933MPD2     H13650   0.967   1.526   1.474  0.6363 -0.3462 -0.8170
  933MPD2    H113651   0.611   1.552   1.229 -0.7904  0.7201  2.1656
  933MPD2    H213652   0.915   1.282   1.126  1.3403  0.9545 -0.5904
  933MPD2    H313653   0.699   1.373   1.098 -0.8110 -1.0362  0.6402
  933MPD2     N13654   0.754   1.670   1.441 -0.0380  0.2957  0.4584
  933MPD2    H513655   0.813   1.697   1.518 -2.3058 -2.1167  3.0541
  933MPD2    N113656   1.087   1.338   1.313  0.0852 -0.5905  0.1562
  933MPD2    H713657   1.120   1.283   1.235 -1.0040  0.8019 -1.3003
  934MPD2     C13658   2.719   4.080   1.863 -0.2279 -0.4161 -0.2147
  934MPD2    C113659   2.776   3.954   1.863 -0.9539  0.2733  0.8496
  934MPD2    C213660   2.708   3.853   1.806 -0.0983  0.3300 -0.2474
  934MPD2    C313661   2.594   3.875   1.732  0.4216 -0.2376  0.2587
  934MPD2    C413662   2.534   3.997   1.737 -0.3436  0.0689 -0.5514
  934MPD2    C513663   2.596   4.095   1.808  0.8144  0.1219 -0.4965
  934MPD2     H13664   2.748   3.753   1.816 -0.3889  0.2685  0.2933
  934MPD2    H113665   2.449   4.028   1.677  1.3651  1.1935 -2.4093
  934MPD2    H213666   2.766   4.168   1.904  1.9470 -1.9234  0.5020
  934MPD2    H313667   2.553   4.194   1.805 -1.5501 -0.8619  0.8470
  934MPD2     N13668   2.520   3.770   1.676 -0.0387 -0.4140  1.2257
  934MPD2    H513669   2.430   3.795   1.637 -0.1174 -0.6457  1.2571
  934MPD2    N113670   2.900   3.917   1.922  0.0309 -0.1465 -0.2030
  934MPD2    H713671   2.941   3.824   1.921  0.9056  0.2005  2.7263
  935MPD2     C13672   2.719   2.773   1.588  0.0675  0.8474  0.0989
  935MPD2    C113673   2.638   2.806   1.482  0.4093  0.2060  1.0203
  935MPD2    C213674   2.569   2.928   1.487 -0.4819  0.4231  0.0684
  935MPD2    C313675   2.598   3.022   1.588  0.8018 -0.3184  0.7652
  935MPD2    C413676   2.676   2.986   1.694  0.0489  0.1527 -0.4886
  935MPD2    C513677   2.729   2.859   1.697  0.6881  0.6243 -0.2925
  935MPD2     H13678   2.495   2.955   1.412 -0.5495 -1.0569 -0.3998
  935MPD2    H113679   2.701   3.055   1.774  1.0182 -0.0664 -0.5928
  935MPD2    H213680   2.771   2.678   1.592  0.8136  1.2110 -0.8241
  935MPD2    H313681   2.796   2.824   1.774 -0.7758 -0.6746  0.3716
  935MPD2     N13682   2.524   3.140   1.602  0.5544  0.8035  0.3142
  935MPD2    H513683   2.535   3.192   1.688 -0.9938  2.0412 -0.2279
  935MPD2    N113684   2.611   2.729   1.366  0.2122 -0.4930 -0.6445
  935MPD2    H713685   2.550   2.772   1.296 -1.2773  0.8176  1.4627
  936MPD2     C13686   1.021   4.336  12.431 -0.0854 -0.0008 -0.2106
  936MPD2    C113687   1.113   4.250  12.473 -0.7402  0.6265  0.2251
  936MPD2    C213688   1.240   4.298  12.504  0.2879  0.1853 -0.2900
  936MPD2    C313689   1.271   4.430  12.494  0.8537  0.5916 -0.1347
  936MPD2    C413690   1.177   4.518  12.435 -0.2197  0.3720  0.2460
  936MPD2    C513691   1.054   4.465  12.404  0.7297  0.4600 -0.0914
  936MPD2     H13692   1.314   4.231  12.546 -0.4068 -1.3492 -1.4831
  936MPD2    H113693   1.178   4.624  12.413  0.4486  0.4900  0.8357
  936MPD2    H213694   0.917   4.306  12.424 -0.7676  2.0989  0.8129
  936MPD2    H313695   0.976   4.534  12.374 -1.3555 -1.7763  0.2828
  936MPD2     N13696   1.393   4.469  12.546  0.2143  0.2849 -0.0169
  936MPD2    H513697   1.455   4.402  12.590  1.2883  2.1335  1.2965
  936MPD2    N113698   1.096   4.109  12.491 -0.4646 -0.2176  0.2539
  936MPD2    H713699   1.187   4.065  12.499 -0.7454 -0.6192  1.1470
  937MPD2     C13700   3.824   0.639  11.259  0.3208  0.3330 -0.1400
  937MPD2    C113701   3.926   0.697  11.332 -0.4888  0.6583 -0.3960
  937MPD2    C213702   4.042   0.715  11.260 -0.3182 -0.5349  0.7051
  937MPD2    C313703   4.055   0.700  11.122  0.0399 -0.6944  0.9029
  937MPD2    C413704   3.961   0.629  11.059 -0.8992 -0.1399 -0.2181
  937MPD2    C513705   3.844   0.599  11.130 -0.0274  0.3748  0.3524
  937MPD2     H13706   4.128   0.757  11.312 -0.4730  0.3260  0.2747
  937MPD2    H113707   3.972   0.589  10.958  2.8515 -0.5243  0.3248
  937MPD2    H213708   3.737   0.607  11.315  0.2840 -0.2834 -0.5520
  937MPD2    H313709   3.777   0.533  11.077  2.9357 -0.7260 -2.0395
  937MPD2     N13710   4.184   0.737  11.061 -0.1243 -0.3352  0.6006
  937MPD2    H513711   4.260   0.784  11.110  0.3277  2.2974 -2.6358
  937MPD2    N113712   3.910   0.775  11.452  0.1388 -0.3967  0.0235
  937MPD2    H713713   3.983   0.829  11.497 -0.6068  0.8643 -0.2922
  938MPD2     C13714   1.094   2.774   0.812 -0.7418 -0.3534 -0.1970
  938MPD2    C113715   1.216   2.816   0.859  0.7671 -0.2031  0.2263
  938MPD2    C213716   1.270   2.751   0.970 -0.1162  0.3018  0.0519
  938MPD2    C313717   1.198   2.652   1.040 -0.1443 -0.3118  0.7293
  938MPD2    C413718   1.083   2.605   0.974 -0.0055  0.7907  0.5261
  938MPD2    C513719   1.030   2.664   0.862 -0.0490  0.4848 -0.1044
  938MPD2     H13720   1.365   2.787   1.008  0.3817 -0.6217 -0.3163
  938MPD2    H113721   1.025   2.528   1.023  1.7790 -2.7323 -2.9045
  938MPD2    H213722   1.033   2.818   0.734  2.5376  3.1517 -0.7935
  938MPD2    H313723   0.943   2.618   0.817 -0.8609  0.3110  1.6515
  938MPD2     N13724   1.233   2.588   1.162 -0.2010 -0.2892 -0.9769
  938MPD2    H513725   1.179   2.508   1.192  1.9173 -1.3689 -0.1030
  938MPD2    N113726   1.289   2.924   0.798 -0.4042  0.0630 -0.5701
  938MPD2    H713727   1.387   2.939   0.819 -0.2503  0.7480 -1.7540
  939MPD2     C13728   2.109   3.989   0.536  0.2109 -0.0109 -0.2572
  939MPD2    C113729   2.181   3.992   0.655 -1.4024 -0.7264  0.2962
  939MPD2    C213730   2.280   3.895   0.669  0.1626  0.3970 -0.2627
  939MPD2    C313731   2.303   3.791   0.575 -0.9679  0.0457 -0.2706
  939MPD2    C413732   2.217   3.778   0.470  0.0908 -0.1755 -0.1813
  939MPD2    C513733   2.124   3.881   0.449 -0.3006 -0.0671  0.4709
  939MPD2     H13734   2.348   3.884   0.752  0.3423  1.2434 -0.2919
  939MPD2    H113735   2.228   3.698   0.398 -0.5995 -3.1849  2.9885
  939MPD2    H213736   2.035   4.066   0.512 -1.2118 -0.8653  1.4320
  939MPD2    H313737   2.072   3.875   0.354  2.3245 -2.3912 -0.8158
  939MPD2     N13738   2.411   3.702   0.599  0.0896 -0.0218 -0.9037
  939MPD2    H513739   2.470   3.719   0.680 -0.5065  0.8957 -0.6697
  939MPD2    N113740   2.163   4.092   0.756  0.4076 -0.1762  0.3784
  939MPD2    H713741   2.133   4.187   0.737 -1.7605 -1.2491 -1.5571
  940MPD2     C13742   1.772   4.335  13.479  0.7924  0.1064  0.0618
  940MPD2    C113743   1.730   4.257  13.367 -0.4695  0.2231  0.0237
  940MPD2    C213744   1.818   4.253  13.269 -0.1356 -0.9993 -0.3526
  940MPD2    C313745   1.946   4.303  13.277  0.0782  0.8270 -0.2850
  940MPD2    C413746   1.993   4.375  13.387 -0.9432  0.6528 -0.1129
  940MPD2    C513747   1.901   4.394  13.493 -0.2988 -0.8186 -0.8149
  940MPD2     H13748   1.795   4.183  13.190 -1.0922 -0.0660 -0.8924
  940MPD2    H113749   2.094   4.410  13.407 -0.1302 -0.1841 -2.6915
  940MPD2    H213750   1.706   4.360  13.562  2.9512 -0.1432  1.8680
  940MPD2    H313751   1.930   4.451  13.580  0.4209 -3.4511  0.6865
  940MPD2     N13752   2.044   4.259  13.182  0.2534  0.3638 -0.6418
  940MPD2    H513753   2.140   4.274  13.212 -0.2421 -2.2280  2.2832
  940MPD2    N113754   1.597   4.211  13.354 -0.3007 -0.1992  0.3797
  940MPD2    H713755   1.538   4.200  13.436  1.9233 -2.6414  1.6344
  941MPD2     C13756   0.832   3.182   9.504  0.6601 -0.4278 -0.4586
  941MPD2    C113757   0.922   3.084   9.540  0.0717 -0.0651 -0.2289
  941MPD2    C213758   0.879   2.956   9.558 -0.5192 -0.0279  0.3326
  941MPD2    C313759   0.745   2.928   9.565  0.7657 -0.2931  0.3926
  941MPD2    C413760   0.657   3.032   9.539  0.4000  0.4637  0.3118
  941MPD2    C513761   0.697   3.150   9.502  0.5184 -0.2774 -0.1255
  941MPD2     H13762   0.954   2.878   9.568 -2.1759 -1.5411  0.9922
  941MPD2    H113763   0.551   3.020   9.559  0.2913  0.0046 -0.5498
  941MPD2    H213764   0.856   3.282   9.470  1.6194 -0.6634 -0.4870
  941MPD2    H313765   0.629   3.232   9.482  0.4404 -0.0227  1.1898
  941MPD2     N13766   0.690   2.806   9.612  0.0672  0.1141  0.4786
  941MPD2    H513767   0.589   2.799   9.618  0.0806  0.8658  1.5254
  941MPD2    N113768   1.059   3.112   9.525 -0.2957  0.7438 -0.3487
  941MPD2    H713769   1.134   3.044   9.537 -0.6144  0.7507  1.7498
  942MPD2     C13770   0.173   4.273   9.119  0.0134  0.4271  0.8117
  942MPD2    C113771   0.173   4.142   9.085 -0.1861 -0.0918  0.0658
  942MPD2    C213772   0.280   4.060   9.100 -0.6385 -0.6400 -0.5715
  942MPD2    C313773   0.390   4.100   9.169  0.2513  0.3850  0.1095
  942MPD2    C413774   0.388   4.233   9.215  0.5094  0.8621  0.4206
  942MPD2    C513775   0.283   4.313   9.185  0.1751 -0.9153 -0.1783
  942MPD2     H13776   0.261   3.957   9.072 -1.6632 -0.7793  0.6525
  942MPD2    H113777   0.457   4.268   9.290 -1.5250  0.6405  2.3933
  942MPD2    H213778   0.094   4.343   9.096 -0.3902  0.3768  2.0469
  942MPD2    H313779   0.279   4.415   9.222  0.8648 -0.3761 -1.6097
  942MPD2     N13780   0.504   4.023   9.205  0.1156 -0.0733  0.5195
  942MPD2    H513781   0.573   4.074   9.260  0.1309 -0.3827  0.7868
  942MPD2    N113782   0.062   4.085   9.011 -0.6433 -0.1781  0.3612
  942MPD2    H713783   0.082   3.991   8.979  0.1567  0.3698 -0.7176
  943MPD2     C13784   4.646   3.408   9.373  0.5680 -0.1528 -0.2775
  943MPD2    C113785   0.062   3.390   9.353  0.2029  0.1519 -0.0092
  943MPD2    C213786   0.113   3.365   9.229 -0.0619  0.0176  0.5136
  943MPD2    C313787   0.024   3.358   9.119 -0.6366  0.6727 -0.1326
  943MPD2    C413788   4.610   3.385   9.141  0.2540 -0.2069  0.4002
  943MPD2    C513789   4.564   3.400   9.267 -0.5704 -0.1738 -0.1001
  943MPD2     H13790   0.218   3.337   9.223 -1.1413 -3.6310 -1.2903
  943MPD2    H113791   4.541   3.380   9.058 -0.8502 -1.7584  1.4040
  943MPD2    H213792   4.608   3.432   9.471 -1.9093 -1.2735 -0.9697
  943MPD2    H313793   4.457   3.410   9.282 -0.5659 -2.5039  1.4893
  943MPD2     N13794   0.065   3.322   8.990 -0.8643  0.0103 -0.3660
  943MPD2    H513795   0.002   3.296   8.914 -1.6630  0.6949  0.0611
  943MPD2    N113796   0.138   3.357   9.474 -0.2538  0.1512  0.2851
  943MPD2    H713797   0.089   3.344   9.562 -0.3854  0.2354  0.2238
  944MPD2     C13798   4.435   2.237  11.134  0.1926  0.1882 -0.0481
  944MPD2    C113799   4.480   2.334  11.050  0.1299  0.8669 -0.2824
  944MPD2    C213800   4.477   2.463  11.091 -0.5649 -0.3753 -0.3793
  944MPD2    C313801   4.433   2.496  11.220  0.2804  0.7738 -0.3685
  944MPD2    C413802   4.376   2.399  11.298  0.1959 -0.7551  0.2739
  944MPD2    C513803   4.376   2.269  11.255 -0.4910  0.2536 -0.1622
  944MPD2     H13804   4.517   2.538  11.022  0.2069 -0.3420  0.0998
  944MPD2    H113805   4.344   2.406  11.401  1.2676  2.5062  0.3686
  944MPD2    H213806   4.427   2.130  11.120 -2.3683  0.4436 -0.4302
  944MPD2    H313807   4.329   2.196  11.320 -1.2488 -0.4221 -1.4835
  944MPD2     N13808   4.440   2.626  11.264  0.3111 -0.5527 -0.1529
  944MPD2    H513809   4.479   2.687  11.194  3.1309 -0.9665  1.0588
  944MPD2    N113810   4.542   2.277  10.939 -0.0703  0.4071 -0.4089
  944MPD2    H713811   4.549   2.176  10.943  3.4597  0.6068 -1.3599
    1TCq1    O113812   2.621   3.295  13.728 -0.1429 -0.1127  0.2022
    1TCq1    C113813   2.612   3.405  13.797  0.2414  0.1688  0.5114
    1TCq1    O213814   2.699   3.491  13.805 -0.9026 -0.6367  0.1534
    1TCq1    C213815   2.532   3.366  13.908 -0.3206 -0.4524 -0.2628
    1TCq1    C313816   2.403   3.348  13.884 -0.8688 -0.9950  0.2612
    1TCq1    C413817   2.317   3.329  13.990  0.3634  0.6644  0.5635
    1TCq1    C513818   2.371   3.337  14.116 -0.6347  1.0018 -0.4366
    1TCq1    C613819   2.506   3.361  14.134 -0.6604 -0.1746 -0.0213
    1TCq1    C713820   2.590   3.360  14.031 -0.0766 -0.4224  0.0114
    1TCq1    C813821   2.571   3.379  14.259  0.1848 -0.2455  0.6296
    1TCq1    O413822   2.692   3.367  14.254 -0.1794  0.1085 -0.1136
    1TCq1    C913823   2.175   3.297  13.981  0.5940 -0.2146  0.0475
    1TCq1    O513824   2.129   3.296  13.862  0.5159  0.0740 -0.1156
    1TCq1    O613825   2.113   3.263  14.084  0.3892 -0.3805  0.7680
    1TCq1    H113826   2.577   3.215  13.763 -1.2665 -0.2195 -1.4751
    1TCq1    H213827   2.366   3.343  13.782 -0.5181 -2.8047  0.2210
    1TCq1    H313828   2.302   3.325  14.199 -0.0636  0.3136 -0.0608
    1TCq1    H413829   2.685   3.412  14.039 -0.8772  1.2675 -1.6863
    2MPD2     C13830   2.577   3.584  14.729  0.1816  0.3314 -0.0208
    2MPD2    C113831   2.457   3.617  14.673  0.1498  0.2013  0.8697
    2MPD2    C213832   2.434   3.577  14.544  0.5325  0.7968 -0.0552
    2MPD2    C313833   2.526   3.501  14.476 -0.0812  0.4894  0.1801
    2MPD2    C413834   2.648   3.468  14.529  0.2600 -1.0279 -0.0701
    2MPD2    C513835   2.671   3.515  14.656 -0.5067 -1.3034 -0.1222
    2MPD2     H13836   2.341   3.585  14.490  0.2353 -2.6303 -0.0335
    2MPD2    H113837   2.727   3.410  14.483  1.8714 -0.5046  2.0223
    2MPD2    H213838   2.600   3.621  14.828 -1.1773 -0.2496  0.5108
    2MPD2    H313839   2.766   3.502  14.707 -1.4889 -3.0217  1.2523
    2MPD2     N13840   2.486   3.445  14.347  0.1205  0.2234 -0.7897
    2MPD2    H513841   2.388   3.456  14.324 -0.5730 -1.6934  1.2233
    2MPD2    N113842   2.368   3.710  14.728 -0.2567 -0.2218  0.0235
    2MPD2    H713843   2.372   3.715  14.829  1.8737 -0.2420 -0.0707
    3TMC2    C113844   2.183   3.846  14.754 -0.3998  0.5666 -0.0233
    3TMC2    C213845   2.134   3.779  14.864 -0.4166  0.1344  0.4487
    3TMC2    C313846   2.002   3.792  14.892 -0.2538 -0.0452 -0.0763
    3TMC2    C413847   2.111   3.940  14.684 -0.3393 -0.0011 -0.1729
    3TMC2    C513848   1.979   3.950  14.712  0.5187 -0.4514  0.4530
    3TMC2    C613849   1.921   3.869  14.811  0.0585  1.3679  0.0113
    3TMC2     C13850   2.272   3.779  14.666  0.5080 -0.7248 -0.0372
    3TMC2     O13851   2.255   3.786  14.545  0.1745 -0.2053  0.3039
    3TMC2     H13852   2.194   3.709  14.922 -1.2174  1.8527  3.3915
    3TMC2    H113853   2.154   3.990  14.598  3.2220 -0.8133  1.1285
    3TMC2    H213854   1.816   3.872  14.837  0.5265  0.4457  1.9531
    3TMC2    C713855   1.894   4.025  14.622  0.3090  0.4233  0.2335
    3TMC2    C813856   1.940   3.706  14.985  0.0590 -0.0142  0.7686
    3TMC2    O113857   1.773   4.012  14.627 -0.1294  0.3544 -0.4060
    3TMC2    O213858   1.844   3.635  14.957 -0.0697 -0.1907 -0.5062
    3TMC2    O513859   1.999   3.716  15.107 -0.4912 -0.6455 -0.1207
    3TMC2    H513860   2.055   3.796  15.117 -1.0694 -0.2574 -0.0073
    4MPD2     C13861   1.881   0.364  13.610  0.1284  0.0429 -0.6768
    4MPD2    C113862   1.866   0.227  13.634  0.2159  0.8406 -0.5597
    4MPD2    C213863   1.911   0.180  13.755  0.0496  0.3008 -0.2028
    4MPD2    C313864   1.962   0.266  13.855  0.2214 -0.0930  0.1095
    4MPD2    C413865   1.959   0.404  13.834  0.1650 -0.4673  0.2180
    4MPD2    C513866   1.922   0.456  13.708 -0.3091  0.3295  0.8344
    4MPD2     H13867   1.918   0.073  13.772  0.4109  0.2070 -0.9111
    4MPD2    H113868   1.993   0.470  13.913  1.0640 -0.7415  0.0544
    4MPD2    H213869   1.858   0.406  13.513 -2.6223 -0.8430 -0.4035
    4MPD2    H313870   1.936   0.562  13.690 -2.7363  0.4262 -0.4008
    4MPD2     N13871   2.020   0.204  13.975 -0.7492  0.6884 -1.0275
    4MPD2    H513872   2.026   0.102  13.974  1.0812  0.8037 -0.3243
    4MPD2    N113873   1.821   0.145  13.525  0.3130 -0.7710 -0.6000
    4MPD2    H713874   1.801   0.191  13.437 -2.5389  1.7702  1.3965
    5TCq2    C113875   2.093   0.274  14.065  0.0012  0.2051  0.2004
    5TCq2    O213876   2.136   0.387  14.064  0.2224 -0.3420  0.7709
    5TCq2    C213877   2.165   0.176  14.137  0.2549 -0.5241  0.1966
    5TCq2    C313878   2.298   0.191  14.121 -0.5254  0.5341  0.5009
    5TCq2    C413879   2.379   0.086  14.156 -0.0454 -0.3803 -0.3071
    5TCq2    C513880   2.329   4.692  14.218  0.0945  0.9232 -0.1104
    5TCq2    C613881   2.195   4.681  14.223  0.8440  0.2241 -0.7043
    5TCq2    C713882   2.112   0.065  14.191 -0.6530 -0.0853  0.7374
    5TCq2    C813883   2.150   4.573  14.316 -0.2167  0.2737 -0.0100
    5TCq2    O413884   2.227   4.520  14.390  0.4278  0.2224  0.5134
    5TCq2    C913885   2.523   0.096  14.146 -0.4757 -0.9736 -0.5777
    5TCq2    O513886   2.587   4.713  14.179  0.1744 -0.1142  0.3923
    5TCq2    O613887   2.563   0.189  14.070  0.4795  0.4128 -0.4987
    5TCq2    H213888   2.345   0.283  14.089  0.8832 -0.1634  0.5750
    5TCq2    H313889   2.400   4.617  14.251  1.3749  2.6105  0.9789
    5TCq2    H413890   2.005   0.062  14.207 -0.4333 -3.3094  1.7687
    6MPD1     C13891   0.962   0.951  12.238  0.4722 -0.5016  0.1726
    6MPD1    C113892   0.964   1.010  12.363  0.5927 -0.2161 -0.1850
    6MPD1    C213893   1.001   0.942  12.475  0.0028 -0.5844 -0.3797
    6MPD1    C313894   1.036   0.810  12.464 -0.4251 -0.3197  0.3803
    6MPD1    C413895   1.038   0.753  12.344  0.0762 -0.1125 -0.6800
    6MPD1    C513896   1.005   0.820  12.234 -0.3118  0.3005 -0.0004
    6MPD1     H13897   0.996   0.993  12.570 -3.3440  0.3578 -1.0506
    6MPD1    H113898   1.085   0.655  12.333  0.9834  0.3884 -1.2467
    6MPD1    H213899   0.930   1.004  12.149 -3.0261 -0.1892  1.5939
    6MPD1    H313900   0.989   0.764  12.142 -2.1242  0.4520  0.2366
    6MPD1     N13901   1.075   0.729  12.563 -0.0810  0.7396 -0.3624
    6MPD1    H513902   1.116   0.640  12.535  1.5812  1.3809 -0.0005
    6MPD1    N113903   0.915   1.141  12.375 -0.2136 -0.0143 -0.0440
    6MPD1    H613904   0.946   1.200  12.298 -1.8304  0.3337 -0.4225
    6MPD1    H713905   0.931   1.191  12.462  0.7551  1.1276 -0.8853
    7MPD2     C13906   1.207   0.385  13.358 -0.2198  0.0096  0.0590
    7MPD2    C113907   1.243   0.333  13.235  0.1769  0.5323  0.1394
    7MPD2    C213908   1.286   0.200  13.230  0.2185 -0.4299 -0.0817
    7MPD2    C313909   1.301   0.121  13.344 -0.3360  0.3749 -0.1938
    7MPD2    C413910   1.254   0.174  13.460  0.0667 -0.4433 -0.1798
    7MPD2    C513911   1.206   0.301  13.470  0.3001 -0.1868  0.1693
    7MPD2     H13912   1.331   0.154  13.143  2.6581  0.2870  0.8214
    7MPD2    H113913   1.266   0.136  13.561 -0.6798  0.6516  0.3213
    7MPD2    H213914   1.169   0.484  13.378  2.7463  1.3118 -0.6254
    7MPD2    H313915   1.163   0.344  13.560 -0.0909  0.8260 -0.4975
    7MPD2     N13916   1.372   4.720  13.348  0.3013  0.1804 -0.2494
    7MPD2    H513917   1.357   4.671  13.436  0.5976 -1.4967 -1.1300
    7MPD2    N113918   1.241   0.408  13.116  0.1604 -0.6410  0.4050
    7MPD2    H713919   1.273   0.363  13.031 -2.8604 -3.1253  0.5622
    8TMC3    C113920   1.540   4.580  13.301 -0.0737 -0.6637 -0.2972
    8TMC3    C213921   1.595   4.633  13.415  0.2277  0.2740  0.4009
    8TMC3    C313922   1.723   4.685  13.411  0.2296  0.3158  0.2963
    8TMC3    C413923   1.625   4.559  13.199 -0.0238 -0.3294 -0.3516
    8TMC3    C513924   1.754   4.609  13.196  0.0881 -0.4529  0.2550
    8TMC3    C613925   1.806   4.669  13.306  0.0012 -0.0439 -0.5981
    8TMC3     C13926   1.437   4.663  13.245  1.0238 -0.2614  0.2168
    8TMC3     O13927   1.456   4.701  13.131 -0.0781 -0.3525  0.5896
    8TMC3     H13928   1.540   4.647  13.507  0.0890 -1.0876  0.5336
    8TMC3    H113929   1.589   4.508  13.111  1.0099 -0.3591 -0.7566
    8TMC3    H213930   1.904   4.715  13.309  0.2065 -0.5680  1.0452
    8TMC3    C713931   1.801   4.658  13.067 -0.4586  0.1883 -0.3960
    8TMC3    C813932   1.783   0.014  13.532  1.0383 -0.4806  0.1285
    8TMC3    O113933   1.918   4.641  13.028 -0.1864  0.2962  0.6325
    8TMC3    O213934   1.753   4.677  13.631  0.3180  0.3701 -0.6550
    9TMC3    C113935   1.159   0.669  12.759  0.1669 -0.3039  0.1789
    9TMC3    C213936   1.256   0.607  12.684  0.4087  0.4009  0.0221
    9TMC3    C313937   1.340   0.529  12.760  0.0253 -1.1342  0.4459
    9TMC3    C413938   1.151   0.663  12.891  0.1265 -0.5668 -0.4652
    9TMC3    C513939   1.238   0.578  12.957  0.6944 -0.6688  0.5375
    9TMC3    C613940   1.337   0.503  12.892  0.2513  0.1477 -0.5396
    9TMC3     C13941   1.083   0.765  12.692 -0.3045 -0.3995  0.0067
    9TMC3     O13942   1.034   0.856  12.758 -0.1561  0.6108 -1.0128
    9TMC3     H13943   1.283   0.635  12.583 -1.6076  1.5467 -0.2014
    9TMC3    H113944   1.080   0.724  12.945 -2.1985 -1.2533 -2.7385
    9TMC3    H213945   1.413   0.455  12.953 -1.5856  0.6552  2.1299
    9TMC3    C713946   1.205   0.540  13.094 -0.2354  0.5360  0.0605
    9TMC3    C813947   1.453   0.459  12.702 -0.0894  0.4467 -0.6684
    9TMC3    O113948   1.177   0.623  13.180 -0.5795 -0.3941 -0.4697
    9TMC3    O213949   1.517   0.510  12.613  0.7403  0.1002 -0.1562
   10MPD2     C13950   1.810   0.114  12.814 -0.3042  0.1750 -0.3138
   10MPD2    C113951   1.701   0.087  12.893  0.0180  0.2818  0.7018
   10MPD2    C213952   1.591   0.151  12.862 -0.1672  0.1446 -0.6492
   10MPD2    C313953   1.593   0.263  12.774  0.7223 -0.0558  0.2348
   10MPD2    C413954   1.701   0.293  12.695  0.1266  0.5825 -0.3582
   10MPD2    C513955   1.804   0.214  12.719 -0.6851  0.3794 -0.3908
   10MPD2     H13956   1.498   0.124  12.910  0.8103  0.3643  1.3364
   10MPD2    H113957   1.715   0.372  12.621 -0.1660 -0.9474 -2.0434
   10MPD2    H213958   1.902   0.059  12.832  0.0108  0.7751 -0.1169
   10MPD2    H313959   1.896   0.246  12.672 -1.9070  2.8927 -1.0972
   10MPD2     N13960   1.469   0.338  12.768 -0.6466 -0.0392  0.7961
   10MPD2    H513961   1.399   0.303  12.833 -0.0436  0.0419  1.4919
   10MPD2    N113962   1.693   4.709  13.001 -0.5740  0.0640 -0.4020
   10MPD2    H713963   1.605   4.705  13.052 -0.7330  1.2608 -0.5776
   11MPD2     C13964   1.797   4.182  14.385  0.7379 -0.2161  0.8304
   11MPD2    C113965   1.922   4.207  14.452  0.5865 -0.1288  0.2115
   11MPD2    C213966   2.001   4.315  14.408 -0.6525 -0.1387 -0.2064
   11MPD2    C313967   1.959   4.418  14.322  0.4009  0.2739  0.2320
   11MPD2    C413968   1.841   4.390  14.258  0.3048 -0.5115  0.1372
   11MPD2    C513969   1.764   4.275  14.284 -0.1795 -0.5629  0.5666
   11MPD2     H13970   2.100   4.327  14.452 -0.9291 -1.1419  0.6799
   11MPD2    H113971   1.805   4.457  14.181 -0.5642 -2.3619 -1.0690
   11MPD2    H213972   1.741   4.091  14.405  0.6502 -0.8291 -2.2483
   11MPD2    H313973   1.676   4.264  14.222  0.1800  1.4908 -0.3029
   11MPD2     N13974   2.021   4.537  14.282 -0.3265  0.9244  0.7490
   11MPD2    H513975   1.983   4.593  14.206  1.4421  0.8545 -0.1913
   11MPD2    N113976   1.969   4.124  14.558  0.0361  0.1094 -0.1391
   11MPD2    H713977   2.056   4.155  14.601 -1.0640  1.3809  1.1562
    1MPD1     C13978   0.796   1.054   0.411 -0.8644  0.0229  0.0847
    1MPD1    C113979   0.871   0.958   0.361  0.5616  0.2049  0.2284
    1MPD1    C213980   0.841   0.931   0.229 -0.6752 -0.9909 -0.2176
    1MPD1    C313981   0.750   0.999   0.148  0.7014 -0.5148  0.3755
    1MPD1    C413982   0.686   1.109   0.201  0.3866  0.6598 -0.7082
    1MPD1    C513983   0.714   1.133   0.331 -0.5654 -0.2927  0.0098
    1MPD1     H13984   0.906   0.861   0.178 -1.0780 -1.3103 -0.2976
    1MPD1    H113985   0.616   1.172   0.147 -1.1636  0.3525  0.9522
    1MPD1    H213986   0.804   1.077   0.517  1.6275  1.9057 -0.4872
    1MPD1    H313987   0.664   1.217   0.379 -1.8366  0.2986 -2.3187
    1MPD1     N13988   0.725   0.967   0.009  0.3054  0.6444  0.5937
    1MPD1    H513989   0.649   1.009  17.640  0.6563  1.5528  0.8259
    1MPD1    N113990   0.955   0.874   0.441 -0.2811 -0.5120 -0.0277
    1MPD1    H613991   0.960   0.903   0.539 -0.7172 -1.4981  0.2889
    1MPD1    H713992   1.040   0.836   0.399  0.9471  2.8299 -0.6021
    2MPD1     C13993   1.126   0.721  16.778 -0.4781 -0.3185 -0.2145
    2MPD1    C113994   1.157   0.815  16.874  0.3626 -0.5723  0.2713
    2MPD1    C213995   1.080   0.815  16.989 -0.3065  0.0500 -1.0125
    2MPD1    C313996   0.972   0.728  17.015  0.3739 -0.5372  0.4548
    2MPD1    C413997   0.933   0.650  16.911 -0.3000  0.2573 -0.1714
    2MPD1    C513998   1.009   0.655  16.794  0.2879  0.0454 -0.7994
    2MPD1     H13999   1.115   0.869  17.076 -4.4846  1.4769 -0.2643
    2MPD1    H114000   0.845   0.588  16.926 -0.7189  0.5679 -1.3570
    2MPD1    H214001   1.182   0.705  16.687 -0.7655 -1.9038 -0.1096
    2MPD1    H314002   0.991   0.577  16.722  3.3688 -0.4468 -0.9943
    2MPD1     N14003   0.908   0.737  17.141 -0.4634  0.4371 -0.2459
    2MPD1    H514004   0.949   0.802  17.207  0.8773 -0.3017 -0.3640
    2MPD1    N114005   1.283   0.882  16.870  0.1588 -0.0141  0.3409
    2MPD1    H614006   1.323   0.895  16.778 -0.0065  4.0361  0.8254
    2MPD1    H714007   1.275   0.979  16.901 -0.1501  0.2778 -0.6558
    3TMC3    C114008   0.739   0.724  17.303 -0.3782  0.1558  0.1902
    3TMC3    C214009   0.600   0.726  17.295 -0.6762 -0.6192 -0.2862
    3TMC3    C314010   0.525   0.786  17.391  0.2156 -0.8846  0.1899
    3TMC3    C414011   0.809   0.776  17.405  0.0762 -0.1187 -1.0386
    3TMC3    C514012   0.735   0.845  17.496  0.0545 -0.5887  0.0935
    3TMC3    C614013   0.597   0.847  17.492 -0.0417 -0.4664 -0.3437
    3TMC3     C14014   0.797   0.676  17.178  0.2629  0.1954  0.2112
    3TMC3     O14015   0.733   0.589  17.127  0.1501  0.0605 -0.0684
    3TMC3     H14016   0.544   0.683  17.213 -2.4031  0.6386  0.2476
    3TMC3    H114017   0.917   0.766  17.413  0.1918  0.3205 -1.9464
    3TMC3    H214018   0.533   0.889  17.569 -0.0651  0.0212 -0.6318
    3TMC3    C714019   0.795   0.870  17.621  0.4611  0.0921 -0.3343
    3TMC3    C814020   0.381   0.793  17.379  0.0316 -0.3509  0.5961
    3TMC3    O114021   0.904   0.818  17.641 -0.1172 -0.1715 -0.2408
    3TMC3    O214022   0.338   0.797  17.266  0.2648  0.0998 -0.3309
    4MPD1     C14023   4.607   0.851  17.553 -0.5534  0.5474  0.4105
    4MPD1    C114024   4.695   0.851  17.658 -0.0390 -0.3814 -0.4454
    4MPD1    C214025   0.111   0.845  17.626 -0.1388  0.3818 -0.5020
    4MPD1    C314026   0.165   0.832  17.499 -0.4534  0.2567  0.3541
    4MPD1    C414027   0.073   0.818  17.395 -0.0965 -0.4622  0.1889
    4MPD1    C514028   4.659   0.833  17.428 -1.0334  0.9395  0.0511
    4MPD1     H14029   0.181   0.846   0.026 -1.0505  0.6885  0.2542
    4MPD1    H114030   0.109   0.811  17.293 -1.8636 -2.0005 -0.3114
    4MPD1    H214031   4.500   0.861  17.562 -0.5261  0.4055  0.8866
    4MPD1    H314032   4.593   0.848  17.343 -0.1443  0.5481 -0.7172
    4MPD1     N14033   0.308   0.834  17.488  0.3244 -0.4795 -0.3611
    4MPD1    H514034   0.359   0.856  17.573 -1.4955 -1.1623  0.8937
    4MPD1    N114035   4.648   0.879   0.103  0.0882  0.1978  0.2377
    4MPD1    H614036   4.553   0.850   0.124  1.0392 -2.5273  0.7889
    4MPD1    H714037   4.709   0.843   0.175  1.1583  1.7184  0.0971
    1TCq1    O114038   1.342   0.639  11.176 -0.6753  0.3827 -0.1221
    1TCq1    C114039   1.356   0.654  11.307 -0.4874 -0.5427 -1.1402
    1TCq1    O214040   1.426   0.736  11.366 -0.2320  0.1520  0.1230
    1TCq1    C214041   1.276   0.553  11.381  0.2902  0.5154  0.2494
    1TCq1    C314042   1.199   0.470  11.295  0.6448 -0.4946 -0.3869
    1TCq1    C414043   1.151   0.359  11.351 -0.5923  0.2378  0.0292
    1TCq1    C514044   1.168   0.327  11.484 -0.4299 -0.5420  0.5235
    1TCq1    C614045   1.254   0.405  11.559 -0.3367  0.5813 -0.6207
    1TCq1    C714046   1.303   0.519  11.509  0.3106  0.2906 -0.3861
    1TCq1    C814047   1.338   0.336  11.656 -0.2477  0.1848 -0.0587
    1TCq1    O414048   1.409   0.414  11.714 -0.2241  0.6391  0.5657
    1TCq1    C914049   1.041   0.290  11.284  0.3360  0.1594 -0.7907
    1TCq1    O514050   0.994   0.182  11.332 -0.1133  0.0345  0.1941
    1TCq1    O614051   0.998   0.339  11.173 -0.5984 -0.3815  0.3040
    1TCq1    H114052   1.299   0.555  11.150  1.5841 -0.7031 -0.3226
    1TCq1    H214053   1.155   0.501  11.201  1.3945 -0.2867 -0.6738
    1TCq1    H314054   1.119   0.248  11.538 -1.3246 -1.0460 -1.0103
    1TCq1    H414055   1.358   0.588  11.573 -0.3123  0.5921 -0.1785
    2MPD1     C14056   1.536   4.668  11.919  0.6461  0.1204  0.0090
    2MPD1    C114057   1.480   4.617  11.803  0.4968  0.6318 -0.7735
    2MPD1    C214058   1.401   4.698  11.724  0.6638 -0.5842 -1.1825
    2MPD1    C314059   1.402   0.118  11.750  0.6476 -0.5172  0.3597
    2MPD1    C414060   1.453   0.167  11.868  0.6921 -0.4416 -0.3873
    2MPD1    C514061   1.505   0.075  11.954  0.0557 -0.3657 -0.3217
    2MPD1     H14062   1.346   4.652  11.642  0.1076 -1.5277 -0.2722
    2MPD1    H114063   1.446   0.271  11.895  2.0518  0.0068 -1.7688
    2MPD1    H214064   1.584   4.597  11.986 -0.3572  0.4042  1.0126
    2MPD1    H314065   1.545   0.113  12.047 -1.1237 -0.2994  0.1543
    2MPD1     N14066   1.336   0.199  11.656  0.0260  0.4438 -0.7181
    2MPD1    H514067   1.276   0.161  11.584  0.4142  0.1642 -0.8950
    2MPD1    N114068   1.514   4.490  11.754 -0.0626  1.2721  0.4430
    2MPD1    H614069   1.530   4.415  11.821 -0.8102  2.2594  1.7063
    2MPD1    H714070   1.438   4.459  11.694 -0.7526  0.0715  1.9502
    1TCq1    O114071   4.695   2.263   2.234 -1.0948 -0.2857  0.2806
    1TCq1    C114072   0.000   2.220   2.359 -0.4655 -0.4479  0.4879
    1TCq1    O214073   4.645   2.158   2.431  0.1533 -0.5318 -0.6607
    1TCq1    C214074   0.141   2.183   2.347  0.3259  0.7450  0.2172
    1TCq1    C314075   0.225   2.276   2.304 -0.7142  0.2849  0.5505
    1TCq1    C414076   0.358   2.266   2.344 -1.1142 -0.4125  0.2483
    1TCq1    C514077   0.401   2.164   2.425 -0.8073  0.2558  0.8975
    1TCq1    C614078   0.317   2.066   2.453 -0.0401  0.1501 -0.0134
    1TCq1    C714079   0.182   2.074   2.418 -0.5676  0.6404 -0.2254
    1TCq1    C814080   0.354   1.965   2.558 -1.0514 -0.0102  0.4706
    1TCq1    O414081   0.455   1.974   2.624  0.1090 -0.0289  0.0770
    1TCq1    C914082   0.451   2.373   2.332  0.4895  0.4701 -0.7285
    1TCq1    O514083   0.572   2.366   2.375 -0.3001 -0.3539 -0.0568
    1TCq1    O614084   0.415   2.475   2.267 -0.3981 -0.0903 -0.3543
    1TCq1    H114085   0.047   2.288   2.172 -0.1654 -2.2201  0.5869
    1TCq1    H214086   0.181   2.374   2.291  0.5281  0.9439  1.3152
    1TCq1    H314087   0.506   2.164   2.454 -0.9852 -0.2239  1.5366
    1TCq1    H414088   0.118   1.992   2.451 -0.5896  0.7571  0.0260
    2MPD1     C14089   0.232   1.534   2.811 -0.4695 -0.3113 -0.7484
    2MPD1    C114090   0.143   1.545   2.710  0.0366 -0.2197 -0.2827
    2MPD1    C214091   0.161   1.649   2.626 -0.4801 -0.1544 -0.0887
    2MPD1    C314092   0.262   1.749   2.641  0.2228  0.4569 -0.5865
    2MPD1    C414093   0.342   1.742   2.751  0.0239 -0.1285  0.2642
    2MPD1    C514094   0.327   1.635   2.837  0.3999  0.0399 -0.1005
    2MPD1     H14095   0.094   1.665   2.542 -1.5087 -0.9927  0.5695
    2MPD1    H114096   0.416   1.818   2.775 -0.2125 -0.4500  2.0513
    2MPD1    H214097   0.228   1.450   2.879 -0.7352  0.3087  0.0028
    2MPD1    H314098   0.396   1.619   2.919 -1.1350  0.8303  1.3368
    2MPD1     N14099   0.268   1.856   2.547  0.4597 -0.0601 -1.0311
    2MPD1    H514100   0.200   1.855   2.471 -1.1876 -1.7086  0.4295
    2MPD1    N114101   0.031   1.461   2.700  0.0658  0.1328  0.3068
    2MPD1    H614102   4.712   1.462   2.606  0.0728 -0.6634  0.2953
    2MPD1    H714103   0.046   1.362   2.718 -0.0827  0.2068  0.8532
    1MPD1     C14104   2.892   2.275  10.713 -0.2210 -0.7687 -0.0328
    1MPD1    C114105   3.027   2.253  10.694 -0.1653  0.8365 -0.1771
    1MPD1    C214106   3.099   2.193  10.796  0.4130  0.2732  0.4686
    1MPD1    C314107   3.043   2.147  10.911  0.1224  0.2869  0.4566
    1MPD1    C414108   2.907   2.152  10.924  1.2345 -0.1246 -0.3826
    1MPD1    C514109   2.836   2.213  10.822 -0.0240  0.3584  0.3092
    1MPD1     H14110   3.206   2.183  10.782  0.5397 -0.1737  1.7428
    1MPD1    H114111   2.854   2.129  11.016  1.1634 -1.5920 -0.7874
    1MPD1    H214112   2.824   2.310  10.636 -1.2393  1.0089  1.6899
    1MPD1    H314113   2.728   2.204  10.825  0.3258 -3.8052  0.9659
    1MPD1     N14114   3.130   2.085  11.001  0.5337  0.6186 -0.3919
    1MPD1    H514115   3.224   2.071  10.965  0.5781 -1.0790  0.4044
    1MPD1    N114116   3.088   2.308  10.581 -0.1797  0.5921 -1.0125
    1MPD1    H614117   3.177   2.261  10.566 -0.5087 -0.9140  1.8064
    1MPD1    H714118   3.025   2.298  10.501 -2.2312 -0.3567  0.7202
    2MPD1     C14119   2.602   1.100  12.206 -0.4142 -0.7558 -0.4396
    2MPD1    C114120   2.655   0.996  12.262 -0.6022  0.1024 -0.3733
    2MPD1    C214121   2.656   0.878  12.195 -0.6911  0.4032  0.2726
    2MPD1    C314122   2.608   0.869  12.067  0.3586 -0.0891  0.2995
    2MPD1    C414123   2.558   0.977  12.005  0.0762 -0.4236  0.1567
    2MPD1    C514124   2.562   1.091  12.075  0.2927  0.3886 -0.1453
    2MPD1     H14125   2.701   0.790  12.240  2.5814  0.5147 -2.8219
    2MPD1    H114126   2.510   0.980  11.907  1.3577  0.9775 -0.4349
    2MPD1    H214127   2.601   1.198  12.253 -1.0613 -0.6115 -0.7525
    2MPD1    H314128   2.520   1.182  12.034  3.1540  1.2146 -1.2385
    2MPD1     N14129   2.611   0.741  11.999  0.8228  0.3785  0.0579
    2MPD1    H514130   2.671   0.671  12.040  1.3518  1.2711  0.8008
    2MPD1    N114131   2.710   1.008  12.384 -0.2376 -0.3579  0.6890
    2MPD1    H614132   2.737   1.105  12.402  0.0792  0.1492 -2.4810
    2MPD1    H714133   2.789   0.944  12.395 -0.9118 -1.4491 -0.8450
    3MPD1     C14134   2.448   0.224  11.041 -0.2713  0.3849 -0.5169
    3MPD1    C114135   2.552   0.315  11.036 -0.5299  0.1205 -0.8461
    3MPD1    C214136   2.598   0.365  11.160 -0.3967 -0.1690  0.2636
    3MPD1    C314137   2.534   0.345  11.283 -0.1083 -0.0610 -0.6087
    3MPD1    C414138   2.433   0.260  11.278  0.6235  0.3404  0.4148
    3MPD1    C514139   2.393   0.197  11.165 -0.2136 -0.0729 -0.2527
    3MPD1     H14140   2.694   0.414  11.150 -0.3401 -0.2635  0.3410
    3MPD1    H114141   2.373   0.224  11.361  0.3445  0.1025  0.1085
    3MPD1    H214142   2.410   0.173  10.953 -3.1339  0.9211  0.4164
    3MPD1    H314143   2.295   0.150  11.159 -0.9082  1.3973 -0.5754
    3MPD1     N14144   2.586   0.399  11.399 -0.3705 -0.3616 -0.1302
    3MPD1    H514145   2.665   0.463  11.394 -0.7305 -0.1566 -2.9147
    3MPD1    N114146   2.612   0.352  10.917 -0.3058  0.2937 -0.4574
    3MPD1    H614147   2.676   0.430  10.931 -0.5527  0.5335 -0.6462
    3MPD1    H714148   2.547   0.375  10.842  0.0409 -1.4974 -1.2989
    4MPD2     C14149   3.671   1.632  11.089  0.0709 -0.0199 -0.3823
    4MPD2    C114150   3.630   1.653  11.216 -0.2217  0.2275  0.2196
    4MPD2    C214151   3.625   1.547  11.303  0.1797 -0.4076 -0.0197
    4MPD2    C314152   3.670   1.421  11.265 -0.2706  0.6240  0.3627
    4MPD2    C414153   3.710   1.398  11.136 -0.0287  0.0328 -0.8305
    4MPD2    C514154   3.701   1.506  11.050 -0.3832 -0.4747  0.2762
    4MPD2     H14155   3.584   1.567  11.402  0.0692  1.8790 -0.5313
    4MPD2    H114156   3.738   1.300  11.099 -0.1723 -0.3601  0.0785
    4MPD2    H214157   3.676   1.713  11.017  4.7554 -0.1862 -0.2133
    4MPD2    H314158   3.716   1.503  10.943  0.3457 -0.3133  0.3787
    4MPD2     N14159   3.638   1.325  11.367 -0.0355  0.2126 -0.6908
    4MPD2    H514160   3.597   1.358  11.454 -0.2508  0.4594 -0.8879
    4MPD2    N114161   3.572   1.768  11.271 -0.8546  0.0620 -0.0052
    4MPD2    H714162   3.508   1.758  11.350 -1.6526  3.5344 -0.1886
    5TMC3    C114163   3.447   1.956  11.256 -0.1435 -0.3673  0.2306
    5TMC3    C214164   3.351   2.004  11.168  0.0033  0.0549  0.1333
    5TMC3    C314165   3.220   2.005  11.212  0.0256  0.4854 -0.7854
    5TMC3    C414166   3.424   1.926  11.386 -0.8047 -0.5890 -0.4430
    5TMC3    C514167   3.295   1.921  11.426 -0.6492  0.1084 -0.1784
    5TMC3    C614168   3.193   1.957  11.335  0.2031  0.7692  0.0264
    5TMC3     C14169   3.556   1.884  11.196  0.5927 -0.5842 -0.5336
    5TMC3     O14170   3.589   1.927  11.087 -0.2596 -0.2994  0.2923
    5TMC3     H14171   3.371   2.010  11.062  0.6843  0.5990  0.2904
    5TMC3    H114172   3.507   1.908  11.454 -0.9943  1.6463  0.3865
    5TMC3    H214173   3.091   1.934  11.363 -0.6220 -0.4490 -3.9377
    5TMC3    C714174   3.292   1.792  11.485  0.3952  0.7055  0.1346
    5TMC3    C814175   3.105   2.056  11.136  0.5236  0.0400  0.3088
    5TMC3    O114176   3.394   1.729  11.477  0.2747  0.1088 -0.7503
    5TMC3    O214177   2.998   2.056  11.197 -0.2726  0.3933 -0.5743
    6TMC3    C114178   2.628   0.585  11.833  0.0393  0.5285 -0.0532
    6TMC3    C214179   2.550   0.518  11.744 -0.2234 -0.9193  0.1441
    6TMC3    C314180   2.613   0.455  11.632  0.1623 -0.4552  0.3978
    6TMC3    C414181   2.765   0.578  11.835  0.3469 -0.2879 -0.2037
    6TMC3    C514182   2.830   0.511  11.733 -0.7867 -0.3537  0.0529
    6TMC3    C614183   2.754   0.448  11.625  0.1174 -0.5648  0.3038
    6TMC3     C14184   2.565   0.706  11.875 -0.0233 -0.2251 -0.1150
    6TMC3     O14185   2.489   0.763  11.798  0.7354  0.4833 -0.5448
    6TMC3     H14186   2.444   0.530  11.764  0.1150  0.0284  1.3582
    6TMC3    H114187   2.817   0.651  11.896 -3.2104  1.0681  1.1760
    6TMC3    H214188   2.805   0.416  11.535 -0.9351  1.3086 -0.9605
    6TMC3    C714189   2.962   0.554  11.696 -0.5003  1.1835  0.4042
    6TMC3    C814190   2.530   0.398  11.527 -0.2307 -0.1501 -0.2327
    6TMC3    O114191   2.998   0.654  11.754 -0.1791 -0.3216 -0.2243
    6TMC3    O214192   2.419   0.360  11.560  0.3781 -0.3336 -0.5236
    7MPD2     C14193   3.122   1.423  11.789  0.2452 -0.8136  0.8865
    7MPD2    C114194   3.235   1.442  11.723  0.7154 -0.0855 -0.3934
    7MPD2    C214195   3.265   1.554  11.649  0.2823  0.1591 -0.1812
    7MPD2    C314196   3.166   1.649  11.638 -0.0710 -0.2747  0.2388
    7MPD2    C414197   3.046   1.633  11.704  0.2432  0.2748  0.2155
    7MPD2    C514198   3.022   1.518  11.778  0.3396 -0.6945 -0.2403
    7MPD2     H14199   3.362   1.561  11.602  0.5705 -1.3396  0.1822
    7MPD2    H114200   2.965   1.704  11.698 -1.1832 -1.3017  1.1125
    7MPD2    H214201   3.103   1.331  11.843 -0.6640 -0.7600  0.6492
    7MPD2    H314202   2.937   1.501  11.842  0.8953 -3.0936 -0.1256
    7MPD2     N14203   3.184   1.770  11.563  0.5390  0.1967  0.0901
    7MPD2    H514204   3.107   1.835  11.572 -0.8811 -1.3740 -0.5631
    7MPD2    N114205   3.314   1.328  11.732 -0.3468 -0.0175  0.1893
    7MPD2    H714206   3.274   1.248  11.780  0.4619  0.5851  1.8717
    8TMC3    C114207   3.507   1.185  11.660  0.0133  0.1207  0.4068
    8TMC3    C214208   3.419   1.081  11.644  0.4886  0.7700  0.0141
    8TMC3    C314209   3.439   1.001  11.533 -0.0397 -0.3015  0.2847
    8TMC3    C414210   3.620   1.201  11.582 -0.8171 -0.2098 -0.4996
    8TMC3    C514211   3.638   1.123  11.469  0.3238  0.5046  0.0322
    8TMC3    C614212   3.543   1.019  11.446  0.3734  0.0647  0.1524
    8TMC3     C14213   3.436   1.315  11.666  0.4369 -0.3642  0.1116
    8TMC3     O14214   3.499   1.396  11.599 -0.1430 -0.5356  0.1232
    8TMC3     H14215   3.323   1.071  11.693  0.2651  1.6952 -0.2357
    8TMC3    H114216   3.684   1.286  11.603 -1.5309  0.2048 -0.0065
    8TMC3    H214217   3.545   0.970  11.349 -0.9693 -0.9573  0.6409
    8TMC3    C714218   3.684   1.194  11.357  0.9566 -0.6280  0.7420
    8TMC3    C814219   3.339   0.889  11.516 -0.0506  0.4521  0.3745
    8TMC3    O114220   3.732   1.133  11.260  0.4865  0.2015 -0.1933
    8TMC3    O214221   3.226   0.919  11.546 -0.0635 -0.2104 -0.6390
    9MPD2     C14222   3.401   0.527  11.462 -0.1703 -0.0294 -0.4445
    9MPD2    C114223   3.342   0.641  11.499  0.1931 -0.7669 -0.3006
    9MPD2    C214224   3.215   0.619  11.550  0.1719 -0.0959 -0.1030
    9MPD2    C314225   3.149   0.502  11.550  0.2921  0.8109  0.4080
    9MPD2    C414226   3.204   0.397  11.482 -0.1793  0.0803  0.2496
    9MPD2    C514227   3.341   0.404  11.465 -0.2057 -0.3986 -0.2695
    9MPD2     H14228   3.167   0.705  11.594 -0.0491  0.0708 -0.6632
    9MPD2    H114229   3.168   0.295  11.477  0.1273 -0.0469  0.5998
    9MPD2    H214230   3.503   0.532  11.427 -0.3079  1.4012 -0.6500
    9MPD2    H314231   3.397   0.323  11.420 -0.5372 -1.1402  0.6609
    9MPD2     N14232   3.021   0.473  11.600  0.0803  0.1525  0.3975
    9MPD2    H514233   2.985   0.378  11.587 -0.7069  0.5561 -0.3848
    9MPD2    N114234   3.408   0.763  11.498  0.4286 -0.6078  0.0962
    9MPD2    H714235   3.500   0.761  11.454  1.1979 -1.6603  1.7226
    1MPD1     C14236   3.078   4.633  16.699 -0.1849 -0.3103 -0.0921
    1MPD1    C114237   3.000   4.593  16.592  0.1688  0.3858  0.3827
    1MPD1    C214238   2.871   4.640  16.595 -0.0040 -0.0054 -0.5291
    1MPD1    C314239   2.836   0.003  16.694  0.1874  0.3292 -0.1539
    1MPD1    C414240   2.914   0.036  16.801  0.0743 -0.4346  0.3661
    1MPD1    C514241   3.046   4.719  16.795 -0.5902 -0.5797 -0.4696
    1MPD1     H14242   2.811   4.612  16.509 -0.7217 -1.7115  0.5259
    1MPD1    H114243   2.883   0.106  16.878  1.2413 -0.4424  0.8553
    1MPD1    H214244   3.182   4.605  16.708  0.1377  0.3150 -2.0454
    1MPD1    H314245   3.124   0.027  16.865 -3.4694  0.5250  2.2482
    1MPD1     N14246   2.699   0.020  16.716  0.3652  0.1971  0.8327
    1MPD1    H514247   2.673   0.074  16.798 -1.9744 -1.1555  0.9804
    1MPD1    N114248   3.038   4.501  16.496 -0.1757 -0.0487 -0.1319
    1MPD1    H614249   2.984   4.515  16.410  0.7304 -1.8006 -0.9902
    1MPD1    H714250   3.139   4.487  16.487 -0.3151 -2.0725  1.6478
    2MPD1     C14251   1.802   4.232  16.630 -0.4145 -0.0972 -0.7925
    2MPD1    C114252   1.849   4.239  16.757 -0.1833  0.5842 -0.5877
    2MPD1    C214253   1.955   4.322  16.785  0.1316  0.6516 -0.4717
    2MPD1    C314254   2.032   4.372  16.681 -0.8094  0.0944  0.2168
    2MPD1    C414255   2.002   4.340  16.553 -0.1638 -0.3918  0.1010
    2MPD1    C514256   1.875   4.286  16.528 -0.1491  0.4303  0.2375
    2MPD1     H14257   1.972   4.360  16.885  0.4573  0.5187 -0.4780
    2MPD1    H114258   2.069   4.371  16.473  0.5040 -0.9829  0.4365
    2MPD1    H214259   1.713   4.173  16.613 -1.9387  1.2651  2.5032
    2MPD1    H314260   1.835   4.275  16.428 -2.4006  0.7689  1.1185
    2MPD1     N14261   2.142   4.462  16.702 -0.0036  0.3696  0.2177
    2MPD1    H514262   2.195   4.492  16.621  0.0963 -0.7327 -0.1328
    2MPD1    N114263   1.776   4.183  16.865  0.9385  0.1661  0.1082
    2MPD1    H614264   1.714   4.110  16.831  1.1743 -0.7969  1.7420
    2MPD1    H714265   1.824   4.159  16.951 -0.5704 -1.6003  0.4597
    3TCq2    C114266   2.150   4.546  16.815  0.8868  0.3722 -0.2288
    3TCq2    O214267   2.089   4.553  16.922 -0.5186 -0.2667  0.3222
    3TCq2    C214268   2.260   4.649  16.806  0.3064 -0.2160 -0.2316
    3TCq2    C314269   2.275   0.008  16.923 -0.0734  0.4698 -0.3637
    3TCq2    C414270   2.382   0.098  16.923  0.3600  0.6935  0.6170
    3TCq2    C514271   2.481   0.094  16.833 -0.1847  0.1084 -0.0037
    3TCq2    C614272   2.474   4.713  16.739  0.4779 -0.8412 -0.3000
    3TCq2    C714273   2.364   4.633  16.720  0.3380  0.2605  0.4679
    3TCq2    C814274   2.593   4.675  16.665 -0.0041 -0.8366  0.1902
    3TCq2    O414275   2.592   4.591  16.580 -0.1147  0.1152 -0.2666
    3TCq2    C914276   2.396   0.182  17.036 -0.0708  0.5134  0.3727
    3TCq2    O514277   2.500   0.258  17.033 -0.0208  0.5365  0.5558
    3TCq2    O614278   2.344   0.137  17.143  0.0261  0.4146  0.2743
    3TCq2    H214279   2.213   0.016  17.012 -2.5482  0.3074 -2.0640
    3TCq2    H314280   2.568   0.158  16.842  0.8311 -1.4052  0.9663
    3TCq2    H414281   2.356   4.570  16.632  2.3931  0.1806  0.3286
    1TCq1    O114282   0.388   3.425  12.942  0.0183  0.0459  0.0560
    1TCq1    C114283   0.522   3.393  12.943 -0.3806  0.3779 -0.5713
    1TCq1    O214284   0.614   3.470  12.978 -0.3133  0.2918  0.1640
    1TCq1    C214285   0.549   3.258  12.954 -0.6295  0.2498  0.1135
    1TCq1    C314286   0.467   3.177  13.018  0.3228  0.2900  0.0926
    1TCq1    C414287   0.512   3.072  13.084 -0.2843 -0.4250  0.0692
    1TCq1    C514288   0.644   3.043  13.091  0.2390  0.0422  0.3390
    1TCq1    C614289   0.732   3.124  13.022 -0.7203  0.1018  0.6314
    1TCq1    C714290   0.684   3.230  12.954 -0.0508 -0.9276 -0.5465
    1TCq1    C814291   0.860   3.144  13.075  0.3432 -0.0388 -0.0459
    1TCq1    O414292   0.954   3.181  13.008 -0.2254 -0.8796 -0.1876
    1TCq1    C914293   0.416   2.985  13.153 -0.2307 -0.5444  0.5600
    1TCq1    O514294   0.299   3.018  13.149  0.0928  0.1487  0.1768
    1TCq1    O614295   0.450   2.892  13.231  0.1153  0.0275  0.6130
    1TCq1    H114296   0.337   3.344  12.921 -0.6670 -0.2770  2.9702
    1TCq1    H214297   0.359   3.185  13.021  0.3979  1.2269  0.4681
    1TCq1    H314298   0.676   2.956  13.147  1.2177 -0.6418 -1.3012
    1TCq1    H414299   0.757   3.301  12.917  1.1621 -3.2122 -2.5659
    2MPD2     C14300   1.090   3.181  13.270  0.3375 -0.9529  0.2964
    2MPD2    C114301   0.951   3.195  13.290  0.3887  0.1249 -0.5752
    2MPD2    C214302   0.918   3.264  13.400  0.3489  0.1346  0.3392
    2MPD2    C314303   1.011   3.314  13.490 -0.0661  0.0438  0.0170
    2MPD2    C414304   1.140   3.292  13.471  0.2461  0.2852  0.6590
    2MPD2    C514305   1.178   3.226  13.359  0.5424  0.0464 -0.3570
    2MPD2     H14306   0.815   3.281  13.429 -0.1353 -0.5344 -1.0493
    2MPD2    H114307   1.220   3.329  13.533 -0.1123  0.6978  0.8691
    2MPD2    H214308   1.123   3.122  13.186  1.6299 -1.0628  0.8895
    2MPD2    H314309   1.282   3.197  13.349  1.0278  1.7036 -0.0523
    2MPD2     N14310   0.956   3.389  13.599 -0.4305  0.3426 -0.0739
    2MPD2    H514311   0.855   3.394  13.607 -0.4060 -1.9080  1.4532
    2MPD2    N114312   0.846   3.172  13.205  0.2513 -0.3506  0.7760
    2MPD2    H714313   0.753   3.185  13.244 -0.3739  1.2459 -1.2563
    3TCq1    O114314   0.555   3.733  13.916  0.3264  0.3841  0.4370
    3TCq1    C114315   0.609   3.632  13.842  0.2806 -0.3070 -0.1710
    3TCq1    O214316   0.549   3.559  13.769 -0.3438  0.1897  0.0611
    3TCq1    C214317   0.754   3.632  13.857 -0.2220 -0.1175  0.2454
    3TCq1    C314318   0.808   3.681  13.976 -0.1747 -0.4632 -0.4167
    3TCq1    C414319   0.943   3.676  13.989  0.0791 -0.0155 -1.1072
    3TCq1    C514320   1.020   3.604  13.900  0.1838  0.2073 -0.5228
    3TCq1    C614321   0.961   3.550  13.788  0.9776 -0.6192  0.7131
    3TCq1    C714322   0.829   3.567  13.768  0.3408  0.9192  0.1117
    3TCq1    C814323   1.032   3.447  13.703 -0.4276  0.0824 -0.3253
    3TCq1    O414324   1.136   3.404  13.749 -0.4190  0.2074  0.2611
    3TCq1    C914325   1.005   3.712  14.114 -0.3945  0.0068 -0.0844
    3TCq1    O514326   1.129   3.690  14.128 -0.5220 -0.0291 -0.0681
    3TCq1    O614327   0.942   3.772  14.207  0.3188 -0.4208 -0.2767
    3TCq1    H114328   0.608   3.801  13.964  1.2464 -0.8433  1.1634
    3TCq1    H214329   0.744   3.723  14.053  1.9083  2.4095 -0.2737
    3TCq1    H314330   1.125   3.588  13.920 -0.2944 -2.8023 -0.3401
    3TCq1    H414331   0.783   3.551  13.671  2.1337  0.7664 -0.7095
    1MPD2     C14332   0.178   4.516  14.934 -0.6627 -0.2757  0.4355
    1MPD2    C114333   0.046   4.488  14.911 -0.0392 -0.3347  0.4137
    1MPD2    C214334   4.719   4.356  14.928  0.3505  0.1525 -0.2877
    1MPD2    C314335   0.077   4.251  14.956 -0.0970  0.1483  0.2302
    1MPD2    C414336   0.211   4.278  14.976  0.0562  0.5702 -0.1315
    1MPD2    C514337   0.257   4.412  14.973 -0.1081 -0.4288 -0.0545
    1MPD2     H14338   4.620   4.341  14.886  0.4692 -1.0281 -0.1579
    1MPD2    H114339   0.279   4.195  14.993  0.7545  1.0695 -0.4772
    1MPD2    H214340   0.215   4.618  14.926 -0.0846 -0.6454 -1.8064
    1MPD2    H314341   0.363   4.430  14.987 -0.5454  1.8943  0.2001
    1MPD2     N14342   0.029   4.118  14.967 -0.1513  1.0899 -0.3448
    1MPD2    H514343   0.090   4.042  14.994  0.1940  2.1669  1.9546
    1MPD2    N114344   4.682   4.601  14.877 -0.3092 -0.2441  0.9660
    1MPD2    H714345   4.719   4.695  14.882 -0.7796  0.0182 -0.5595
    2TMC3    C114346   4.503   0.004  14.778 -0.1249 -0.5120  0.2375
    2TMC3    C214347   4.395   4.695  14.707 -0.1994 -0.4137 -0.9277
    2TMC3    C314348   4.386   0.003  14.575  0.6797  0.7192  0.1162
    2TMC3    C414349   4.602   0.075  14.710  0.2321 -0.5370  0.5755
    2TMC3    C514350   4.590   0.100  14.577  0.3495  0.4111  0.1041
    2TMC3    C614351   4.483   0.065  14.503  0.3716  0.1872  0.0165
    2TMC3     C14352   4.546   4.600  14.845  0.4157 -0.2871 -0.5122
    2TMC3     O14353   4.459   4.514  14.843 -0.2505  0.1625  0.1298
    2TMC3     H14354   4.311   4.641  14.750 -1.2534  2.6837  0.8908
    2TMC3    H114355   4.683   0.109  14.774 -0.3189  1.4373  0.2179
    2TMC3    H214356   4.474   0.089  14.397 -3.1389 -0.7493  0.1090
    2TMC3    C714357   4.652   0.219  14.520 -0.4216  0.2175 -0.2652
    2TMC3    C814358   4.333   4.619  14.496  0.3965  0.4304  0.6865
    2TMC3    O114359   4.606   0.277  14.426 -0.1094  0.2201 -0.2636
    2TMC3    O214360   4.304   4.626  14.377 -0.4447  0.5761 -0.4845
    3TCq1    O114361   0.872   0.342  15.127  0.4392 -0.3102 -0.6592
    3TCq1    C114362   0.750   0.358  15.068 -0.9554  0.5315 -0.3312
    3TCq1    O214363   0.646   0.333  15.125 -0.6459  1.0764  0.2397
    3TCq1    C214364   0.768   0.399  14.934 -0.1774  0.5160 -0.6570
    3TCq1    C314365   0.886   0.473  14.905 -0.1379  0.5644 -0.5016
    3TCq1    C414366   0.893   0.580  14.817  0.1234  0.4780  0.4317
    3TCq1    C514367   0.775   0.624  14.759 -0.6893 -0.2604  0.4157
    3TCq1    C614368   0.658   0.551  14.784 -0.2998 -0.4348  0.0981
    3TCq1    C714369   0.655   0.453  14.879 -0.5293 -0.2244  0.0013
    3TCq1    C814370   0.545   0.589  14.701  0.0796 -0.8072 -0.2803
    3TCq1    O414371   0.548   0.696  14.641 -0.2547 -0.1839 -0.0632
    3TCq1    C914372   1.022   0.642  14.782 -0.2557  0.1980  0.0026
    3TCq1    O514373   1.029   0.759  14.736  0.4335  0.1057  0.5461
    3TCq1    O614374   1.118   0.602  14.855  0.0008  0.0476  0.3140
    3TCq1    H114375   0.948   0.327  15.067  0.8581  1.1335 -0.4907
    3TCq1    H214376   0.984   0.456  14.948  0.3649 -1.8329 -2.6056
    3TCq1    H314377   0.781   0.707  14.690  2.9826  0.3731  1.4907
    3TCq1    H414378   0.560   0.405  14.900 -0.5838 -1.2521 -2.5510
    4MPD2     C14379   0.286   0.611  14.549 -0.5678  0.1398  0.0786
    4MPD2    C114380   0.327   0.503  14.623  1.1897 -0.5893  0.0790
    4MPD2    C214381   0.251   0.383  14.624 -0.4833 -0.0781 -0.2750
    4MPD2    C314382   0.131   0.369  14.552 -0.2389  0.2710  0.2635
    4MPD2    C414383   0.098   0.477  14.475  0.0880  0.0491 -0.7885
    4MPD2    C514384   0.173   0.592  14.466 -0.3335  0.0601  0.6838
    4MPD2     H14385   0.285   0.301  14.686 -1.7536 -0.6450 -0.3295
    4MPD2    H114386   0.014   0.475  14.406  0.1385 -1.3449 -0.8180
    4MPD2    H214387   0.335   0.708  14.551 -0.6212  0.2163 -2.0418
    4MPD2    H314388   0.157   0.668  14.390 -0.3334  0.5569  1.1811
    4MPD2     N14389   0.049   0.252  14.576 -0.4843  0.4751 -0.3407
    4MPD2    H514390   0.084   0.187  14.646  2.9146  1.8975 -0.7351
    4MPD2    N114391   0.445   0.494  14.699  0.2777 -0.1486  0.3193
    4MPD2    H714392   0.453   0.425  14.773 -0.8535  0.3684  0.9154
    5TMC2    C114393   4.445   3.829  14.768  0.3781  0.4857 -0.4209
    5TMC2    C214394   4.551   3.767  14.702  0.6824 -0.6831  0.7351
    5TMC2    C314395   4.679   3.789  14.743  0.0715 -0.2769 -0.1158
    5TMC2    C414396   4.476   3.918  14.867 -0.2453  0.5020 -0.6039
    5TMC2    C514397   4.601   3.944  14.903 -0.4106  0.0394  0.3447
    5TMC2    C614398   4.713   3.878  14.840 -0.0940 -0.4083  0.3184
    5TMC2     C14399   4.360   3.885  14.660  1.2858  0.2212 -0.4993
    5TMC2     O14400   4.327   3.820  14.567 -0.3239 -0.1858  0.1076
    5TMC2     H14401   4.533   3.693  14.624  1.2892 -0.3266  0.2544
    5TMC2    H114402   4.403   3.950  14.941 -1.0614  1.2231 -1.7164
    5TMC2    H214403   0.098   3.895  14.864  1.0695 -4.9757 -1.4453
    5TMC2    C714404   4.621   4.084  14.927 -0.2885  0.8004  0.3765
    5TMC2    C814405   0.073   3.738  14.669 -0.7359 -0.6930 -0.8134
    5TMC2    O114406   4.522   4.153  14.899 -0.6050  0.1738 -0.6138
    5TMC2    O214407   0.180   3.792  14.691  0.3756 -0.2253  0.2379
    5TMC2    O514408   0.050   3.611  14.637 -0.3052 -0.6959 -0.2500
    5TMC2    H514409   4.681   3.581  14.667 -0.7570  0.7631 -0.1260
    6MPD2     C14410   4.289   4.331  14.392 -0.0069 -0.3043  0.5583
    6MPD2    C114411   4.335   4.362  14.511  0.0931  0.6467  0.5492
    6MPD2    C214412   4.365   4.255  14.598 -0.5786 -0.2081  0.3763
    6MPD2    C314413   4.337   4.124  14.572 -0.2040  0.9498  0.5691
    6MPD2    C414414   4.279   4.097  14.450  0.3052 -0.3486  1.0040
    6MPD2    C514415   4.266   4.200  14.360  0.0804 -0.0437  0.1666
    6MPD2     H14416   4.403   4.277  14.697  0.8231 -1.6689  0.1560
    6MPD2    H114417   4.244   3.997  14.425 -0.4580 -0.3113  1.9183
    6MPD2    H214418   4.255   4.415  14.332  1.4963  0.2346  0.4559
    6MPD2    H314419   4.221   4.178  14.263  0.2247  0.1736  0.0518
    6MPD2     N14420   4.365   4.027  14.670 -0.3882  0.0750 -0.5100
    6MPD2    H514421   4.404   4.060  14.757 -0.8080  1.5803 -0.8809
    6MPD2    N114422   4.358   4.498  14.557  0.5542 -0.1165  0.1942
    6MPD2    H714423   4.403   4.515  14.647 -0.6225 -2.5165  1.2454
  945NH4     N114424   0.512   0.076  11.450  0.4865 -0.3536  0.2532
  945NH4     H214425   0.523   4.701  11.409 -0.1185 -0.4900  0.3973
  945NH4     H314426   0.440   0.076  11.525  1.1860  3.0284  0.9112
  945NH4     H414427   0.469   0.127  11.371 -0.6711 -0.9441  0.5059
  945NH4     H514428   0.600   0.118  11.486 -0.1802  1.6950 -0.5470
  946SOD     NA14429   2.767   1.863  10.084  0.3311 -0.0359 -0.1524
  947SOD     NA14430   2.551   0.349  17.220  0.5619 -0.0671 -0.0422
  948SOD     NA14431   0.667   3.634  10.041  0.2784 -0.2817 -0.1698
  949SOD     NA14432   2.373   3.274   0.986 -0.4771  0.1968 -0.4101
  950SOD     NA14433   0.646   3.324  10.148 -0.1312  0.0276  0.2457
  951SOD     NA14434   4.692   1.625  10.665  0.0794  0.5672  0.1578
  952SOD     NA14435   4.649   4.396  10.423 -0.1151  0.3607 -0.1051
  953SOD     NA14436   4.471   2.717   9.394  0.4187 -0.3111  0.0417
  954SOD     NA14437   1.513   3.179  12.147  0.5521 -0.0107  0.1898
  955SOD     NA14438   0.559   4.050   9.725  0.7357 -0.0798  0.0323
  956SOD     NA14439   3.929   3.116  13.456 -0.1927 -0.1497  0.2853
  957SOD     NA14440   1.572   0.374   9.918  0.0287 -0.4172 -0.0539
  958SOD     NA14441   2.299   3.444   2.616 -0.3128  0.2487 -0.1318
  959SOD     NA14442   0.523   4.541  12.983 -0.0982  0.0161 -0.2282
  960SOD     NA14443   1.218   0.822  14.812 -0.5025  0.4049 -0.1448
  961SOD     NA14444   2.631   3.359   1.156  0.0267 -0.2601 -0.2221
  962SOD     NA14445   1.676   0.418  16.334  0.2570  0.4463 -0.4886
  963SOD     NA14446   1.361   4.319   1.187 -1.1500 -0.2418  0.2414
  964SOD     NA14447   0.301   0.597  11.274 -0.2198  0.4341  0.0234
  965SOD     NA14448   3.557   0.793  14.038  0.0078 -0.2880 -0.0168
  966SOD     NA14449   0.593   0.518   3.106 -0.1456 -0.5497  0.0480
  967SOD     NA14450   4.112   2.341  11.853 -0.1301 -0.8899 -0.4261
  968SOD     NA14451   1.514   0.320   3.368  0.4782  0.3508 -0.2103
  969SOD     NA14452   3.268   4.182  13.996 -0.6453 -0.1409 -0.2328
  970SOD     NA14453   3.619   2.792   2.671 -0.3930  0.3443 -0.0273
  971SOD     NA14454   3.829   4.481  11.503 -0.4156  0.0381 -0.2738
  972SOD     NA14455   1.604   1.981  15.728  0.3356  0.2501  0.2179
  973SOD     NA14456   0.648   3.475  11.545  0.2195 -0.2147 -0.0940
  974SOD     NA14457   4.403   3.119   5.661  0.0763 -0.2439  0.7338
  975SOD     NA14458   4.347   1.964  11.611  0.7616 -0.2312  0.2799
  976SOD     NA14459   0.577   2.712  13.286 -0.1998  0.3858  0.3248
  977SOD     NA14460   4.632   3.528   0.382  0.0727 -0.8294 -0.0362
  978SOD     NA14461   4.670   1.062   1.958 -1.0178 -0.2294 -0.5445
  979SOD     NA14462   4.647   1.716  10.347 -0.0484  0.2907  0.2995
  980SOD     NA14463   2.904   4.396  15.100  0.0921 -0.4555 -0.3784
  981SOD     NA14464   1.150   4.651   6.372 -0.3390 -0.1522 -0.2473
  982SOD     NA14465   0.665   3.737  11.248 -0.3829  0.4708  0.0227
  983SOD     NA14466   0.023   2.720   9.552  0.1515  0.0734 -0.1326
  984SOD     NA14467   1.867   3.422   0.581  0.3065 -0.4238 -0.4512
  985SOD     NA14468   0.838   2.892   9.070 -0.1670 -0.0283 -0.5608
  986SOD     NA14469   1.114   3.761  14.344  0.0221 -0.0651 -0.0717
  987SOD     NA14470   1.417   0.233  17.328  0.0677 -0.1159  0.1713
  988SOD     NA14471   0.428   2.327   5.985  0.3952 -0.0419  0.0310
  989SOD     NA14472   4.217   0.119   4.308 -0.2580 -0.0901  0.4610
  990SOD     NA14473   3.135   2.319   1.272 -0.2513  0.1757  0.1085
  991SOD     NA14474   2.044   0.816  11.774  0.1021 -0.1228  0.2785
  992SOD     NA14475   0.792   3.598  13.021  0.1390  0.5991 -0.2868
  993SOD     NA14476   1.233   3.504  14.163 -0.2314  0.5687 -0.4693
  994SOD     NA14477   4.463   0.068  15.219  0.2480  0.2956 -0.6765
  995SOD     NA14478   0.942   2.313  10.152 -0.1182  0.1352  0.6096
  996SOD     NA14479   3.159   2.826  12.443  0.1731  0.2964 -0.1763
  997SOD     NA14480   1.849   3.837   5.059  0.0759 -0.4795 -0.0918
  998SOD     NA14481   2.599   4.528  14.056 -0.1283  0.2994 -0.0742
  999SOD     NA14482   1.229   3.196  11.079  0.2926 -0.0511 -0.0303
 1000SOD     NA14483   0.595   2.638   7.573  0.1308 -0.5057 -0.2472
 1001SOD     NA14484   0.268   1.609   1.623 -0.2955 -0.2477  0.3901
 1002SOD     NA14485   2.938   0.680   0.986 -0.3133  0.6583 -0.0878
 1003SOD     NA14486   3.349   1.150  16.663  0.2321  0.1350  0.1001
 1004SOD     NA14487   1.565   3.936  14.622  0.0144  0.1491  0.0556
 1005SOD     NA14488   0.587   3.589  14.757  0.3815  0.1361  0.3161
 1006SOD     NA14489   3.204   3.109  12.551  0.0245 -0.2142  0.4003
 1007SOD     NA14490   4.234   2.526   2.407  0.2114 -0.5233  0.0747
 1008SOD     NA14491   1.886   2.332  16.707  0.1356 -0.7204  0.1474
 1009SOD     NA14492   2.382   4.305  11.193 -0.4825  0.5792  0.1231
 1010SOD     NA14493   2.153   0.440  15.154 -0.7926  0.1493  0.3459
 1011SOL     OW14494   3.993   1.728  11.881  0.6924 -0.3624  0.4117
 1011SOL    HW114495   3.922   1.665  11.895  0.2735 -0.2289 -1.0182
 1011SOL    HW214496   4.074   1.687  11.911  0.0801 -0.5290  1.8407
 1012SOL     OW14497   3.263   4.213   0.739  0.2322 -0.2879 -0.1584
 1012SOL    HW114498   3.266   4.198   0.833 -2.7632 -2.0920 -0.3511
 1012SOL    HW214499   3.316   4.292   0.731  1.1099 -1.0892 -2.3092
 1013SOL     OW14500   1.081   1.032   1.123 -0.2616  0.1700  0.1292
 1013SOL    HW114501   1.096   1.073   1.038 -0.2467  2.4610  1.2310
 1013SOL    HW214502   1.010   0.974   1.097 -0.2899  0.5539 -0.6581
 1014SOL     OW14503   0.554   2.299  12.781 -0.2991  0.1161 -0.0419
 1014SOL    HW114504   0.573   2.242  12.707  1.7451  0.6528  0.0858
 1014SOL    HW214505   0.526   2.378  12.735  0.1686 -0.1059 -0.7126
 1015SOL     OW14506   2.020   1.918   5.954 -0.3681  0.0408 -0.2517
 1015SOL    HW114507   1.978   1.859   6.016 -1.2890 -0.7178 -1.5814
 1015SOL    HW214508   2.102   1.928   6.003 -0.4946 -0.8997  0.1412
 1016SOL     OW14509   2.767   2.311   1.514 -0.3836 -0.0155 -0.6293
 1016SOL    HW114510   2.804   2.315   1.602 -1.2517  2.3781 -0.3674
 1016SOL    HW214511   2.772   2.405   1.493 -2.7142  0.1900 -0.2589
 1017SOL     OW14512   4.045   0.410   4.740  0.5381  0.3622 -0.5429
 1017SOL    HW114513   4.111   0.427   4.672  0.1048  1.2935 -0.7321
 1017SOL    HW214514   3.979   0.469   4.703  0.8640  1.6877  0.9522
 1018SOL     OW14515   3.966   4.192   6.334  0.4519  0.2749 -0.1065
 1018SOL    HW114516   4.018   4.120   6.370 -0.4505  0.9651  2.5760
 1018SOL    HW214517   4.025   4.268   6.337 -1.2399  1.5806 -0.0240
 1019SOL     OW14518   4.659   4.633   6.424 -0.1453  0.1802  0.4673
 1019SOL    HW114519   0.004   4.666   6.486 -0.4000  0.9893  0.2979
 1019SOL    HW214520   4.699   4.550   6.398 -0.3158 -0.6898  2.9578
 1020SOL     OW14521   1.953   1.959   8.233 -0.0703 -0.0918 -0.9895
 1020SOL    HW114522   1.954   2.026   8.301 -1.4485 -1.3207  0.2425
 1020SOL    HW214523   1.907   1.896   8.288 -0.2657 -0.9783 -2.1733
 1021SOL     OW14524   3.362   0.294   0.254 -0.1296  0.0740 -0.5397
 1021SOL    HW114525   3.384   0.351   0.180  1.2381  1.4307  0.9314
 1021SOL    HW214526   3.450   0.255   0.258 -1.5887 -3.0971  0.4852
 1022SOL     OW14527   2.230   0.076   5.549 -0.4519  0.4443 -0.6876
 1022SOL    HW114528   2.223   0.134   5.474 -2.2506  1.6361  0.4274
 1022SOL    HW214529   2.223   4.707   5.514  0.0916 -0.8943  2.5027
 1023SOL     OW14530   0.902   4.359   5.386  0.3746  0.0635 -0.1195
 1023SOL    HW114531   0.976   4.300   5.374  0.8721  1.1744 -2.5789
 1023SOL    HW214532   0.922   4.398   5.471  1.9683  0.4325 -0.6714
 1024SOL     OW14533   2.904   2.581   6.849  0.3480  0.1847  0.2865
 1024SOL    HW114534   2.870   2.502   6.806  1.5346 -1.3277  2.1151
 1024SOL    HW214535   2.877   2.562   6.939  3.1436 -3.3212  0.4056
 1025SOL     OW14536   0.619   1.316  15.509 -0.0434 -0.1412  0.0198
 1025SOL    HW114537   0.561   1.352  15.577  0.8517  1.3925 -0.0293
 1025SOL    HW214538   0.577   1.343  15.427 -1.7562 -0.9034  0.6457
 1026SOL     OW14539   2.266   4.366   4.636 -0.2014  0.3918 -0.2945
 1026SOL    HW114540   2.261   4.431   4.706  0.2800  0.5592 -0.4174
 1026SOL    HW214541   2.188   4.315   4.658  0.4243 -0.6963 -0.5541
 1027SOL     OW14542   0.366   4.271   5.740 -0.7273 -0.2909  0.3387
 1027SOL    HW114543   0.289   4.297   5.790 -0.4784  0.1166  0.5073
 1027SOL    HW214544   0.318   4.245   5.661 -1.4547  1.4528  0.1955
 1028SOL     OW14545   1.811   1.846  16.551  0.2925  0.5864 -0.1305
 1028SOL    HW114546   1.768   1.876  16.631 -1.3171 -3.9500  0.7190
 1028SOL    HW214547   1.900   1.829  16.579  0.6717 -0.6303 -2.0618
 1029SOL     OW14548   1.164   2.405   2.969  0.5689  0.1104  0.0457
 1029SOL    HW114549   1.256   2.379   2.964  1.3196  2.5983  0.5892
 1029SOL    HW214550   1.127   2.392   2.882 -0.2692 -2.8398  0.8521
 1030SOL     OW14551   1.718   0.596   9.058  0.1469  0.2698 -0.2462
 1030SOL    HW114552   1.700   0.600   9.152 -1.4274  1.2175 -0.5771
 1030SOL    HW214553   1.686   0.509   9.033 -2.4640  0.3422  2.8208
 1031SOL     OW14554   3.497   0.604   6.996  0.4084  0.1162 -0.5024
 1031SOL    HW114555   3.447   0.560   7.064  2.0826 -0.3719  0.4259
 1031SOL    HW214556   3.498   0.695   7.025 -3.7624 -0.3231  0.9786
 1032SOL     OW14557   2.717   3.122   7.212  0.0635 -0.0225  0.4152
 1032SOL    HW114558   2.755   3.034   7.218 -1.5616 -0.5722  2.5282
 1032SOL    HW214559   2.704   3.132   7.306 -0.3016 -1.6066  0.5471
 1033SOL     OW14560   3.638   1.458  10.229 -0.3541 -0.6128  0.2646
 1033SOL    HW114561   3.645   1.504  10.146 -0.7206 -2.0907 -0.5706
 1033SOL    HW214562   3.589   1.381  10.202  1.4837 -1.0457 -1.8189
 1034SOL     OW14563   4.078   0.483   2.465 -0.3001 -0.3206 -0.4484
 1034SOL    HW114564   4.017   0.546   2.503 -1.8638  0.3389 -4.1500
 1034SOL    HW214565   4.067   0.494   2.371  3.1367  0.8139 -0.7221
 1035SOL     OW14566   0.766   0.365   0.626 -0.0076  0.4009  0.2491
 1035SOL    HW114567   0.717   0.374   0.544  0.3644  1.0513  0.0937
 1035SOL    HW214568   0.853   0.333   0.601 -0.3222  0.4474 -0.8929
 1036SOL     OW14569   3.620   0.207   3.700 -0.2516 -0.1863 -0.2445
 1036SOL    HW114570   3.553   0.182   3.635 -0.5061  0.2602 -0.1509
 1036SOL    HW214571   3.690   0.226   3.638  0.1572  0.4481  0.4204
 1037SOL     OW14572   4.504   0.867   1.526  0.3556  0.7605  0.2225
 1037SOL    HW114573   4.426   0.921   1.530 -1.1212 -1.2756 -0.7101
 1037SOL    HW214574   4.572   0.933   1.509 -0.3465  1.6088  0.7416
 1038SOL     OW14575   2.653   3.524  10.146  0.0932 -0.2474  0.1898
 1038SOL    HW114576   2.560   3.510  10.127 -0.8664  1.8537  3.4956
 1038SOL    HW214577   2.652   3.553  10.237 -4.7758  0.4482 -0.0962
 1039SOL     OW14578   3.144   0.380  16.045  0.5044  0.5093 -0.5007
 1039SOL    HW114579   3.087   0.436  16.097  0.8452  0.4655 -0.0869
 1039SOL    HW214580   3.145   0.421  15.958 -0.2594  1.3210 -0.1203
 1040SOL     OW14581   4.659   2.323  15.798 -0.0788 -1.0690  0.3837
 1040SOL    HW114582   4.696   2.370  15.872 -1.4011  0.5776 -0.0080
 1040SOL    HW214583   4.674   2.382  15.725  0.0139  0.3399  1.5517
 1041SOL     OW14584   1.460   4.155  16.590 -0.1745 -0.1015  0.2663
 1041SOL    HW114585   1.383   4.201  16.557 -0.8863 -0.2279  1.7449
 1041SOL    HW214586   1.515   4.171  16.514  0.0507 -1.8840  0.0413
 1042SOL     OW14587   3.680   1.223   7.618  0.5409 -0.3939 -0.2454
 1042SOL    HW114588   3.665   1.214   7.713 -1.6410  0.3653 -0.5117
 1042SOL    HW214589   3.599   1.271   7.600  0.9493  0.5437  0.4244
 1043SOL     OW14590   0.236   0.647   7.408 -0.4413  0.3727  0.3507
 1043SOL    HW114591   0.246   0.709   7.336  2.0327  2.0368  2.1176
 1043SOL    HW214592   0.331   0.642   7.418 -0.3792 -2.6108 -1.7404
 1044SOL     OW14593   1.902   3.674   0.624 -0.1023  0.4112  0.1378
 1044SOL    HW114594   1.958   3.750   0.641  0.6630 -0.2438  0.5373
 1044SOL    HW214595   1.820   3.720   0.609 -0.5001 -0.3515  0.0033
 1045SOL     OW14596   3.367   2.467   6.481 -0.0482 -0.4747  0.6235
 1045SOL    HW114597   3.361   2.372   6.491  1.5577 -0.6270  0.0623
 1045SOL    HW214598   3.461   2.484   6.471  0.1848 -0.7079  2.4202
 1046SOL     OW14599   2.733   3.916   2.973  0.5280  0.0818  0.4497
 1046SOL    HW114600   2.662   3.958   3.021 -1.8583 -1.2133 -1.9695
 1046SOL    HW214601   2.796   3.896   3.042  1.8880  3.5626  0.2245
 1047SOL     OW14602   4.171   1.101   2.883  0.2127  0.2364 -0.1568
 1047SOL    HW114603   4.123   1.062   2.956 -0.1380  2.7205  0.9598
 1047SOL    HW214604   4.253   1.132   2.922  1.5208  0.4439 -3.1105
 1048SOL     OW14605   3.282   0.819  14.272 -0.0390  0.3258 -0.0688
 1048SOL    HW114606   3.254   0.908  14.291  1.8296  0.6339  1.2826
 1048SOL    HW214607   3.210   0.789  14.216 -1.7049  1.7086  1.3419
 1049SOL     OW14608   1.959   4.367   8.524 -0.8113 -0.3246  0.3189
 1049SOL    HW114609   1.983   4.279   8.556 -0.4741 -0.6532 -0.8617
 1049SOL    HW214610   2.027   4.374   8.457 -0.3182 -1.4779  0.6924
 1050SOL     OW14611   2.367   3.565   9.764 -0.0066 -0.4114  0.0015
 1050SOL    HW114612   2.432   3.563   9.834  0.0122 -1.6071 -0.0417
 1050SOL    HW214613   2.337   3.656   9.761 -0.6464 -0.5861  0.7783
 1051SOL     OW14614   0.852   0.342  10.539 -0.6599 -0.2211  0.3121
 1051SOL    HW114615   0.758   0.323  10.542 -0.5560 -0.9055 -0.6392
 1051SOL    HW214616   0.876   0.268  10.483 -0.0696  0.3692 -0.2161
 1052SOL     OW14617   3.863   3.117   4.804  0.1712 -0.0672 -0.0140
 1052SOL    HW114618   3.805   3.079   4.738  2.0961 -2.3108 -0.4111
 1052SOL    HW214619   3.932   3.152   4.747 -0.5030  2.2137  0.5563
 1053SOL     OW14620   1.055   2.430  17.449 -0.0318 -0.3414 -0.3513
 1053SOL    HW114621   0.977   2.383  17.477  1.1231 -1.0792  1.6304
 1053SOL    HW214622   1.117   2.357  17.441 -0.7765 -1.0713  0.5636
 1054SOL     OW14623   1.559   4.267   1.277  0.8445  0.3410  0.1131
 1054SOL    HW114624   1.553   4.178   1.310  1.0614  1.3325  2.7972
 1054SOL    HW214625   1.643   4.295   1.313  0.4339  1.1373  0.4572
 1055SOL     OW14626   2.927   1.357   4.134 -0.0944 -0.1792  0.4338
 1055SOL    HW114627   2.921   1.274   4.086 -1.8564 -0.7755  1.6856
 1055SOL    HW214628   2.851   1.345   4.191  0.4018  3.5239  1.8511
 1056SOL     OW14629   2.600   0.357   6.881  0.0638  0.4303  0.3822
 1056SOL    HW114630   2.626   0.279   6.830 -0.4447  0.5139 -0.0012
 1056SOL    HW214631   2.587   0.427   6.817 -2.8981  1.0706  1.7182
 1057SOL     OW14632   1.700   1.974  10.932  0.4634 -0.2473 -0.5054
 1057SOL    HW114633   1.658   2.059  10.923  1.2097 -0.1744 -3.3195
 1057SOL    HW214634   1.795   1.984  10.928  0.4181  0.5429  0.6439
 1058SOL     OW14635   3.487   2.950  13.415  0.0928  0.2308  0.7931
 1058SOL    HW114636   3.546   3.025  13.424  2.3808 -1.1934 -2.4472
 1058SOL    HW214637   3.471   2.929  13.507  1.1246 -2.5289  0.3514
 1059SOL     OW14638   4.538   1.116   4.475  0.0208 -0.0655  0.2274
 1059SOL    HW114639   4.581   1.180   4.531  1.3570  1.0386 -2.0951
 1059SOL    HW214640   4.534   1.154   4.387  1.1195 -1.7280 -0.5489
 1060SOL     OW14641   2.349   3.373   3.413 -0.1557  0.3214 -0.4861
 1060SOL    HW114642   2.320   3.463   3.425 -0.0604  0.2902 -0.0249
 1060SOL    HW214643   2.298   3.327   3.479  0.8640 -1.1308 -0.7079
 1061SOL     OW14644   3.410   3.047   5.674 -0.5406 -0.0724  0.6702
 1061SOL    HW114645   3.346   3.106   5.635  1.4222  1.1882 -0.6045
 1061SOL    HW214646   3.467   3.109   5.718 -0.4762  0.9100 -0.8024
 1062SOL     OW14647   4.116   1.008   9.885 -0.1882  0.1735  0.3850
 1062SOL    HW114648   4.047   0.981   9.825 -0.6284 -0.5978  1.2306
 1062SOL    HW214649   4.151   0.923   9.913  0.8360  1.6384  3.5449
 1063SOL     OW14650   0.504   3.379   7.603  0.1850  0.0442  0.1297
 1063SOL    HW114651   0.450   3.301   7.597  0.6793 -0.2811 -0.0659
 1063SOL    HW214652   0.451   3.440   7.551  0.9731 -0.1549 -0.9079
 1064SOL     OW14653   3.922   0.859   3.146  0.0645  0.3972 -0.3907
 1064SOL    HW114654   3.979   0.932   3.123  1.6098 -0.3409  1.0484
 1064SOL    HW214655   3.998   0.806   3.172  0.5864  2.2107  1.8165
 1065SOL     OW14656   2.301   1.176   9.719  0.1063  0.2445  0.3196
 1065SOL    HW114657   2.328   1.164   9.810 -1.5572 -0.7763  0.6897
 1065SOL    HW214658   2.208   1.153   9.722  0.0984  0.2728  0.2919
 1066SOL     OW14659   3.777   1.276   9.421  0.4527  0.6334 -0.1053
 1066SOL    HW114660   3.760   1.370   9.431 -0.3278  0.7494 -2.5058
 1066SOL    HW214661   3.693   1.240   9.451 -0.0750  1.3974 -0.6662
 1067SOL     OW14662   1.847   3.928  13.773 -0.7483 -0.4960 -0.4018
 1067SOL    HW114663   1.921   3.936  13.833 -0.4552  2.2944 -1.1294
 1067SOL    HW214664   1.779   3.939  13.839 -0.1915 -1.1746  0.2802
 1068SOL     OW14665   1.309   1.041   9.768  0.1645  0.0189 -0.0591
 1068SOL    HW114666   1.284   0.949   9.768  0.3539 -0.0356  1.5976
 1068SOL    HW214667   1.357   1.038   9.852  0.1506  0.8567 -0.0218
 1069SOL     OW14668   0.524   1.997   5.103  0.4920 -0.6805  0.0467
 1069SOL    HW114669   0.546   2.028   5.015 -1.3123  1.8111  0.4761
 1069SOL    HW214670   0.557   1.907   5.103  0.7255 -0.6051  1.1663
 1070SOL     OW14671   2.767   0.034  13.008 -0.0319  0.6050  0.5288
 1070SOL    HW114672   2.858   0.005  13.017  0.2105  0.6862 -1.7891
 1070SOL    HW214673   2.775   0.129  12.999 -0.9335  0.5965 -0.2605
 1071SOL     OW14674   4.056   1.644  15.912  0.1000  0.3426  0.4937
 1071SOL    HW114675   4.007   1.584  15.968  0.4102 -0.3024  0.0764
 1071SOL    HW214676   3.988   1.685  15.859  1.0843 -1.8368 -2.4443
 1072SOL     OW14677   3.689   3.284   2.531 -0.5488 -1.3623 -0.0486
 1072SOL    HW114678   3.699   3.284   2.626 -0.5382 -1.4352 -0.0491
 1072SOL    HW214679   3.644   3.366   2.514  0.8280 -0.6980 -0.4764
 1073SOL     OW14680   2.559   4.143   3.617 -0.4080  0.1128 -0.2655
 1073SOL    HW114681   2.553   4.201   3.693 -1.9464  0.8571 -0.9562
 1073SOL    HW214682   2.639   4.092   3.630 -0.4259  0.4083  0.9659
 1074SOL     OW14683   1.380   0.089   6.937 -0.4913  0.0551 -0.3168
 1074SOL    HW114684   1.288   0.071   6.915  0.0853 -1.3606 -1.5782
 1074SOL    HW214685   1.413   4.719   6.936  0.8721  0.5574 -0.9461
 1075SOL     OW14686   4.412   1.130   5.157 -0.2583  0.6407  0.4456
 1075SOL    HW114687   4.462   1.094   5.230 -1.0099 -0.8224  0.2244
 1075SOL    HW214688   4.457   1.213   5.143 -2.3802  1.9149  1.0809
 1076SOL     OW14689   0.401   1.959   8.991 -0.4015  1.0619  0.3701
 1076SOL    HW114690   0.354   2.042   8.984 -0.1873  1.2490  1.2060
 1076SOL    HW214691   0.443   1.962   9.076  1.8701 -1.6375 -0.6550
 1077SOL     OW14692   2.665   0.644   3.758  0.1275 -0.5678 -0.2058
 1077SOL    HW114693   2.722   0.627   3.683 -0.2028  2.5328 -1.1650
 1077SOL    HW214694   2.675   0.564   3.809 -1.7766 -0.7319 -0.1091
 1078SOL     OW14695   2.920   3.843   8.713 -0.2689 -0.0886  0.3689
 1078SOL    HW114696   2.938   3.760   8.757  1.4913 -0.1680 -0.5155
 1078SOL    HW214697   2.986   3.894   8.759 -0.1476  1.5649 -1.6593
 1079SOL     OW14698   1.796   4.557   7.442 -0.3028  0.2279 -0.1808
 1079SOL    HW114699   1.770   4.613   7.368  1.5717  0.8795 -0.3383
 1079SOL    HW214700   1.804   4.611   7.521 -1.3241  0.6978 -0.3919
 1080SOL     OW14701   2.565   2.776  10.569  0.5352  0.0990  0.0579
 1080SOL    HW114702   2.563   2.772  10.665 -0.2132 -1.0624 -0.0034
 1080SOL    HW214703   2.612   2.858  10.555  0.0288  0.0606 -1.8625
 1081SOL     OW14704   3.640   3.840   4.307  0.2395  0.0576  0.0224
 1081SOL    HW114705   3.645   3.917   4.251  2.2090 -2.4772 -3.2325
 1081SOL    HW214706   3.732   3.844   4.331  0.5697 -4.6355 -0.4944
 1082SOL     OW14707   1.730   2.896   6.838 -0.3251 -0.4109 -0.4555
 1082SOL    HW114708   1.638   2.904   6.859 -0.6605  0.9664 -2.3953
 1082SOL    HW214709   1.749   2.860   6.925 -0.0716  0.4243 -0.1666
 1083SOL     OW14710   3.586   1.225   2.724 -0.3648 -0.2534 -0.0281
 1083SOL    HW114711   3.576   1.149   2.782 -1.2096 -0.6286 -0.6624
 1083SOL    HW214712   3.679   1.218   2.704 -0.1386  0.4853  0.7501
 1084SOL     OW14713   4.058   0.645   0.614 -0.1794 -0.1016 -0.0270
 1084SOL    HW114714   4.007   0.681   0.686  0.9711 -0.2625  0.8801
 1084SOL    HW214715   4.025   0.555   0.611  0.1116 -0.1655 -1.2809
 1085SOL     OW14716   3.004   0.283   8.741 -0.3055  0.2251  0.1925
 1085SOL    HW114717   2.925   0.242   8.706 -0.5940 -0.1656  1.3067
 1085SOL    HW214718   3.006   0.254   8.832 -1.1637 -0.0226  0.1264
 1086SOL     OW14719   2.043   0.095   4.915 -0.0361  0.3145 -0.1373
 1086SOL    HW114720   2.098   0.106   4.837  1.0303 -1.5724  0.3515
 1086SOL    HW214721   1.976   0.164   4.917  0.1368  0.4597  0.6604
 1087SOL     OW14722   4.251   2.542   7.217 -0.2029 -0.0404 -0.2820
 1087SOL    HW114723   4.270   2.614   7.158 -0.2115 -0.3523 -0.6669
 1087SOL    HW214724   4.191   2.583   7.279 -0.1445 -0.5587  0.1215
 1088SOL     OW14725   3.154   1.153  11.358  0.0106 -0.4569 -0.4467
 1088SOL    HW114726   3.079   1.213  11.357 -0.1625 -0.6339  2.4151
 1088SOL    HW214727   3.122   1.088  11.419  0.0455  0.1273  0.1966
 1089SOL     OW14728   4.407   1.279   1.907  0.3930 -0.9804  0.8516
 1089SOL    HW114729   4.347   1.227   1.853  0.1156  1.8106 -1.5174
 1089SOL    HW214730   4.374   1.263   1.996 -3.6663  1.2031 -0.2310
 1090SOL     OW14731   3.817   0.803   7.007 -0.2140  0.4269  0.2281
 1090SOL    HW114732   3.773   0.827   7.089 -0.0375  0.1197  0.4111
 1090SOL    HW214733   3.793   0.711   7.003  1.1944  0.0594  0.3056
 1091SOL     OW14734   0.218   3.081  16.080  0.1075 -0.0528 -0.6710
 1091SOL    HW114735   0.259   3.166  16.064  0.4412 -0.9571 -4.6695
 1091SOL    HW214736   0.156   3.083  16.007 -1.2661 -2.3133  0.4185
 1092SOL     OW14737   3.229   2.652   7.522  0.2855  0.0160  0.5799
 1092SOL    HW114738   3.144   2.618   7.549  0.5567 -0.7481  0.4704
 1092SOL    HW214739   3.225   2.638   7.427  1.5438  0.1763  0.5062
 1093SOL     OW14740   4.308   3.900   9.829 -0.5114 -0.0407 -0.3919
 1093SOL    HW114741   4.326   3.808   9.847  1.2966  0.5295  0.7077
 1093SOL    HW214742   4.374   3.937   9.888 -0.6439  4.2556 -2.9526
 1094SOL     OW14743   1.115   0.869   4.485 -0.7876 -0.1036 -0.0402
 1094SOL    HW114744   1.119   0.919   4.404 -0.8233 -1.8242 -1.1181
 1094SOL    HW214745   1.088   0.937   4.547 -0.5927  0.6141 -0.7490
 1095SOL     OW14746   2.767   3.921   0.466 -0.2358  0.1885  0.0181
 1095SOL    HW114747   2.810   3.906   0.381 -0.4267 -3.5996  0.5893
 1095SOL    HW214748   2.693   3.979   0.446 -0.9581 -0.7689 -0.0891
 1096SOL     OW14749   2.365   1.984   3.101  0.7872  0.2565  0.6051
 1096SOL    HW114750   2.307   1.967   3.175 -0.0138 -0.4997 -0.2090
 1096SOL    HW214751   2.318   2.053   3.054 -0.9128 -1.4725 -0.2298
 1097SOL     OW14752   2.333   2.262   9.529  0.4370  0.4548  0.5511
 1097SOL    HW114753   2.365   2.299   9.612  0.5711  1.4445  0.0619
 1097SOL    HW214754   2.278   2.326   9.484  0.9472  0.4795 -0.0356
 1098SOL     OW14755   1.390   1.515   6.020  0.2305  0.3496  0.3921
 1098SOL    HW114756   1.432   1.429   6.012  0.7846  0.8338 -1.7164
 1098SOL    HW214757   1.466   1.574   6.020 -0.2769  0.9819 -0.6677
 1099SOL     OW14758   3.553   0.518   3.676 -0.0101  0.5998  0.0621
 1099SOL    HW114759   3.631   0.534   3.623 -2.2004  1.6799 -2.8323
 1099SOL    HW214760   3.488   0.522   3.606  1.1030 -2.9188 -1.1763
 1100SOL     OW14761   1.199   2.291   5.122  0.4573 -0.3163 -0.0669
 1100SOL    HW114762   1.125   2.330   5.077  0.4948 -0.4610 -0.2565
 1100SOL    HW214763   1.228   2.224   5.060 -1.0875 -1.1948  0.1723
 1101SOL     OW14764   1.180   2.018   2.010  0.1054 -0.8327  0.4300
 1101SOL    HW114765   1.161   1.990   1.920 -2.7213 -0.4878  0.8963
 1101SOL    HW214766   1.093   2.051   2.033 -0.0787 -1.2481  0.3400
 1102SOL     OW14767   4.005   1.951   1.744  0.2437  0.1785  0.7712
 1102SOL    HW114768   3.969   1.941   1.832  3.4136  0.0649  2.0213
 1102SOL    HW214769   4.047   2.037   1.736 -2.1460  1.0941 -2.2673
 1103SOL     OW14770   4.213   0.308   5.440 -0.2803 -0.2142  0.3080
 1103SOL    HW114771   4.175   0.396   5.435  0.1135 -0.0982 -0.5501
 1103SOL    HW214772   4.257   0.327   5.523 -0.3269 -0.0022  0.2850
 1104SOL     OW14773   3.494   3.274   0.126 -0.4267  0.6732  0.5701
 1104SOL    HW114774   3.418   3.289   0.070 -1.4660  0.3883  1.9281
 1104SOL    HW214775   3.450   3.221   0.192 -0.6005  0.5904  0.3851
 1105SOL     OW14776   0.544   3.656   0.303 -0.2338  0.5196 -0.3522
 1105SOL    HW114777   0.556   3.563   0.319 -0.7563  1.0296  2.8652
 1105SOL    HW214778   0.610   3.689   0.364  2.0922 -0.5961 -2.2093
 1106SOL     OW14779   1.457   2.723  11.726 -0.4194  0.4854 -0.1497
 1106SOL    HW114780   1.448   2.754  11.636  0.1219 -0.0825 -0.3997
 1106SOL    HW214781   1.458   2.803  11.779  0.1035 -0.0713  0.6739
 1107SOL     OW14782   1.381   3.496   2.881 -0.2295  0.1238 -0.5671
 1107SOL    HW114783   1.404   3.589   2.885  1.1179 -0.2926  1.6233
 1107SOL    HW214784   1.383   3.474   2.788 -2.1955  0.2080 -0.6466
 1108SOL     OW14785   1.098   3.024  11.230 -0.2400  0.0710  0.1332
 1108SOL    HW114786   1.116   3.007  11.322 -0.5618  1.1587  0.3967
 1108SOL    HW214787   1.016   2.974  11.221 -1.3819  1.6975  1.4524
 1109SOL     OW14788   3.259   0.101  17.363  0.1219  0.8523 -0.2073
 1109SOL    HW114789   3.295   0.021  17.325 -0.6705  0.8479 -0.9501
 1109SOL    HW214790   3.345   0.139  17.377  1.7731 -2.8573 -0.2606
 1110SOL     OW14791   4.015   2.321   4.749 -0.2528 -0.1366  0.3177
 1110SOL    HW114792   4.015   2.304   4.654 -2.1557 -0.7566  0.4322
 1110SOL    HW214793   4.080   2.391   4.747 -0.3579 -0.0037  1.9107
 1111SOL     OW14794   2.722   0.593   5.586 -0.5287 -0.7547  0.3460
 1111SOL    HW114795   2.629   0.606   5.568 -0.1055  0.4597 -1.0551
 1111SOL    HW214796   2.760   0.672   5.545 -0.8622 -0.8207 -0.0927
 1112SOL     OW14797   4.493   1.267  17.527 -0.2008 -0.0648  0.3743
 1112SOL    HW114798   4.518   1.202  17.592 -0.9509 -1.8753 -1.1476
 1112SOL    HW214799   4.545   1.236  17.452 -1.5188 -2.2422  0.3467
 1113SOL     OW14800   1.682   2.542  14.328 -0.1203 -0.3377 -0.6496
 1113SOL    HW114801   1.739   2.473  14.294 -0.7287 -1.2052  0.0801
 1113SOL    HW214802   1.735   2.619  14.309 -0.4937  0.0331 -0.2010
 1114SOL     OW14803   3.219   2.211   5.444  0.1460  0.0978 -0.0979
 1114SOL    HW114804   3.128   2.215   5.473  0.0487 -0.3711 -0.3322
 1114SOL    HW214805   3.246   2.302   5.457  1.6578 -0.4821  0.8268
 1115SOL     OW14806   2.630   1.055   5.274 -0.0020 -0.1404 -0.3710
 1115SOL    HW114807   2.593   1.116   5.210  0.4692  0.9246  0.3677
 1115SOL    HW214808   2.707   1.020   5.228 -0.6101 -1.8931 -0.0521
 1116SOL     OW14809   1.404   3.928   7.510  0.4932 -0.0957 -0.2109
 1116SOL    HW114810   1.463   3.947   7.583  0.7279  0.7020 -0.6028
 1116SOL    HW214811   1.396   3.833   7.521  0.1785 -0.0858 -0.3610
 1117SOL     OW14812   0.222   4.322  17.293 -0.8951  0.2277  0.5588
 1117SOL    HW114813   0.315   4.313  17.273 -0.6716  1.8490  0.8548
 1117SOL    HW214814   0.196   4.230  17.294  2.2726 -0.6814 -0.8589
 1118SOL     OW14815   1.619   0.372   2.009 -0.3456  0.7143  0.1123
 1118SOL    HW114816   1.568   0.332   1.938  0.6593 -1.6964  0.7573
 1118SOL    HW214817   1.698   0.319   2.013 -0.2965  0.7317 -0.6111
 1119SOL     OW14818   2.507   2.849   8.871  0.1713 -0.9729 -0.2559
 1119SOL    HW114819   2.460   2.882   8.947 -1.0766 -1.0009 -1.0324
 1119SOL    HW214820   2.581   2.814   8.921  1.2338 -2.2703 -2.7226
 1120SOL     OW14821   3.084   1.703   9.051  0.1100  0.7328  0.4881
 1120SOL    HW114822   3.095   1.679   9.143 -0.7053  0.4991  0.5262
 1120SOL    HW214823   3.065   1.796   9.055 -0.3465  0.6009  1.4336
 1121SOL     OW14824   4.381   1.792   3.554  0.5573  0.6490  0.5482
 1121SOL    HW114825   4.358   1.799   3.647 -1.1602 -0.1643  0.1881
 1121SOL    HW214826   4.331   1.861   3.510  1.1414  0.3371 -0.5852
 1122SOL     OW14827   4.011   0.324  13.961  0.1587  0.0932  0.5130
 1122SOL    HW114828   4.095   0.355  13.926  0.9296 -0.9641  1.4109
 1122SOL    HW214829   3.981   0.408  13.994  0.9033  0.8140 -0.6149
 1123SOL     OW14830   1.911   1.229   1.937 -0.6417 -0.2724  0.0795
 1123SOL    HW114831   1.928   1.149   1.986 -0.3544  0.5876  1.3686
 1123SOL    HW214832   1.880   1.188   1.856 -1.5301  1.7625 -0.6094
 1124SOL     OW14833   3.639   3.756   0.936 -0.1483 -0.6807  0.0385
 1124SOL    HW114834   3.569   3.727   0.994  0.5221 -3.2814 -0.4328
 1124SOL    HW214835   3.615   3.848   0.927  1.4705 -0.3446 -1.0139
 1125SOL     OW14836   3.332   4.686  17.623  0.0700  0.0386 -0.0856
 1125SOL    HW114837   3.322   4.592  17.613  0.0135 -0.1389  1.6206
 1125SOL    HW214838   3.307   4.715  17.535  1.1435 -1.1791 -0.7884
 1126SOL     OW14839   1.913   3.369   5.283  0.2785 -0.2921  0.7196
 1126SOL    HW114840   1.932   3.340   5.372 -0.6231 -2.0787  0.3413
 1126SOL    HW214841   1.818   3.381   5.291 -0.1211 -2.7488 -0.3268
 1127SOL     OW14842   0.671   4.491  11.709  0.4043  0.5362 -0.3426
 1127SOL    HW114843   0.724   4.538  11.643  2.9444  0.8257  1.8805
 1127SOL    HW214844   0.735   4.437  11.755 -0.8080  0.3960  1.1630
 1128SOL     OW14845   0.959   3.162   3.894 -0.0615 -0.1360 -0.4082
 1128SOL    HW114846   1.017   3.206   3.831  0.5347  0.3311  0.4747
 1128SOL    HW214847   0.874   3.205   3.888 -0.3306 -0.7173 -0.7475
 1129SOL     OW14848   0.170   0.286   1.234 -0.4017 -0.0748  0.3919
 1129SOL    HW114849   0.118   0.221   1.187 -1.3133  0.3197  0.8558
 1129SOL    HW214850   0.123   0.302   1.316 -0.5893 -1.6739  0.5991
 1130SOL     OW14851   1.194   2.009   9.847  0.1821 -0.5283  0.5510
 1130SOL    HW114852   1.164   1.922   9.873  0.5402 -1.5456 -2.4544
 1130SOL    HW214853   1.245   2.045   9.919  2.3024 -1.4082 -0.5043
 1131SOL     OW14854   3.094   0.364   6.777 -0.0631  0.1253  0.1108
 1131SOL    HW114855   3.123   0.389   6.689  0.7696  2.3797  1.0417
 1131SOL    HW214856   3.020   0.420   6.799 -0.2436  0.0392 -0.2637
 1132SOL     OW14857   0.969   4.651   2.319 -0.0541 -0.3518  0.8102
 1132SOL    HW114858   0.902   4.719   2.313  1.5934  1.1457 -0.4196
 1132SOL    HW214859   1.027   4.687   2.385  1.1113  2.3190 -1.6942
 1133SOL     OW14860   0.271   3.579   8.182  1.4773 -0.0604  0.7582
 1133SOL    HW114861   0.242   3.488   8.176 -1.8777  0.9343  1.7318
 1133SOL    HW214862   0.263   3.577   8.278  0.2554  0.3334  0.6609
 1134SOL     OW14863   3.987   1.624   9.323  0.1696 -0.1329 -0.9400
 1134SOL    HW114864   3.924   1.695   9.333 -0.6087 -0.8829 -0.5445
 1134SOL    HW214865   4.041   1.663   9.392 -2.2607  0.1501  0.8002
 1135SOL     OW14866   1.839   3.191  14.145 -0.1029  0.4150  0.5876
 1135SOL    HW114867   1.925   3.222  14.172 -0.6327  1.8429  0.6328
 1135SOL    HW214868   1.772   3.218  14.208  0.3844  0.9646  0.8590
 1136SOL     OW14869   0.055   0.623   5.532 -0.2886  0.0446  0.3304
 1136SOL    HW114870   4.681   0.627   5.514  0.1090  0.6975 -1.5541
 1136SOL    HW214871   0.079   0.540   5.492 -1.6759 -1.0218  1.7193
 1137SOL     OW14872   1.074   0.601   4.389 -0.0229 -0.4920 -0.2135
 1137SOL    HW114873   1.166   0.600   4.414  0.1552  1.4076 -0.7920
 1137SOL    HW214874   1.058   0.695   4.397 -0.7914 -0.5083 -1.5421
 1138SOL     OW14875   0.913   0.336   1.898 -0.3728  0.2144 -0.3930
 1138SOL    HW114876   0.897   0.425   1.929 -0.5010  0.1420 -0.2540
 1138SOL    HW214877   0.859   0.344   1.819  1.9090  2.4349 -1.7300
 1139SOL     OW14878   0.562   2.862   2.118 -0.6125  0.8139  0.0178
 1139SOL    HW114879   0.554   2.781   2.169  0.2934  2.0055  2.0493
 1139SOL    HW214880   0.653   2.874   2.146 -0.1516  1.5800 -1.7854
 1140SOL     OW14881   1.119   3.923   3.841 -0.4716  0.1992 -0.3384
 1140SOL    HW114882   1.059   3.961   3.777  2.1377 -1.1188 -3.5680
 1140SOL    HW214883   1.200   3.973   3.835 -1.0432  0.9349 -1.8058
 1141SOL     OW14884   0.513   2.825  13.475 -0.3921 -0.0148 -0.0714
 1141SOL    HW114885   0.512   2.906  13.526  1.7112 -1.3378  2.0642
 1141SOL    HW214886   0.471   2.861  13.397 -2.0083  0.1464  0.8838
 1142SOL     OW14887   1.537   0.358   1.410 -0.1119  0.3737  0.0792
 1142SOL    HW114888   1.600   0.374   1.480  0.2301 -2.0800  0.3422
 1142SOL    HW214889   1.459   0.350   1.466 -0.1151 -0.2121 -0.0039
 1143SOL     OW14890   0.679   1.607   2.921 -0.4023  0.6211  0.2505
 1143SOL    HW114891   0.650   1.543   2.855  0.1111  1.1432 -0.4855
 1143SOL    HW214892   0.764   1.638   2.889  0.1647  0.6108  1.7492
 1144SOL     OW14893   2.310   3.120   4.611 -0.1294  0.0849  0.3751
 1144SOL    HW114894   2.402   3.133   4.589 -0.5189  2.0607 -0.0845
 1144SOL    HW214895   2.275   3.038   4.575 -0.1277  1.2596 -2.3100
 1145SOL     OW14896   2.560   2.519  14.722 -0.2492  0.4719  0.4483
 1145SOL    HW114897   2.475   2.503  14.763 -0.5553 -0.6027 -0.5836
 1145SOL    HW214898   2.605   2.452  14.772 -1.1502  0.1792  0.8643
 1146SOL     OW14899   3.447   1.602  13.517 -0.2182 -0.4850 -0.2567
 1146SOL    HW114900   3.444   1.635  13.607 -0.2446  3.1275 -1.5537
 1146SOL    HW214901   3.427   1.677  13.461  1.1846 -1.4488 -2.0430
 1147SOL     OW14902   2.974   1.451   4.524 -0.0205 -0.1157  0.1802
 1147SOL    HW114903   2.963   1.539   4.487 -0.2938  0.3624  1.4010
 1147SOL    HW214904   3.047   1.456   4.586 -0.7218  0.5632  0.9528
 1148SOL     OW14905   3.769   2.778   6.523  0.0646 -0.2733 -0.1667
 1148SOL    HW114906   3.687   2.802   6.480 -0.3023 -0.1441  0.5966
 1148SOL    HW214907   3.765   2.842   6.594  1.1150 -0.4015  0.0015
 1149SOL     OW14908   0.114   4.013   2.899  0.3288  0.1134 -0.6566
 1149SOL    HW114909   0.047   4.051   2.841 -1.3466 -0.9851  0.5882
 1149SOL    HW214910   0.179   4.083   2.886 -0.1421  0.5311 -0.8005
 1150SOL     OW14911   3.344   4.161   1.033  0.1138 -0.0229  0.6007
 1150SOL    HW114912   3.273   4.133   1.091  0.3463  0.2460  1.0150
 1150SOL    HW214913   3.382   4.235   1.081  2.1221 -0.1921 -0.7233
 1151SOL     OW14914   4.425   2.454   2.873 -0.2454 -0.4015 -0.1437
 1151SOL    HW114915   4.418   2.360   2.861  1.1753 -0.6426  0.8613
 1151SOL    HW214916   4.378   2.470   2.955  0.4691  1.5280 -0.1119
 1152SOL     OW14917   0.606   3.567   2.474 -0.2536 -0.4128 -0.2794
 1152SOL    HW114918   0.656   3.631   2.525 -0.0318  1.0824 -2.4006
 1152SOL    HW214919   0.518   3.599   2.493 -0.2311  0.1877 -1.2347
 1153SOL     OW14920   0.992   1.975   8.493  0.2106 -0.0914  0.0893
 1153SOL    HW114921   1.032   2.001   8.410 -1.2159 -1.2825 -0.9784
 1153SOL    HW214922   1.040   2.029   8.555 -0.6403  1.0766 -0.2624
 1154SOL     OW14923   2.277   1.439   5.409  0.3632 -0.0373 -0.1617
 1154SOL    HW114924   2.243   1.522   5.442 -2.3539 -1.9545  1.9489
 1154SOL    HW214925   2.360   1.429   5.455  1.1706  0.3421 -1.5488
 1155SOL     OW14926   3.433   2.570   2.641  0.4391 -0.4772 -0.0771
 1155SOL    HW114927   3.353   2.534   2.603  0.5786 -0.3489 -0.4854
 1155SOL    HW214928   3.411   2.588   2.733  1.6111  1.9042 -0.2660
 1156SOL     OW14929   1.750   4.615   0.072  0.4197  0.1659 -0.1311
 1156SOL    HW114930   1.738   4.708   0.052 -1.4821 -0.0033  0.1576
 1156SOL    HW214931   1.677   4.572   0.027 -0.1940  1.1023 -0.0477
 1157SOL     OW14932   3.879   3.787   3.847  0.3346 -0.0216 -0.2027
 1157SOL    HW114933   3.888   3.706   3.897  0.1884 -0.1206 -0.3368
 1157SOL    HW214934   3.881   3.760   3.756 -1.5086  1.6323 -0.7377
 1158SOL     OW14935   2.011   4.011  16.996  0.2880  0.1305  0.1097
 1158SOL    HW114936   2.029   4.027  16.903  1.6342  1.5532  0.5975
 1158SOL    HW214937   2.014   3.916  16.989 -3.4877 -0.0774  1.2446
 1159SOL     OW14938   0.973   1.065   8.342 -0.2358  0.1475  0.1482
 1159SOL    HW114939   0.962   0.989   8.285 -2.9323  1.0680 -0.5420
 1159SOL    HW214940   1.018   1.020   8.414 -1.8522 -1.6124  0.0463
 1160SOL     OW14941   4.145   1.111   5.222 -0.2491  1.1284 -0.4256
 1160SOL    HW114942   4.142   1.028   5.270 -0.4652  1.1407 -0.4206
 1160SOL    HW214943   4.233   1.141   5.244 -0.1173  0.5737 -0.1817
 1161SOL     OW14944   2.103   0.682   7.383 -0.4331 -0.2741 -0.9141
 1161SOL    HW114945   2.090   0.588   7.377  1.6590 -0.6889  0.9794
 1161SOL    HW214946   2.147   0.700   7.466  0.5164 -1.5688 -1.1459
 1162SOL     OW14947   3.783   0.568  10.588 -0.3651  0.2228  0.8233
 1162SOL    HW114948   3.876   0.573  10.568 -0.5558  2.4069  0.4418
 1162SOL    HW214949   3.749   0.574  10.498 -0.9415  0.6105  1.0654
 1163SOL     OW14950   2.369   1.377   5.149 -0.6076  0.0307 -0.2802
 1163SOL    HW114951   2.285   1.419   5.130 -0.2942  0.7727 -0.0403
 1163SOL    HW214952   2.369   1.392   5.244  1.2121 -1.4742 -0.0321
 1164SOL     OW14953   1.354   4.705   7.573  0.0404  0.1212 -0.0512
 1164SOL    HW114954   1.300   0.062   7.557  0.7179  0.6590  0.2973
 1164SOL    HW214955   1.438   0.010   7.534 -0.8108  1.9226 -0.7371
 1165SOL     OW14956   0.126   0.523   8.146 -0.2216 -0.1379 -0.2578
 1165SOL    HW114957   0.203   0.517   8.203 -0.9113  0.3930  0.7120
 1165SOL    HW214958   0.050   0.485   8.188 -2.4402  1.2261 -3.0144
 1166SOL     OW14959   3.412   4.161   4.130  0.6157 -0.3244 -0.2290
 1166SOL    HW114960   3.412   4.250   4.165  1.4211  0.0539 -1.1786
 1166SOL    HW214961   3.505   4.142   4.145  0.2651  0.1002  2.5018
 1167SOL     OW14962   2.287   2.463   2.011 -0.1198 -0.0978  0.2533
 1167SOL    HW114963   2.362   2.442   1.957 -0.5014 -1.6431  0.3289
 1167SOL    HW214964   2.266   2.371   2.027 -3.1755  0.1156 -2.4097
 1168SOL     OW14965   4.376   3.059   1.122 -0.0240 -0.2353  0.2258
 1168SOL    HW114966   4.380   3.071   1.027 -2.6729  2.3283  0.4531
 1168SOL    HW214967   4.291   3.096   1.145  0.3884  1.6989 -1.3400
 1169SOL     OW14968   1.384   1.202  16.800 -0.1039 -0.1828  0.7913
 1169SOL    HW114969   1.400   1.217  16.706 -0.5618  1.1688  0.9328
 1169SOL    HW214970   1.471   1.223  16.835 -1.0633  0.0323  2.9984
 1170SOL     OW14971   4.281   4.541  10.737  0.0513  0.5448 -0.6902
 1170SOL    HW114972   4.344   4.478  10.772 -0.0054  0.1121 -1.3773
 1170SOL    HW214973   4.319   4.546  10.649 -0.9032 -1.3052 -1.2054
 1171SOL     OW14974   1.576   3.633   5.677  0.4037 -0.1080  0.7158
 1171SOL    HW114975   1.557   3.559   5.735 -0.0206  1.5537  2.7179
 1171SOL    HW214976   1.492   3.655   5.637  0.4939 -0.4431  0.3479
 1172SOL     OW14977   2.759   1.798   5.446  0.4325 -0.5835  0.1281
 1172SOL    HW114978   2.685   1.746   5.477 -1.1086  1.2033 -0.5776
 1172SOL    HW214979   2.818   1.724   5.432  0.3834 -0.2317 -1.8339
 1173SOL     OW14980   2.632   3.092   0.010 -0.3325 -0.1622 -1.1635
 1173SOL    HW114981   2.726   3.107   0.023 -0.5941  0.6645 -0.1917
 1173SOL    HW214982   2.633   3.013   0.065 -1.3755  0.0602 -0.8280
 1174SOL     OW14983   4.299   0.032   7.009  0.4423 -0.2532  0.5836
 1174SOL    HW114984   4.229   4.710   6.960 -0.0757 -0.7654  1.7626
 1174SOL    HW214985   4.288   0.123   6.981 -0.7671 -1.6323 -3.4095
 1175SOL     OW14986   2.395   0.109  13.229  0.5488 -0.2079  0.2736
 1175SOL    HW114987   2.304   0.105  13.257  0.4115  0.8237 -0.0369
 1175SOL    HW214988   2.404   0.020  13.194 -0.4888 -0.1384 -0.1610
 1176SOL     OW14989   1.559   4.254   7.108  0.2115 -0.4795  0.6167
 1176SOL    HW114990   1.537   4.211   7.191  0.8623 -1.4036  0.3056
 1176SOL    HW214991   1.653   4.240   7.116  0.0249 -0.7654  2.4276
 1177SOL     OW14992   1.284   3.090  17.478  0.2132 -0.5072  0.3530
 1177SOL    HW114993   1.293   3.155  17.408 -1.5350 -2.1699 -1.3957
 1177SOL    HW214994   1.198   3.057  17.451  0.2856 -0.0574 -0.4292
 1178SOL     OW14995   0.081   1.458   5.897 -0.6192  0.7539  0.7945
 1178SOL    HW114996   0.092   1.481   5.990 -1.5813  0.5350  0.9587
 1178SOL    HW214997   0.017   1.388   5.907 -1.5083  1.4998  0.2800
 1179SOL     OW14998   2.135   0.856   4.511  0.3367  0.3948  0.2067
 1179SOL    HW114999   2.156   0.786   4.572 -3.0247  0.2350  1.1743
 1179SOL    HW215000   2.040   0.855   4.519  0.3638 -0.0341  0.4703
 1180SOL     OW15001   3.354   3.202   6.210 -0.0128  0.0448  0.2353
 1180SOL    HW115002   3.446   3.222   6.224 -0.1299  1.0525 -0.3959
 1180SOL    HW215003   3.347   3.212   6.115 -0.2000  2.3697  0.4732
 1181SOL     OW15004   3.586   1.946  16.848 -0.3987 -0.3056  0.0003
 1181SOL    HW115005   3.594   1.922  16.755 -2.4687 -1.1716  0.0472
 1181SOL    HW215006   3.670   1.916  16.883 -0.7074 -0.6452  0.4424
 1182SOL     OW15007   2.183   0.634  15.766 -0.0043  0.2760  0.3312
 1182SOL    HW115008   2.208   0.598  15.680  2.3034 -2.2769  2.0735
 1182SOL    HW215009   2.124   0.704  15.738 -0.3553 -1.0600 -2.2859
 1183SOL     OW15010   0.659   1.268   6.224  0.0256  0.0498 -0.2907
 1183SOL    HW115011   0.724   1.259   6.155  1.6710 -0.4640  1.3094
 1183SOL    HW215012   0.606   1.195   6.193 -0.2837  0.8515 -1.6481
 1184SOL     OW15013   3.974   4.252   0.731 -0.0652 -0.0329 -0.1067
 1184SOL    HW115014   3.968   4.330   0.785  0.2296  0.0224 -0.1535
 1184SOL    HW215015   3.889   4.211   0.744 -0.0115 -0.8750 -2.3230
 1185SOL     OW15016   3.086   3.520   4.978 -0.0357  0.4655  0.0638
 1185SOL    HW115017   3.114   3.432   4.956  1.9315  0.3140  3.2187
 1185SOL    HW215018   3.001   3.504   5.021  0.8035  0.8236  1.8726
 1186SOL     OW15019   3.022   2.709   2.804 -0.0440  0.0722  0.0252
 1186SOL    HW115020   3.008   2.718   2.710 -0.6632 -0.8026  0.0243
 1186SOL    HW215021   3.036   2.800   2.827 -1.6537  0.1043  0.9129
 1187SOL     OW15022   0.975   3.254  10.753  0.0778  0.0695 -0.0731
 1187SOL    HW115023   0.913   3.184  10.730 -0.7445 -0.0340  2.5036
 1187SOL    HW215024   1.054   3.235  10.703  0.8519  2.5198  0.2218
 1188SOL     OW15025   1.131   0.450  10.228 -0.2891  0.1526  0.2305
 1188SOL    HW115026   1.178   0.454  10.312 -0.9128  1.2009  0.5313
 1188SOL    HW215027   1.202   0.417  10.173 -2.1874 -1.3037 -1.3354
 1189SOL     OW15028   4.108   0.234   5.742  0.1303 -0.2871  0.4477
 1189SOL    HW115029   4.048   0.300   5.776  0.6560 -0.3336  1.4698
 1189SOL    HW215030   4.042   0.172   5.711 -0.8116  0.4472  0.9932
 1190SOL     OW15031   0.524   2.691   6.313  0.6953 -0.6340 -0.0020
 1190SOL    HW115032   0.575   2.771   6.304  1.5441 -1.1409  0.3264
 1190SOL    HW215033   0.523   2.680   6.408 -0.7469 -1.8095 -0.1376
 1191SOL     OW15034   1.325   0.987   0.122  0.6047 -0.2588  0.3105
 1191SOL    HW115035   1.414   0.961   0.095  0.3535 -0.3888 -0.3995
 1191SOL    HW215036   1.286   0.960   0.039  0.6729  1.9636 -0.4273
 1192SOL     OW15037   1.003   1.026   6.917 -0.2559  0.7796  0.7577
 1192SOL    HW115038   0.927   1.035   6.974 -2.0557  0.4357 -1.5562
 1192SOL    HW215039   0.965   1.014   6.830  0.4676 -2.1571  0.8421
 1193SOL     OW15040   2.924   1.129  11.747 -0.3075  0.5790 -0.8838
 1193SOL    HW115041   2.945   1.042  11.780 -0.1508  0.3047 -1.7141
 1193SOL    HW215042   2.883   1.172  11.822  3.1059  1.8344  0.2572
 1194SOL     OW15043   2.217   2.972   6.360 -0.3533 -0.5009 -0.7820
 1194SOL    HW115044   2.211   3.062   6.329 -0.6684 -0.3324 -0.2438
 1194SOL    HW215045   2.131   2.957   6.400  0.8497 -3.6307  0.6747
 1195SOL     OW15046   3.553   1.008  10.662 -0.8066  0.0331 -0.1908
 1195SOL    HW115047   3.527   0.949  10.732  0.2855  0.4853  0.5916
 1195SOL    HW215048   3.621   0.961  10.613  0.2191 -0.2128  1.4632
 1196SOL     OW15049   3.738   4.623   7.314 -0.0322 -0.0772 -0.1723
 1196SOL    HW115050   3.686   4.561   7.263 -0.5245  0.6543 -0.5519
 1196SOL    HW215051   3.748   4.698   7.255 -0.3378  0.7149  0.7886
 1197SOL     OW15052   3.514   1.587  11.941  0.1056  0.1461  1.0325
 1197SOL    HW115053   3.441   1.548  11.990 -0.4711  2.3385  1.9033
 1197SOL    HW215054   3.581   1.557  12.003  0.1830 -0.8150  0.4812
 1198SOL     OW15055   0.482   3.639   8.628 -0.1935  0.2880  0.2157
 1198SOL    HW115056   0.573   3.624   8.651 -0.1479 -1.3362 -1.0237
 1198SOL    HW215057   0.450   3.660   8.715  0.6911 -2.5729  1.2142
 1199SOL     OW15058   2.220   4.222  14.710 -0.7671 -0.2744  0.8034
 1199SOL    HW115059   2.312   4.194  14.707 -1.6883 -3.3321  1.4394
 1199SOL    HW215060   2.203   4.214  14.804 -1.8410 -0.7068  0.5700
 1200SOL     OW15061   3.868   4.359   2.003 -0.0058  0.6462 -0.3340
 1200SOL    HW115062   3.899   4.282   1.955 -2.2447  0.4002 -1.4122
 1200SOL    HW215063   3.856   4.411   1.923 -1.7829 -0.0861 -0.5521
 1201SOL     OW15064   0.690   4.134   0.642 -0.8386 -0.0477  0.4331
 1201SOL    HW115065   0.738   4.053   0.661 -0.2386  0.1449 -0.2392
 1201SOL    HW215066   0.741   4.205   0.681 -0.0071 -1.4299  1.8645
 1202SOL     OW15067   3.269   1.533   5.392  0.1442  0.2680  0.2483
 1202SOL    HW115068   3.260   1.491   5.478  0.9915 -1.0026 -0.2786
 1202SOL    HW215069   3.315   1.612   5.416  1.7009 -1.0788  1.6900
 1203SOL     OW15070   0.350   4.034   6.635 -0.0852  0.1975  0.2832
 1203SOL    HW115071   0.405   3.994   6.568  0.3149  1.2115  0.0202
 1203SOL    HW215072   0.408   4.106   6.656  0.6758  0.1212 -1.5326
 1204SOL     OW15073   2.650   0.339   3.264  0.9491 -0.2960 -0.7374
 1204SOL    HW115074   2.646   0.431   3.291 -0.6869 -0.4892 -0.3491
 1204SOL    HW215075   2.559   0.315   3.281  0.8354  0.3878 -0.3683
 1205SOL     OW15076   3.797   4.109  10.789  0.3057 -0.2755 -0.6385
 1205SOL    HW115077   3.840   4.092  10.873 -0.5162 -1.0417 -0.3717
 1205SOL    HW215078   3.826   4.194  10.754  0.5322  0.0397  0.3056
 1206SOL     OW15079   2.113   0.391  12.500 -0.2892  0.1840  0.2489
 1206SOL    HW115080   2.158   0.461  12.453  0.8290  0.4085  1.6595
 1206SOL    HW215081   2.145   0.385  12.590 -1.6475  0.9641  0.7790
 1207SOL     OW15082   2.911   3.218   7.726  0.0525 -0.0680  0.1128
 1207SOL    HW115083   2.984   3.160   7.708 -0.7800 -0.9065 -0.5947
 1207SOL    HW215084   2.900   3.197   7.819 -2.2503  1.6311  0.2343
 1208SOL     OW15085   2.492   2.441  14.206  0.4743 -0.1709 -0.2414
 1208SOL    HW115086   2.581   2.476  14.204  0.2749  0.3132 -0.7191
 1208SOL    HW215087   2.450   2.504  14.265  2.3676  0.0838  0.8290
 1209SOL     OW15088   2.999   2.634   3.760 -0.2015  1.1903  0.7645
 1209SOL    HW115089   3.021   2.666   3.672 -1.7710 -2.1989 -0.8513
 1209SOL    HW215090   2.917   2.589   3.738 -0.9096  2.2490  1.2029
 1210SOL     OW15091   0.550   2.377   2.639 -0.1967 -0.4833 -0.0104
 1210SOL    HW115092   0.567   2.365   2.546  1.7809 -1.2579  0.4620
 1210SOL    HW215093   0.560   2.472   2.644  0.2457 -0.5280 -0.0430
 1211SOL     OW15094   0.303   4.118  17.066 -0.0546  0.0703 -0.0823
 1211SOL    HW115095   0.227   4.075  17.027 -0.2922 -1.2674  1.8812
 1211SOL    HW215096   0.299   4.073  17.150 -0.3194 -2.7382 -1.5905
 1212SOL     OW15097   1.253   0.859   8.316 -0.4025  0.3695  0.0010
 1212SOL    HW115098   1.228   0.937   8.365  1.3375  1.0811 -0.2463
 1212SOL    HW215099   1.188   0.846   8.247  0.0409 -0.7271 -0.2060
 1213SOL     OW15100   1.455   0.666   5.651  0.3199  0.0524 -0.5181
 1213SOL    HW115101   1.385   0.602   5.644 -1.6574  2.0937  0.7273
 1213SOL    HW215102   1.409   0.741   5.614 -2.7424 -0.9753  1.2627
 1214SOL     OW15103   3.508   1.226  17.293  0.0519  0.0759 -0.2167
 1214SOL    HW115104   3.559   1.151  17.324 -0.6088 -0.8682 -1.3729
 1214SOL    HW215105   3.571   1.291  17.263  0.3347  1.0292  2.5130
 1215SOL     OW15106   3.522   1.999   7.638 -0.0677  0.1681 -0.0527
 1215SOL    HW115107   3.600   2.052   7.653 -0.6452  1.1064 -0.3359
 1215SOL    HW215108   3.461   2.051   7.690  0.4703 -0.3600  1.0854
 1216SOL     OW15109   4.303   0.920   4.454 -0.1452  0.5785 -0.4355
 1216SOL    HW115110   4.373   0.983   4.441  1.0759 -0.3638  1.5590
 1216SOL    HW215111   4.362   0.855   4.493 -1.3715  0.2078  0.7879
 1217SOL     OW15112   3.770   4.100   7.651 -0.2042 -0.3501  0.3867
 1217SOL    HW115113   3.755   4.176   7.595  0.0788  0.5628  1.5388
 1217SOL    HW215114   3.824   4.044   7.595 -1.9711 -0.8007 -0.8842
 1218SOL     OW15115   4.175   4.267   1.715 -0.1425  0.1592  0.6618
 1218SOL    HW115116   4.135   4.240   1.798  1.6665 -0.5192  1.2982
 1218SOL    HW215117   4.094   4.287   1.668  0.9171  0.9506 -0.8120
 1219SOL     OW15118   0.510   1.718   8.819 -0.6866  0.1571  0.3079
 1219SOL    HW115119   0.502   1.808   8.785 -1.1858 -0.0414 -0.1022
 1219SOL    HW215120   0.510   1.665   8.739  1.9234 -0.3328  0.6229
 1220SOL     OW15121   1.651   1.549  14.436 -0.4594  0.3147  0.3201
 1220SOL    HW115122   1.745   1.538  14.421 -0.5097 -0.6431  0.6717
 1220SOL    HW215123   1.648   1.603  14.514  2.7826 -2.2249  2.2127
 1221SOL     OW15124   2.324   2.656   3.325 -0.4345  0.6299  0.3851
 1221SOL    HW115125   2.405   2.663   3.275 -0.2565  1.4408  0.7821
 1221SOL    HW215126   2.314   2.562   3.336 -0.5981  0.5699 -0.2664
 1222SOL     OW15127   3.401   0.494   3.404 -0.2193 -0.3838 -0.2440
 1222SOL    HW115128   3.325   0.506   3.347  1.5889  1.8855 -2.1337
 1222SOL    HW215129   3.423   0.413   3.358 -0.2770  0.5574 -1.9045
 1223SOL     OW15130   3.965   0.825   7.774 -0.3658  0.4342  0.0881
 1223SOL    HW115131   3.886   0.775   7.755  0.2488 -0.3568 -0.3838
 1223SOL    HW215132   3.918   0.899   7.813  1.3841  0.8165  1.4688
 1224SOL     OW15133   1.693   4.679   4.406 -0.4257  0.2879 -0.3611
 1224SOL    HW115134   1.775   4.631   4.416 -2.4521 -3.3358 -1.1923
 1224SOL    HW215135   1.728   0.044   4.379 -0.3785 -0.3322 -2.2714
 1225SOL     OW15136   4.676   1.209   3.649  0.5940 -0.9177 -0.5771
 1225SOL    HW115137   0.042   1.178   3.677  0.9024 -0.7886 -1.3655
 1225SOL    HW215138   4.685   1.296   3.687 -1.0415 -1.6506  1.4842
 1226SOL     OW15139   1.122   4.491  13.166 -0.0646  0.0142 -0.4570
 1226SOL    HW115140   1.166   4.563  13.121 -1.6883  0.9088 -0.6005
 1226SOL    HW215141   1.092   4.439  13.091 -0.0318 -0.7284  0.0417
 1227SOL     OW15142   2.030   3.854  13.554  0.3241 -0.4748  0.3280
 1227SOL    HW115143   1.965   3.789  13.527 -0.0468  0.6389 -1.4355
 1227SOL    HW215144   1.994   3.883  13.638 -1.1119  0.7534 -0.6992
 1228SOL     OW15145   3.233   2.581   3.898  0.0443  0.0592  0.1178
 1228SOL    HW115146   3.140   2.597   3.886  0.0165  1.7069  2.5002
 1228SOL    HW215147   3.251   2.557   3.807 -0.3956 -0.1358  0.0853
 1229SOL     OW15148   0.706   3.117  15.952 -0.6438  0.5608  0.1501
 1229SOL    HW115149   0.777   3.181  15.957 -2.1974  2.2663  0.4779
 1229SOL    HW215150   0.745   3.031  15.932  0.0017  0.8092  0.3390
 1230SOL     OW15151   4.618   2.061  15.904  0.4499 -0.1699 -0.6646
 1230SOL    HW115152   4.647   2.083  15.993 -1.6371  1.0052 -0.2884
 1230SOL    HW215153   4.634   2.140  15.853  0.7986 -1.1177 -2.0152
 1231SOL     OW15154   1.763   0.130   2.066 -0.0758 -0.0988  0.1101
 1231SOL    HW115155   1.714   0.066   2.117  2.0173 -0.1817  2.0107
 1231SOL    HW215156   1.820   0.069   2.020 -0.5259 -0.9692  0.7075
 1232SOL     OW15157   2.936   3.571   4.373  0.2464 -0.2816 -0.1306
 1232SOL    HW115158   3.026   3.594   4.393 -0.2755  0.6527  1.1391
 1232SOL    HW215159   2.919   3.493   4.426  1.3356  1.0920  2.1980
 1233SOL     OW15160   1.946   0.690   5.640 -0.7874 -0.2651  0.4397
 1233SOL    HW115161   1.863   0.645   5.622 -0.6272 -0.5558  0.4310
 1233SOL    HW215162   1.934   0.778   5.604 -0.6251 -1.2450 -1.9473
 1234SOL     OW15163   0.267   2.846  15.837 -0.3727 -0.1742 -0.1291
 1234SOL    HW115164   0.355   2.854  15.873 -0.7447 -3.9549  1.5756
 1234SOL    HW215165   0.244   2.937  15.814  0.5145 -0.3921 -1.8432
 1235SOL     OW15166   1.747   1.370   8.471  0.4767 -0.2039 -0.7693
 1235SOL    HW115167   1.773   1.409   8.554 -1.1767  3.2731 -1.9011
 1235SOL    HW215168   1.789   1.285   8.484 -2.5542 -1.6416 -0.2667
 1236SOL     OW15169   1.588   3.446   4.928  0.3475 -0.0576  0.1167
 1236SOL    HW115170   1.507   3.420   4.885  1.2325 -1.6136 -0.6069
 1236SOL    HW215171   1.629   3.360   4.920 -1.8944 -1.0387 -0.7898
 1237SOL     OW15172   3.798   4.708   5.421 -0.1642 -0.0233  0.0843
 1237SOL    HW115173   3.814   4.616   5.443  0.1856 -0.0596 -0.3174
 1237SOL    HW215174   3.715   4.702   5.374  0.0716  0.9083 -0.4348
 1238SOL     OW15175   2.547   3.198   3.051 -0.2143  0.7851  0.2654
 1238SOL    HW115176   2.636   3.224   3.074  0.7011 -0.0131 -2.4540
 1238SOL    HW215177   2.553   3.105   3.072  2.8848  0.6523 -1.2009
 1239SOL     OW15178   1.864   3.389   8.683  0.0488 -0.1853  0.1225
 1239SOL    HW115179   1.894   3.353   8.600 -1.2382  1.6135 -1.1044
 1239SOL    HW215180   1.801   3.323   8.713 -0.1568 -0.1867 -0.3157
 1240SOL     OW15181   4.579   1.130   0.052  0.5654 -0.2077  0.2449
 1240SOL    HW115182   4.501   1.131   0.108 -0.3528 -1.3245 -1.0185
 1240SOL    HW215183   4.615   1.045   0.075 -1.4328 -0.4679  2.4001
 1241SOL     OW15184   3.504   4.487   6.822 -0.0597 -0.2644 -0.7070
 1241SOL    HW115185   3.431   4.536   6.861  0.6591  0.6351 -0.5055
 1241SOL    HW215186   3.492   4.405   6.871  1.3447  0.2370  0.4546
 1242SOL     OW15187   2.280   1.354  12.730 -0.8203  0.5048  0.1164
 1242SOL    HW115188   2.350   1.408  12.768 -2.3093  2.7247 -0.2897
 1242SOL    HW215189   2.235   1.328  12.811 -0.7935 -0.0944 -0.0663
 1243SOL     OW15190   4.114   2.848  14.595  0.2493  0.1375  0.2255
 1243SOL    HW115191   4.200   2.859  14.555 -0.5232 -1.1858 -1.8056
 1243SOL    HW215192   4.079   2.770  14.552  1.7125 -0.7431  0.6041
 1244SOL     OW15193   2.347   4.027  12.053 -0.3011 -0.3195 -0.1861
 1244SOL    HW115194   2.367   3.937  12.077 -2.7520 -0.3326  1.7779
 1244SOL    HW215195   2.419   4.049  11.993 -0.1667  2.2096  0.8877
 1245SOL     OW15196   2.748   1.883   8.593  0.5676  0.5931  0.4824
 1245SOL    HW115197   2.669   1.829   8.597  0.9265 -0.0932 -1.3751
 1245SOL    HW215198   2.731   1.944   8.521  0.2034  0.9885  0.9061
 1246SOL     OW15199   0.796   4.712   4.706 -0.2480 -0.6044  0.2001
 1246SOL    HW115200   0.886   0.023   4.708  0.0934 -1.5419 -0.6552
 1246SOL    HW215201   0.808   4.649   4.777  1.0767  0.4509  0.9093
 1247SOL     OW15202   2.782   0.861   4.771 -0.7173  0.2000 -0.2853
 1247SOL    HW115203   2.847   0.886   4.705 -0.8867  0.3323 -0.4011
 1247SOL    HW215204   2.803   0.923   4.840 -0.0744 -1.8319  1.3494
 1248SOL     OW15205   4.158   0.161   8.456  0.0007 -0.2572 -0.0663
 1248SOL    HW115206   4.076   0.167   8.405  2.0263  0.3168 -3.2784
 1248SOL    HW215207   4.166   0.066   8.451  1.0131 -0.2235  0.9941
 1249SOL     OW15208   1.589   0.205  14.905  0.0279  0.6992 -0.3099
 1249SOL    HW115209   1.596   0.196  15.000 -2.2640 -0.0277 -0.2105
 1249SOL    HW215210   1.494   0.203  14.896 -0.1497  3.0722  1.0640
 1250SOL     OW15211   2.139   1.637  17.468 -0.4664 -0.0566  0.2173
 1250SOL    HW115212   2.051   1.621  17.434  0.4285 -2.6326 -0.8359
 1250SOL    HW215213   2.118   1.639  17.562  1.9445 -0.3160  0.7694
 1251SOL     OW15214   1.865   2.806  17.182 -0.1801  0.1468  0.0198
 1251SOL    HW115215   1.926   2.866  17.225 -1.0450  1.8286 -1.1289
 1251SOL    HW215216   1.906   2.792  17.097 -0.5715  1.4970 -0.3919
 1252SOL     OW15217   3.152   0.406   4.016 -0.5692  0.5002 -0.3759
 1252SOL    HW115218   3.221   0.419   3.951 -1.9904 -0.8710 -2.1469
 1252SOL    HW215219   3.090   0.479   4.009  0.4158  1.4871  0.9394
 1253SOL     OW15220   2.099   1.629   2.855  0.3697  0.2601  0.2841
 1253SOL    HW115221   2.110   1.611   2.761  0.1782 -1.5455  0.6266
 1253SOL    HW215222   2.140   1.716   2.858  0.2055  0.3557 -0.2757
 1254SOL     OW15223   3.668   4.005   4.907  0.1852  0.6865 -0.1543
 1254SOL    HW115224   3.618   4.032   4.985  1.2321  0.8465  0.4672
 1254SOL    HW215225   3.601   4.015   4.840 -1.0472  1.2380  1.1571
 1255SOL     OW15226   2.101   2.556   5.495 -0.0525 -0.2711  0.4531
 1255SOL    HW115227   2.138   2.640   5.523 -0.1336  0.5182 -1.8236
 1255SOL    HW215228   2.142   2.508   5.567  0.5518  0.2738  0.4770
 1256SOL     OW15229   1.397   0.302  10.036 -0.9221  0.3939 -0.6141
 1256SOL    HW115230   1.407   0.245  10.112  0.5233  0.8392 -0.4745
 1256SOL    HW215231   1.318   0.256  10.007 -0.5438  0.2898 -1.4444
 1257SOL     OW15232   4.109   2.757  16.956 -0.3765  0.9994  0.4567
 1257SOL    HW115233   4.043   2.693  16.981  0.1508  0.7568  1.2374
 1257SOL    HW215234   4.055   2.833  16.933 -2.4595  0.1228  2.4811
 1258SOL     OW15235   3.219   1.965   6.732 -0.3324 -0.0155 -0.1368
 1258SOL    HW115236   3.154   1.921   6.677 -1.0138  1.4068 -0.4704
 1258SOL    HW215237   3.266   2.029   6.677  1.7353 -0.8919  0.6047
 1259SOL     OW15238   4.117   2.874   3.381 -0.1879  0.3430  0.5072
 1259SOL    HW115239   4.103   2.788   3.343  2.5879 -0.4394  1.2755
 1259SOL    HW215240   4.098   2.936   3.311  1.8942 -0.7824 -1.0400
 1260SOL     OW15241   3.904   4.537   7.528 -0.6844 -0.8170  0.2963
 1260SOL    HW115242   3.960   4.612   7.508 -1.1433 -1.4035 -3.1947
 1260SOL    HW215243   3.839   4.561   7.462  0.8053  0.1194 -0.8218
 1261SOL     OW15244   2.332   4.221   1.902 -0.1040  0.6187 -0.1372
 1261SOL    HW115245   2.255   4.260   1.861 -0.2440  1.9882  1.4382
 1261SOL    HW215246   2.361   4.288   1.964  0.0771  0.9230 -0.5493
 1262SOL     OW15247   1.757   0.460   4.321 -0.0841 -0.1948 -0.3010
 1262SOL    HW115248   1.743   0.547   4.286 -0.8572 -1.3153 -2.7763
 1262SOL    HW215249   1.689   0.459   4.388  0.4327  1.1290  0.2287
 1263SOL     OW15250   1.917   1.331  14.579 -0.4342 -0.8794  0.1455
 1263SOL    HW115251   1.841   1.315  14.523  0.5253  0.3998 -1.5195
 1263SOL    HW215252   1.981   1.275  14.536 -3.0809 -1.1627 -3.4657
 1264SOL     OW15253   1.346   4.117   6.281  0.1032  0.2731  0.1417
 1264SOL    HW115254   1.348   4.119   6.185  2.3400  0.7743  0.2011
 1264SOL    HW215255   1.418   4.175   6.308  0.5222  1.1002 -2.7140
 1265SOL     OW15256   0.446   0.066   9.462 -0.9123 -0.3998 -0.0099
 1265SOL    HW115257   0.368   0.068   9.406 -1.0165  1.5059  0.2121
 1265SOL    HW215258   0.518   0.096   9.408 -1.3762  0.1062 -0.3458
 1266SOL     OW15259   0.838   4.495   9.440  0.0853 -0.2280 -0.0882
 1266SOL    HW115260   0.925   4.536   9.448  1.0542 -2.3720  0.3790
 1266SOL    HW215261   0.799   4.523   9.523  2.4488  1.9171  0.3040
 1267SOL     OW15262   1.084   1.161   2.059 -0.2438 -0.4838 -0.1002
 1267SOL    HW115263   1.110   1.253   2.065  1.4639 -0.9282 -0.5796
 1267SOL    HW215264   1.041   1.179   1.976 -0.2766  0.9974  0.2375
 1268SOL     OW15265   4.623   2.446   2.595 -0.2032  0.0186 -0.3573
 1268SOL    HW115266   4.529   2.431   2.602 -0.1234  0.2600  1.2518
 1268SOL    HW215267   4.646   2.497   2.672  1.3991 -1.1429 -0.0763
 1269SOL     OW15268   0.188   3.870   2.583  0.0777 -0.1079  0.5096
 1269SOL    HW115269   0.237   3.947   2.612  1.6229 -1.7380  2.2348
 1269SOL    HW215270   0.120   3.878   2.651 -1.3421 -0.0801 -0.9238
 1270SOL     OW15271   3.600   3.526  12.756 -0.1834  0.5001 -0.8563
 1270SOL    HW115272   3.506   3.519  12.736 -1.0533  3.0579  2.3131
 1270SOL    HW215273   3.614   3.501  12.847  1.9450 -1.2121 -1.6679
 1271SOL     OW15274   3.779   3.369   2.777  0.6221 -0.0020  0.1723
 1271SOL    HW115275   3.843   3.303   2.806 -0.1486  0.3511  2.6811
 1271SOL    HW215276   3.846   3.417   2.729  0.7390 -0.7340 -0.3959
 1272SOL     OW15277   2.082   0.240  15.068  0.3151  0.1899 -0.2798
 1272SOL    HW115278   2.005   0.226  15.013 -0.1394  1.5735  0.0054
 1272SOL    HW215279   2.102   0.149  15.091  1.4501  0.1838 -1.2621
 1273SOL     OW15280   1.509   4.486   4.659 -0.0346  0.2794  0.3461
 1273SOL    HW115281   1.448   4.505   4.731 -1.4686  0.4651 -0.9360
 1273SOL    HW215282   1.577   4.551   4.674  1.1686 -1.1415  1.1486
 1274SOL     OW15283   2.622   3.572   8.927  0.5949 -0.3551 -0.3083
 1274SOL    HW115284   2.539   3.561   8.880  0.9839 -0.9967 -0.8508
 1274SOL    HW215285   2.679   3.547   8.854  0.9733 -2.5412  0.7509
 1275SOL     OW15286   2.360   3.710  16.264 -0.3366 -0.1221  0.4131
 1275SOL    HW115287   2.362   3.685  16.357 -2.1093  0.4211  0.5898
 1275SOL    HW215288   2.418   3.784  16.244 -0.8145  0.3085  0.6071
 1276SOL     OW15289   4.311   1.619  16.851 -0.7737 -0.5605 -0.0899
 1276SOL    HW115290   4.400   1.622  16.885 -0.8546  2.8724 -0.1550
 1276SOL    HW215291   4.293   1.712  16.863 -0.6073 -0.3879 -1.2204
 1277SOL     OW15292   2.757   0.114   8.770 -0.3953  0.7331 -0.4904
 1277SOL    HW115293   2.753   0.127   8.865 -0.2830 -0.0050 -0.3835
 1277SOL    HW215294   2.689   0.165   8.726 -0.1993  0.7902 -0.7288
 1278SOL     OW15295   4.377   4.551   3.509  0.1145  0.2372 -0.4634
 1278SOL    HW115296   4.382   4.598   3.592  0.8809  0.3773 -0.5830
 1278SOL    HW215297   4.385   4.623   3.446  0.9381 -1.2789 -2.1067
 1279SOL     OW15298   3.546   0.244   2.722 -0.0664  0.4705 -0.3638
 1279SOL    HW115299   3.618   0.193   2.686  1.4985  0.4684  2.7888
 1279SOL    HW215300   3.487   0.176   2.753 -1.9490  0.7958 -3.2813
 1280SOL     OW15301   3.488   1.409   7.569 -0.1057 -0.6543  0.1026
 1280SOL    HW115302   3.453   1.488   7.526  0.2459 -0.4041  0.2795
 1280SOL    HW215303   3.505   1.450   7.654  1.1585 -0.6710 -0.1499
 1281SOL     OW15304   2.595   3.114   0.356  0.0583 -0.3125  0.2233
 1281SOL    HW115305   2.551   3.040   0.315  0.2886 -0.3317  0.0153
 1281SOL    HW215306   2.605   3.169   0.278 -0.5226 -1.9302 -0.9800
 1282SOL     OW15307   1.993   0.371   6.804 -0.5036 -0.0238 -0.6723
 1282SOL    HW115308   1.966   0.456   6.836 -0.1262 -0.4327  0.7268
 1282SOL    HW215309   2.087   0.370   6.822 -0.5042 -1.6124 -0.7652
 1283SOL     OW15310   0.612   2.261   7.305  0.1883  0.3336 -0.5249
 1283SOL    HW115311   0.620   2.231   7.214 -1.3538 -3.8542  0.7245
 1283SOL    HW215312   0.683   2.214   7.349 -0.7543  1.1744  1.8681
 1284SOL     OW15313   2.630   3.593  11.526 -0.7428 -0.4883  0.0519
 1284SOL    HW115314   2.700   3.600  11.461  0.1700 -0.3419  1.0599
 1284SOL    HW215315   2.552   3.584  11.470  0.0597  1.1192 -1.3432
 1285SOL     OW15316   0.134   0.322   6.442  0.5287  0.0998 -0.8453
 1285SOL    HW115317   0.045   0.339   6.473  0.1846 -1.2998 -1.1139
 1285SOL    HW215318   0.160   0.415   6.441 -2.6449  0.9904 -2.0465
 1286SOL     OW15319   0.767   3.577   0.101  0.1817  0.8524 -0.1995
 1286SOL    HW115320   0.830   3.590   0.171  1.7527  0.4217 -1.5317
 1286SOL    HW215321   0.778   3.659   0.052  2.1817  0.0326 -1.1345
 1287SOL     OW15322   3.412   4.625   4.389  0.5876 -0.7532  0.1700
 1287SOL    HW115323   3.333   4.660   4.346 -1.2899 -2.3624  2.2791
 1287SOL    HW215324   3.392   4.535   4.366  0.4708 -0.2014 -1.8478
 1288SOL     OW15325   4.402   1.497   8.580  0.0694 -0.4420 -0.7156
 1288SOL    HW115326   4.389   1.560   8.509 -1.0751  1.5014  1.2570
 1288SOL    HW215327   4.331   1.435   8.562 -0.5950 -0.4469  2.0020
 1289SOL     OW15328   2.961   2.352   4.356 -0.7144 -0.0837 -0.1327
 1289SOL    HW115329   3.032   2.407   4.389 -0.5977 -0.0868 -0.3778
 1289SOL    HW215330   3.004   2.283   4.304 -1.2266 -0.1444 -0.4729
 1290SOL     OW15331   4.458   4.415   8.903 -0.3904 -0.2946 -0.7007
 1290SOL    HW115332   4.553   4.416   8.895 -0.3495 -1.3560 -0.3544
 1290SOL    HW215333   4.455   4.498   8.951  0.0928 -1.2363  0.9604
 1291SOL     OW15334   3.940   0.897  12.460  0.5251 -0.4107 -0.2180
 1291SOL    HW115335   3.866   0.865  12.512  0.7167 -0.7118 -0.1262
 1291SOL    HW215336   3.890   0.926  12.385 -2.3143  0.4898  2.0445
 1292SOL     OW15337   1.779   3.455  15.134  0.1510 -0.3834 -0.5761
 1292SOL    HW115338   1.713   3.509  15.176 -0.2840  0.3693 -2.2198
 1292SOL    HW215339   1.805   3.501  15.054  0.2869 -2.1690 -1.5596
 1293SOL     OW15340   1.361   3.311   4.803 -0.5742 -0.1080  0.2495
 1293SOL    HW115341   1.385   3.237   4.858  0.9794 -0.6114 -1.1055
 1293SOL    HW215342   1.368   3.267   4.718  2.1866  0.2097  0.3046
 1294SOL     OW15343   1.065   4.279   6.427  0.2569  0.8345 -0.9087
 1294SOL    HW115344   1.154   4.286   6.462 -0.5155  0.4471  1.1383
 1294SOL    HW215345   1.035   4.365   6.456 -0.7750 -0.0520  0.6252
 1295SOL     OW15346   2.131   2.292   4.312  0.3545  0.3292  0.1756
 1295SOL    HW115347   2.173   2.378   4.313 -1.4601  1.2291 -0.9118
 1295SOL    HW215348   2.048   2.314   4.270 -0.2104 -0.5845  0.8131
 1296SOL     OW15349   4.288   0.217  10.774  0.2568 -0.2821 -0.4561
 1296SOL    HW115350   4.203   0.254  10.796 -0.2598 -3.1640  2.2597
 1296SOL    HW215351   4.267   0.152  10.707  1.6413 -1.8428  0.6426
 1297SOL     OW15352   2.451   1.251   0.104 -0.3145 -0.3589  0.2481
 1297SOL    HW115353   2.505   1.310   0.051 -0.4258 -2.3309 -2.0953
 1297SOL    HW215354   2.490   1.257   0.190  1.7038 -0.1392 -0.6899
 1298SOL     OW15355   3.425   0.721   2.443 -0.1080  0.5110 -0.5095
 1298SOL    HW115356   3.345   0.691   2.487  0.3943  0.8774  0.6547
 1298SOL    HW215357   3.398   0.798   2.392  0.8889  1.2149  0.0295
 1299SOL     OW15358   1.999   1.544  12.523 -0.1153  0.0390  0.0717
 1299SOL    HW115359   2.006   1.452  12.499 -1.0195 -0.6811  2.5395
 1299SOL    HW215360   1.945   1.582  12.453  0.7321  0.2974 -0.4350
 1300SOL     OW15361   0.079   1.650   6.717 -0.1753  0.6226  0.9284
 1300SOL    HW115362   0.120   1.615   6.638 -1.7636  0.5377  0.1305
 1300SOL    HW215363   0.016   1.578   6.726  0.9809 -0.2647  1.8652
 1301SOL     OW15364   4.486   3.524  16.522 -1.3153 -0.0622  0.6443
 1301SOL    HW115365   4.424   3.469  16.475 -1.5751  1.0499 -0.3153
 1301SOL    HW215366   4.512   3.586  16.454  1.0766 -0.6727  1.0004
 1302SOL     OW15367   3.776   1.588  15.920 -0.3346 -0.3164  0.2458
 1302SOL    HW115368   3.823   1.519  15.874  0.3834  0.1263  0.3228
 1302SOL    HW215369   3.715   1.619  15.852  0.5842 -0.2069 -0.5205
 1303SOL     OW15370   1.869   0.358   4.617 -0.2195 -0.3495  0.0391
 1303SOL    HW115371   1.873   0.349   4.713  0.6173 -1.2568 -0.0816
 1303SOL    HW215372   1.781   0.391   4.599  0.1546  0.7997  0.3187
 1304SOL     OW15373   2.422   4.264   4.006  0.0795  0.1616 -0.2259
 1304SOL    HW115374   2.435   4.274   3.912  1.7636  0.1811  0.0122
 1304SOL    HW215375   2.455   4.336   4.060  0.1754  0.5052 -0.7412
 1305SOL     OW15376   0.802   0.901  16.168 -0.3602 -0.8388  0.1524
 1305SOL    HW115377   0.830   0.990  16.186  0.7053 -1.0764 -0.3445
 1305SOL    HW215378   0.726   0.896  16.226 -0.6754  1.2751 -0.0745
 1306SOL     OW15379   0.691   1.107   4.460  0.2290  0.2419 -0.0812
 1306SOL    HW115380   0.635   1.094   4.537  0.2141 -0.9984 -0.2930
 1306SOL    HW215381   0.730   1.022   4.436  1.0291  1.6123 -3.5906
 1307SOL     OW15382   1.059   2.699   4.485  0.0718 -0.3922  0.5688
 1307SOL    HW115383   1.110   2.772   4.521  2.4367 -1.9549  0.3916
 1307SOL    HW215384   0.969   2.716   4.510  0.1059 -0.8739  1.0061
 1308SOL     OW15385   3.599   3.567   2.224 -0.2908 -0.7856  0.4024
 1308SOL    HW115386   3.642   3.510   2.161 -0.4858 -0.1901 -0.2703
 1308SOL    HW215387   3.504   3.558   2.214 -0.8170  3.3725  1.5924
 1309SOL     OW15388   0.261   3.151   0.484 -0.5894  0.2361 -0.6895
 1309SOL    HW115389   0.330   3.212   0.457 -1.3049  0.7302 -1.4074
 1309SOL    HW215390   0.236   3.181   0.572 -0.6178  1.4375 -1.1053
 1310SOL     OW15391   3.865   1.871   4.091 -0.7290 -0.2067 -0.5716
 1310SOL    HW115392   3.903   1.956   4.069 -0.7213 -0.4820 -1.6033
 1310SOL    HW215393   3.871   1.829   4.005 -2.2125 -0.6931 -0.4326
 1311SOL     OW15394   1.398   3.111   4.634 -0.1879 -0.3032 -0.2167
 1311SOL    HW115395   1.354   3.096   4.550 -2.0375 -1.6717  0.9882
 1311SOL    HW215396   1.425   3.024   4.666 -1.5930 -1.3271 -1.7880
 1312SOL     OW15397   2.120   1.923   8.754 -0.0504  0.3434 -0.2535
 1312SOL    HW115398   2.202   1.932   8.802  0.8501  1.0038 -1.9177
 1312SOL    HW215399   2.066   1.872   8.814  0.5075  0.2311  0.1586
 1313SOL     OW15400   3.881   2.615   4.487  0.4147  0.4603  0.0741
 1313SOL    HW115401   3.899   2.538   4.433  0.4461 -0.1363  0.9281
 1313SOL    HW215402   3.948   2.676   4.458 -0.6826  0.1505 -3.0891
 1314SOL     OW15403   4.315   3.303   8.487  0.5751  0.1781 -0.0728
 1314SOL    HW115404   4.235   3.313   8.436  0.9822 -1.1012 -0.9541
 1314SOL    HW215405   4.278   3.310   8.575  0.9149  0.0505  0.0781
 1315SOL     OW15406   0.197   2.763   6.087 -0.0241  0.5121  0.0205
 1315SOL    HW115407   0.258   2.711   6.141 -1.2367 -1.6983 -0.7581
 1315SOL    HW215408   0.254   2.823   6.039 -1.2287  1.2784 -0.4412
 1316SOL     OW15409   1.804   3.986   4.889  0.0961 -0.6175 -0.6465
 1316SOL    HW115410   1.862   3.978   4.813 -0.8010  0.1692 -1.4153
 1316SOL    HW215411   1.734   4.033   4.844  0.5472 -1.7308 -2.5284
 1317SOL     OW15412   2.388   0.518   2.568 -0.0653  0.0626 -0.5656
 1317SOL    HW115413   2.401   0.428   2.599 -3.6967 -0.4183 -0.3883
 1317SOL    HW215414   2.391   0.506   2.474  0.4470 -1.0437 -0.4062
 1318SOL     OW15415   1.167   3.102   6.530  0.0079  0.0962 -0.0522
 1318SOL    HW115416   1.224   3.076   6.602 -0.1057 -0.6930 -0.2488
 1318SOL    HW215417   1.179   3.025   6.475 -0.4882 -0.3326  0.4451
 1319SOL     OW15418   1.298   2.687   7.975 -0.4184  0.2269  0.5516
 1319SOL    HW115419   1.236   2.736   7.921  1.1719  0.5736 -0.9363
 1319SOL    HW215420   1.368   2.659   7.916 -0.4686 -0.9158  1.0132
 1320SOL     OW15421   0.027   2.857   5.055 -0.6641  0.2825  0.5564
 1320SOL    HW115422   0.082   2.781   5.070  2.8370  3.1753  2.2459
 1320SOL    HW215423   4.682   2.855   5.125 -1.7831 -1.7268 -0.5358
 1321SOL     OW15424   1.771   0.777  17.016 -0.1124  0.0310  0.5967
 1321SOL    HW115425   1.853   0.795  16.969 -0.6811 -1.9478 -1.1443
 1321SOL    HW215426   1.775   0.852  17.075  1.8923  1.7789 -1.7578
 1322SOL     OW15427   0.285   3.510   0.879  0.0545  0.3002 -0.7455
 1322SOL    HW115428   0.373   3.475   0.890 -0.4505 -0.9303 -0.5247
 1322SOL    HW215429   0.303   3.579   0.816 -0.2651  0.9507 -0.1235
 1323SOL     OW15430   1.276   0.091   6.253 -0.0670  0.4262 -0.6019
 1323SOL    HW115431   1.363   0.075   6.216  0.8684 -3.8265  3.3569
 1323SOL    HW215432   1.289   0.179   6.289  2.4707  0.1234 -0.7556
 1324SOL     OW15433   0.373   3.656   0.665  0.4643 -0.4049 -0.1892
 1324SOL    HW115434   0.392   3.749   0.649 -2.5325  0.1636 -0.5839
 1324SOL    HW215435   0.358   3.615   0.580  0.7663 -0.2694 -0.3076
 1325SOL     OW15436   2.085   2.043   3.984  0.4774  0.2242  0.4315
 1325SOL    HW115437   2.151   2.083   4.041  0.5887  2.2259 -1.0746
 1325SOL    HW215438   2.089   2.113   3.918  1.2909 -0.3793 -0.1627
 1326SOL     OW15439   0.559   2.300  14.837 -0.0185  0.4265  0.3554
 1326SOL    HW115440   0.485   2.241  14.850  1.1800 -1.2273 -0.3084
 1326SOL    HW215441   0.521   2.345  14.761  1.6974  1.0327 -0.1294
 1327SOL     OW15442   1.112   2.843  12.600  0.2618 -0.4854 -0.2829
 1327SOL    HW115443   1.187   2.848  12.658 -1.2318  0.2050  1.6048
 1327SOL    HW215444   1.049   2.796  12.655  0.4502  1.7812  1.8715
 1328SOL     OW15445   2.033   1.069  15.472  0.0068 -0.0384  0.1488
 1328SOL    HW115446   2.092   1.054  15.398 -1.1921  0.1936 -0.8664
 1328SOL    HW215447   2.000   1.155  15.446 -1.6620 -0.1580  1.8551
 1329SOL     OW15448   1.245   1.853   8.057  0.0195  0.8017 -0.5585
 1329SOL    HW115449   1.276   1.804   8.133 -1.1196 -1.7082 -1.6942
 1329SOL    HW215450   1.320   1.853   7.997 -0.6319  1.0513 -1.3741
 1330SOL     OW15451   1.613   0.375   2.281 -0.0476  0.0327 -0.6774
 1330SOL    HW115452   1.561   0.296   2.270  1.2168 -0.7895 -0.7686
 1330SOL    HW215453   1.640   0.394   2.191  1.0519  2.0365  0.0746
 1331SOL     OW15454   3.806   0.015   1.846  0.1280 -0.1666  0.2766
 1331SOL    HW115455   3.800   4.642   1.825  0.6690  0.0436 -0.8166
 1331SOL    HW215456   3.844   0.005   1.934 -1.5346  0.1871  1.0397
 1332SOL     OW15457   4.503   3.270   6.937  0.4088 -0.3179 -0.7192
 1332SOL    HW115458   4.446   3.272   6.860  0.5664 -1.0019 -0.8501
 1332SOL    HW215459   4.449   3.319   6.999  1.5783  0.8913 -0.6389
 1333SOL     OW15460   2.389   0.252   2.985  0.1438 -0.1765  0.0007
 1333SOL    HW115461   2.449   0.180   2.964 -2.4928 -1.9902 -1.2877
 1333SOL    HW215462   2.426   0.324   2.933 -1.4264  1.0552  0.6116
 1334SOL     OW15463   2.923   1.424  12.638  0.1774 -0.5244  0.4497
 1334SOL    HW115464   2.926   1.519  12.627 -0.7643 -0.3865  1.4533
 1334SOL    HW215465   2.975   1.417  12.718  0.5362 -1.2427  0.1584
 1335SOL     OW15466   3.717   1.225   6.284  0.4711  0.0151 -0.4680
 1335SOL    HW115467   3.724   1.314   6.249  0.3142  0.1146 -0.2498
 1335SOL    HW215468   3.657   1.237   6.358  2.1997 -0.8649  1.0973
 1336SOL     OW15469   0.200   0.760  12.951 -0.4549  0.4798  0.0501
 1336SOL    HW115470   0.232   0.771  12.861 -0.8702 -1.9914 -0.4062
 1336SOL    HW215471   0.110   0.779  12.927 -0.1325  0.4960 -1.1543
 1337SOL     OW15472   2.820   1.503  13.816 -0.0099 -0.1564 -0.2977
 1337SOL    HW115473   2.828   1.550  13.733 -1.0067  0.0408 -0.2911
 1337SOL    HW215474   2.731   1.469  13.802  0.5114 -1.5528 -0.2488
 1338SOL     OW15475   3.304   1.335  16.518 -0.2255 -0.6705  0.3459
 1338SOL    HW115476   3.362   1.378  16.455 -1.3055  2.4967  1.5019
 1338SOL    HW215477   3.251   1.413  16.534  0.9229  0.5639 -1.8130
 1339SOL     OW15478   1.857   0.607   8.383 -0.3039  0.0967  0.6415
 1339SOL    HW115479   1.782   0.659   8.355  0.0054  1.8310  3.1301
 1339SOL    HW215480   1.872   0.552   8.306  1.4689 -2.6564  2.9470
 1340SOL     OW15481   0.958   1.625   3.572 -0.1169 -0.2689 -0.3444
 1340SOL    HW115482   0.948   1.672   3.489  0.3279 -0.7896 -0.6907
 1340SOL    HW215483   1.054   1.623   3.576 -0.0782 -0.0315 -1.1415
 1341SOL     OW15484   0.073   1.006   7.220 -0.6073  0.6237 -0.0153
 1341SOL    HW115485   0.036   1.091   7.246 -1.7553  0.0088  0.3653
 1341SOL    HW215486   0.096   1.022   7.128  0.2570  0.6007  0.2023
 1342SOL     OW15487   2.770   2.315   2.703 -0.2122 -0.2766  0.3461
 1342SOL    HW115488   2.827   2.239   2.706  0.3207  0.1168  0.1931
 1342SOL    HW215489   2.682   2.277   2.700  0.6019 -2.1249 -0.0745
 1343SOL     OW15490   2.570   4.633   9.340 -0.2500  0.3411  0.0273
 1343SOL    HW115491   2.647   4.678   9.307 -0.7554  0.8590 -0.4495
 1343SOL    HW215492   2.599   4.545   9.318 -2.9432 -0.6174  0.2471
 1344SOL     OW15493   4.347   4.157  12.977 -0.4886  0.3132 -0.3479
 1344SOL    HW115494   4.313   4.139  13.065 -1.4596 -2.4134 -1.2889
 1344SOL    HW215495   4.268   4.179  12.928 -0.0582 -2.3488 -2.2427
 1345SOL     OW15496   2.394   2.861  10.380  0.4236 -0.6974 -0.2006
 1345SOL    HW115497   2.370   2.939  10.431  1.0307 -0.2576 -0.5729
 1345SOL    HW215498   2.454   2.819  10.441  2.4544 -1.0185 -2.4309
 1346SOL     OW15499   2.161   4.191   5.594 -0.6618 -0.1605  0.1033
 1346SOL    HW115500   2.129   4.250   5.663 -0.4027 -1.2508  1.1435
 1346SOL    HW215501   2.237   4.239   5.561 -0.8667  0.4672  0.5487
 1347SOL     OW15502   3.848   3.876   8.012  0.4274 -0.3130 -0.0684
 1347SOL    HW115503   3.817   3.955   7.969  0.3435  0.0535  0.6669
 1347SOL    HW215504   3.761   3.844   8.037  0.4624 -0.5373 -0.2270
 1348SOL     OW15505   2.251   3.809  13.135 -0.5437  0.0889  0.0755
 1348SOL    HW115506   2.161   3.843  13.136 -0.9469 -0.9980  0.0949
 1348SOL    HW215507   2.234   3.722  13.170 -0.8388  0.5347  1.0391
 1349SOL     OW15508   1.378   2.940   3.160  0.2583 -0.3962  0.1799
 1349SOL    HW115509   1.423   2.919   3.242 -0.7643  0.4765  0.9519
 1349SOL    HW215510   1.318   3.010   3.183  2.0410  1.5572 -1.1744
 1350SOL     OW15511   4.063   2.153  11.943  0.6890 -0.0558 -0.0531
 1350SOL    HW115512   4.090   2.092  12.012 -2.2691 -1.0409  0.2191
 1350SOL    HW215513   4.004   2.095  11.895  0.1858 -0.2404  0.7872
 1351SOL     OW15514   2.143   0.027   6.845  0.0424  0.4085  0.3207
 1351SOL    HW115515   2.190   0.103   6.811 -0.7096  0.3768 -0.7591
 1351SOL    HW215516   2.181   0.024   6.933  0.5170  2.9068  0.1933
 1352SOL     OW15517   1.698   1.996   1.250  0.4835 -0.4873 -0.3515
 1352SOL    HW115518   1.689   1.904   1.227 -1.8099  0.1415 -2.0449
 1352SOL    HW215519   1.786   2.023   1.224 -0.1345  0.1176 -1.7769
 1353SOL     OW15520   1.193   0.747   2.276  0.0961 -0.6263  0.0337
 1353SOL    HW115521   1.189   0.802   2.354 -1.4682  0.0082 -0.5013
 1353SOL    HW215522   1.222   0.813   2.213 -1.0175 -2.0921 -2.0215
 1354SOL     OW15523   1.051   2.708   7.543 -0.3759 -0.0343 -0.1282
 1354SOL    HW115524   1.105   2.758   7.605 -1.7499  1.1800  0.0715
 1354SOL    HW215525   1.090   2.622   7.557 -1.6140 -0.3389  1.4462
 1355SOL     OW15526   2.485   1.763   6.908  0.2177  0.9185 -0.2120
 1355SOL    HW115527   2.516   1.813   6.832 -0.3773 -1.7086 -2.1851
 1355SOL    HW215528   2.497   1.675   6.872  0.4310  0.9708 -0.2725
 1356SOL     OW15529   0.655   1.017  12.029  0.4373 -0.3872 -0.1042
 1356SOL    HW115530   0.649   1.110  12.009 -2.5186  0.2865  4.1781
 1356SOL    HW215531   0.651   1.006  12.124 -0.6404  2.6224  0.1839
 1357SOL     OW15532   3.105   2.382   4.851  0.4974  0.0759  0.4649
 1357SOL    HW115533   3.041   2.419   4.789  0.2271 -2.6821 -0.8820
 1357SOL    HW215534   3.055   2.333   4.916  0.6407  0.3786  0.8008
 1358SOL     OW15535   2.018   2.658   1.535 -0.2612  0.7472 -0.1983
 1358SOL    HW115536   2.004   2.577   1.487 -0.7152  0.5206  0.3154
 1358SOL    HW215537   1.944   2.650   1.595 -0.6093  0.6513 -0.6367
 1359SOL     OW15538   2.883   1.266   5.240 -0.2074  0.1873 -0.7531
 1359SOL    HW115539   2.913   1.227   5.158  2.5463 -1.1760  0.9108
 1359SOL    HW215540   2.906   1.359   5.239 -0.8710  0.3424 -1.7196
 1360SOL     OW15541   0.345   0.946   3.420  0.3502 -0.1997  0.2061
 1360SOL    HW115542   0.355   1.039   3.435  1.3620 -0.2089 -0.3594
 1360SOL    HW215543   0.352   0.930   3.325  0.5260 -0.6204  0.2857
 1361SOL     OW15544   1.954   3.261  11.712  0.5533  0.0326  0.2537
 1361SOL    HW115545   2.036   3.212  11.718  1.5783  1.2673 -3.3911
 1361SOL    HW215546   1.907   3.224  11.786  0.6503  1.0340  0.8124
 1362SOL     OW15547   0.450   4.141   7.632  0.0142  0.1854 -0.0450
 1362SOL    HW115548   0.431   4.135   7.538 -1.1341  0.2883  0.1867
 1362SOL    HW215549   0.528   4.197   7.631  0.4638 -0.4252  0.6092
 1363SOL     OW15550   3.642   2.359   9.469  0.7700  0.0419  0.2817
 1363SOL    HW115551   3.726   2.404   9.471  0.3678  0.8761 -1.7852
 1363SOL    HW215552   3.599   2.428   9.418  0.0409  0.6745  1.7756
 1364SOL     OW15553   2.505   3.622  11.281  0.1007  0.3992 -0.7620
 1364SOL    HW115554   2.510   3.656  11.192 -0.6695  1.0134 -0.5777
 1364SOL    HW215555   2.462   3.538  11.262 -1.8030  1.1600  0.1113
 1365SOL     OW15556   1.862   4.629  16.208 -0.3726  0.1280  0.3129
 1365SOL    HW115557   1.869   4.649  16.301  1.1369  0.7270  0.0741
 1365SOL    HW215558   1.831   4.711  16.170  0.8548 -0.3339 -1.6999
 1366SOL     OW15559   1.685   2.696   9.268  0.3419 -0.2193 -0.1494
 1366SOL    HW115560   1.672   2.716   9.360 -0.3754  3.5914 -1.0654
 1366SOL    HW215561   1.616   2.629   9.261 -1.2743  1.6740 -2.5073
 1367SOL     OW15562   3.713   1.289   1.235  0.5376  0.5499 -0.3480
 1367SOL    HW115563   3.798   1.278   1.277  0.7915 -1.5108 -1.3753
 1367SOL    HW215564   3.722   1.370   1.185 -3.6458  0.9931 -0.4282
 1368SOL     OW15565   0.754   1.131   5.988 -0.0437  0.1487 -0.8915
 1368SOL    HW115566   0.670   1.090   5.967  0.6844 -2.1145  0.6724
 1368SOL    HW215567   0.803   1.123   5.906  0.6381  2.2608 -0.6766
 1369SOL     OW15568   4.699   2.812   0.461 -0.4586 -0.3270  0.2203
 1369SOL    HW115569   4.669   2.747   0.396 -0.1760 -1.1358  0.8919
 1369SOL    HW215570   0.074   2.797   0.461 -0.2764  0.8635 -0.3081
 1370SOL     OW15571   1.498   1.682  16.063  0.1324  0.1938 -0.1809
 1370SOL    HW115572   1.556   1.748  16.103  0.1452 -1.2032  2.0795
 1370SOL    HW215573   1.420   1.693  16.116  0.3753 -0.3872  0.2885
 1371SOL     OW15574   4.062   1.459   3.374 -0.1397  0.0852  0.5392
 1371SOL    HW115575   4.136   1.435   3.430 -1.1731 -0.3743  1.7226
 1371SOL    HW215576   4.077   1.552   3.361 -1.0121  0.3722  1.5676
 1372SOL     OW15577   2.573   3.075   6.727 -1.0116 -0.2999 -0.4370
 1372SOL    HW115578   2.553   2.981   6.724  0.7672 -0.6839  0.1027
 1372SOL    HW215579   2.650   3.075   6.671 -1.0128 -2.3156 -0.4186
 1373SOL     OW15580   2.004   2.816   5.885 -0.3343  0.3520  0.2189
 1373SOL    HW115581   2.054   2.741   5.852 -1.4699 -0.8418  1.2157
 1373SOL    HW215582   2.070   2.838   5.951  1.4389  0.5588 -1.6199
 1374SOL     OW15583   1.352   1.777   9.229 -0.3909  0.1481 -0.2134
 1374SOL    HW115584   1.425   1.728   9.268  0.1195  2.7251  2.0946
 1374SOL    HW215585   1.403   1.834   9.171 -0.4795 -0.4103 -0.8318
 1375SOL     OW15586   3.930   4.651   5.801  0.6810  0.8664 -0.1365
 1375SOL    HW115587   3.886   4.713   5.742 -0.3665  0.4640  0.2160
 1375SOL    HW215588   3.990   4.607   5.740  2.4182  1.1523  1.3840
 1376SOL     OW15589   4.233   4.304   9.947 -0.0798 -0.3718 -0.8547
 1376SOL    HW115590   4.282   4.272  10.023  0.2028  1.8003 -0.1282
 1376SOL    HW215591   4.212   4.230   9.890  2.8350 -1.4926 -0.4666
 1377SOL     OW15592   3.797   3.753  14.537  0.1190  0.0593 -0.1550
 1377SOL    HW115593   3.710   3.789  14.520  0.5068  0.7927 -0.6123
 1377SOL    HW215594   3.803   3.674  14.483 -0.0184  0.6570 -1.0574
 1378SOL     OW15595   1.173   1.226   2.943  0.5253 -0.0040 -0.0504
 1378SOL    HW115596   1.219   1.296   2.989  0.7500  0.4408 -0.9481
 1378SOL    HW215597   1.105   1.203   3.006 -0.5954 -0.3223 -1.3611
 1379SOL     OW15598   0.376   3.393   2.094  0.1812  0.1131  0.0651
 1379SOL    HW115599   0.369   3.487   2.077 -0.8405  0.1119  0.4837
 1379SOL    HW215600   0.443   3.392   2.163  1.4954  0.6226 -1.2152
 1380SOL     OW15601   4.644   3.440   0.584  0.3281 -0.0839 -0.2675
 1380SOL    HW115602   4.607   3.455   0.671 -1.3777  1.8062 -1.3193
 1380SOL    HW215603   4.708   3.372   0.604 -0.8273 -0.6254  1.5397
 1381SOL     OW15604   1.676   2.047   7.807 -0.7304  0.6117  0.5265
 1381SOL    HW115605   1.734   2.032   7.881 -1.1929  0.7784  0.9251
 1381SOL    HW215606   1.693   2.139   7.788  0.6522 -0.1534 -1.9324
 1382SOL     OW15607   1.572   0.409  17.344  0.7559 -0.2578  0.1161
 1382SOL    HW115608   1.561   0.482  17.403 -0.3243 -0.1886 -0.1797
 1382SOL    HW215609   1.601   0.456  17.266 -2.1729 -2.1002 -2.0846
 1383SOL     OW15610   0.154   3.589  13.257 -0.2596 -0.0439 -0.5167
 1383SOL    HW115611   0.147   3.677  13.294  0.1894  0.6339 -2.0536
 1383SOL    HW215612   0.091   3.546  13.315 -1.4542  1.7885 -0.4772
 1384SOL     OW15613   3.492   2.955   8.186 -0.1038 -0.0072 -0.2367
 1384SOL    HW115614   3.403   2.922   8.192 -0.0522 -0.7511 -3.4409
 1384SOL    HW215615   3.501   2.952   8.091 -0.0002 -0.4322 -0.2166
 1385SOL     OW15616   0.400   0.351   2.744  0.1024 -0.1207 -0.0205
 1385SOL    HW115617   0.435   0.300   2.671  2.5279 -0.3684  1.3159
 1385SOL    HW215618   0.352   0.422   2.702  1.5554 -0.0442 -1.5029
 1386SOL     OW15619   0.515   2.533  12.640 -0.0102  0.3965  0.1641
 1386SOL    HW115620   0.599   2.569  12.668  1.2801 -1.3824 -1.4168
 1386SOL    HW215621   0.509   2.582  12.558  1.5582  0.5215  0.1224
 1387SOL     OW15622   2.107   3.419  14.311 -0.0210  0.2964  0.1945
 1387SOL    HW115623   2.086   3.506  14.276 -0.4069  0.3101  0.4576
 1387SOL    HW215624   2.096   3.365  14.233  3.3121 -1.6851  1.1038
 1388SOL     OW15625   2.328   3.216   5.437 -0.3369  0.2533 -0.4867
 1388SOL    HW115626   2.392   3.270   5.390  1.5162 -1.3307  0.2199
 1388SOL    HW215627   2.258   3.274   5.468 -0.8293 -1.8445  2.3668
 1389SOL     OW15628   2.880   4.176   3.106  0.1328  0.1032 -0.0325
 1389SOL    HW115629   2.971   4.197   3.126  0.3242  1.4368 -2.3686
 1389SOL    HW215630   2.872   4.083   3.125  1.0624  0.2018  0.8494
 1390SOL     OW15631   3.688   3.326  16.832  0.1461 -0.1671 -0.2965
 1390SOL    HW115632   3.645   3.393  16.779  0.5025 -0.1027 -0.5039
 1390SOL    HW215633   3.636   3.335  16.911 -0.2822 -2.8087 -0.2941
 1391SOL     OW15634   1.242   1.723   9.923  0.5864  0.0112 -0.4554
 1391SOL    HW115635   1.245   1.628   9.912 -0.3510  0.0062 -0.6759
 1391SOL    HW215636   1.161   1.739   9.971 -0.2017 -0.5732 -1.5951
 1392SOL     OW15637   2.823   3.123  10.852  0.2096 -0.1149  0.6082
 1392SOL    HW115638   2.811   3.173  10.771 -2.7457 -2.7358 -0.5991
 1392SOL    HW215639   2.747   3.064  10.854 -0.0898  0.2665  0.5320
 1393SOL     OW15640   3.063   3.329   7.521 -0.3921  0.1214 -0.5537
 1393SOL    HW115641   3.095   3.401   7.576  1.4146 -2.4601  1.8284
 1393SOL    HW215642   2.999   3.309   7.589  1.0441 -1.9445  0.2232
 1394SOL     OW15643   3.176   1.011  16.566 -0.0685  0.0838 -0.1236
 1394SOL    HW115644   3.141   0.922  16.558 -0.6759  0.0860  2.6242
 1394SOL    HW215645   3.095   1.052  16.595 -2.7602 -4.3511 -1.3506
 1395SOL     OW15646   1.918   4.469   4.840 -0.2062  0.2781 -0.0626
 1395SOL    HW115647   1.833   4.466   4.883  0.1904 -1.6706  0.5671
 1395SOL    HW215648   1.956   4.535   4.898  0.5887  0.4601 -0.7813
 1396SOL     OW15649   4.611   0.347   5.612 -0.4382 -0.6927  0.4409
 1396SOL    HW115650   4.522   0.381   5.612  0.4949  1.7370 -1.5923
 1396SOL    HW215651   4.621   0.315   5.522 -0.7562  0.6040 -0.0538
 1397SOL     OW15652   0.952   4.708  11.756  0.1874  0.3337 -0.1577
 1397SOL    HW115653   0.922   0.039  11.681 -3.1298 -0.0837  0.8713
 1397SOL    HW215654   0.993   4.639  11.704 -0.6203 -1.4893  1.6046
 1398SOL     OW15655   1.924   0.530  16.070 -0.2583  0.3995 -0.7929
 1398SOL    HW115656   1.837   0.490  16.078 -0.4754  0.5194 -2.4936
 1398SOL    HW215657   1.922   0.573  15.985  0.0676 -0.9227 -1.4706
 1399SOL     OW15658   0.115   4.355   5.845  0.5374 -0.7491 -0.0765
 1399SOL    HW115659   0.026   4.348   5.880  0.6936  4.2435  1.2465
 1399SOL    HW215660   0.117   4.444   5.810 -1.8354 -0.1271  1.3231
 1400SOL     OW15661   0.458   2.456   6.191 -0.0808  0.1046 -0.3744
 1400SOL    HW115662   0.456   2.385   6.256 -3.5674 -0.5919 -1.2762
 1400SOL    HW215663   0.485   2.525   6.251 -1.9946 -0.3344  1.0008
 1401SOL     OW15664   3.726   3.281  16.074 -0.3258  0.5378  0.1381
 1401SOL    HW115665   3.783   3.220  16.121 -1.0327  0.8046  1.3430
 1401SOL    HW215666   3.642   3.255  16.114  0.4103 -0.2241  1.2069
 1402SOL     OW15667   3.997   0.393   0.584 -0.7591 -0.3998  0.0565
 1402SOL    HW115668   4.062   0.329   0.555 -0.9028 -0.6234  0.2388
 1402SOL    HW215669   3.997   0.357   0.672  0.5560  0.2613  0.3233
 1403SOL     OW15670   0.861   4.697   5.476  0.1729  0.1498  0.0625
 1403SOL    HW115671   0.792   4.650   5.522  0.2063 -1.0145 -1.1133
 1403SOL    HW215672   0.804   4.720   5.402  0.1132 -0.1559  0.0155
 1404SOL     OW15673   0.235   2.913  17.380 -0.0248 -0.0329  0.3248
 1404SOL    HW115674   0.268   2.912  17.470  3.0331 -0.7961 -0.8059
 1404SOL    HW215675   0.297   2.976  17.344  1.2528 -0.1884  2.2217
 1405SOL     OW15676   0.393   2.908   5.970 -0.2825  0.0043  0.3699
 1405SOL    HW115677   0.451   2.902   5.895  0.7802  0.1279  1.1853
 1405SOL    HW215678   0.440   2.983   6.006  0.1093 -0.4796  0.8560
 1406SOL     OW15679   0.042   3.173   0.339  0.0448 -0.0254 -0.0590
 1406SOL    HW115680   0.066   3.125   0.260  2.5399  1.2905 -0.0975
 1406SOL    HW215681   0.102   3.138   0.405 -0.1850 -1.4378 -0.5886
 1407SOL     OW15682   2.977   2.766   6.326  0.0096 -0.0253 -0.0371
 1407SOL    HW115683   2.982   2.713   6.406 -1.5024 -0.6016 -0.3260
 1407SOL    HW215684   2.882   2.773   6.316  0.0164  1.2285  0.7674
 1408SOL     OW15685   1.437   4.445   5.915 -0.0511  0.3113 -0.1008
 1408SOL    HW115686   1.480   4.440   5.830  2.3691  1.7876  1.0558
 1408SOL    HW215687   1.362   4.501   5.895  1.1626  1.6324 -0.9082
 1409SOL     OW15688   0.434   3.397   4.456 -0.6479  0.6940  0.1573
 1409SOL    HW115689   0.507   3.362   4.507 -0.6260 -0.4023 -0.6288
 1409SOL    HW215690   0.362   3.353   4.501 -0.9005 -0.4780 -1.3788
 1410SOL     OW15691   2.018   3.684   4.277 -0.2535  0.4029  0.3351
 1410SOL    HW115692   1.962   3.637   4.216 -0.6308  3.1282 -1.4062
 1410SOL    HW215693   2.093   3.625   4.288 -0.0927  0.7840  1.3813
 1411SOL     OW15694   0.618   1.795   6.571  0.0672 -0.0122  0.3723
 1411SOL    HW115695   0.628   1.721   6.511 -0.7053  0.5631 -0.4637
 1411SOL    HW215696   0.649   1.866   6.516 -1.8087 -0.6887 -1.5434
 1412SOL     OW15697   1.394   1.372   4.016  0.5680  0.1483  0.4068
 1412SOL    HW115698   1.412   1.361   4.109  0.1231 -0.7979  0.3833
 1412SOL    HW215699   1.302   1.351   4.003  0.3638  1.1249  0.2754
 1413SOL     OW15700   0.387   3.031   4.368  0.3098 -0.0350 -0.0426
 1413SOL    HW115701   0.358   3.010   4.279  1.6804  1.0751 -0.7534
 1413SOL    HW215702   0.302   3.020   4.410  0.1818 -0.9470 -0.5485
 1414SOL     OW15703   1.896   1.992  17.008  0.1317  0.4035  0.0328
 1414SOL    HW115704   1.848   1.985  16.925  0.7750 -1.2238 -0.2139
 1414SOL    HW215705   1.836   2.046  17.060 -1.6088 -0.8733 -0.6568
 1415SOL     OW15706   1.645   3.865   6.966  0.0943 -0.9537 -0.1552
 1415SOL    HW115707   1.646   3.779   6.923 -2.5965 -1.5281  0.9417
 1415SOL    HW215708   1.736   3.873   6.996 -0.1779  0.6125  0.2649
 1416SOL     OW15709   3.151   4.049  13.225  0.6257 -0.1587  0.3071
 1416SOL    HW115710   3.112   4.119  13.173 -0.2234 -0.4121  0.5926
 1416SOL    HW215711   3.152   3.972  13.168 -2.7609 -0.0827  0.0989
 1417SOL     OW15712   1.627   1.537   5.641  0.6844 -0.7640 -0.1225
 1417SOL    HW115713   1.687   1.591   5.692 -1.7231  1.5433  0.2906
 1417SOL    HW215714   1.677   1.466   5.602 -0.1675 -1.3860 -0.0669
 1418SOL     OW15715   1.018   4.480   8.663  0.0634 -0.5007  0.5535
 1418SOL    HW115716   1.001   4.386   8.654 -0.5609 -0.5988  2.6838
 1418SOL    HW215717   1.082   4.481   8.734  0.7297  2.2683 -0.0637
 1419SOL     OW15718   1.639   4.469   1.615 -0.1397  0.2588 -0.0476
 1419SOL    HW115719   1.674   4.413   1.545 -0.6068  1.1766 -1.0198
 1419SOL    HW215720   1.723   4.504   1.645 -0.5192  0.4491  0.7910
 1420SOL     OW15721   1.211   0.341   7.857 -0.2148 -0.6317 -0.4267
 1420SOL    HW115722   1.136   0.378   7.811  1.1437  0.3606 -1.8205
 1420SOL    HW215723   1.208   0.254   7.817  1.6499 -1.2716  0.8188
 1421SOL     OW15724   0.574   4.096   1.216 -0.0450  0.1565 -0.1126
 1421SOL    HW115725   0.507   4.028   1.216  0.1668 -0.0513 -0.2413
 1421SOL    HW215726   0.553   4.152   1.141 -1.3993  1.2412  1.0713
 1422SOL     OW15727   0.931   2.373  15.222  0.4727  0.3484  0.0871
 1422SOL    HW115728   0.864   2.423  15.268  1.0265 -0.2756  1.5774
 1422SOL    HW215729   1.013   2.414  15.251 -0.0109  0.7745  0.8592
 1423SOL     OW15730   0.510   2.454   8.877 -0.3246  0.1405 -0.0784
 1423SOL    HW115731   0.548   2.505   8.805  2.6701 -0.0326  1.3456
 1423SOL    HW215732   0.492   2.527   8.937 -0.0238 -0.6263  0.9511
 1424SOL     OW15733   2.025   3.484  14.581 -0.2641  0.2355 -0.1628
 1424SOL    HW115734   2.075   3.459  14.504 -0.3957 -2.0098  0.4639
 1424SOL    HW215735   2.087   3.462  14.651 -0.1415  4.5839  1.1012
 1425SOL     OW15736   4.573   4.316   8.599 -0.0022 -0.0899 -0.1600
 1425SOL    HW115737   4.623   4.391   8.565 -1.3787  1.8417  2.0649
 1425SOL    HW215738   4.527   4.362   8.670  0.6732 -1.8630  1.4263
 1426SOL     OW15739   0.092   4.120  12.700  0.5154  0.4349  0.1301
 1426SOL    HW115740   0.072   4.099  12.791 -1.3904 -0.2568 -0.4462
 1426SOL    HW215741   0.076   4.214  12.692  5.5213  1.2781 -0.0163
 1427SOL     OW15742   0.143   2.117  10.041 -0.6517 -0.3319 -0.4874
 1427SOL    HW115743   0.152   2.035   9.991 -2.1208 -1.1252  0.5599
 1427SOL    HW215744   0.192   2.178   9.986  1.0339 -0.9792  0.2845
 1428SOL     OW15745   1.962   3.910   4.656 -0.0160 -0.2476  0.3951
 1428SOL    HW115746   1.915   3.832   4.627  0.2065 -0.1826 -0.1543
 1428SOL    HW215747   1.983   3.938   4.566  1.7924 -0.2116  0.8370
 1429SOL     OW15748   2.006   4.133  16.207  0.2870 -0.0177 -0.6788
 1429SOL    HW115749   2.093   4.093  16.207  0.6455  0.7559  1.1445
 1429SOL    HW215750   2.022   4.227  16.201 -0.4612 -0.0510 -2.9952
 1430SOL     OW15751   2.576   1.267   8.632 -0.2902 -0.5079 -0.4470
 1430SOL    HW115752   2.560   1.249   8.540 -1.8654  0.4487 -0.3574
 1430SOL    HW215753   2.629   1.347   8.627 -0.2439 -0.4191  1.2027
 1431SOL     OW15754   4.600   1.517   9.189  0.1100  0.1511 -0.2341
 1431SOL    HW115755   4.589   1.531   9.095 -0.6475  1.3841  0.0429
 1431SOL    HW215756   4.695   1.519   9.200 -0.2270  1.3975  2.2841
 1432SOL     OW15757   2.539   2.342   9.275 -0.2513  0.4785  0.1358
 1432SOL    HW115758   2.443   2.345   9.272 -0.2662  0.2847  0.3738
 1432SOL    HW215759   2.545   2.250   9.301  1.0053 -0.3036 -2.9875
 1433SOL     OW15760   4.330   3.543   5.731 -0.2928 -0.4536  0.0936
 1433SOL    HW115761   4.387   3.587   5.793  0.8249  0.7070 -1.7583
 1433SOL    HW215762   4.362   3.454   5.744  1.6480  0.2441  0.0657
 1434SOL     OW15763   2.279   0.971   3.654  0.4922  0.2411  0.0299
 1434SOL    HW115764   2.298   1.063   3.639  1.1926  0.0586 -0.2212
 1434SOL    HW215765   2.352   0.949   3.712 -0.9178 -0.1700  1.6304
 1435SOL     OW15766   1.891   2.791  10.403 -0.0567 -0.2827 -0.5389
 1435SOL    HW115767   1.797   2.795  10.387  0.1454  0.8643 -1.5010
 1435SOL    HW215768   1.920   2.861  10.344 -3.4945  2.2171  0.7110
 1436SOL     OW15769   0.648   1.397   1.684  0.4236 -0.4901  0.9248
 1436SOL    HW115770   0.585   1.468   1.689 -0.4194 -1.1216 -0.5635
 1436SOL    HW215771   0.609   1.337   1.747 -1.3583  0.0978  0.3671
 1437SOL     OW15772   1.753   3.633   2.190 -0.4213  0.3014 -0.1557
 1437SOL    HW115773   1.707   3.641   2.273 -0.1403  0.6115 -0.0260
 1437SOL    HW215774   1.753   3.542   2.162 -0.5043  0.2409  0.0454
 1438SOL     OW15775   0.245   0.282  13.067 -0.0195  0.9155  0.4229
 1438SOL    HW115776   0.247   0.372  13.101 -0.9208  1.2673 -0.4432
 1438SOL    HW215777   0.329   0.240  13.085 -0.2136  0.6054  0.5832
 1439SOL     OW15778   3.587   4.204  15.947  0.5236  0.1093  0.0356
 1439SOL    HW115779   3.592   4.299  15.958  0.0548  0.0218  0.9946
 1439SOL    HW215780   3.655   4.189  15.882  1.7327  1.8493  0.8592
 1440SOL     OW15781   1.290   0.663   8.118 -0.0349  0.6986  0.2077
 1440SOL    HW115782   1.298   0.685   8.211  0.2075  1.4094  0.0181
 1440SOL    HW215783   1.237   0.584   8.109 -0.5372  0.8870  1.4733
 1441SOL     OW15784   3.670   1.760   7.937  0.8222  0.3819  0.3709
 1441SOL    HW115785   3.679   1.854   7.921  0.1320  0.1935 -1.1219
 1441SOL    HW215786   3.663   1.761   8.033 -0.8190 -2.2292  0.2926
 1442SOL     OW15787   3.897   1.769   8.135  0.0607  0.6568 -0.1879
 1442SOL    HW115788   3.816   1.789   8.181  0.6659 -0.4698  1.3862
 1442SOL    HW215789   3.954   1.837   8.171  1.1252 -0.8730  1.0602
 1443SOL     OW15790   1.480   1.040  15.211 -0.0110  0.2335  0.1436
 1443SOL    HW115791   1.406   0.980  15.223 -0.2039  0.3416 -0.5246
 1443SOL    HW215792   1.449   1.113  15.264  1.4331  0.2652  0.9459
 1444SOL     OW15793   1.381   2.256   7.246  0.2153 -0.2699 -0.1473
 1444SOL    HW115794   1.302   2.246   7.193  0.1923 -1.4710  0.1126
 1444SOL    HW215795   1.345   2.332   7.290 -0.1447 -0.0322 -0.8515
 1445SOL     OW15796   1.364   2.702   0.104 -0.2248  0.1533 -0.0796
 1445SOL    HW115797   1.419   2.706   0.182  1.3109  2.1366 -1.2442
 1445SOL    HW215798   1.428   2.743   0.045 -0.0585  0.7376  0.5156
 1446SOL     OW15799   0.349   3.254   1.862 -0.3214  0.2333  0.0106
 1446SOL    HW115800   0.357   3.307   1.941 -0.2562 -0.2742  0.3465
 1446SOL    HW215801   0.414   3.186   1.881 -2.2104 -1.4608  0.3890
 1447SOL     OW15802   3.335   1.436   1.085  0.1278  0.2042  0.1382
 1447SOL    HW115803   3.401   1.378   1.045  2.4474  2.3177  0.8902
 1447SOL    HW215804   3.301   1.376   1.151  0.4144 -1.1029 -0.8857
 1448SOL     OW15805   0.964   1.653   9.615 -0.1268  0.0813 -0.6385
 1448SOL    HW115806   0.932   1.701   9.692  0.0134 -0.7857 -0.0377
 1448SOL    HW215807   1.019   1.590   9.662 -2.1471 -0.5789  0.8296
 1449SOL     OW15808   3.540   1.726   1.900  0.0083 -0.0933 -0.0502
 1449SOL    HW115809   3.588   1.755   1.977 -1.5353 -2.0049  1.6321
 1449SOL    HW215810   3.476   1.670   1.943  1.3361 -1.2851  0.3444
 1450SOL     OW15811   0.905   2.082  13.958 -0.1313  0.3208 -0.4142
 1450SOL    HW115812   0.853   2.157  13.932 -3.1103 -2.5541 -2.8438
 1450SOL    HW215813   0.880   2.065  14.049 -1.7638 -1.7971 -1.2470
 1451SOL     OW15814   2.217   1.339   9.013  0.1280  0.0831  0.4746
 1451SOL    HW115815   2.259   1.281   9.076  0.5972  0.5316  0.5722
 1451SOL    HW215816   2.279   1.344   8.941  1.3260  0.0422  1.5048
 1452SOL     OW15817   1.630   1.856   8.131  0.0343 -0.0278  0.3576
 1452SOL    HW115818   1.608   1.940   8.172 -1.2078  1.5614 -3.5281
 1452SOL    HW215819   1.569   1.798   8.176  2.3647 -1.3209  1.8436
 1453SOL     OW15820   3.848   0.222   3.516  0.0391  0.4359  1.0703
 1453SOL    HW115821   3.913   0.291   3.532  0.6373 -0.1959  1.3764
 1453SOL    HW215822   3.850   0.228   3.420 -2.1712 -1.2552  0.9262
 1454SOL     OW15823   2.200   3.792  10.381 -0.7169 -0.3093  0.2521
 1454SOL    HW115824   2.139   3.751  10.443 -1.0642 -0.6369 -0.3111
 1454SOL    HW215825   2.143   3.851  10.331 -2.4813 -1.3639  1.0104
 1455SOL     OW15826   2.599   2.110  13.745 -0.0087  0.1878  0.8037
 1455SOL    HW115827   2.592   2.165  13.823  1.3149  2.0396 -0.4016
 1455SOL    HW215828   2.582   2.177  13.680  0.3654 -1.2038 -0.7463
 1456SOL     OW15829   1.558   2.569  11.229 -0.5623  0.4988 -0.1144
 1456SOL    HW115830   1.635   2.604  11.275  1.0066 -0.7522 -1.7879
 1456SOL    HW215831   1.511   2.652  11.236 -0.7857  0.3181  0.5052
 1457SOL     OW15832   2.593   4.147   6.465  0.8503 -0.3385 -0.1871
 1457SOL    HW115833   2.554   4.223   6.508 -1.1058 -1.4443  0.0008
 1457SOL    HW215834   2.681   4.184   6.462  1.0211 -0.8146 -1.3146
 1458SOL     OW15835   2.400   3.836  15.046 -0.0941  0.2439  0.1422
 1458SOL    HW115836   2.375   3.826  15.137 -0.2354  2.1583  0.3245
 1458SOL    HW215837   2.394   3.929  15.025 -2.1891  0.3822  1.3326
 1459SOL     OW15838   4.302   1.543  11.719 -0.0362 -0.2824  0.1171
 1459SOL    HW115839   4.221   1.493  11.711  0.2305 -0.6023 -0.5193
 1459SOL    HW215840   4.322   1.524  11.811 -1.6251  0.9265  0.7214
 1460SOL     OW15841   1.904   1.129   6.319 -0.1144  0.2958 -0.6798
 1460SOL    HW115842   1.883   1.220   6.297  1.8170  1.3040  1.7462
 1460SOL    HW215843   1.999   1.137   6.325 -0.0416 -0.2520 -1.0933
 1461SOL     OW15844   3.817   1.116  10.472  0.4164 -0.5597  0.1990
 1461SOL    HW115845   3.903   1.101  10.434 -0.4724 -0.3917 -1.9319
 1461SOL    HW215846   3.779   1.156  10.394  1.0180 -1.6537 -0.6609
 1462SOL     OW15847   0.642   4.191  10.775 -0.0505  0.1474  0.0277
 1462SOL    HW115848   0.639   4.106  10.732 -0.0428 -0.7368  1.7969
 1462SOL    HW215849   0.702   4.244  10.721  0.0582  0.1604  0.1594
 1463SOL     OW15850   0.067   2.956   1.167  0.6162 -0.2172 -0.4021
 1463SOL    HW115851   4.719   3.007   1.212  3.1464  1.9421  1.0304
 1463SOL    HW215852   0.038   2.866   1.182 -0.0772 -0.0781 -0.9013
 1464SOL     OW15853   2.616   2.846   3.703 -0.1672 -0.1720  0.2186
 1464SOL    HW115854   2.630   2.872   3.612 -0.0152 -1.8070 -0.2312
 1464SOL    HW215855   2.610   2.926   3.754  0.3548  0.8119 -1.2557
 1465SOL     OW15856   1.735   4.490   5.457  0.1289 -0.0282 -0.2338
 1465SOL    HW115857   1.698   4.438   5.386 -1.4065 -0.2687  0.7375
 1465SOL    HW215858   1.827   4.488   5.430 -0.5440 -0.5418 -2.5046
 1466SOL     OW15859   4.107   3.123   3.843 -0.2888  0.7313 -0.3377
 1466SOL    HW115860   4.055   3.203   3.846 -2.6268 -0.7706 -0.1577
 1466SOL    HW215861   4.126   3.116   3.749 -1.3876 -0.5626 -0.4726
 1467SOL     OW15862   1.259   0.398  16.668 -0.3606  0.3713  0.2073
 1467SOL    HW115863   1.290   0.316  16.705  0.8755  0.7936  0.0990
 1467SOL    HW215864   1.239   0.451  16.745 -0.1674 -0.9306  1.1561
 1468SOL     OW15865   0.886   3.879   6.728 -0.3616 -0.4481  0.6264
 1468SOL    HW115866   0.955   3.825   6.689 -1.1629 -0.5835 -0.6016
 1468SOL    HW215867   0.866   3.932   6.651  0.6976 -0.0821  0.5944
 1469SOL     OW15868   0.474   1.814   3.543  0.5416  1.2121 -0.4225
 1469SOL    HW115869   0.436   1.767   3.468  1.3138  1.4886 -0.9947
 1469SOL    HW215870   0.540   1.748   3.566 -0.3674  1.2352  2.1675
 1470SOL     OW15871   2.948   2.093   2.693  0.6624 -0.4590  0.0827
 1470SOL    HW115872   2.867   2.050   2.665  1.0185  0.3528 -2.1883
 1470SOL    HW215873   2.991   2.092   2.608  2.4127 -0.9488  0.9644
 1471SOL     OW15874   4.569   3.556   0.860  0.0546  0.0671  0.1670
 1471SOL    HW115875   4.640   3.585   0.916 -0.3359  2.6433 -0.6895
 1471SOL    HW215876   4.580   3.461   0.872 -1.2516  0.0858  1.6027
 1472SOL     OW15877   1.107   0.889   6.389  0.7545  0.3259 -0.2519
 1472SOL    HW115878   1.029   0.908   6.337  0.0667  2.4174  1.5433
 1472SOL    HW215879   1.081   0.830   6.460  0.9966 -0.9187 -1.2106
 1473SOL     OW15880   1.004   2.457   5.745  0.4976 -0.0281  0.5543
 1473SOL    HW115881   0.941   2.454   5.818  1.4639 -0.2818  1.3780
 1473SOL    HW215882   0.944   2.423   5.678 -0.5133 -0.1115  1.4952
 1474SOL     OW15883   2.625   2.195   3.628 -0.5175 -0.3723  0.1813
 1474SOL    HW115884   2.588   2.162   3.710  1.2936  1.5962  1.8026
 1474SOL    HW215885   2.610   2.127   3.564  1.6545 -0.7183  0.0379
 1475SOL     OW15886   0.955   2.878   2.431 -0.0288 -0.0660 -0.0283
 1475SOL    HW115887   0.982   2.967   2.454 -0.5979 -0.3315  1.7178
 1475SOL    HW215888   1.020   2.830   2.483 -1.7668 -2.7511 -0.3340
 1476SOL     OW15889   2.584   2.157   5.385  0.1419 -0.2266 -0.6765
 1476SOL    HW115890   2.619   2.245   5.371  2.0790 -0.5070  2.5051
 1476SOL    HW215891   2.515   2.167   5.319 -0.1585  0.7148 -0.2152
 1477SOL     OW15892   1.623   3.246   2.476 -0.4192  0.0083  0.0119
 1477SOL    HW115893   1.619   3.334   2.514 -1.1080  1.3615 -3.2255
 1477SOL    HW215894   1.683   3.201   2.536  0.0581  1.5407  0.7054
 1478SOL     OW15895   1.344   1.727   4.001 -0.5339  0.0443 -0.1042
 1478SOL    HW115896   1.258   1.735   3.959 -1.1932  3.2288  1.8810
 1478SOL    HW215897   1.372   1.816   4.023  0.2777  0.1299 -1.4583
 1479SOL     OW15898   3.345   1.935   3.245  0.8871  0.5829 -0.2224
 1479SOL    HW115899   3.312   1.898   3.163 -1.0752  1.3341  0.2409
 1479SOL    HW215900   3.387   1.858   3.282  0.3076 -0.7694 -2.3876
 1480SOL     OW15901   0.856   0.770   5.575  0.2406 -0.3487  0.2010
 1480SOL    HW115902   0.870   0.788   5.482  2.2366  0.1265  0.5920
 1480SOL    HW215903   0.948   0.770   5.600 -0.1539 -1.9189  1.6551
 1481SOL     OW15904   0.045   0.189  13.949  0.2897 -0.8010  0.2978
 1481SOL    HW115905   0.094   0.247  14.007  0.6387  0.5120 -1.3212
 1481SOL    HW215906   0.102   0.113  13.961 -0.4256 -1.3288  0.3249
 1482SOL     OW15907   3.562   2.378   3.173 -0.1460 -0.3760  0.0849
 1482SOL    HW115908   3.517   2.327   3.106  2.4608 -3.9537  1.0331
 1482SOL    HW215909   3.638   2.408   3.122 -0.8181  2.3330  0.6816
 1483SOL     OW15910   4.165   2.519   8.491 -0.4547 -0.0322 -0.0819
 1483SOL    HW115911   4.166   2.467   8.410  4.8054  0.2880 -0.2669
 1483SOL    HW215912   4.231   2.470   8.540  0.0753  1.3665  0.5847
 1484SOL     OW15913   2.823   0.288   9.460 -0.2253  0.2059 -0.2868
 1484SOL    HW115914   2.853   0.199   9.440  0.7911  0.5090 -0.1011
 1484SOL    HW215915   2.899   0.339   9.488 -0.0351  0.0247 -0.4656
 1485SOL     OW15916   0.169   4.227   2.390  0.5883  0.5628  0.3076
 1485SOL    HW115917   0.200   4.313   2.363 -0.3887  0.1075 -2.2453
 1485SOL    HW215918   0.079   4.216   2.358  0.3403  1.4204  0.7000
 1486SOL     OW15919   0.868   0.773   6.486  0.1955  0.0582  0.1500
 1486SOL    HW115920   0.821   0.694   6.513 -0.1278  0.0369 -0.4930
 1486SOL    HW215921   0.790   0.821   6.458  1.1155  2.3017  1.3987
 1487SOL     OW15922   0.266   4.140  10.243  0.3746 -0.4965 -0.6618
 1487SOL    HW115923   0.330   4.069  10.233  1.5809  0.4137  0.5142
 1487SOL    HW215924   0.308   4.185  10.317  1.3860 -0.5712 -1.1797
 1488SOL     OW15925   4.342   1.860   5.930  0.4822  0.1801  0.1879
 1488SOL    HW115926   4.254   1.888   5.904  1.9045  2.4103 -2.1577
 1488SOL    HW215927   4.368   1.939   5.977  1.1389  0.0570  0.0266
 1489SOL     OW15928   1.290   0.720   6.312 -0.3423 -0.7340  0.1730
 1489SOL    HW115929   1.218   0.779   6.335 -0.2715 -0.0574 -1.3315
 1489SOL    HW215930   1.343   0.707   6.391 -0.2977  0.6772  0.3746
 1490SOL     OW15931   1.286   1.824   8.558  0.3554  0.0967 -0.5659
 1490SOL    HW115932   1.267   1.892   8.623 -0.4383 -0.6146 -0.0619
 1490SOL    HW215933   1.211   1.767   8.573  1.6882 -2.2785 -3.0529
 1491SOL     OW15934   4.195   0.218  14.818 -0.3577  0.1859 -0.1718
 1491SOL    HW115935   4.112   0.241  14.775 -1.4857  0.7723  2.3145
 1491SOL    HW215936   4.255   0.253  14.752 -1.4505  0.9033 -0.7965
 1492SOL     OW15937   3.408   1.009   2.367  0.6184  0.3030  0.2403
 1492SOL    HW115938   3.388   1.016   2.273 -0.0036  0.4536  0.3837
 1492SOL    HW215939   3.355   1.085   2.395  0.1872 -1.0208  2.9907
 1493SOL     OW15940   3.615   2.712  13.025  0.2470 -0.3830  0.1274
 1493SOL    HW115941   3.562   2.637  12.999  2.9271 -1.4909 -2.0264
 1493SOL    HW215942   3.639   2.695  13.116 -0.6939 -1.8716  0.0981
 1494SOL     OW15943   1.313   3.275  14.233 -0.0114  0.0025  0.1053
 1494SOL    HW115944   1.346   3.232  14.312  2.4041  0.2649 -0.7605
 1494SOL    HW215945   1.372   3.231  14.172  0.8065 -1.2328  1.7992
 1495SOL     OW15946   1.563   1.185   1.997  0.8737  0.2435  0.8607
 1495SOL    HW115947   1.617   1.109   1.974  0.7305  0.1535  0.8190
 1495SOL    HW215948   1.482   1.143   1.968  2.0381 -1.8398  0.6161
 1496SOL     OW15949   1.174   1.864   2.604  0.0502  0.0907  0.1898
 1496SOL    HW115950   1.175   1.787   2.548 -0.8220  0.0073  0.2954
 1496SOL    HW215951   1.201   1.928   2.538  2.7569 -2.2116 -0.9234
 1497SOL     OW15952   1.214   2.762   8.695  0.6261 -0.1267  0.0029
 1497SOL    HW115953   1.258   2.774   8.778 -0.9005 -0.3425  0.8425
 1497SOL    HW215954   1.283   2.773   8.630 -2.2304  0.4262 -2.9670
 1498SOL     OW15955   4.606   3.994   5.839  0.3907  0.2099  0.3161
 1498SOL    HW115956   4.575   3.905   5.819 -1.1261  0.6619  0.6002
 1498SOL    HW215957   4.598   3.981   5.934 -1.4278  1.6452  0.3624
 1499SOL     OW15958   2.267   1.064   3.166  0.0576  0.1935  0.2581
 1499SOL    HW115959   2.190   1.120   3.179 -0.5222 -0.9136  1.5358
 1499SOL    HW215960   2.296   1.061   3.257  0.1464  2.2513  0.3123
 1500SOL     OW15961   3.008   0.265   7.255 -0.0131 -1.2181  0.6760
 1500SOL    HW115962   2.931   0.244   7.201  3.0012 -1.1843 -3.6035
 1500SOL    HW215963   3.020   0.351   7.216 -1.9958 -0.8054  0.9767
 1501SOL     OW15964   0.972   2.349   0.123 -0.5916 -0.2592 -0.0919
 1501SOL    HW115965   1.054   2.398   0.117 -1.6239  1.5334  0.4840
 1501SOL    HW215966   0.998   2.279   0.183  0.7776 -0.3825 -0.8255
 1502SOL     OW15967   4.694   3.828   4.328 -0.6521  0.5005  0.4502
 1502SOL    HW115968   4.645   3.783   4.260 -0.4852  0.0846  0.6076
 1502SOL    HW215969   4.703   3.769   4.403  0.7510  1.2882  0.9129
 1503SOL     OW15970   3.829   3.648  16.484 -0.6370 -0.8183  0.2867
 1503SOL    HW115971   3.832   3.741  16.462 -2.2154 -0.9263 -0.3233
 1503SOL    HW215972   3.897   3.619  16.424 -1.4486 -0.6589 -0.6954
 1504SOL     OW15973   0.761   2.459   6.215  0.4270 -0.4143 -0.0343
 1504SOL    HW115974   0.681   2.510   6.221  0.5438 -0.3200  0.7804
 1504SOL    HW215975   0.790   2.449   6.306  1.5986 -0.0970 -0.3783
 1505SOL     OW15976   2.142   3.076   6.694  0.5425 -0.1494 -0.4767
 1505SOL    HW115977   2.221   3.129   6.702  1.2487 -0.6659 -3.9481
 1505SOL    HW215978   2.089   3.152   6.669 -1.7130 -2.1597 -1.7797
 1506SOL     OW15979   3.134   2.934   0.549 -0.4171 -0.7670  0.0428
 1506SOL    HW115980   3.121   3.016   0.597 -1.9535  0.0693 -1.7924
 1506SOL    HW215981   3.224   2.945   0.520  0.0237 -1.3663  1.2004
 1507SOL     OW15982   1.454   1.335  12.088  0.3884 -0.0347  0.3089
 1507SOL    HW115983   1.546   1.360  12.096 -0.2639  2.2193  0.8216
 1507SOL    HW215984   1.421   1.405  12.145 -1.7624 -0.7720 -0.0393
 1508SOL     OW15985   2.426   1.162   5.776 -0.1643  0.7208  0.0332
 1508SOL    HW115986   2.352   1.107   5.750 -0.6263  1.1462  0.4501
 1508SOL    HW215987   2.479   1.092   5.812 -0.0780  0.1790 -1.1361
 1509SOL     OW15988   3.629   2.429   7.881 -0.4928  0.1223  0.0304
 1509SOL    HW115989   3.661   2.350   7.837 -1.7300  0.0148 -0.6766
 1509SOL    HW215990   3.702   2.491   7.885  0.6776 -1.4053  2.4274
 1510SOL     OW15991   1.755   4.203  11.827  0.8452  0.6663 -0.5990
 1510SOL    HW115992   1.716   4.117  11.815 -1.3003  1.3524  1.3178
 1510SOL    HW215993   1.826   4.179  11.887 -0.0604  2.9687  1.4151
 1511SOL     OW15994   2.643   3.261   4.873  0.0351  0.0719  0.3308
 1511SOL    HW115995   2.619   3.182   4.825  2.4698 -0.0455 -0.7170
 1511SOL    HW215996   2.557   3.303   4.874  0.9648  1.9926 -0.4872
 1512SOL     OW15997   3.542   2.131   3.900 -0.5245  0.0018  0.3286
 1512SOL    HW115998   3.618   2.184   3.923 -0.7198 -0.0409  1.0738
 1512SOL    HW215999   3.578   2.055   3.854 -2.7318 -0.4658 -0.6187
 1513SOL     OW16000   0.617   3.032   7.706 -0.1677  0.0537  0.0500
 1513SOL    HW116001   0.564   3.011   7.629 -0.8124  1.3995  0.1250
 1513SOL    HW216002   0.604   2.950   7.754  2.4347 -1.4914 -1.8565
 1514SOL     OW16003   1.751   1.030  15.527  0.1656  0.3927 -0.1600
 1514SOL    HW116004   1.845   1.011  15.525  0.4951  2.0744 -0.1741
 1514SOL    HW216005   1.708   0.945  15.516  0.9791  0.0398 -0.6059
 1515SOL     OW16006   3.809   1.049   8.139  0.3598 -0.6588 -0.1946
 1515SOL    HW116007   3.799   1.069   8.232 -2.9454  0.1842 -0.7279
 1515SOL    HW216008   3.894   1.005   8.137  1.2721  1.1742 -1.2672
 1516SOL     OW16009   3.758   0.372   9.324  0.3554 -0.9461  0.2401
 1516SOL    HW116010   3.829   0.417   9.278 -0.8163  1.5646  0.8615
 1516SOL    HW216011   3.702   0.345   9.251  0.5952 -0.4542 -0.1224
 1517SOL     OW16012   0.740   4.050   4.947 -0.2911  0.1579 -0.6155
 1517SOL    HW116013   0.647   4.035   4.928 -0.4981 -1.2317  1.6216
 1517SOL    HW216014   0.743   4.029   5.040 -2.7104  1.4252 -0.2541
 1518SOL     OW16015   1.411   1.386   3.599  0.0367  0.3520  0.4403
 1518SOL    HW116016   1.368   1.446   3.659 -1.7123 -0.6441  0.1705
 1518SOL    HW216017   1.366   1.304   3.617  0.0838  0.4489  0.9883
 1519SOL     OW16018   4.272   4.623  17.267  0.3976 -1.0453  0.1947
 1519SOL    HW116019   4.187   4.601  17.305 -1.0054  1.6179 -1.4533
 1519SOL    HW216020   4.312   4.672  17.339 -1.9477  0.6280  0.3830
 1520SOL     OW16021   1.127   0.452  12.457 -0.8749  0.2282  0.3560
 1520SOL    HW116022   1.110   0.357  12.460 -0.6824  0.1784 -0.0086
 1520SOL    HW216023   1.202   0.456  12.397 -1.7221  1.9506 -0.5902
 1521SOL     OW16024   1.566   2.808  15.310  0.5811  0.2245  0.0942
 1521SOL    HW116025   1.649   2.855  15.308  0.9955 -0.3947  2.5969
 1521SOL    HW216026   1.569   2.770  15.223 -0.6694 -1.4316  0.7534
 1522SOL     OW16027   1.266   1.108  10.910 -0.3373  0.1726 -0.4408
 1522SOL    HW116028   1.185   1.118  10.959 -0.3735  0.5923 -0.5865
 1522SOL    HW216029   1.329   1.088  10.980 -0.7774 -1.1698 -0.4183
 1523SOL     OW16030   2.991   0.241   9.023  0.1539 -0.6187  0.0985
 1523SOL    HW116031   2.971   0.310   9.086  0.3226 -0.5849  0.1158
 1523SOL    HW216032   3.000   0.170   9.086  0.1917 -0.3529  0.3925
 1524SOL     OW16033   1.880   3.524   5.646 -0.0934  0.4408 -0.0101
 1524SOL    HW116034   1.876   3.528   5.742  0.7248 -0.2077  0.0605
 1524SOL    HW216035   1.791   3.518   5.613 -0.4290 -1.0077  1.1725
 1525SOL     OW16036   1.228   2.325  13.240 -0.1509  0.1291  0.2014
 1525SOL    HW116037   1.276   2.329  13.322  1.7240  0.7344 -0.9275
 1525SOL    HW216038   1.247   2.416  13.217 -1.5674 -0.1996 -2.2871
 1526SOL     OW16039   1.691   3.595   6.917 -0.5452  0.1717  0.0296
 1526SOL    HW116040   1.775   3.554   6.939 -0.6611  0.2219  0.5567
 1526SOL    HW216041   1.702   3.596   6.821 -1.4008 -0.4321 -0.0740
 1527SOL     OW16042   0.822   2.690  10.956 -0.4454 -0.5616  0.4843
 1527SOL    HW116043   0.873   2.617  10.922  1.6488  1.0014  0.2426
 1527SOL    HW216044   0.732   2.661  10.945 -0.3240 -0.4456 -0.8297
 1528SOL     OW16045   0.623   1.679   6.115 -0.2814 -0.4470  0.7960
 1528SOL    HW116046   0.674   1.754   6.085  0.4255 -0.1417  2.7627
 1528SOL    HW216047   0.604   1.639   6.030 -0.0464 -1.5572  1.2690
 1529SOL     OW16048   3.982   1.176   3.459  0.4406  0.1655  0.1630
 1529SOL    HW116049   4.054   1.207   3.404  0.4308  0.9552  0.5948
 1529SOL    HW216050   4.024   1.145   3.540 -1.0694  2.0216  1.6368
 1530SOL     OW16051   4.337   3.074  16.357 -0.2350 -0.2114 -0.3310
 1530SOL    HW116052   4.297   2.989  16.375  0.9476 -0.5886  0.5307
 1530SOL    HW216053   4.389   3.084  16.437 -0.5138  2.3307 -0.4812
 1531SOL     OW16054   1.094   2.273   9.985 -0.7378 -0.5735  0.3002
 1531SOL    HW116055   1.139   2.214   9.924 -0.9168 -0.5370  0.1357
 1531SOL    HW216056   1.160   2.278  10.055 -0.4478  0.2390 -0.0248
 1532SOL     OW16057   1.514   3.237  14.867 -0.7722 -0.2035  0.5070
 1532SOL    HW116058   1.556   3.257  14.951 -1.9849 -1.0878  1.3373
 1532SOL    HW216059   1.589   3.223  14.810  0.0935  2.4731  0.9764
 1533SOL     OW16060   3.458   0.588   7.455  0.0067 -0.2517 -0.5776
 1533SOL    HW116061   3.530   0.539   7.495 -0.4995 -0.9594 -0.5376
 1533SOL    HW216062   3.440   0.645   7.529  0.2845 -3.4322  1.9341
 1534SOL     OW16063   2.327   1.247   3.576  0.3296  0.0374 -0.1652
 1534SOL    HW116064   2.252   1.304   3.556 -0.5780 -1.9198 -2.2621
 1534SOL    HW216065   2.391   1.274   3.510 -0.9014  1.2786 -0.8805
 1535SOL     OW16066   0.139   1.737   7.139  0.1435 -0.1625  0.3314
 1535SOL    HW116067   0.140   1.787   7.058  0.2782  0.6815  0.8509
 1535SOL    HW216068   0.058   1.761   7.184 -0.8319 -0.5010 -1.2757
 1536SOL     OW16069   1.122   3.635   7.562 -0.5862  0.7976  0.1671
 1536SOL    HW116070   1.036   3.673   7.581 -1.1815  0.4872 -1.9684
 1536SOL    HW216071   1.157   3.687   7.489 -2.1067 -1.6727 -2.3013
 1537SOL     OW16072   0.003   1.061   1.505 -0.0012 -0.0437  0.1293
 1537SOL    HW116073   0.064   0.992   1.532  0.9258  1.5217  2.0092
 1537SOL    HW216074   0.063   1.105   1.444  2.3823 -0.2593  2.3172
 1538SOL     OW16075   1.132   1.021   4.932 -0.1402  0.3510  0.5315
 1538SOL    HW116076   1.104   1.073   4.856  0.1363 -0.9755 -0.4735
 1538SOL    HW216077   1.195   0.958   4.897  0.4347  0.1511  1.9435
 1539SOL     OW16078   1.059   3.087   5.655 -0.2330  0.2292  0.9854
 1539SOL    HW116079   1.125   3.141   5.697  0.2358  0.5346 -0.1321
 1539SOL    HW216080   1.053   3.006   5.705 -0.4244  0.1610  0.8554
 1540SOL     OW16081   2.393   3.468  16.161  0.7487  0.0142 -0.3021
 1540SOL    HW116082   2.396   3.559  16.189 -0.1905  0.1460 -0.6433
 1540SOL    HW216083   2.337   3.477  16.084 -0.1276 -0.5727  0.2588
 1541SOL     OW16084   4.341   3.534   5.248 -0.2421 -0.1636  0.2065
 1541SOL    HW116085   4.303   3.616   5.218 -1.0259 -0.3947  0.5686
 1541SOL    HW216086   4.420   3.569   5.289 -0.1955 -0.4771  0.3902
 1542SOL     OW16087   4.054   2.744   5.080  0.4999  0.0008  0.0687
 1542SOL    HW116088   4.009   2.828   5.076 -1.9305 -1.2144  2.4554
 1542SOL    HW216089   4.043   2.727   4.986  0.3591  0.4695  0.0012
 1543SOL     OW16090   2.638   3.236   8.352  0.1327  0.3950  0.3453
 1543SOL    HW116091   2.706   3.194   8.405  0.8436 -0.9299 -1.6457
 1543SOL    HW216092   2.633   3.193   8.267 -2.5113  0.4769  0.4508
 1544SOL     OW16093   1.371   3.975   8.632  0.2385  0.2927 -0.2412
 1544SOL    HW116094   1.443   3.971   8.695 -1.0300  0.1072  1.1848
 1544SOL    HW216095   1.412   3.995   8.547  0.4290 -0.4866 -0.3354
 1545SOL     OW16096   0.343   4.187   6.959  0.1112  0.0891  0.1743
 1545SOL    HW116097   0.401   4.233   7.020  2.3708 -0.5146 -1.5443
 1545SOL    HW216098   0.397   4.178   6.881  0.2373  0.7836  0.1849
 1546SOL     OW16099   3.815   0.983   6.134  0.4829 -0.4403 -0.1091
 1546SOL    HW116100   3.768   1.051   6.182 -0.8993 -1.5806  0.1203
 1546SOL    HW216101   3.908   0.986   6.159  0.5550 -1.0452 -0.3111
 1547SOL     OW16102   2.727   1.592  15.273  0.5522  0.0544  0.2807
 1547SOL    HW116103   2.717   1.675  15.320 -1.4206 -0.7864  1.3336
 1547SOL    HW216104   2.678   1.611  15.193  1.3680  1.3349  0.0725
 1548SOL     OW16105   3.274   4.616   5.641 -0.7287  0.0318  0.8453
 1548SOL    HW116106   3.254   4.662   5.723 -1.1754 -0.1207  0.8212
 1548SOL    HW216107   3.364   4.645   5.627 -0.9625  1.6097  2.6009
 1549SOL     OW16108   1.836   2.613  15.240  0.6657  0.0404 -0.1235
 1549SOL    HW116109   1.777   2.551  15.283 -0.9542 -0.2357 -2.7140
 1549SOL    HW216110   1.806   2.608  15.149 -0.9901 -0.8100  0.4749
 1550SOL     OW16111   2.445   0.473  14.741  0.3996  0.5404 -0.2692
 1550SOL    HW116112   2.418   0.484  14.650  1.2012  0.2165 -0.5433
 1550SOL    HW216113   2.500   0.395  14.746 -0.0780  0.1332 -1.6348
 1551SOL     OW16114   3.835   1.612   2.558  0.2844  0.2661 -0.9106
 1551SOL    HW116115   3.802   1.591   2.646  2.7021  4.1414  0.9198
 1551SOL    HW216116   3.872   1.699   2.576  0.1144 -0.0962  1.2600
 1552SOL     OW16117   2.550   1.656   5.517 -0.3188  1.0851 -0.1437
 1552SOL    HW116118   2.538   1.564   5.538  0.6388  0.4722 -2.2628
 1552SOL    HW216119   2.463   1.691   5.538 -0.0863  2.0422 -0.7676
 1553SOL     OW16120   0.371   3.837   2.865 -0.1257 -0.7629 -0.1421
 1553SOL    HW116121   0.361   3.901   2.935 -0.3627  0.0059 -0.8881
 1553SOL    HW216122   0.291   3.786   2.879 -0.7869  0.2204 -0.3304
 1554SOL     OW16123   3.506   0.488   6.745  0.2480 -0.4106  0.0129
 1554SOL    HW116124   3.501   0.540   6.825  1.7561  2.0663 -1.4655
 1554SOL    HW216125   3.600   0.490   6.729 -0.0129 -0.0339 -1.5766
 1555SOL     OW16126   1.199   1.959   7.737  0.6043  0.0869  0.2954
 1555SOL    HW116127   1.286   1.950   7.697  0.3989 -2.1059  0.3615
 1555SOL    HW216128   1.216   1.978   7.829  0.1113  1.2225  0.1619
 1556SOL     OW16129   4.527   3.539  16.994 -0.2633 -0.0585  0.1438
 1556SOL    HW116130   4.487   3.474  16.936  0.1914 -0.7728  0.6262
 1556SOL    HW216131   4.603   3.490  17.024  0.7538 -0.6664 -3.3677
 1557SOL     OW16132   0.171   2.245   4.732  0.8879  0.7700 -0.2731
 1557SOL    HW116133   0.178   2.179   4.663 -0.2617 -0.3187  0.6532
 1557SOL    HW216134   0.119   2.204   4.801  1.5644  1.0250  0.3816
 1558SOL     OW16135   3.456   3.198   3.610 -0.7632  0.2226 -0.2578
 1558SOL    HW116136   3.535   3.201   3.663 -0.6655  0.7883 -0.4371
 1558SOL    HW216137   3.461   3.116   3.560 -0.3602 -0.0437  0.2139
 1559SOL     OW16138   1.407   3.574   5.464  0.4631 -0.0699 -0.0333
 1559SOL    HW116139   1.376   3.503   5.408 -1.9411  1.4689 -0.6797
 1559SOL    HW216140   1.482   3.610   5.418 -0.3337  2.6201  0.7228
 1560SOL     OW16141   1.553   1.192   5.322  0.1838  0.0903  0.5590
 1560SOL    HW116142   1.625   1.251   5.298 -0.3805  0.6383  0.2179
 1560SOL    HW216143   1.592   1.152   5.400  0.2553  1.6738  1.3367
 1561SOL     OW16144   3.104   3.352  11.674 -0.8797 -0.4751 -0.5402
 1561SOL    HW116145   3.094   3.363  11.768 -2.2767  1.6734 -0.9396
 1561SOL    HW216146   3.040   3.416  11.644  0.9440  1.7960  0.4384
 1562SOL     OW16147   2.536   2.167   4.392 -0.6914 -0.6853 -0.4398
 1562SOL    HW116148   2.572   2.092   4.345 -0.0751 -0.5745 -0.1388
 1562SOL    HW216149   2.613   2.203   4.437  0.0047  0.4193 -2.4596
 1563SOL     OW16150   4.281   0.665   1.963  0.6571 -0.1818  0.3698
 1563SOL    HW116151   4.189   0.640   1.952  0.8339  0.0625 -1.6749
 1563SOL    HW216152   4.321   0.668   1.876  1.5050 -0.0259  0.7692
 1564SOL     OW16153   1.492   1.937   9.012 -0.1650  0.2708  0.5644
 1564SOL    HW116154   1.557   1.879   8.974 -0.6551 -1.1910  1.9611
 1564SOL    HW216155   1.462   1.984   8.934 -1.5660  1.8735  2.0548
 1565SOL     OW16156   1.205   0.781   6.692 -0.1021  0.3654  0.2789
 1565SOL    HW116157   1.221   0.689   6.713 -0.4443 -0.6409 -3.9427
 1565SOL    HW216158   1.129   0.788   6.750 -0.4872  0.0869 -0.1956
 1566SOL     OW16159   0.601   0.285   6.714  0.3561 -0.0560  0.1370
 1566SOL    HW116160   0.525   0.288   6.657  1.4959  1.3766 -1.3052
 1566SOL    HW216161   0.583   0.342   6.790 -3.2539 -0.5376 -0.3595
 1567SOL     OW16162   2.393   0.905   2.263 -0.0955 -0.2812  0.5702
 1567SOL    HW116163   2.359   0.838   2.204 -0.8850  0.7702 -0.1617
 1567SOL    HW216164   2.487   0.902   2.247 -0.2683  1.5312 -0.7619
 1568SOL     OW16165   1.541   0.584   1.079 -0.3317  0.1398 -0.7590
 1568SOL    HW116166   1.475   0.651   1.063 -0.1319 -0.3668 -3.7282
 1568SOL    HW216167   1.591   0.616   1.154  0.3425 -0.6838 -0.8596
 1569SOL     OW16168   0.316   1.333  14.543  0.4094  0.3645 -0.7185
 1569SOL    HW116169   0.322   1.405  14.606  0.1708  1.0960 -1.5312
 1569SOL    HW216170   0.225   1.341  14.517 -0.1484  1.4206  1.5490
 1570SOL     OW16171   4.505   1.760   5.660 -0.7619 -0.2905 -0.0179
 1570SOL    HW116172   4.567   1.801   5.600  1.7275 -1.1270  1.9977
 1570SOL    HW216173   4.478   1.832   5.717  1.8823  1.0656 -0.4918
 1571SOL     OW16174   4.151   1.100   3.657  0.1767  0.4969 -0.1666
 1571SOL    HW116175   4.123   1.039   3.726  0.8736 -1.6526 -1.7664
 1571SOL    HW216176   4.240   1.129   3.673 -0.1903  0.3361  2.1848
 1572SOL     OW16177   3.566   1.510   4.265  0.1648  0.2804 -0.6421
 1572SOL    HW116178   3.616   1.520   4.184 -0.3946  3.2469 -0.6175
 1572SOL    HW216179   3.574   1.587   4.321  1.9465 -0.1341 -0.3502
 1573SOL     OW16180   1.376   3.614   6.446 -0.1871 -0.2278 -0.4955
 1573SOL    HW116181   1.352   3.703   6.418 -1.9258  0.0750  1.8744
 1573SOL    HW216182   1.428   3.631   6.525 -0.9659 -0.3532  0.0507
 1574SOL     OW16183   2.845   3.331  10.082 -0.8363 -0.4574 -0.2278
 1574SOL    HW116184   2.818   3.240  10.078 -3.0138  0.1940 -0.6555
 1574SOL    HW216185   2.765   3.374  10.113 -0.4832  1.6384 -2.2261
 1575SOL     OW16186   4.442   2.200   2.820 -0.5237  0.4873 -0.6682
 1575SOL    HW116187   4.464   2.165   2.906 -1.6421 -0.8975 -0.9209
 1575SOL    HW216188   4.447   2.123   2.763  0.4870 -0.9782  1.4165
 1576SOL     OW16189   3.666   1.098   3.097 -0.5411  0.0763  0.1795
 1576SOL    HW116190   3.712   1.088   3.180 -0.0462  0.2300 -0.0734
 1576SOL    HW216191   3.674   1.005   3.075 -1.5738  0.6434 -2.5222
 1577SOL     OW16192   4.052   4.197   6.623  0.4355 -0.1993  1.0307
 1577SOL    HW116193   3.973   4.168   6.669 -0.4807  0.3740 -0.1692
 1577SOL    HW216194   4.030   4.147   6.545  0.5352  1.4478 -0.0536
 1578SOL     OW16195   0.502   4.411   0.784  0.5872  0.1830  0.1294
 1578SOL    HW116196   0.436   4.461   0.833 -0.4307 -0.1787 -0.8608
 1578SOL    HW216197   0.441   4.347   0.747  0.3708  0.3200  0.2461
 1579SOL     OW16198   1.053   0.690   1.742  0.4456 -0.1256  0.1096
 1579SOL    HW116199   1.102   0.767   1.712  0.1640  0.8704  2.2371
 1579SOL    HW216200   1.119   0.623   1.724 -0.1370 -0.3090 -1.3329
 1580SOL     OW16201   4.175   1.660  12.939 -0.0746  0.4064  0.6851
 1580SOL    HW116202   4.183   1.752  12.915  0.2955  0.6911  1.8928
 1580SOL    HW216203   4.235   1.627  12.872 -0.0548  1.6626  0.0921
 1581SOL     OW16204   2.838   1.869   3.633  0.0205 -0.0838  0.7184
 1581SOL    HW116205   2.927   1.897   3.613 -0.2546 -0.5460 -1.1297
 1581SOL    HW216206   2.791   1.905   3.558 -1.0117 -0.0214  1.3980
 1582SOL     OW16207   0.794   1.918   9.523  0.5220  0.2882  0.8903
 1582SOL    HW116208   0.746   1.987   9.569 -0.7672  0.6677 -1.0108
 1582SOL    HW216209   0.821   1.855   9.590 -2.4373 -1.9129  0.0350
 1583SOL     OW16210   0.497   2.235  11.227  0.4824 -0.2752  0.6321
 1583SOL    HW116211   0.468   2.156  11.183  1.7884  1.1359 -2.7324
 1583SOL    HW216212   0.524   2.293  11.156 -2.8722 -1.5245 -1.6937
 1584SOL     OW16213   1.128   2.554  15.319 -0.3252 -0.2506  0.0206
 1584SOL    HW116214   1.192   2.573  15.388 -1.9314  0.0293  1.4373
 1584SOL    HW216215   1.143   2.634  15.269  0.5904  0.7281  1.8629
 1585SOL     OW16216   3.533   0.419   9.567  0.3155  0.0603  0.0376
 1585SOL    HW116217   3.577   0.337   9.548 -0.0618 -0.2380  0.4650
 1585SOL    HW216218   3.599   0.479   9.531  1.0015  0.1672  1.4646
 1586SOL     OW16219   0.901   4.080   5.687  0.3566  0.0203  0.3676
 1586SOL    HW116220   0.905   4.099   5.781  0.5969 -1.0792  0.5726
 1586SOL    HW216221   0.813   4.113   5.669  0.0176 -1.7702 -1.2530
 1587SOL     OW16222   4.350   0.841   8.716 -0.1846 -0.0294  0.1337
 1587SOL    HW116223   4.289   0.878   8.781 -0.4276  0.5624 -0.4322
 1587SOL    HW216224   4.429   0.877   8.755 -0.3350  0.9883 -0.5218
 1588SOL     OW16225   2.948   2.462   9.579 -0.1875 -0.0025  1.0541
 1588SOL    HW116226   2.946   2.488   9.671  1.7028  2.2654  0.4399
 1588SOL    HW216227   2.871   2.406   9.570 -0.6544  0.8581 -0.2940
 1589SOL     OW16228   1.595   1.063  11.490  0.2353 -0.3339 -0.0755
 1589SOL    HW116229   1.556   1.106  11.413 -0.9764  1.0261  1.3057
 1589SOL    HW216230   1.556   1.100  11.569  3.7053 -0.3629  1.6492
 1590SOL     OW16231   1.788   0.410   1.162 -0.6967 -0.4837 -0.1006
 1590SOL    HW116232   1.748   0.341   1.215  0.9618 -0.2362  1.4855
 1590SOL    HW216233   1.758   0.493   1.201  3.2404  0.6094  0.6136
 1591SOL     OW16234   1.554   4.073   4.362 -0.8520  0.1132 -0.6727
 1591SOL    HW116235   1.506   4.118   4.431  1.3234 -0.7183  1.3772
 1591SOL    HW216236   1.637   4.119   4.355 -1.3073  0.9513 -0.5277
 1592SOL     OW16237   1.427   2.538   4.242  0.2447  0.4134  0.7215
 1592SOL    HW116238   1.480   2.507   4.169 -0.5092  0.6649  0.0718
 1592SOL    HW216239   1.339   2.543   4.205  1.0213 -0.3468 -1.2207
 1593SOL     OW16240   4.623   0.875  15.402  0.1750  0.3543  0.4813
 1593SOL    HW116241   4.567   0.860  15.478  0.0223 -0.2651  0.2516
 1593SOL    HW216242   4.686   0.803  15.401  0.7755  0.8761  0.8121
 1594SOL     OW16243   1.197   4.249  16.450  0.0285 -0.0830  0.6900
 1594SOL    HW116244   1.181   4.199  16.530 -0.2152 -0.4176  0.4304
 1594SOL    HW216245   1.227   4.180  16.391 -2.4557 -2.0630  1.7164
 1595SOL     OW16246   1.718   2.822   3.985 -0.0886  0.1002 -0.1786
 1595SOL    HW116247   1.735   2.783   4.071  1.1979 -1.1025 -0.9964
 1595SOL    HW216248   1.747   2.913   3.996  0.5226  0.0544 -1.4362
 1596SOL     OW16249   1.234   0.793   3.680 -0.3639 -0.6339  0.3639
 1596SOL    HW116250   1.273   0.821   3.762 -0.6374 -1.9202  0.9274
 1596SOL    HW216251   1.150   0.759   3.711 -1.0641 -1.2310 -2.1132
 1597SOL     OW16252   4.297   0.057   0.069  0.1471  0.5972  0.2770
 1597SOL    HW116253   4.222   0.008   0.101  0.4382 -0.9850 -1.4427
 1597SOL    HW216254   4.370   4.719   0.089  1.3842  1.5790 -1.2666
 1598SOL     OW16255   3.690   3.197   5.374  0.3453  0.2313  0.3345
 1598SOL    HW116256   3.713   3.155   5.458  0.4914 -2.6050 -1.1034
 1598SOL    HW216257   3.634   3.129   5.336 -0.7610  2.2592 -1.6076
 1599SOL     OW16258   3.132   0.475  15.136  0.2060  0.2451 -0.4203
 1599SOL    HW116259   3.183   0.555  15.153 -0.1002  0.1882  0.7525
 1599SOL    HW216260   3.048   0.515  15.111 -0.3536 -0.8641 -0.2761
 1600SOL     OW16261   1.149   2.573   9.990  0.1792  0.7020 -0.1894
 1600SOL    HW116262   1.054   2.563   9.989  0.3949 -1.4477  1.8047
 1600SOL    HW216263   1.177   2.549  10.078  1.0098 -1.4426 -1.0193
 1601SOL     OW16264   3.827   4.712   6.583  0.3001  0.1383 -0.6946
 1601SOL    HW116265   3.772   0.068   6.603 -0.8054 -1.1615  1.3066
 1601SOL    HW216266   3.818   4.714   6.488 -0.7618 -1.2591 -0.6318
 1602SOL     OW16267   1.864   0.164  14.895  0.1728  0.3608 -0.2336
 1602SOL    HW116268   1.772   0.165  14.866 -0.5894  1.5336  2.2501
 1602SOL    HW216269   1.834   0.135  14.981 -3.6463  0.8172 -1.3862
 1603SOL     OW16270   0.364   3.182  12.401 -0.0854 -0.6262  0.0221
 1603SOL    HW116271   0.283   3.197  12.351 -1.1351  0.7887  2.1529
 1603SOL    HW216272   0.324   3.177  12.488 -0.3404  0.1604 -0.0536
 1604SOL     OW16273   0.475   1.587  11.737 -0.0110  0.5495 -0.0902
 1604SOL    HW116274   0.482   1.609  11.830 -0.0183 -0.8769  0.2536
 1604SOL    HW216275   0.479   1.491  11.739  1.4278  0.5764 -1.9678
 1605SOL     OW16276   0.283   2.647   2.616 -0.3128 -0.1338  0.9889
 1605SOL    HW116277   0.273   2.671   2.708  0.4760 -1.3358  1.3811
 1605SOL    HW216278   0.374   2.635   2.589 -0.6890 -3.3914  1.1969
 1606SOL     OW16279   2.644   2.180   6.965  0.1272  0.1728 -0.0253
 1606SOL    HW116280   2.635   2.140   7.052 -0.8472  0.5382  0.0364
 1606SOL    HW216281   2.557   2.218   6.955  0.2816  0.5097 -0.0720
 1607SOL     OW16282   0.818   1.520   8.583  0.7921  0.8091  0.8149
 1607SOL    HW116283   0.772   1.604   8.580  2.3864  1.6816  1.0056
 1607SOL    HW216284   0.749   1.477   8.532  0.6720  0.1315  1.5379
 1608SOL     OW16285   1.942   0.612   8.724 -0.0069  0.6349 -0.5674
 1608SOL    HW116286   1.998   0.637   8.797  0.1073 -1.7457  0.1519
 1608SOL    HW216287   1.985   0.660   8.653 -1.1114  0.4114 -1.3793
 1609SOL     OW16288   3.272   1.103   1.382 -0.1120 -0.1909 -0.1976
 1609SOL    HW116289   3.209   1.145   1.323 -0.5478 -0.8586 -0.2038
 1609SOL    HW216290   3.351   1.154   1.364 -1.0673  0.5776 -2.3107
 1610SOL     OW16291   2.078   0.146  12.342  0.8083  0.1337  0.1525
 1610SOL    HW116292   2.018   0.082  12.377  0.3047  1.5580  1.8996
 1610SOL    HW216293   2.061   0.220  12.400  0.0989 -0.6981  0.9963
 1611SOL     OW16294   3.360   4.448   2.049  0.9786 -0.6681  0.0762
 1611SOL    HW116295   3.266   4.431   2.043  0.9431 -1.8954  3.8565
 1611SOL    HW216296   3.382   4.379   2.112  4.5412  0.6725  0.3052
 1612SOL     OW16297   0.305   3.630   4.654 -0.0798 -0.3267 -0.2420
 1612SOL    HW116298   0.249   3.591   4.722  0.7767 -0.2882  0.4920
 1612SOL    HW216299   0.249   3.609   4.579  0.4616 -1.1360 -0.4193
 1613SOL     OW16300   4.475   4.567  15.128  0.1203  0.0533  0.2318
 1613SOL    HW116301   4.415   4.531  15.062 -0.2236 -2.3932  1.8925
 1613SOL    HW216302   4.556   4.521  15.107 -0.4417 -0.4380 -0.8499
 1614SOL     OW16303   4.626   1.807   2.604 -0.4577  0.1287 -0.1873
 1614SOL    HW116304   4.661   1.795   2.515 -2.0740  0.1839 -0.8255
 1614SOL    HW216305   4.591   1.722   2.631 -1.2680  2.1093  4.9691
 1615SOL     OW16306   1.624   3.722  14.546  0.2419 -0.6719  0.1040
 1615SOL    HW116307   1.719   3.708  14.548  0.1662 -1.6929 -2.7099
 1615SOL    HW216308   1.610   3.661  14.473 -0.7093 -2.0993  1.5072
 1616SOL     OW16309   2.953   0.818   6.467 -0.2566 -0.3367  0.0426
 1616SOL    HW116310   2.917   0.888   6.522 -1.1928 -0.4549 -0.4303
 1616SOL    HW216311   3.026   0.862   6.422 -0.5289  0.4826  0.3904
 1617SOL     OW16312   2.309   1.962  14.402  0.0838  0.3856 -0.2397
 1617SOL    HW116313   2.383   1.902  14.409  0.0823  0.5800  1.2902
 1617SOL    HW216314   2.281   1.968  14.493  0.7877  1.7868 -0.1110
 1618SOL     OW16315   2.856   0.955   6.985 -0.2248 -0.0329  0.4642
 1618SOL    HW116316   2.912   0.994   7.051 -2.4323 -0.2928  2.4823
 1618SOL    HW216317   2.813   0.881   7.027  0.6564 -1.1688 -0.6034
 1619SOL     OW16318   3.939   3.527   2.629 -0.1414  0.0729 -0.0668
 1619SOL    HW116319   4.030   3.538   2.655 -1.2227  3.1305  2.4086
 1619SOL    HW216320   3.957   3.485   2.545  0.2964 -0.8541  0.4920
 1620SOL     OW16321   0.645   4.445  12.077 -0.1601  0.3895 -0.2824
 1620SOL    HW116322   0.640   4.413  11.988 -0.6060  2.7814 -1.1196
 1620SOL    HW216323   0.711   4.386  12.115 -2.7605 -0.3676  3.0467
 1621SOL     OW16324   3.237   2.996  17.583 -0.2519  0.7789 -0.6527
 1621SOL    HW116325   3.264   2.988  17.492  1.8978 -1.0312  0.1606
 1621SOL    HW216326   3.316   2.996  17.637 -1.4914  1.0505  1.1627
 1622SOL     OW16327   4.599   0.255   5.139 -0.2232  0.0361 -0.1860
 1622SOL    HW116328   4.509   0.249   5.169  0.2045  2.3833  1.6559
 1622SOL    HW216329   4.594   0.331   5.080  2.4230 -0.8771 -1.5767
 1623SOL     OW16330   3.561   0.025  12.449  0.2403 -0.0846  0.2334
 1623SOL    HW116331   3.485   0.042  12.504  0.9576  1.0098  0.8903
 1623SOL    HW216332   3.509   0.036  12.370  0.8634 -2.0378 -0.4606
 1624SOL     OW16333   0.294   3.861  17.640 -0.1723  0.2631  0.5996
 1624SOL    HW116334   0.378   3.905  17.623 -0.1342 -0.8033 -2.1424
 1624SOL    HW216335   0.243   3.892  17.565 -0.7529 -0.4933  0.6794
 1625SOL     OW16336   2.104   3.136   3.967 -0.3071 -0.2619 -0.1927
 1625SOL    HW116337   2.059   3.180   4.039  3.0906  0.1172  1.6941
 1625SOL    HW216338   2.182   3.104   4.012 -0.7645 -0.5592  0.3834
 1626SOL     OW16339   1.109   1.646  14.920  0.2206 -0.3209  0.2606
 1626SOL    HW116340   1.101   1.713  14.853  1.0985  0.3178  0.7884
 1626SOL    HW216341   1.194   1.665  14.961  1.6505  1.5022 -3.5259
 1627SOL     OW16342   3.817   2.158   3.946 -0.0285  0.4784 -0.1178
 1627SOL    HW116343   3.854   2.213   4.015  0.8113 -1.0301  0.6217
 1627SOL    HW216344   3.877   2.171   3.873 -1.5585 -0.4501 -1.5475
 1628SOL     OW16345   2.265   0.209   8.345  0.6366  0.2719  0.1825
 1628SOL    HW116346   2.317   0.257   8.280 -0.7871  1.7993  0.1659
 1628SOL    HW216347   2.251   0.128   8.296  0.3410 -0.3085  1.2220
 1629SOL     OW16348   0.269   0.948   8.933  0.1507  0.4419 -0.4501
 1629SOL    HW116349   0.282   0.888   9.006 -0.2161  1.8817  0.8171
 1629SOL    HW216350   0.192   0.900   8.903 -0.1649  0.4711  0.3011
 1630SOL     OW16351   0.955   4.050   1.097 -0.4737  0.2702 -0.6436
 1630SOL    HW116352   1.013   3.974   1.095  2.3212  2.3851  1.0417
 1630SOL    HW216353   0.907   4.018   1.174 -0.8272  0.9095 -0.6039
 1631SOL     OW16354   3.064   1.241   1.864 -0.0599  0.1316  0.2605
 1631SOL    HW116355   3.109   1.187   1.799  0.2358  1.0577 -0.3136
 1631SOL    HW216356   3.067   1.326   1.820 -0.9559 -0.8001 -1.6043
 1632SOL     OW16357   2.932   4.440  11.441  0.2378  0.1342 -0.3924
 1632SOL    HW116358   2.939   4.390  11.522  2.5015 -1.5401 -1.6360
 1632SOL    HW216359   2.851   4.485  11.465  0.1610 -1.1995  1.7845
 1633SOL     OW16360   2.518   3.767  10.421 -0.5296 -0.0938  0.1153
 1633SOL    HW116361   2.527   3.805  10.334  1.7780  0.5341  0.6279
 1633SOL    HW216362   2.427   3.737  10.420  0.0571 -1.8554 -0.1653
 1634SOL     OW16363   3.509   2.312   6.771  0.5744 -0.0849 -0.3983
 1634SOL    HW116364   3.436   2.273   6.722  0.7597 -1.2853  0.2682
 1634SOL    HW216365   3.450   2.351   6.836 -0.0954  1.1336 -1.7344
 1635SOL     OW16366   0.820   1.909  14.310 -0.2618  0.2270  0.2250
 1635SOL    HW116367   0.739   1.929  14.263 -0.4802  1.4447  1.1004
 1635SOL    HW216368   0.858   1.837  14.260  1.9688  0.0091  2.2093
 1636SOL     OW16369   3.064   0.427   9.604  0.2318  0.1212 -0.1086
 1636SOL    HW116370   3.036   0.515   9.630  1.0957 -0.2053  1.8579
 1636SOL    HW216371   3.150   0.459   9.576  1.0523 -1.3707  0.7165
 1637SOL     OW16372   0.207   3.182   6.210  0.4620  0.1230 -0.7757
 1637SOL    HW116373   0.284   3.171   6.267  0.7345 -1.0832 -1.3649
 1637SOL    HW216374   0.160   3.253   6.253 -1.4150 -1.9814  0.6040
 1638SOL     OW16375   0.194   3.467   7.653  0.1416 -0.0394  0.8610
 1638SOL    HW116376   0.226   3.478   7.564 -0.0355 -2.6219  0.4705
 1638SOL    HW216377   0.220   3.550   7.693  0.4928  0.2150  0.0896
 1639SOL     OW16378   3.238   2.797   1.976  0.0930 -0.3198  0.2683
 1639SOL    HW116379   3.314   2.769   2.027 -0.4209 -2.3601 -0.0918
 1639SOL    HW216380   3.269   2.823   1.889  0.2530  2.6898  1.2282
 1640SOL     OW16381   1.146   0.814   5.948 -0.4509 -0.3591 -0.0886
 1640SOL    HW116382   1.091   0.767   6.011 -1.2310 -0.7040 -1.0191
 1640SOL    HW216383   1.113   0.903   5.959  1.7908  0.9076 -3.9032
 1641SOL     OW16384   1.056   3.357  15.620  0.0198  0.4027  0.2830
 1641SOL    HW116385   1.087   3.437  15.577 -2.4358 -1.0181 -4.1389
 1641SOL    HW216386   0.966   3.353  15.587  1.1508 -1.2136 -2.5310
 1642SOL     OW16387   1.370   0.921  15.781  0.7892 -0.1155  0.2702
 1642SOL    HW116388   1.292   0.941  15.729  0.7134 -1.9207 -0.3024
 1642SOL    HW216389   1.325   0.894  15.860  2.6628 -0.0992  1.3462
 1643SOL     OW16390   0.990   2.317   4.596  0.8786  0.1344  0.2731
 1643SOL    HW116391   0.911   2.310   4.650 -1.4819  2.1291 -2.9799
 1643SOL    HW216392   0.946   2.305   4.512  2.3127  1.0475 -0.6045
 1644SOL     OW16393   2.145   3.353   5.581 -0.2531  0.2342 -0.1874
 1644SOL    HW116394   2.062   3.305   5.572  0.3953 -0.5731 -1.9691
 1644SOL    HW216395   2.121   3.434   5.626 -0.3059  0.9475 -1.4890
 1645SOL     OW16396   3.123   2.792   4.124 -0.4371 -0.6451 -0.3150
 1645SOL    HW116397   3.142   2.817   4.214  0.1864 -0.6147 -0.4581
 1645SOL    HW216398   3.209   2.755   4.103  0.3689 -0.9557  3.4479
 1646SOL     OW16399   3.356   0.696  14.007 -0.3563  0.2926 -0.6835
 1646SOL    HW116400   3.350   0.652  13.922 -0.1016  1.0855 -1.1122
 1646SOL    HW216401   3.262   0.701  14.027  0.4395  0.2053  3.0589
 1647SOL     OW16402   1.625   3.933   3.618  0.2175 -0.5529  0.5961
 1647SOL    HW116403   1.613   4.008   3.676  3.0158  1.5833 -1.5778
 1647SOL    HW216404   1.720   3.934   3.610  0.3398  0.3542  2.0515
 1648SOL     OW16405   1.920   3.889   3.713  0.1084  0.1834  0.1235
 1648SOL    HW116406   1.912   3.965   3.771 -1.3168  1.1065 -1.2707
 1648SOL    HW216407   1.980   3.915   3.644  0.0071  3.5878  1.2955
 1649SOL     OW16408   2.551   2.304   6.166  0.0343  0.3083  0.0451
 1649SOL    HW116409   2.471   2.353   6.151 -0.7355 -1.1675 -0.6628
 1649SOL    HW216410   2.590   2.350   6.240 -0.9113  0.9334  0.1509
 1650SOL     OW16411   4.248   2.907   6.585 -0.4309  0.8838 -0.8691
 1650SOL    HW116412   4.203   2.849   6.523 -0.5373 -1.2597  1.1926
 1650SOL    HW216413   4.232   2.857   6.665  0.9342 -0.7112 -1.5947
 1651SOL     OW16414   1.962   0.432   8.962  0.8097  0.2896 -0.6066
 1651SOL    HW116415   1.881   0.385   8.987  0.6167 -0.3675 -2.4854
 1651SOL    HW216416   1.927   0.487   8.892  0.5393  0.6427 -0.1973
 1652SOL     OW16417   2.406   2.136   1.693  0.0110 -0.0800  0.6861
 1652SOL    HW116418   2.421   2.195   1.766  0.0464  0.5581  0.1615
 1652SOL    HW216419   2.437   2.055   1.734  1.9590 -0.3048 -1.2187
 1653SOL     OW16420   2.503   0.873   4.829 -0.6584 -0.3088 -0.0101
 1653SOL    HW116421   2.598   0.889   4.833 -0.9962  1.2518  1.6632
 1653SOL    HW216422   2.486   0.902   4.739 -1.2320 -0.4263  0.0619
 1654SOL     OW16423   3.125   0.121   4.014 -0.1190 -0.7765 -0.2512
 1654SOL    HW116424   3.047   0.107   3.960 -1.4521 -0.0565  1.4919
 1654SOL    HW216425   3.134   0.216   4.005 -0.4577 -0.8394 -1.2113
 1655SOL     OW16426   4.648   4.449   8.175 -0.0217 -0.3469 -0.2630
 1655SOL    HW116427   4.690   4.397   8.106  0.6424 -0.6395  0.3587
 1655SOL    HW216428   4.697   4.531   8.177  1.9219 -1.5024 -0.4508
 1656SOL     OW16429   3.739   3.749  16.098  0.0771  0.1094 -0.5628
 1656SOL    HW116430   3.805   3.813  16.071 -1.1219  1.1329 -1.0643
 1656SOL    HW216431   3.778   3.675  16.051  2.1079  0.0566  1.1740
 1657SOL     OW16432   2.369   2.757  15.113 -0.3486 -0.2045 -0.3307
 1657SOL    HW116433   2.439   2.809  15.074 -2.1458 -0.0858 -3.3688
 1657SOL    HW216434   2.299   2.817  15.139  2.3420  2.6979  0.0879
 1658SOL     OW16435   2.027   1.335   4.972  0.0724  0.3967 -0.6314
 1658SOL    HW116436   2.082   1.304   4.899  1.8663 -0.5765  1.1382
 1658SOL    HW216437   2.068   1.420   4.987  0.3305  0.1655 -0.0538
 1659SOL     OW16438   1.495   3.911  14.839 -0.9844  0.7067 -0.1413
 1659SOL    HW116439   1.522   3.830  14.882  0.5739  1.0075 -0.5540
 1659SOL    HW216440   1.438   3.935  14.913  0.2497  3.9781 -0.2684
 1660SOL     OW16441   2.804   3.059   2.127  0.1804 -0.5721  0.2017
 1660SOL    HW116442   2.736   3.038   2.063 -0.3660  0.6828  0.3698
 1660SOL    HW216443   2.882   3.020   2.086  0.8804  0.5947  0.4307
 1661SOL     OW16444   1.211   2.387   4.795  0.2488  0.0313  0.3473
 1661SOL    HW116445   1.188   2.359   4.706  1.0514 -1.9486  0.7624
 1661SOL    HW216446   1.141   2.352   4.850 -0.4517  0.6646 -0.1436
 1662SOL     OW16447   2.866   1.956   7.742  0.0884  0.8065 -0.0366
 1662SOL    HW116448   2.926   1.949   7.667 -0.5993  3.2526 -0.7918
 1662SOL    HW216449   2.916   1.898   7.800  1.9541  2.3757 -0.0657
 1663SOL     OW16450   0.684   4.318   1.683  0.3193 -0.1226  0.5151
 1663SOL    HW116451   0.685   4.383   1.613 -1.0319 -0.9129 -0.2364
 1663SOL    HW216452   0.592   4.294   1.691 -0.3359  2.0125 -0.6998
 1664SOL     OW16453   2.683   3.110  11.192 -0.3658 -0.0636  0.1354
 1664SOL    HW116454   2.769   3.121  11.151 -0.0742  1.1373  1.0560
 1664SOL    HW216455   2.713   3.120  11.283  2.8941  1.6221 -1.1226
 1665SOL     OW16456   0.487   0.479   8.789  0.4337  0.3792 -0.6341
 1665SOL    HW116457   0.551   0.504   8.722 -0.7715  1.4579 -1.3632
 1665SOL    HW216458   0.494   0.383   8.781  0.9969  0.2461  1.3229
 1666SOL     OW16459   4.378   1.582   7.221 -0.3875  0.0509  0.1982
 1666SOL    HW116460   4.378   1.533   7.139 -1.3843  0.3445  0.0170
 1666SOL    HW216461   4.295   1.631   7.217  0.0367  0.6356 -1.3398
 1667SOL     OW16462   0.326   0.965   3.834 -0.1916 -0.2456 -0.0613
 1667SOL    HW116463   0.415   0.971   3.798  0.7020 -2.5603  1.7780
 1667SOL    HW216464   0.296   1.056   3.836 -1.8370 -0.8040  0.1675
 1668SOL     OW16465   2.602   2.050  13.341 -0.0359  0.0894  0.0975
 1668SOL    HW116466   2.621   1.976  13.399  0.8453  1.0875  1.0886
 1668SOL    HW216467   2.532   2.014  13.287  1.2057 -0.7784 -0.9351
 1669SOL     OW16468   0.839   4.139   2.290 -0.6481  0.2440 -0.0907
 1669SOL    HW116469   0.883   4.062   2.252 -2.1593  0.6284 -2.6058
 1669SOL    HW216470   0.900   4.211   2.277 -1.1797  0.4497 -1.4872
 1670SOL     OW16471   2.871   2.032   3.199  0.5823  0.2689 -0.0232
 1670SOL    HW116472   2.919   2.110   3.175 -0.3724 -0.2067 -3.4986
 1670SOL    HW216473   2.893   1.980   3.122  1.8489  2.6700 -1.2414
 1671SOL     OW16474   2.132   3.702   6.881  0.2080  0.3977  0.2397
 1671SOL    HW116475   2.184   3.674   6.805  1.4363 -1.9826  1.9658
 1671SOL    HW216476   2.158   3.794   6.890  0.3237  0.3457  0.4334
 1672SOL     OW16477   2.359   1.340   8.774  0.2800 -0.2163  0.0652
 1672SOL    HW116478   2.444   1.320   8.735  0.3733  0.5356 -0.1288
 1672SOL    HW216479   2.306   1.278   8.724  1.5381  0.2033 -1.7926
 1673SOL     OW16480   2.657   4.720   9.591  0.6179  0.1249  0.0775
 1673SOL    HW116481   2.624   4.665   9.519 -0.8420  0.9407  0.1384
 1673SOL    HW216482   2.743   4.677   9.590  0.7828  0.4572  0.2818
 1674SOL     OW16483   2.266   0.714  16.733  1.0502  0.0044 -0.0121
 1674SOL    HW116484   2.344   0.756  16.699  0.8866  0.4574  0.1735
 1674SOL    HW216485   2.280   0.627  16.695 -1.3010  0.2970 -1.5989
 1675SOL     OW16486   4.110   3.273   0.540 -0.4716  0.5825 -0.4440
 1675SOL    HW116487   4.046   3.293   0.472  1.2800  1.9313 -1.7033
 1675SOL    HW216488   4.190   3.320   0.519  1.4898 -2.9614 -0.8823
 1676SOL     OW16489   3.644   3.547  16.660 -0.1300  0.1269  0.1885
 1676SOL    HW116490   3.706   3.562  16.589  1.3045  1.7868  1.7914
 1676SOL    HW216491   3.621   3.636  16.684  0.1864  0.5588 -1.1053
 1677SOL     OW16492   1.215   2.637   9.297  0.0020 -0.6868 -0.0476
 1677SOL    HW116493   1.137   2.627   9.352 -1.9978  3.9636 -2.0213
 1677SOL    HW216494   1.276   2.613   9.366  0.0743 -1.2005 -0.2919
 1678SOL     OW16495   0.763   4.109  15.076  0.0788 -0.6937 -0.2185
 1678SOL    HW116496   0.755   4.144  14.987  1.2829  0.4090  0.1159
 1678SOL    HW216497   0.766   4.014  15.064 -0.3795 -1.0229  2.2778
 1679SOL     OW16498   4.523   0.261  17.156  0.0916 -0.4466  0.1041
 1679SOL    HW116499   4.556   0.331  17.213 -0.8194 -1.3441  1.7275
 1679SOL    HW216500   4.602   0.213  17.133  1.1646  2.2964 -1.9203
 1680SOL     OW16501   1.094   0.096   3.022 -0.4650 -0.1064 -0.1768
 1680SOL    HW116502   1.185   0.097   2.995 -0.2041 -2.1304  0.5782
 1680SOL    HW216503   1.067   0.174   2.974 -1.5424 -0.4855 -0.1965
 1681SOL     OW16504   0.719   0.745  10.210  0.0230  0.0892  0.0787
 1681SOL    HW116505   0.794   0.720  10.263  0.5192  3.5283  0.9250
 1681SOL    HW216506   0.682   0.657  10.196 -0.3320  0.1056  0.9505
 1682SOL     OW16507   2.889   0.590   3.182  0.0150  0.1356  0.5404
 1682SOL    HW116508   2.967   0.552   3.140 -0.3998  2.3618 -2.2801
 1682SOL    HW216509   2.866   0.537   3.258 -1.4409 -2.0911 -1.4722
 1683SOL     OW16510   2.518   1.028   8.952 -0.1143 -0.0212 -0.0364
 1683SOL    HW116511   2.556   0.962   8.895  2.2098 -0.3765  1.9382
 1683SOL    HW216512   2.456   0.975   9.003 -0.2872 -1.8787 -2.1510
 1684SOL     OW16513   3.820   3.018   7.130 -0.3649 -0.0801  0.1066
 1684SOL    HW116514   3.738   3.012   7.179 -1.4127 -0.2696 -1.6461
 1684SOL    HW216515   3.875   3.074   7.185  0.1270 -0.0873 -0.3747
 1685SOL     OW16516   0.044   3.319   1.168 -0.6149 -0.6990 -0.3294
 1685SOL    HW116517   0.122   3.319   1.223 -0.1328 -3.0577 -0.9951
 1685SOL    HW216518   4.720   3.249   1.215  0.7605 -0.2326  1.6378
 1686SOL     OW16519   1.123   1.126   6.576  0.0495 -0.7381  1.1999
 1686SOL    HW116520   1.035   1.113   6.611 -0.3792 -3.5463 -0.9256
 1686SOL    HW216521   1.154   1.036   6.567 -0.5793 -0.9774  1.4407
 1687SOL     OW16522   2.632   1.965  12.522 -0.0668 -0.2337 -0.2261
 1687SOL    HW116523   2.549   2.004  12.496 -0.4606 -1.3365 -0.6450
 1687SOL    HW216524   2.612   1.875  12.548  0.2206 -0.6155 -1.3451
 1688SOL     OW16525   1.677   3.235  16.355 -0.8817  0.4097 -0.2444
 1688SOL    HW116526   1.672   3.329  16.370  1.8820  0.8335 -1.9360
 1688SOL    HW216527   1.724   3.217  16.437 -0.2741  1.2789 -0.4067
 1689SOL     OW16528   0.623   2.976   8.422 -0.3079 -0.3361 -0.2793
 1689SOL    HW116529   0.663   2.948   8.505 -0.2922 -0.2326 -0.2514
 1689SOL    HW216530   0.617   3.071   8.428  0.3932 -0.4993  3.2007
 1690SOL     OW16531   3.182   1.743   8.155  0.3533  0.3238  0.0243
 1690SOL    HW116532   3.111   1.805   8.169 -0.1645 -0.3263  0.2636
 1690SOL    HW216533   3.154   1.669   8.209 -0.2159  0.5576  0.0430
 1691SOL     OW16534   2.014   3.111   9.039  0.5933  0.5369 -0.6365
 1691SOL    HW116535   2.083   3.177   9.049  1.4055 -0.3895 -0.1784
 1691SOL    HW216536   2.054   3.039   9.087  0.7413 -0.5120 -2.3278
 1692SOL     OW16537   1.431   4.528   1.100 -0.4042 -0.2085 -0.4323
 1692SOL    HW116538   1.369   4.572   1.042  1.6684 -0.6975 -3.0204
 1692SOL    HW216539   1.518   4.568   1.091  0.7180 -2.5518  0.0639
 1693SOL     OW16540   2.964   4.659   2.379 -0.2219 -0.5585 -0.2913
 1693SOL    HW116541   2.900   4.592   2.403  1.4561 -2.3083 -0.6808
 1693SOL    HW216542   2.975   4.642   2.285 -0.2097 -0.3747 -0.3221
 1694SOL     OW16543   4.431   3.117  16.648  0.4321 -0.0231  0.2214
 1694SOL    HW116544   4.499   3.070  16.696 -0.5100 -1.2450  0.3682
 1694SOL    HW216545   4.460   3.208  16.644 -1.7523  0.6823  0.2333
 1695SOL     OW16546   1.370   0.837   5.129 -0.5410  0.2898 -0.8340
 1695SOL    HW116547   1.462   0.837   5.156 -1.2722  0.4806  1.6855
 1695SOL    HW216548   1.377   0.823   5.035  3.5223  0.9254 -0.6380
 1696SOL     OW16549   0.760   0.367   3.732 -0.0131  0.2711  0.0900
 1696SOL    HW116550   0.842   0.394   3.773  0.4834 -0.9775 -0.0804
 1696SOL    HW216551   0.769   0.404   3.644  0.7985 -0.1039  0.0162
 1697SOL     OW16552   4.709   4.462   8.808 -0.1033  0.1687 -0.5291
 1697SOL    HW116553   0.016   4.544   8.767 -0.5145  0.6478  0.1359
 1697SOL    HW216554   0.050   4.398   8.774 -0.7433 -0.2578 -0.8748
 1698SOL     OW16555   3.026   4.311  10.365 -0.1109  0.3372  0.1475
 1698SOL    HW116556   3.060   4.365  10.436 -0.2567 -1.5471  1.6378
 1698SOL    HW216557   2.947   4.278  10.408  0.5722 -0.0436  1.0864
 1699SOL     OW16558   4.193   2.002   2.654  0.3504 -0.4126 -0.5236
 1699SOL    HW116559   4.282   1.988   2.623  0.7523 -0.9541  0.9086
 1699SOL    HW216560   4.156   2.059   2.586 -2.2377 -0.7465  0.5780
 1700SOL     OW16561   1.389   2.748  10.116 -0.2611  0.0297  0.5250
 1700SOL    HW116562   1.331   2.685  10.159 -0.4954  0.9804  1.6007
 1700SOL    HW216563   1.315   2.799  10.081  0.5955  0.4325 -0.6964
 1701SOL     OW16564   1.404   0.009   4.467 -0.2908  0.2324  0.0576
 1701SOL    HW116565   1.487   4.685   4.446  0.1583  1.4157 -0.7453
 1701SOL    HW216566   1.430   0.083   4.522  1.0960  0.0658 -0.3577
 1702SOL     OW16567   2.840   1.241   4.672  0.0589 -0.1396 -0.3706
 1702SOL    HW116568   2.893   1.303   4.622 -1.3333  0.7459 -0.7158
 1702SOL    HW216569   2.857   1.157   4.629 -0.3125  0.6665 -2.0589
 1703SOL     OW16570   4.327   4.331  14.989 -0.3242  0.1832 -0.1605
 1703SOL    HW116571   4.395   4.269  15.015 -0.3848 -0.3496 -1.2977
 1703SOL    HW216572   4.378   4.398  14.942 -1.7999 -0.5973 -2.8786
 1704SOL     OW16573   1.556   2.973   3.400 -0.0908 -0.4116 -0.3385
 1704SOL    HW116574   1.547   3.058   3.442 -1.4859  0.4622 -2.3773
 1704SOL    HW216575   1.644   2.944   3.422  0.3117  0.2123 -1.1148
 1705SOL     OW16576   0.310   3.677   7.783  0.3879 -0.4160 -0.2295
 1705SOL    HW116577   0.281   3.746   7.843 -1.4137  2.3142 -4.2237
 1705SOL    HW216578   0.361   3.725   7.717 -2.0040  0.9747 -1.0834
 1706SOL     OW16579   0.867   0.860   2.216  0.4903 -0.0989 -0.1223
 1706SOL    HW116580   0.861   0.774   2.258 -1.5407  0.7789  1.3404
 1706SOL    HW216581   0.892   0.898   2.300  1.8857  3.2273 -2.0699
 1707SOL     OW16582   3.538   1.382   7.011  0.7409  0.5076  0.4334
 1707SOL    HW116583   3.522   1.363   7.104 -0.5485  1.0530  0.3183
 1707SOL    HW216584   3.520   1.475   7.002 -1.8991 -0.0512  0.0028
 1708SOL     OW16585   4.035   1.417   2.520 -0.3488  0.1529  0.0899
 1708SOL    HW116586   4.086   1.399   2.598  1.2837 -1.2438 -1.2884
 1708SOL    HW216587   3.965   1.477   2.542 -0.9594 -0.4559 -0.1640
 1709SOL     OW16588   2.153   0.891  11.987 -0.0192  0.4854  0.0872
 1709SOL    HW116589   2.226   0.880  12.048  0.9564  1.3042 -0.9286
 1709SOL    HW216590   2.115   0.803  11.991 -0.0844  0.3152 -3.9695
 1710SOL     OW16591   0.955   3.057   2.904  0.0799 -0.8615  0.0620
 1710SOL    HW116592   0.895   2.998   2.950 -1.3723  1.3533  0.9528
 1710SOL    HW216593   0.904   3.137   2.898 -0.1347 -0.6974  4.2385
 1711SOL     OW16594   3.911   1.726  15.683  0.1697 -0.1809 -0.1436
 1711SOL    HW116595   3.844   1.794  15.674 -1.0162 -1.1100  1.6702
 1711SOL    HW216596   3.992   1.772  15.704 -0.5154  2.3390 -2.9532
 1712SOL     OW16597   2.502   0.416   5.345  0.3967 -0.1489 -0.0098
 1712SOL    HW116598   2.578   0.456   5.303  1.4256  0.8474  2.8302
 1712SOL    HW216599   2.498   0.464   5.428 -0.7275  1.0278 -0.7374
 1713SOL     OW16600   3.419   4.561  12.107 -0.2627  0.2444  0.0828
 1713SOL    HW116601   3.325   4.553  12.121 -0.1932  1.2638  1.0644
 1713SOL    HW216602   3.434   4.626  12.175 -2.7671 -0.6712  1.5176
 1714SOL     OW16603   3.586   0.264   6.963  0.4422  0.5117 -0.0596
 1714SOL    HW116604   3.492   0.278   6.965  0.0122 -2.3679 -0.4602
 1714SOL    HW216605   3.634   0.339   7.000 -1.3861  1.3248  0.6433
 1715SOL     OW16606   3.103   2.534  10.117  0.2916  0.1199 -0.1814
 1715SOL    HW116607   3.098   2.443  10.147  1.3927  0.7167  1.7624
 1715SOL    HW216608   3.033   2.575  10.167  1.0739  0.3373  0.7179
 1716SOL     OW16609   2.017   1.714  16.218  0.7930  0.0689 -0.2892
 1716SOL    HW116610   2.104   1.735  16.184  1.6860 -0.7306  1.5540
 1716SOL    HW216611   1.954   1.779  16.186  0.8424  1.4359  2.3559
 1717SOL     OW16612   1.099   2.078  15.764  0.2044 -0.0052  0.6002
 1717SOL    HW116613   1.032   2.146  15.765  0.2879  0.0788  0.3009
 1717SOL    HW216614   1.049   1.997  15.777  0.9941 -0.9835 -2.3088
 1718SOL     OW16615   4.227   1.743   5.569 -0.1665 -0.4072 -0.1363
 1718SOL    HW116616   4.303   1.705   5.524 -0.1734 -0.8601  0.2367
 1718SOL    HW216617   4.260   1.771   5.655  1.9908 -2.0827 -0.4079
 1719SOL     OW16618   2.089   1.798  17.007  0.5913 -0.4401  0.0906
 1719SOL    HW116619   2.015   1.856  16.989 -0.9502 -1.9008  1.6215
 1719SOL    HW216620   2.161   1.829  16.952  1.8411  0.9444  2.5132
 1720SOL     OW16621   3.504   1.237   4.932  0.5349  0.3354  0.2040
 1720SOL    HW116622   3.593   1.225   4.964  0.0274 -1.6930  0.8809
 1720SOL    HW216623   3.478   1.146   4.919 -3.4784  1.5711 -0.4233
 1721SOL     OW16624   0.997   0.689  10.338  0.1837 -0.2654 -0.0019
 1721SOL    HW116625   1.069   0.658  10.283 -1.6850 -0.7709 -2.1990
 1721SOL    HW216626   1.003   0.641  10.420 -0.0099  1.7760  1.1933
 1722SOL     OW16627   4.331   0.272   1.495  0.0727 -0.0551 -0.5988
 1722SOL    HW116628   4.342   0.177   1.492 -1.1637 -0.2288  0.3445
 1722SOL    HW216629   4.237   0.288   1.489 -0.2962 -2.2561 -0.5551
 1723SOL     OW16630   3.111   2.445   5.252 -0.5026  0.0930 -0.0728
 1723SOL    HW116631   3.098   2.510   5.183  0.1416  0.6712  0.3402
 1723SOL    HW216632   3.193   2.405   5.222 -2.4422 -3.1104 -1.0346
 1724SOL     OW16633   1.436   2.577   4.862  0.0148  0.5253 -0.6163
 1724SOL    HW116634   1.387   2.498   4.887 -0.9328  1.4347  0.3787
 1724SOL    HW216635   1.416   2.638   4.934 -0.0932  2.3453 -2.1966
 1725SOL     OW16636   1.202   1.286   9.680 -0.2087  0.0369  0.4168
 1725SOL    HW116637   1.150   1.274   9.600 -0.0797  0.2597  0.3010
 1725SOL    HW216638   1.220   1.196   9.709  0.7517  0.4596  1.1102
 1726SOL     OW16639   0.545   3.102   6.138 -0.2974 -0.2613 -0.0274
 1726SOL    HW116640   0.504   3.130   6.220 -1.7613  1.6869 -1.4113
 1726SOL    HW216641   0.638   3.093   6.156 -0.8205 -0.3798  2.6030
 1727SOL     OW16642   3.965   4.188   2.952  0.6960 -0.0419 -0.7360
 1727SOL    HW116643   4.047   4.198   2.903  0.0143  1.9626 -1.4716
 1727SOL    HW216644   3.962   4.276   2.991  1.0203 -0.7935  0.9591
 1728SOL     OW16645   0.224   1.743   9.497 -0.5666  0.2888  0.4319
 1728SOL    HW116646   0.296   1.687   9.468 -1.8244 -1.8232  1.3505
 1728SOL    HW216647   0.203   1.785   9.414  2.8817  1.4902  0.1789
 1729SOL     OW16648   2.465   4.612   5.621  0.7503 -0.0537 -0.5545
 1729SOL    HW116649   2.397   4.675   5.597 -1.0443 -2.0246 -0.6728
 1729SOL    HW216650   2.441   4.601   5.713  0.9392 -0.9406 -0.6161
 1730SOL     OW16651   0.190   4.400   6.103  0.9754 -0.0337  0.5511
 1730SOL    HW116652   0.191   4.309   6.073 -1.2244 -0.3545  1.4482
 1730SOL    HW216653   0.131   4.439   6.039  1.0713 -0.3506  0.2683
 1731SOL     OW16654   1.458   1.873   5.469  0.2109  0.1225 -0.6646
 1731SOL    HW116655   1.468   1.934   5.396  2.3262  1.6004  0.8660
 1731SOL    HW216656   1.365   1.854   5.462  0.0664 -0.1311  1.9604
 1732SOL     OW16657   1.502   2.128   9.657  0.4533  0.2608  0.0666
 1732SOL    HW116658   1.474   2.107   9.746  1.9955  1.3832  0.8221
 1732SOL    HW216659   1.424   2.105   9.606 -0.4638 -1.1313  2.1100
 1733SOL     OW16660   4.180   0.977  12.305 -0.4010  0.0764 -0.4425
 1733SOL    HW116661   4.113   0.932  12.356 -0.3536  0.8241  0.2813
 1733SOL    HW216662   4.126   1.051  12.278 -1.9003 -0.6736  0.5028
 1734SOL     OW16663   2.803   1.038  11.475 -0.1855 -0.2811  0.1989
 1734SOL    HW116664   2.760   1.086  11.546 -1.4524 -0.6308 -0.3218
 1734SOL    HW216665   2.871   0.989  11.519  0.3694  1.8470  1.7223
 1735SOL     OW16666   2.714   2.355   9.630  0.2762 -0.2633 -0.1090
 1735SOL    HW116667   2.689   2.413   9.703 -2.4034 -1.8041  0.1906
 1735SOL    HW216668   2.692   2.273   9.674 -0.1770 -0.2578 -0.3329
 1736SOL     OW16669   0.681   3.351  13.617  0.3308  0.0888  0.4377
 1736SOL    HW116670   0.672   3.287  13.687 -1.2904  0.7472  0.8422
 1736SOL    HW216671   0.611   3.410  13.644  2.3090  0.5178  4.5888
 1737SOL     OW16672   0.421   3.830   8.390 -0.3353  0.3635  0.2039
 1737SOL    HW116673   0.514   3.826   8.370 -0.4809 -0.0040 -0.3807
 1737SOL    HW216674   0.408   3.752   8.443  0.2726 -0.3022 -0.6438
 1738SOL     OW16675   2.923   1.084  10.615 -0.3758  0.0137  0.0197
 1738SOL    HW116676   3.004   1.064  10.568 -0.7197  1.1154 -1.0578
 1738SOL    HW216677   2.939   1.051  10.703 -0.6969  0.0922  0.1050
 1739SOL     OW16678   3.462   2.421   5.721 -0.2918  0.3986  0.3528
 1739SOL    HW116679   3.462   2.499   5.775  0.6619  0.5743  0.0908
 1739SOL    HW216680   3.421   2.463   5.645  1.0765 -0.4824 -0.8654
 1740SOL     OW16681   4.276   1.302   6.131  0.1556 -0.5434  0.7969
 1740SOL    HW116682   4.336   1.311   6.205  1.4003 -0.6494 -0.1903
 1740SOL    HW216683   4.318   1.243   6.069  0.5329  1.5235 -0.8961
 1741SOL     OW16684   3.666   2.557   6.442 -0.2951 -0.2691 -0.3026
 1741SOL    HW116685   3.712   2.624   6.494  2.5018 -0.9630 -1.9199
 1741SOL    HW216686   3.742   2.543   6.386 -2.1135  0.2793 -2.8756
 1742SOL     OW16687   3.788   4.571   6.800  0.4496  0.2894  0.3244
 1742SOL    HW116688   3.699   4.536   6.799  0.5596  0.0757 -1.3882
 1742SOL    HW216689   3.782   4.627   6.723  0.7681 -0.3717 -0.1705
 1743SOL     OW16690   2.250   3.422   5.214  0.4529  0.3619 -0.3441
 1743SOL    HW116691   2.156   3.431   5.228  0.5212 -1.0560  0.9459
 1743SOL    HW216692   2.270   3.515   5.229  1.1843  0.0872  0.3723
 1744SOL     OW16693   2.463   1.405   8.406 -0.2517  0.5848  0.0012
 1744SOL    HW116694   2.420   1.322   8.425  0.1710  0.5055  0.6114
 1744SOL    HW216695   2.384   1.458   8.394 -1.3339 -1.3035 -1.2303
 1745SOL     OW16696   4.001   3.744  11.768 -0.1749  0.5354 -0.0807
 1745SOL    HW116697   3.966   3.686  11.835 -2.3775  1.8862 -0.0656
 1745SOL    HW216698   3.925   3.800  11.754 -0.7213 -0.0393  0.5745
 1746SOL     OW16699   1.451   2.029   9.343 -0.2981  0.3078  0.1688
 1746SOL    HW116700   1.391   1.955   9.351 -0.8287  0.5295 -1.7062
 1746SOL    HW216701   1.523   1.997   9.397 -0.3143 -3.0702 -1.8264
 1747SOL     OW16702   2.466   0.860  15.744  0.2020  0.3584  0.4896
 1747SOL    HW116703   2.421   0.943  15.758 -1.8302 -0.5894 -0.4924
 1747SOL    HW216704   2.415   0.824  15.671  0.4510 -1.3418  1.1425
 1748SOL     OW16705   1.299   4.287   5.488  0.2695 -0.3605 -0.0284
 1748SOL    HW116706   1.363   4.250   5.548 -1.0659  0.9401  2.1616
 1748SOL    HW216707   1.231   4.220   5.488 -1.5272  1.4747  1.0043
 1749SOL     OW16708   4.075   2.756   5.356  0.2928  1.0286  0.0960
 1749SOL    HW116709   3.990   2.751   5.313  1.3340  1.5919 -2.0478
 1749SOL    HW216710   4.079   2.673   5.403 -0.2018  1.5111  0.9865
 1750SOL     OW16711   2.781   1.907  17.350  0.6369  0.3932 -0.1796
 1750SOL    HW116712   2.829   1.989  17.362  0.8578  0.5336 -2.0235
 1750SOL    HW216713   2.689   1.929  17.335 -0.4778 -2.3580  2.9261
 1751SOL     OW16714   1.707   0.587   5.592 -0.2684  0.3982 -0.0329
 1751SOL    HW116715   1.625   0.614   5.633 -0.8309  0.2191 -1.0454
 1751SOL    HW216716   1.698   0.492   5.608  0.5120  0.1415 -1.1586
 1752SOL     OW16717   0.495   2.109   6.749  0.7130 -0.1594  0.6529
 1752SOL    HW116718   0.444   2.182   6.713  0.7413 -0.2908  0.3399
 1752SOL    HW216719   0.425   2.045   6.752  0.9523 -0.5660 -2.4454
 1753SOL     OW16720   0.072   1.134  12.602  0.3146  0.2146 -0.1813
 1753SOL    HW116721   4.698   1.113  12.604 -0.2889  2.9367 -0.0249
 1753SOL    HW216722   0.120   1.061  12.641  0.9463 -0.9264 -3.1188
 1754SOL     OW16723   4.673   1.120   6.551 -0.7229 -0.8646 -0.2650
 1754SOL    HW116724   0.012   1.045   6.541  1.7101  1.3067 -1.9226
 1754SOL    HW216725   4.597   1.067   6.577 -3.0686  2.4574 -0.3291
 1755SOL     OW16726   3.408   3.122   2.876 -0.6411  0.4441 -0.1334
 1755SOL    HW116727   3.344   3.166   2.820  0.1528  2.0072  0.2070
 1755SOL    HW216728   3.362   3.121   2.960 -0.1354  0.0586  0.1395
 1756SOL     OW16729   0.542   4.638   4.576  0.8649  0.0459  0.0424
 1756SOL    HW116730   0.547   4.548   4.544  0.9117 -0.1226  0.5255
 1756SOL    HW216731   0.632   4.672   4.581  1.4152 -1.3879 -0.1360
 1757SOL     OW16732   0.603   4.396   5.992 -0.3827 -0.8519 -0.1046
 1757SOL    HW116733   0.532   4.461   5.990 -0.2384 -0.7158 -0.6729
 1757SOL    HW216734   0.677   4.455   6.002 -0.2046 -1.1143  0.1097
 1758SOL     OW16735   1.838   1.600   7.226  0.0807 -0.3154  0.0183
 1758SOL    HW116736   1.862   1.597   7.134  1.2186  0.1614  0.3025
 1758SOL    HW216737   1.808   1.691   7.227 -0.1654 -0.4003  0.5532
 1759SOL     OW16738   0.865   2.496   3.325 -0.8941 -0.3220  0.5202
 1759SOL    HW116739   0.957   2.502   3.299 -1.5909  0.2213 -1.7537
 1759SOL    HW216740   0.849   2.587   3.352  1.3570  0.0222  0.6960
 1760SOL     OW16741   0.325   1.712   4.545  0.4070  0.7081  0.0766
 1760SOL    HW116742   0.255   1.698   4.480  0.2148 -0.9723  0.6550
 1760SOL    HW216743   0.392   1.667   4.494  1.0939 -0.7595  2.2796
 1761SOL     OW16744   4.286   3.513   6.103  0.0117 -0.5537  0.3799
 1761SOL    HW116745   4.361   3.497   6.160  0.5519 -0.7298 -0.3674
 1761SOL    HW216746   4.324   3.501   6.015 -0.2033  2.6731 -0.1512
 1762SOL     OW16747   2.506   3.445  16.408  0.5064  0.1528  0.6602
 1762SOL    HW116748   2.505   3.352  16.430  0.4644 -0.0946 -0.4032
 1762SOL    HW216749   2.473   3.445  16.318 -3.4446 -2.4656  2.0923
 1763SOL     OW16750   3.522   2.409   7.202  0.2798 -0.0651 -0.3825
 1763SOL    HW116751   3.476   2.403   7.119 -0.0699  1.2877 -0.2919
 1763SOL    HW216752   3.445   2.382   7.253  0.4065  0.8566  0.2926
 1764SOL     OW16753   0.801   4.140   6.969  0.7832 -0.0693  0.0652
 1764SOL    HW116754   0.762   4.185   7.044 -0.0196 -1.3342  0.4050
 1764SOL    HW216755   0.784   4.184   6.885  0.8254  0.8169  0.5269
 1765SOL     OW16756   3.604   3.569   4.264  0.4981  0.4056  0.0903
 1765SOL    HW116757   3.629   3.658   4.291  2.2312  0.0596 -0.4145
 1765SOL    HW216758   3.686   3.531   4.232 -1.9250 -2.1394 -3.0180
 1766SOL     OW16759   4.128   3.972   4.131 -0.7861 -0.1590  0.4093
 1766SOL    HW116760   4.177   3.890   4.129 -0.0612  0.2765  0.3796
 1766SOL    HW216761   4.097   3.974   4.040  0.3821 -0.8019  0.0037
 1767SOL     OW16762   3.766   0.585   7.412  0.0022  1.3981 -0.0876
 1767SOL    HW116763   3.795   0.638   7.486 -0.9845  0.3089  1.0949
 1767SOL    HW216764   3.815   0.507   7.439 -0.9144  0.9637  0.3230
 1768SOL     OW16765   4.188   0.676   1.278  0.4288 -0.5616 -0.2355
 1768SOL    HW116766   4.154   0.762   1.252 -1.0009 -0.7971  0.8615
 1768SOL    HW216767   4.276   0.707   1.256  0.4281  1.2151  2.1846
 1769SOL     OW16768   4.305   3.340   2.445 -0.0988  0.1730 -0.6662
 1769SOL    HW116769   4.375   3.367   2.387  0.8600 -1.8569 -0.4623
 1769SOL    HW216770   4.353   3.270   2.489 -3.3847 -1.0493  0.9935
 1770SOL     OW16771   4.194   2.533  13.457  0.1793  0.4708 -0.5280
 1770SOL    HW116772   4.193   2.491  13.371  0.8213  1.0312 -0.8115
 1770SOL    HW216773   4.112   2.581  13.459 -1.0387 -1.5730 -0.8746
 1771SOL     OW16774   3.520   3.279   5.090 -0.3024  0.5310 -0.0544
 1771SOL    HW116775   3.515   3.186   5.112  0.6518  0.2800 -0.9013
 1771SOL    HW216776   3.468   3.279   5.010 -0.0464  1.7404 -0.2283
 1772SOL     OW16777   3.424   3.296   0.405  0.4422  0.3535  0.1244
 1772SOL    HW116778   3.513   3.322   0.429  0.0114  2.1477 -0.2014
 1772SOL    HW216779   3.367   3.351   0.459  0.6259  0.5565  0.1155
 1773SOL     OW16780   4.505   3.326   8.780  0.1906 -0.0769  0.5273
 1773SOL    HW116781   4.551   3.347   8.699  1.2794  0.0505  1.1702
 1773SOL    HW216782   4.413   3.323   8.753 -0.3464 -3.0905  2.6087
 1774SOL     OW16783   3.799   0.079  16.089 -0.1662 -0.4800 -0.2734
 1774SOL    HW116784   3.747   0.159  16.085 -0.5154 -0.6448  0.7872
 1774SOL    HW216785   3.742   0.027  16.032 -1.7339 -1.2451  1.9678
 1775SOL     OW16786   0.110   3.496   4.419  0.0135  0.1844  0.1291
 1775SOL    HW116787   0.052   3.543   4.480 -1.2330 -2.1490  0.7113
 1775SOL    HW216788   0.075   3.409   4.438  1.1654 -0.6462 -1.7199
 1776SOL     OW16789   3.141   1.209   6.747 -0.4092  0.2821 -0.3998
 1776SOL    HW116790   3.117   1.217   6.839  1.2950  1.7284 -0.0886
 1776SOL    HW216791   3.233   1.236   6.751 -0.2289 -0.2417 -0.9814
 1777SOL     OW16792   1.732   4.275   8.190 -0.4831 -0.3772 -0.7332
 1777SOL    HW116793   1.771   4.197   8.229  1.6167 -0.2505 -2.5278
 1777SOL    HW216794   1.807   4.333   8.175  0.3561 -1.1029  0.6603
 1778SOL     OW16795   4.421   2.387   7.419 -0.3870 -0.3794  0.3402
 1778SOL    HW116796   4.354   2.427   7.474 -1.3929  1.2363 -2.0852
 1778SOL    HW216797   4.377   2.306   7.390 -1.8962 -0.3487  2.5268
 1779SOL     OW16798   2.050   3.920   7.415  0.0970 -0.6564 -0.2042
 1779SOL    HW116799   1.969   3.944   7.371  0.4501 -2.0583 -1.5980
 1779SOL    HW216800   2.108   3.949   7.345 -0.6728  0.3634 -0.4202
 1780SOL     OW16801   2.505   3.575  16.676 -0.2392  0.0532 -0.0962
 1780SOL    HW116802   2.504   3.515  16.601 -1.1913  0.3944 -0.3523
 1780SOL    HW216803   2.523   3.514  16.748  2.8996 -0.5948 -1.4198
 1781SOL     OW16804   1.842   1.924   3.968 -0.5005 -0.6134 -0.3895
 1781SOL    HW116805   1.887   1.847   3.933 -1.7435 -0.9546 -1.2203
 1781SOL    HW216806   1.922   1.972   3.991 -0.4259 -0.8279 -0.2002
 1782SOL     OW16807   0.268   4.444   8.351  0.6850 -0.1968 -0.3049
 1782SOL    HW116808   0.245   4.524   8.305 -1.2856 -0.7607 -0.2751
 1782SOL    HW216809   0.360   4.460   8.374  0.4908  2.1513 -1.1281
 1783SOL     OW16810   0.117   4.581  17.082  0.0522  0.2326  0.9172
 1783SOL    HW116811   0.163   4.592  17.165  3.2497 -0.5288 -0.7472
 1783SOL    HW216812   0.040   4.542  17.121 -0.0318  1.1100  1.6419
 1784SOL     OW16813   1.939   2.085   3.030 -0.2150  0.1387 -0.1657
 1784SOL    HW116814   1.856   2.042   3.012  0.2963 -0.5597 -0.8694
 1784SOL    HW216815   1.912   2.122   3.114 -0.0572  1.1273 -0.5518
 1785SOL     OW16816   0.281   1.076   1.373  0.2675  0.3088 -0.1683
 1785SOL    HW116817   0.336   1.003   1.346  0.1859  0.4512 -0.7239
 1785SOL    HW216818   0.350   1.133   1.407 -0.8443  0.4817  1.8223
 1786SOL     OW16819   4.709   3.378   5.097 -0.6725  0.7704  0.1102
 1786SOL    HW116820   0.001   3.302   5.040  1.4926  0.0470  1.5547
 1786SOL    HW216821   4.617   3.361   5.118 -0.1672 -0.9383  0.9345
 1787SOL     OW16822   3.601   0.649   2.217  0.1139 -0.1070 -0.2921
 1787SOL    HW116823   3.542   0.668   2.290  0.6331 -0.1369  0.1405
 1787SOL    HW216824   3.684   0.683   2.252 -0.2980  0.8016 -0.1866
 1788SOL     OW16825   0.809   3.361   4.437  0.2398  0.1714  0.4091
 1788SOL    HW116826   0.887   3.415   4.455 -0.7070  1.5989  0.2104
 1788SOL    HW216827   0.776   3.417   4.367  1.3694  0.2446 -0.0724
 1789SOL     OW16828   1.969   4.413  14.802  0.1895  0.1086  0.4356
 1789SOL    HW116829   1.896   4.381  14.856 -0.5315  0.0659 -0.5517
 1789SOL    HW216830   2.039   4.357  14.835 -0.8881 -1.6725 -0.2742
 1790SOL     OW16831   3.830   2.469   9.151 -0.7403 -0.1746 -0.8529
 1790SOL    HW116832   3.861   2.484   9.241  1.0218  0.2513 -1.5179
 1790SOL    HW216833   3.894   2.530   9.113 -0.4674  0.2777  0.3174
 1791SOL     OW16834   4.244   3.286   9.067 -0.6328  0.2262 -0.5690
 1791SOL    HW116835   4.193   3.345   9.122  1.1058  0.1442  1.1377
 1791SOL    HW216836   4.281   3.350   9.006  3.0859  1.0041  2.4683
 1792SOL     OW16837   4.105   2.961   8.068 -0.4512  0.3912 -0.0625
 1792SOL    HW116838   4.059   2.885   8.104 -1.0865 -0.1630 -2.0384
 1792SOL    HW216839   4.109   3.007   8.152 -3.0138  0.6549 -0.0800
 1793SOL     OW16840   3.434   3.552   6.138  0.3797  0.2140  0.2671
 1793SOL    HW116841   3.527   3.532   6.150  0.1832 -0.3996  0.8016
 1793SOL    HW216842   3.417   3.511   6.053 -0.9791  0.5239  0.3996
 1794SOL     OW16843   0.804   2.836   3.779 -0.0825 -0.0814  0.0519
 1794SOL    HW116844   0.837   2.789   3.703 -1.2089 -1.7145  0.5640
 1794SOL    HW216845   0.884   2.884   3.801  0.1506  0.4007 -1.8815
 1795SOL     OW16846   2.483   4.198   8.532  0.3018 -0.0259 -0.0164
 1795SOL    HW116847   2.542   4.273   8.522  1.6163 -1.0243  0.2523
 1795SOL    HW216848   2.495   4.177   8.624  1.0877 -4.4580 -1.1471
 1796SOL     OW16849   2.070   0.664   2.442  0.0696  0.8020 -0.5552
 1796SOL    HW116850   2.132   0.700   2.506  0.7448 -2.1250  0.4431
 1796SOL    HW216851   2.097   0.573   2.436 -1.0484  0.3887  0.5986
 1797SOL     OW16852   4.598   3.067   5.774  0.2636  0.6876 -0.2493
 1797SOL    HW116853   4.663   3.126   5.735  2.0909 -0.6159  0.8303
 1797SOL    HW216854   4.638   3.061   5.861 -0.5109  1.4264  0.1519
 1798SOL     OW16855   1.746   0.228  17.202  1.0424  0.7555  0.8142
 1798SOL    HW116856   1.691   0.275  17.139  1.6323  1.3890  0.7681
 1798SOL    HW216857   1.722   0.265  17.288  0.9105  1.2362  0.5730
 1799SOL     OW16858   2.212   1.849   2.479  0.2200 -0.1287  0.5823
 1799SOL    HW116859   2.169   1.885   2.402  1.7979  1.0396  0.2531
 1799SOL    HW216860   2.245   1.761   2.458  0.9051  1.0914 -3.4192
 1800SOL     OW16861   2.762   2.626  16.839 -0.3804  0.4138 -0.0107
 1800SOL    HW116862   2.762   2.632  16.935  0.2957 -2.5092  0.2008
 1800SOL    HW216863   2.816   2.547  16.835  1.6498  1.7484  1.1407
 1801SOL     OW16864   0.432   3.137   8.230  0.4551 -0.5983 -0.0993
 1801SOL    HW116865   0.516   3.119   8.186 -0.3638 -0.5684 -1.6782
 1801SOL    HW216866   0.465   3.167   8.314 -0.2913  1.4988 -0.5621
 1802SOL     OW16867   1.293   0.333  15.208 -0.2297  0.2880 -0.6488
 1802SOL    HW116868   1.275   0.322  15.301 -0.6855  0.3688 -0.7298
 1802SOL    HW216869   1.389   0.336  15.213 -0.3302 -0.6509  1.9759
 1803SOL     OW16870   4.526   0.930   8.907  0.2535  0.7872 -0.1542
 1803SOL    HW116871   4.544   1.022   8.887  0.1376  1.0155  0.7917
 1803SOL    HW216872   4.534   0.918   9.002  0.3272  2.4181  0.0500
 1804SOL     OW16873   2.633   3.111   8.122 -0.3703  0.2057  0.5940
 1804SOL    HW116874   2.567   3.076   8.062  0.6121  0.3554 -0.5759
 1804SOL    HW216875   2.703   3.142   8.065 -2.1075 -0.2718 -1.7881
 1805SOL     OW16876   3.676   1.846   6.212 -0.2331 -0.1651 -0.1627
 1805SOL    HW116877   3.648   1.793   6.137 -0.1929 -2.0333  1.1457
 1805SOL    HW216878   3.631   1.930   6.201  0.1453  0.0604  0.0158
 1806SOL     OW16879   0.259   4.320   5.303 -0.2021 -0.2449 -0.1042
 1806SOL    HW116880   0.227   4.410   5.308  0.6962  0.0774 -0.1807
 1806SOL    HW216881   0.341   4.328   5.255 -0.7700 -1.8851 -1.3480
 1807SOL     OW16882   4.309   1.444   3.479 -0.1050  0.5156  0.4605
 1807SOL    HW116883   4.332   1.537   3.483 -0.9102  0.7246  0.1618
 1807SOL    HW216884   4.346   1.406   3.559  0.2154 -0.2576 -0.0553
 1808SOL     OW16885   1.694   2.958   2.203 -0.0679 -0.1477 -0.2097
 1808SOL    HW116886   1.766   3.021   2.207 -0.4451  0.2065  1.0066
 1808SOL    HW216887   1.704   2.905   2.282  0.1372 -1.4396 -1.1041
 1809SOL     OW16888   3.808   2.677   6.051  0.6384  0.1646  0.2136
 1809SOL    HW116889   3.782   2.652   6.139 -0.2442  1.0904  0.2162
 1809SOL    HW216890   3.809   2.591   6.009  1.7663  0.7222 -0.9343
 1810SOL     OW16891   3.744   4.237   7.896 -0.2110  0.3648 -0.5323
 1810SOL    HW116892   3.669   4.193   7.934  1.1321 -2.3546 -1.0203
 1810SOL    HW216893   3.741   4.206   7.805 -0.1090 -2.3170  0.3788
 1811SOL     OW16894   2.909   2.831   0.184  0.3225  0.4685  0.0565
 1811SOL    HW116895   2.872   2.754   0.142 -0.3044  0.5026  0.5581
 1811SOL    HW216896   2.910   2.805   0.276 -0.7840  0.7749  0.1551
 1812SOL     OW16897   1.826   2.038   9.029 -0.1465 -0.6596 -0.0708
 1812SOL    HW116898   1.738   2.076   9.018 -0.6076 -1.6139  0.2830
 1812SOL    HW216899   1.806   1.990   9.110 -1.5791 -0.4500 -0.3026
 1813SOL     OW16900   1.070   3.425   8.430 -0.3906 -0.4143  0.0940
 1813SOL    HW116901   1.149   3.446   8.479  0.8065  0.0825 -2.0445
 1813SOL    HW216902   1.106   3.361   8.369  1.6278 -0.6830  1.5922
 1814SOL     OW16903   1.523   0.534   8.776  0.0472  0.0225  0.1537
 1814SOL    HW116904   1.562   0.619   8.757  2.1646 -1.5436 -2.4390
 1814SOL    HW216905   1.571   0.476   8.717 -2.0729 -0.3953 -1.1304
 1815SOL     OW16906   4.667   4.190  11.849 -0.4143  0.4546 -0.1293
 1815SOL    HW116907   4.694   4.252  11.780 -1.8007  1.5127  0.2717
 1815SOL    HW216908   4.582   4.166  11.812  0.1152 -1.2818 -0.2082
 1816SOL     OW16909   3.640   3.836   2.999 -0.2121  0.2420 -0.6599
 1816SOL    HW116910   3.616   3.779   2.926 -1.4060  0.8416 -0.7280
 1816SOL    HW216911   3.567   3.898   2.996 -0.1523  0.3532  0.0423
 1817SOL     OW16912   3.308   1.640  13.876 -0.0846 -0.6885  0.1037
 1817SOL    HW116913   3.249   1.566  13.887 -0.0472 -0.8141 -0.5123
 1817SOL    HW216914   3.270   1.672  13.794  2.2884 -1.5418 -1.3295
 1818SOL     OW16915   4.480   0.069  17.415 -0.0972  0.2904  1.1137
 1818SOL    HW116916   4.572   0.088  17.433 -0.2980  1.9939  0.3550
 1818SOL    HW216917   4.451   0.151  17.375  1.6612 -0.9561 -2.6958
 1819SOL     OW16918   3.912   1.128   9.225 -0.0431 -0.5608 -0.1231
 1819SOL    HW116919   3.862   1.189   9.279 -0.9859 -1.7039  0.3095
 1819SOL    HW216920   3.946   1.069   9.292 -0.2230 -0.4341  0.0807
 1820SOL     OW16921   1.124   3.154   1.794 -0.0171 -0.0633  0.4386
 1820SOL    HW116922   1.066   3.163   1.718  0.4535 -1.4492 -0.0921
 1820SOL    HW216923   1.077   3.099   1.858 -2.3783 -0.8923 -2.0099
 1821SOL     OW16924   3.665   3.186   3.794  0.5614  0.4451 -0.2559
 1821SOL    HW116925   3.663   3.091   3.802 -2.3334  0.5321 -0.1826
 1821SOL    HW216926   3.760   3.199   3.798  0.6154  0.4081 -1.3309
 1822SOL     OW16927   1.556   1.887   2.686  0.7920 -0.4332  0.0057
 1822SOL    HW116928   1.636   1.939   2.701  0.5194 -0.2008  0.6616
 1822SOL    HW216929   1.514   1.938   2.617 -0.1773  0.4115  1.2073
 1823SOL     OW16930   2.883   0.789   8.750 -0.0775 -0.6631  0.9251
 1823SOL    HW116931   2.912   0.810   8.839  0.3278  0.4978  0.5286
 1823SOL    HW216932   2.790   0.811   8.751  0.3685  1.3319 -0.9296
 1824SOL     OW16933   4.040   0.801   4.326 -0.0512 -0.0460  0.0183
 1824SOL    HW116934   4.059   0.854   4.249  0.8043 -0.8217 -0.3093
 1824SOL    HW216935   4.070   0.714   4.298  1.3131  0.9159 -1.5137
 1825SOL     OW16936   1.891   4.520   1.677 -0.0025 -0.2374 -0.1637
 1825SOL    HW116937   1.985   4.524   1.662  0.2494 -2.1190  0.8732
 1825SOL    HW216938   1.880   4.521   1.772  1.7290 -1.5297  0.0428
 1826SOL     OW16939   3.635   2.604  14.362 -0.6507  0.1288 -0.1428
 1826SOL    HW116940   3.674   2.637  14.281  0.9858  0.5693  0.8374
 1826SOL    HW216941   3.563   2.552  14.325 -0.3376 -0.8864  0.6694
 1827SOL     OW16942   0.291   0.420   7.744 -0.0157  0.2495 -0.1954
 1827SOL    HW116943   0.347   0.479   7.795 -0.0665  0.1377 -0.0118
 1827SOL    HW216944   0.335   0.435   7.660 -1.3779  0.1319 -0.9290
 1828SOL     OW16945   3.366   2.465   4.526 -0.0702  0.5880  0.0440
 1828SOL    HW116946   3.438   2.470   4.462 -0.8889 -2.4336 -1.1422
 1828SOL    HW216947   3.333   2.379   4.501 -2.3365  1.2799  0.7282
 1829SOL     OW16948   4.578   3.858   3.956  0.1160  0.6554 -0.6138
 1829SOL    HW116949   4.498   3.821   3.919  0.3385 -2.0824  1.6231
 1829SOL    HW216950   4.576   3.953   3.952  0.6827  0.6212 -1.8246
 1830SOL     OW16951   0.285   3.350   2.573 -0.1107 -0.2157 -0.0406
 1830SOL    HW116952   0.283   3.310   2.487  0.4211 -0.4020  0.0301
 1830SOL    HW216953   0.378   3.328   2.587 -0.9159 -1.5083  3.4347
 1831SOL     OW16954   1.708   0.663  14.880  0.2448 -0.1306 -0.2965
 1831SOL    HW116955   1.679   0.627  14.964 -0.2177 -0.7983 -0.7331
 1831SOL    HW216956   1.673   0.596  14.821 -0.3906 -1.8597  2.0490
 1832SOL     OW16957   0.667   4.462  15.701  0.1529 -0.3914  0.1023
 1832SOL    HW116958   0.749   4.499  15.667  0.0628  0.4909  0.8323
 1832SOL    HW216959   0.620   4.446  15.620 -0.1760 -1.5288  0.5287
 1833SOL     OW16960   2.220   0.076   2.201 -0.0528 -0.5626  0.4557
 1833SOL    HW116961   2.148   0.057   2.261 -0.2361  2.0342  1.0419
 1833SOL    HW216962   2.281   0.098   2.272 -1.6570  1.7311  1.1213
 1834SOL     OW16963   0.499   3.960  10.926 -0.3479 -0.1614 -0.5639
 1834SOL    HW116964   0.537   4.047  10.929 -1.4889  0.3485 -1.0924
 1834SOL    HW216965   0.491   3.947  10.832  1.3000 -0.5727 -0.6347
 1835SOL     OW16966   2.522   2.728  13.018  0.7945 -0.0166  0.3556
 1835SOL    HW116967   2.535   2.654  13.077 -0.0914 -0.1238  0.4218
 1835SOL    HW216968   2.507   2.794  13.086  0.8241  0.7173 -0.3485
 1836SOL     OW16969   3.269   4.428   7.249 -0.3865  0.3950  0.0683
 1836SOL    HW116970   3.208   4.357   7.269 -0.1339 -0.4537 -2.0985
 1836SOL    HW216971   3.215   4.494   7.293  2.6038  2.5206  0.5329
 1837SOL     OW16972   1.347   4.495   4.869 -0.2401 -0.0655  0.1301
 1837SOL    HW116973   1.280   4.563   4.866 -0.3832 -0.1833  0.7427
 1837SOL    HW216974   1.376   4.481   4.959 -0.1057 -1.8846 -0.2013
 1838SOL     OW16975   1.577   3.786   2.536 -0.2235  0.1955 -0.1405
 1838SOL    HW116976   1.495   3.789   2.485 -0.2165 -1.4193 -0.2377
 1838SOL    HW216977   1.642   3.837   2.488 -0.1068  1.2187  1.1100
 1839SOL     OW16978   0.064   2.868   7.722 -0.1837  0.1260  0.3580
 1839SOL    HW116979   0.137   2.890   7.780 -0.0962  0.0217  0.2858
 1839SOL    HW216980   0.012   2.949   7.721  0.0700  0.2671 -0.9896
 1840SOL     OW16981   3.184   3.652   4.426 -0.2672  0.7334 -0.1416
 1840SOL    HW116982   3.234   3.733   4.439  0.2440  0.8329 -2.8181
 1840SOL    HW216983   3.236   3.604   4.362  0.5418  0.5508  0.6572
 1841SOL     OW16984   2.663   4.538   8.386 -0.6128 -0.2297 -0.1721
 1841SOL    HW116985   2.578   4.524   8.344  0.3326  0.3575 -2.2523
 1841SOL    HW216986   2.726   4.495   8.328 -0.1671  0.8915 -0.5122
 1842SOL     OW16987   1.148   0.532   3.380  0.0111 -0.2947 -0.2917
 1842SOL    HW116988   1.133   0.526   3.285 -0.0237  1.3607 -0.3977
 1842SOL    HW216989   1.217   0.467   3.394 -0.1154  0.0995  2.1680
 1843SOL     OW16990   1.307   0.294  16.427 -0.0932 -0.2390  0.4706
 1843SOL    HW116991   1.273   0.349  16.497  0.7243 -0.0747  0.7356
 1843SOL    HW216992   1.300   0.204  16.459 -0.3283  0.2628  1.8080
 1844SOL     OW16993   3.920   4.594  11.690 -0.3178  0.1564 -0.4863
 1844SOL    HW116994   4.012   4.609  11.669 -0.4868  1.3333 -0.3439
 1844SOL    HW216995   3.916   4.537  11.766  1.0423  3.6519  2.1771
 1845SOL     OW16996   0.815   1.964   3.284  0.1086  0.0402 -0.1747
 1845SOL    HW116997   0.867   2.044   3.275 -1.4629  0.8535 -2.0571
 1845SOL    HW216998   0.749   1.974   3.216 -0.3684 -3.0611 -0.1792
 1846SOL     OW16999   4.006   1.463   5.493  0.0735  0.1236  0.1548
 1846SOL    HW117000   3.942   1.450   5.423 -1.3335 -1.1892  1.7018
 1846SOL    HW217001   4.015   1.558   5.502  0.3637  0.0942  0.2007
 1847SOL     OW17002   2.731   1.421  13.013 -0.0556 -0.0670 -0.2303
 1847SOL    HW117003   2.663   1.488  13.014  0.5298  0.5044  0.9892
 1847SOL    HW217004   2.773   1.446  13.095 -2.2409  0.7734  0.6161
 1848SOL     OW17005   3.126   0.277  14.692  0.1228  0.2654  0.7644
 1848SOL    HW117006   3.125   0.182  14.684 -0.3940  0.2453  1.1482
 1848SOL    HW217007   3.114   0.290  14.785  1.3072  0.9681  0.8252
 1849SOL     OW17008   2.855   3.130   3.226 -0.4554  0.7209  0.1654
 1849SOL    HW117009   2.921   3.155   3.289 -1.7878  1.4632  1.2631
 1849SOL    HW217010   2.776   3.144   3.279 -1.2377 -1.2081 -0.4832
 1850SOL     OW17011   3.445   3.606   1.091 -0.2146  0.1503  0.2215
 1850SOL    HW117012   3.387   3.677   1.120 -1.4087 -1.0122  0.6807
 1850SOL    HW217013   3.383   3.533   1.093  1.0939 -0.9109  1.3923
 1851SOL     OW17014   2.717   0.554  10.295 -0.1091  0.0891 -0.7877
 1851SOL    HW117015   2.677   0.476  10.334  2.4446 -1.3245 -1.0227
 1851SOL    HW217016   2.809   0.547  10.320 -0.5439 -0.8311  0.5341
 1852SOL     OW17017   3.349   2.740   5.132 -0.3303 -0.8746 -0.4062
 1852SOL    HW117018   3.272   2.706   5.086 -1.1078 -0.5352  0.6671
 1852SOL    HW217019   3.324   2.722   5.223 -0.4763  0.8158 -0.1220
 1853SOL     OW17020   4.469   0.122   4.741 -0.4246 -0.0930  0.3408
 1853SOL    HW117021   4.537   0.118   4.807 -0.8245  0.3198  0.7789
 1853SOL    HW217022   4.398   0.086   4.794 -0.2781 -1.0176 -0.0912
 1854SOL     OW17023   0.359   0.030   5.362  0.2184 -0.4188 -0.0465
 1854SOL    HW117024   0.337   0.113   5.319  0.9013  0.8142  2.0002
 1854SOL    HW217025   0.282   0.020   5.418 -0.4190  0.6402 -0.7250
 1855SOL     OW17026   2.750   2.452   1.919 -0.0003 -0.0521 -0.6283
 1855SOL    HW117027   2.801   2.393   1.864  0.5730 -0.1376 -0.0095
 1855SOL    HW217028   2.814   2.517   1.950  0.8842 -0.3967 -1.7199
 1856SOL     OW17029   4.119   3.611  15.312 -0.7593 -0.0433 -0.3893
 1856SOL    HW117030   4.099   3.699  15.282 -2.9930 -0.3091  0.2979
 1856SOL    HW217031   4.046   3.561  15.276 -0.6941  0.4680 -1.2348
 1857SOL     OW17032   0.376   1.055   1.901  0.5288  0.0942  0.6979
 1857SOL    HW117033   0.399   1.066   1.809 -0.5826  0.4814  0.4704
 1857SOL    HW217034   0.369   0.960   1.910 -0.0032  0.1792  1.1670
 1858SOL     OW17035   3.906   2.377   0.901  0.3096  0.1557  0.2092
 1858SOL    HW117036   3.925   2.462   0.862 -1.5824  0.7867  0.6823
 1858SOL    HW217037   3.977   2.327   0.859  0.2867  0.2713  0.0349
 1859SOL     OW17038   3.305   1.376   3.956  0.5615  0.5126 -0.5863
 1859SOL    HW117039   3.259   1.293   3.943  1.6425 -0.1866  0.0728
 1859SOL    HW217040   3.317   1.396   3.864 -2.3405 -0.9137 -1.2720
 1860SOL     OW17041   3.299   1.369   2.990  0.5628  1.0654  0.4571
 1860SOL    HW117042   3.324   1.299   3.050 -0.5561 -1.2760 -1.7931
 1860SOL    HW217043   3.207   1.375   3.014 -0.0125 -1.0793 -1.1232
 1861SOL     OW17044   2.740   2.824   7.009 -0.0836 -1.1306 -0.4106
 1861SOL    HW117045   2.807   2.876   6.964  1.2513  0.0177  2.8720
 1861SOL    HW217046   2.746   2.848   7.102 -1.4704  1.5068 -0.9897
 1862SOL     OW17047   3.595   3.264   4.764 -0.0587 -0.7192 -0.0851
 1862SOL    HW117048   3.522   3.260   4.703  1.1264  0.2888 -1.5691
 1862SOL    HW217049   3.571   3.186   4.814  0.0649 -0.3792  0.4993
 1863SOL     OW17050   1.781   4.010   7.396 -0.4161 -0.3557 -0.0470
 1863SOL    HW117051   1.781   4.090   7.343 -0.8971 -0.1326  0.2869
 1863SOL    HW217052   1.707   3.956   7.368  1.6369 -3.2653  0.2301
 1864SOL     OW17053   2.394   4.517   0.841  0.5410  0.2530 -0.3578
 1864SOL    HW117054   2.383   4.592   0.899  0.6949 -1.0367  1.3427
 1864SOL    HW217055   2.486   4.492   0.845  0.5268  0.7801  3.1611
 1865SOL     OW17056   3.495   1.983   4.901 -0.1696 -0.0057  0.6546
 1865SOL    HW117057   3.468   2.065   4.859 -0.6519  0.2737  1.5163
 1865SOL    HW217058   3.525   2.010   4.987 -2.1598 -0.5075  1.5013
 1866SOL     OW17059   4.568   2.459   1.872 -0.3258  0.1336 -0.2569
 1866SOL    HW117060   4.651   2.505   1.880 -1.0474  0.9608  2.3291
 1866SOL    HW217061   4.537   2.449   1.962  1.4132 -0.7944  0.2446
 1867SOL     OW17062   2.653   1.433   6.597 -0.1216 -0.5955  0.4025
 1867SOL    HW117063   2.606   1.458   6.677 -0.0020  0.6290  0.0829
 1867SOL    HW217064   2.672   1.521   6.564 -2.4358 -1.0397 -2.1001
 1868SOL     OW17065   1.648   2.078   6.572  0.4140  0.5509 -0.0220
 1868SOL    HW117066   1.685   2.067   6.660  0.9971 -1.2920 -0.5026
 1868SOL    HW217067   1.593   2.155   6.581 -1.3423 -0.8601  1.4078
 1869SOL     OW17068   2.639   1.041   7.333  0.5334  0.1156  0.1604
 1869SOL    HW117069   2.652   1.091   7.252 -1.1945 -0.4654 -0.4606
 1869SOL    HW217070   2.711   0.979   7.325  1.6446  1.6052 -1.5772
 1870SOL     OW17071   4.318   3.877   5.421 -0.5102 -0.4089 -0.5480
 1870SOL    HW117072   4.278   3.808   5.367  0.0881 -2.5197  1.6887
 1870SOL    HW217073   4.241   3.933   5.431 -0.1170  0.3853 -1.9649
 1871SOL     OW17074   0.016   0.987   4.356 -0.2689 -0.7639 -0.4119
 1871SOL    HW117075   4.689   0.943   4.286 -0.2014  0.5977 -1.3089
 1871SOL    HW217076   4.663   1.005   4.415 -0.0488 -0.6417 -0.1752
 1872SOL     OW17077   2.009   1.816  12.322 -0.0575  0.1503  0.7304
 1872SOL    HW117078   1.974   1.728  12.308 -0.4792  0.2344  1.2600
 1872SOL    HW217079   2.000   1.861  12.238  1.4385  0.5005  0.7654
 1873SOL     OW17080   0.663   0.965   4.056 -0.3413 -0.4178 -0.1721
 1873SOL    HW117081   0.686   0.952   4.148  1.5896  2.8524 -0.1871
 1873SOL    HW217082   0.604   0.891   4.039 -0.8395 -0.5200  1.9614
 1874SOL     OW17083   2.196   1.114   8.284  0.6664 -0.5415 -1.2159
 1874SOL    HW117084   2.100   1.116   8.291  0.5593 -0.6822 -2.4831
 1874SOL    HW217085   2.203   1.182   8.217  0.8005 -1.6794 -2.3659
 1875SOL     OW17086   1.549   4.301   6.244 -0.3530  0.6200 -0.1606
 1875SOL    HW117087   1.531   4.387   6.281 -1.1324 -1.0929  3.5279
 1875SOL    HW217088   1.644   4.304   6.257 -0.0684  1.7334 -2.5653
 1876SOL     OW17089   4.467   2.743   9.148  0.0760  0.2219 -0.2976
 1876SOL    HW117090   4.397   2.786   9.099 -1.5055 -1.4923  0.5108
 1876SOL    HW217091   4.516   2.699   9.078  1.1288 -0.3527  0.8009
 1877SOL     OW17092   3.218   2.620   4.815 -0.0431 -0.1845 -0.4832
 1877SOL    HW117093   3.298   2.615   4.763  0.2560 -2.2659  0.1478
 1877SOL    HW217094   3.188   2.530   4.828  0.2432 -0.1415  0.4337
 1878SOL     OW17095   4.242   2.692   9.424 -0.0708  0.2796  0.0571
 1878SOL    HW117096   4.198   2.610   9.404  0.2668 -0.2256  1.3823
 1878SOL    HW217097   4.174   2.749   9.461 -1.0966 -1.1569  0.3849
 1879SOL     OW17098   3.670   3.471   5.567  0.3990  0.7114  0.1909
 1879SOL    HW117099   3.674   3.492   5.474 -0.2038  2.3427  0.5359
 1879SOL    HW217100   3.749   3.418   5.576 -0.6220 -0.6742  0.7983
 1880SOL     OW17101   4.068   1.937  10.079  0.0316  0.1940  0.3114
 1880SOL    HW117102   4.129   1.869  10.109  2.1255  1.8575 -0.1337
 1880SOL    HW217103   4.099   2.011  10.132 -0.5832  1.4503 -1.0974
 1881SOL     OW17104   0.851   1.465   6.678 -0.1679  0.6618  0.1301
 1881SOL    HW117105   0.847   1.425   6.591 -0.9607  0.8375  0.0850
 1881SOL    HW217106   0.941   1.497   6.667  0.7777 -1.7720  0.8589
 1882SOL     OW17107   0.070   4.004  10.407 -0.4629  0.0670  0.0324
 1882SOL    HW117108   0.146   4.055  10.379 -1.3071  1.2506 -0.0501
 1882SOL    HW217109   0.023   3.985  10.325 -2.0530 -0.7093  1.1192
 1883SOL     OW17110   4.430   2.957  16.113 -0.0421 -0.1562  0.1297
 1883SOL    HW117111   4.389   2.997  16.189  0.4588 -1.0543  0.8653
 1883SOL    HW217112   4.411   3.031  16.055  1.4388  0.8129  0.8842
 1884SOL     OW17113   2.961   0.170   5.181 -0.0449  0.2660  0.2883
 1884SOL    HW117114   2.935   0.258   5.155  1.2358  0.5528 -0.0159
 1884SOL    HW217115   2.908   0.149   5.258  0.1674 -1.6215 -0.0581
 1885SOL     OW17116   3.852   2.156   3.168 -0.6498 -0.0172  0.0152
 1885SOL    HW117117   3.938   2.115   3.180  0.1502  1.4396 -0.7983
 1885SOL    HW217118   3.815   2.094   3.105  1.0163 -2.2456  1.2577
 1886SOL     OW17119   4.672   1.278   3.144  0.1160 -0.1944  0.4729
 1886SOL    HW117120   0.039   1.318   3.151 -0.2585  0.8857 -1.1582
 1886SOL    HW217121   4.657   1.266   3.238  0.7227 -2.5156  0.2825
 1887SOL     OW17122   3.015   2.676   8.134  0.1354  0.1676 -0.2870
 1887SOL    HW117123   2.960   2.723   8.197 -2.7299 -1.6077 -1.4974
 1887SOL    HW217124   3.002   2.583   8.150 -0.3991  0.4708  1.0530
 1888SOL     OW17125   1.157   2.932   7.695  0.7053 -0.1160 -0.2765
 1888SOL    HW117126   1.122   2.979   7.619  0.1541  2.0266  1.2805
 1888SOL    HW217127   1.242   2.976   7.704  1.5870 -1.6769 -1.0358
 1889SOL     OW17128   2.444   0.137  13.848  0.2053  0.1443 -0.0116
 1889SOL    HW117129   2.480   0.199  13.785 -1.9492  0.7791 -0.6209
 1889SOL    HW217130   2.484   0.168  13.930  0.9167  1.3058 -0.7965
 1890SOL     OW17131   4.683   3.079   2.813  0.0783  0.3127  0.1865
 1890SOL    HW117132   0.001   3.057   2.899  0.9301 -2.7674 -0.9686
 1890SOL    HW217133   4.662   2.993   2.775  1.2270 -0.6625  1.7449
 1891SOL     OW17134   2.969   0.607   5.777  0.6156 -0.4688  0.1207
 1891SOL    HW117135   2.943   0.550   5.849  1.8534 -2.1586 -0.7837
 1891SOL    HW217136   2.882   0.611   5.738  1.3303 -0.1530 -1.4496
 1892SOL     OW17137   3.563   4.585   3.868 -0.0479  0.2247 -0.4644
 1892SOL    HW117138   3.526   4.624   3.947 -1.5137  0.1706 -1.1237
 1892SOL    HW217139   3.624   4.517   3.896 -1.1904  0.2036  1.9375
 1893SOL     OW17140   3.992   2.850   6.995  0.2327 -0.4962  0.3941
 1893SOL    HW117141   4.004   2.931   6.946  1.3215 -1.2118 -0.5200
 1893SOL    HW217142   3.929   2.874   7.063  0.3041  0.8877 -0.0368
 1894SOL     OW17143   1.792   1.631   2.358 -0.5726  0.0515 -0.2388
 1894SOL    HW117144   1.708   1.672   2.337 -1.2019 -0.3499  1.5053
 1894SOL    HW217145   1.847   1.659   2.284  0.6427  0.5876  0.8760
 1895SOL     OW17146   1.316   1.873   0.269  0.0838 -0.1932  0.0784
 1895SOL    HW117147   1.347   1.921   0.192  1.4053  1.3764  1.5935
 1895SOL    HW217148   1.375   1.889   0.342  0.5208  1.1034 -0.5518
 1896SOL     OW17149   4.133   1.977   5.805 -0.3227 -0.0688  0.3536
 1896SOL    HW117150   4.048   1.934   5.817 -0.0158 -1.6381 -3.0862
 1896SOL    HW217151   4.115   2.041   5.737  0.3579  0.1464  0.3788
 1897SOL     OW17152   1.635   3.924  13.536 -0.1178 -0.3048 -0.0709
 1897SOL    HW117153   1.676   3.963  13.613 -1.0084  0.1821  0.1602
 1897SOL    HW217154   1.671   3.837  13.554 -0.2200 -0.0296  1.4893
 1898SOL     OW17155   1.542   2.060   5.275  0.5020 -0.2484 -0.3353
 1898SOL    HW117156   1.633   2.031   5.280  0.1865 -1.3274 -0.8786
 1898SOL    HW217157   1.546   2.156   5.275 -2.4414 -0.1386 -0.5197
 1899SOL     OW17158   0.027   4.181   3.353  0.1770 -0.5424  0.1407
 1899SOL    HW117159   4.693   4.259   3.361 -0.6868 -1.1936  0.6985
 1899SOL    HW217160   0.069   4.187   3.268 -2.4940  2.0183 -0.9972
 1900SOL     OW17161   4.328   2.495  13.701 -0.1815  0.1260 -0.1742
 1900SOL    HW117162   4.320   2.587  13.726 -1.6066  0.1233 -0.6154
 1900SOL    HW217163   4.289   2.497  13.613  0.4683 -0.9378 -0.4958
 1901SOL     OW17164   0.446   2.370   7.859 -0.3599  0.0248 -0.3576
 1901SOL    HW117165   0.380   2.304   7.836  0.5062  0.0627 -2.8929
 1901SOL    HW217166   0.478   2.330   7.940 -3.6352 -1.4607  0.2177
 1902SOL     OW17167   0.129   3.143   0.965  0.1897  0.2706 -0.6375
 1902SOL    HW117168   0.049   3.193   0.982  1.0598  0.5580  2.5927
 1902SOL    HW217169   0.116   3.065   1.019 -1.4527  0.6156 -0.5387
 1903SOL     OW17170   3.822   0.531   9.892 -0.4565 -0.1150  0.2722
 1903SOL    HW117171   3.728   0.509   9.895 -0.2935 -0.7816  0.4068
 1903SOL    HW217172   3.809   0.609   9.838  2.8045  0.8218  0.8409
 1904SOL     OW17173   1.236   1.818   1.390 -0.1598 -0.0555  0.1770
 1904SOL    HW117174   1.189   1.785   1.313 -0.6152 -0.4088  0.6036
 1904SOL    HW217175   1.173   1.868   1.443 -1.0540 -0.4612 -0.5099
 1905SOL     OW17176   1.491   2.519   5.368  0.5472  0.1950  0.4273
 1905SOL    HW117177   1.397   2.527   5.352  0.6181 -2.4705 -1.5367
 1905SOL    HW217178   1.503   2.436   5.414  0.1848 -1.2735 -2.1105
 1906SOL     OW17179   3.829   2.946  13.557  0.9003  0.3478  0.5154
 1906SOL    HW117180   3.760   2.972  13.618 -0.9947 -1.7668 -0.7217
 1906SOL    HW217181   3.789   2.872  13.512 -1.7178  2.2867 -0.3958
 1907SOL     OW17182   3.066   1.517  13.343 -1.4485 -0.4033  0.0137
 1907SOL    HW117183   2.971   1.514  13.332 -1.3096 -0.9896 -1.0058
 1907SOL    HW217184   3.095   1.548  13.257 -0.2192  3.1090  1.6958
 1908SOL     OW17185   0.207   2.283   4.124  0.2513 -0.0970 -0.5652
 1908SOL    HW117186   0.278   2.243   4.074  0.5133  0.2395 -0.4645
 1908SOL    HW217187   0.257   2.299   4.204 -1.7273  0.2332  0.6178
 1909SOL     OW17188   4.089   4.341  15.386  0.1342  0.1761 -0.2244
 1909SOL    HW117189   4.174   4.385  15.387 -1.3346  2.9089  4.4290
 1909SOL    HW217190   4.052   4.382  15.308  0.7640  1.5597  0.2011
 1910SOL     OW17191   0.744   2.316   4.762 -0.2605  0.0848 -0.0238
 1910SOL    HW117192   0.722   2.391   4.818  0.7567  0.8204 -0.6031
 1910SOL    HW217193   0.689   2.335   4.686 -0.8370  2.0052  0.8484
 1911SOL     OW17194   3.734   3.872   1.652 -1.0697 -0.0294  0.0234
 1911SOL    HW117195   3.781   3.891   1.733  1.8080 -0.8797 -1.4410
 1911SOL    HW217196   3.668   3.940   1.669 -2.6317 -1.9207  1.4440
 1912SOL     OW17197   3.182   1.314  10.950 -0.1786 -0.3629 -0.0912
 1912SOL    HW117198   3.241   1.388  10.963  1.5072 -1.6317 -0.4986
 1912SOL    HW217199   3.145   1.327  10.862  0.7582 -0.0756 -0.4491
 1913SOL     OW17200   4.276   4.335   5.528 -0.1931 -0.6085  0.4040
 1913SOL    HW117201   4.361   4.294   5.540  0.3297  0.3850  0.0657
 1913SOL    HW217202   4.267   4.325   5.433 -1.3548  1.0619  0.3337
 1914SOL     OW17203   4.399   4.314   5.005  0.8132 -0.1270  0.3180
 1914SOL    HW117204   4.342   4.335   4.932  2.1906  1.0457 -0.4236
 1914SOL    HW217205   4.426   4.223   4.991  2.9540  0.4750  0.4067
 1915SOL     OW17206   0.493   1.685   8.156  0.3125  0.1718  0.1442
 1915SOL    HW117207   0.486   1.600   8.200  0.5675 -1.0117 -2.1048
 1915SOL    HW217208   0.517   1.666   8.066  0.7278  2.4019 -0.2148
 1916SOL     OW17209   1.600   4.507   3.679 -0.3277  0.2820 -0.0796
 1916SOL    HW117210   1.644   4.592   3.672 -0.8992  0.6330  0.6053
 1916SOL    HW217211   1.571   4.514   3.770 -0.3775 -0.4023 -0.0412
 1917SOL     OW17212   1.177   1.442   5.839  0.4947  0.0497  0.7414
 1917SOL    HW117213   1.220   1.508   5.892 -1.4935  2.8667 -1.1637
 1917SOL    HW217214   1.244   1.416   5.776 -0.7191 -1.6333  0.1291
 1918SOL     OW17215   0.274   0.675   5.897  0.1970  0.6838  0.2766
 1918SOL    HW117216   0.186   0.636   5.896  0.0890  0.8166  3.3321
 1918SOL    HW217217   0.300   0.654   5.987 -1.4113  2.9026  1.2534
 1919SOL     OW17218   0.693   0.091  10.316  0.0973  0.6729  0.0296
 1919SOL    HW117219   0.679   0.107  10.222 -1.2645 -1.0682 -0.0614
 1919SOL    HW217220   0.770   0.146  10.324  0.9582 -0.6766  0.8548
 1920SOL     OW17221   1.178   4.671   7.316 -0.3136  0.5886 -0.1314
 1920SOL    HW117222   1.245   0.008   7.277 -0.4012 -0.5821 -1.9773
 1920SOL    HW217223   1.231   4.597   7.347 -1.7694 -0.6415 -0.5690
 1921SOL     OW17224   1.297   0.705   1.181 -0.2700  0.0359  0.3044
 1921SOL    HW117225   1.320   0.611   1.183  1.5052  0.3828 -2.8600
 1921SOL    HW217226   1.210   0.695   1.144 -1.4005  2.7114  2.2670
 1922SOL     OW17227   2.717   4.521   1.170 -0.5033  0.1643 -0.5080
 1922SOL    HW117228   2.652   4.459   1.137  1.6624 -1.3064 -2.0540
 1922SOL    HW217229   2.781   4.509   1.100  1.0940  3.0826  0.4401
 1923SOL     OW17230   4.368   1.663  14.569 -0.3243 -0.2949  0.7026
 1923SOL    HW117231   4.320   1.746  14.580  0.6890  0.3225  0.4079
 1923SOL    HW217232   4.455   1.700  14.552 -1.1722  1.6180  0.4593
 1924SOL     OW17233   4.134   1.705   9.562  0.4065 -0.2305 -0.0023
 1924SOL    HW117234   4.221   1.671   9.586  0.6621 -1.1599 -2.2785
 1924SOL    HW217235   4.109   1.735   9.650 -0.1461  2.4574 -1.1118
 1925SOL     OW17236   0.583   0.964  10.511  0.3994  0.3031 -0.5595
 1925SOL    HW117237   0.576   0.965  10.606  1.9956 -0.4102 -0.4173
 1925SOL    HW217238   0.672   0.933  10.494 -0.7127 -2.8373 -0.7148
 1926SOL     OW17239   4.610   1.225   9.151  0.3560 -0.2569 -0.6737
 1926SOL    HW117240   4.638   1.316   9.159  1.5837 -0.8621  1.6827
 1926SOL    HW217241   4.695   1.181   9.154 -0.7218 -2.3152 -0.6829
 1927SOL     OW17242   4.432   0.644  11.475  0.2248 -0.7928  0.3180
 1927SOL    HW117243   4.504   0.622  11.535  1.1575  2.6735  0.4586
 1927SOL    HW217244   4.483   0.644  11.394  3.4793  3.7414  2.3903
 1928SOL     OW17245   2.871   2.410   5.056  0.2224 -0.1599 -0.0806
 1928SOL    HW117246   2.786   2.367   5.048  0.1323 -0.0712  0.4039
 1928SOL    HW217247   2.913   2.362   5.127  1.1163  1.9521  0.8295
 1929SOL     OW17248   0.446   3.311   5.557 -0.6201 -0.2987 -0.0688
 1929SOL    HW117249   0.450   3.220   5.527  1.0265 -0.7089  1.3839
 1929SOL    HW217250   0.532   3.321   5.597 -1.0248 -1.3454  1.0587
 1930SOL     OW17251   1.182   3.636   5.782  0.2848  0.1065 -0.0547
 1930SOL    HW117252   1.191   3.543   5.804 -1.3638 -0.0844 -0.2196
 1930SOL    HW217253   1.094   3.637   5.744  0.5176 -0.1882 -0.5988
 1931SOL     OW17254   2.796   3.332  17.480 -0.0974 -0.1447  0.2517
 1931SOL    HW117255   2.825   3.328  17.571 -1.5331  1.7344  0.7720
 1931SOL    HW217256   2.746   3.251  17.468  0.3728 -0.7784  2.7018
 1932SOL     OW17257   4.280   4.089   2.343  0.1403 -0.4230 -0.0964
 1932SOL    HW117258   4.255   3.998   2.356 -1.2691  0.1454  1.2157
 1932SOL    HW217259   4.258   4.099   2.250 -0.4020  0.4916  0.1261
 1933SOL     OW17260   0.376   0.994  12.309 -0.5384 -0.1231  0.0782
 1933SOL    HW117261   0.368   0.901  12.328  2.1767 -0.5751 -0.9743
 1933SOL    HW217262   0.469   1.018  12.314 -0.4498 -0.6645  0.9986
 1934SOL     OW17263   0.204   1.745   3.118 -0.3408 -0.7833 -0.1770
 1934SOL    HW117264   0.133   1.776   3.173  0.4202 -0.0584  0.4073
 1934SOL    HW217265   0.169   1.773   3.033 -1.9661 -1.3365  0.3317
 1935SOL     OW17266   4.397   2.136   3.850 -0.3717  0.2242 -0.2109
 1935SOL    HW117267   4.449   2.058   3.872 -0.4260  1.0388  2.7438
 1935SOL    HW217268   4.311   2.097   3.840 -0.1348 -0.2873 -0.2852
 1936SOL     OW17269   2.088   2.908  16.740 -0.3434  0.1002  0.1521
 1936SOL    HW117270   2.063   2.832  16.688 -2.3739  0.3416  0.7833
 1936SOL    HW217271   2.126   2.968  16.675  2.0526 -2.3393 -0.7179
 1937SOL     OW17272   2.221   3.701   5.285 -0.3038  0.0884  0.2299
 1937SOL    HW117273   2.198   3.750   5.364  0.3938  0.2266  0.3488
 1937SOL    HW217274   2.202   3.764   5.216  0.2977  0.7222  0.6511
 1938SOL     OW17275   0.283   0.326  17.131 -0.2492 -0.5658  0.3435
 1938SOL    HW117276   0.255   0.289  17.047 -0.9232 -1.8641  1.1398
 1938SOL    HW217277   0.240   0.411  17.126  1.2571  0.1991  0.5674
 1939SOL     OW17278   2.344   2.604  16.775 -0.3966 -0.0239  0.2025
 1939SOL    HW117279   2.303   2.643  16.697  0.6485 -0.0195 -0.3428
 1939SOL    HW217280   2.271   2.547  16.799 -0.5136 -0.4041 -1.0509
 1940SOL     OW17281   0.439   1.190   5.045 -0.2534 -0.0314  0.5546
 1940SOL    HW117282   0.488   1.271   5.063  1.0181 -0.7985  0.5456
 1940SOL    HW217283   0.506   1.123   5.060  1.0859  0.8620 -1.3076
 1941SOL     OW17284   2.179   3.534   1.969 -0.1293 -0.5926 -0.0515
 1941SOL    HW117285   2.112   3.593   2.002  0.3851 -0.7256  1.2308
 1941SOL    HW217286   2.252   3.571   2.019  1.1417 -1.0099 -1.5733
 1942SOL     OW17287   0.428   1.405  15.284  0.4056  0.1142  0.2569
 1942SOL    HW117288   0.355   1.453  15.322  1.5669  1.6353  0.5938
 1942SOL    HW217289   0.456   1.462  15.212 -0.9045 -1.8286 -1.7668
 1943SOL     OW17290   4.137   2.584   3.353 -0.0845 -0.5566  0.0535
 1943SOL    HW117291   4.209   2.530   3.321 -0.8469 -1.0905 -0.7424
 1943SOL    HW217292   4.069   2.549   3.296  0.8288 -1.4093 -0.5142
 1944SOL     OW17293   0.015   3.088  11.714 -0.0521  0.6089 -0.4985
 1944SOL    HW117294   4.655   3.042  11.688  0.7536  0.1074 -2.0792
 1944SOL    HW217295   0.039   3.116  11.626 -3.1243 -2.0791 -2.1894
 1945SOL     OW17296   2.186   3.844   3.096  0.0738 -0.3156  0.3847
 1945SOL    HW117297   2.207   3.931   3.131  0.5800  0.3333 -1.5637
 1945SOL    HW217298   2.154   3.793   3.170 -1.0325  0.1273  0.2135
 1946SOL     OW17299   1.170   3.041   8.755  0.1094 -0.6505 -0.3020
 1946SOL    HW117300   1.192   2.949   8.769  0.6154 -0.2063  1.7803
 1946SOL    HW217301   1.145   3.041   8.663 -1.0160  0.5305  0.0156
 1947SOL     OW17302   4.205   3.665   7.377  0.1333 -0.4977 -0.4124
 1947SOL    HW117303   4.292   3.700   7.392  0.1458 -0.5322 -0.4036
 1947SOL    HW217304   4.197   3.593   7.440  2.3325  1.3364  1.9615
 1948SOL     OW17305   4.199   3.260   7.768  0.9305  0.4257  0.0224
 1948SOL    HW117306   4.283   3.248   7.813  0.9536 -1.0681 -0.4375
 1948SOL    HW217307   4.130   3.263   7.835  1.9165 -0.6356  1.0906
 1949SOL     OW17308   1.826   1.155   5.309  0.1781  0.0956  0.2161
 1949SOL    HW117309   1.904   1.209   5.323  1.9809 -1.9711 -2.0032
 1949SOL    HW217310   1.795   1.175   5.221  0.5108  1.5998  0.4399
 1950SOL     OW17311   4.611   1.345   6.922 -0.3277 -0.0816 -0.4469
 1950SOL    HW117312   4.673   1.403   6.967 -0.4095 -0.9366  0.7555
 1950SOL    HW217313   4.524   1.367   6.954 -0.9999 -1.3992 -1.3645
 1951SOL     OW17314   3.898   2.072  12.331 -0.1184 -0.0292  0.2556
 1951SOL    HW117315   3.837   2.075  12.405  0.9028 -0.3238  1.1078
 1951SOL    HW217316   3.936   1.992  12.367 -1.0574  0.0756  1.5024
 1952SOL     OW17317   4.108   0.928   4.625 -0.7950 -0.1824  0.9538
 1952SOL    HW117318   4.153   0.917   4.541 -2.4178 -0.9168  0.1771
 1952SOL    HW217319   4.034   0.870   4.609 -0.3293 -0.0541 -1.7024
 1953SOL     OW17320   2.415   3.919   4.171  0.2204 -0.0156  0.7759
 1953SOL    HW117321   2.379   4.002   4.201  1.5181  0.5347  0.8051
 1953SOL    HW217322   2.494   3.945   4.123 -1.1433  3.6292  0.4460
 1954SOL     OW17323   2.446   4.573  13.886 -0.0616  0.2991 -0.6802
 1954SOL    HW117324   2.459   4.666  13.867 -1.5181  0.7397  0.5208
 1954SOL    HW217325   2.416   4.540  13.802 -0.0692  0.1726 -0.6280
 1955SOL     OW17326   4.117   0.709  12.544  0.2367 -0.1027  0.5385
 1955SOL    HW117327   4.084   0.708  12.634  0.5313 -3.1042  0.6188
 1955SOL    HW217328   4.064   0.782  12.512 -0.3203 -1.8140 -2.4267
 1956SOL     OW17329   0.784   1.782   0.630  0.3138 -0.6519 -0.4733
 1956SOL    HW117330   0.734   1.752   0.705  0.2698 -1.6379 -0.8980
 1956SOL    HW217331   0.743   1.731   0.560  2.5077 -0.7066 -1.7484
 1957SOL     OW17332   1.015   3.682   6.120  0.3526 -0.1221 -0.2424
 1957SOL    HW117333   1.105   3.701   6.092  0.6562  1.4323  1.8393
 1957SOL    HW217334   0.974   3.667   6.034 -2.0644  0.4672  0.8123
 1958SOL     OW17335   2.273   2.851   2.396  0.2185 -0.5175  0.3545
 1958SOL    HW117336   2.289   2.802   2.315 -0.1654  0.0558 -0.0634
 1958SOL    HW217337   2.367   2.853   2.416  0.1013  2.0548  0.6437
 1959SOL     OW17338   0.430   2.418   1.999  0.3810 -0.6527 -0.1164
 1959SOL    HW117339   0.524   2.402   2.013  0.1878 -0.5354  1.3389
 1959SOL    HW217340   0.413   2.443   2.090  0.3517  0.1107 -0.3295
 1960SOL     OW17341   2.918   2.176   9.746  0.7637  0.2238 -0.3866
 1960SOL    HW117342   3.013   2.171   9.744  0.6588 -1.1114 -1.9591
 1960SOL    HW217343   2.896   2.170   9.653  0.2092 -2.8198 -0.0507
 1961SOL     OW17344   2.576   4.189   6.117 -0.2292  0.3550 -0.6217
 1961SOL    HW117345   2.511   4.156   6.179 -0.4136  1.7226 -0.0799
 1961SOL    HW217346   2.577   4.285   6.127 -1.1474  0.6065 -2.9394
 1962SOL     OW17347   0.418   1.077   2.928 -0.0457 -0.7408  0.2872
 1962SOL    HW117348   0.460   1.010   2.873  0.4725 -3.0694  3.5296
 1962SOL    HW217349   0.481   1.143   2.901 -0.1259  0.0227  2.0187
 1963SOL     OW17350   0.447   2.865   1.218 -0.1775 -0.0160 -0.8170
 1963SOL    HW117351   0.538   2.895   1.230 -0.3839  0.1604  0.3006
 1963SOL    HW217352   0.465   2.772   1.204 -0.0165 -0.2213  0.7342
 1964SOL     OW17353   2.826   4.206   0.374  0.4667  0.1275  0.8344
 1964SOL    HW117354   2.732   4.189   0.383  0.4517 -0.7496 -0.9002
 1964SOL    HW217355   2.814   4.265   0.300 -0.4003 -1.4932 -0.3306
 1965SOL     OW17356   4.070   3.992   5.488  0.4010 -0.1499 -0.0477
 1965SOL    HW117357   3.999   4.054   5.472  0.8495 -0.0999 -1.8642
 1965SOL    HW217358   4.087   4.009   5.581  0.0960 -2.3316  0.4067
 1966SOL     OW17359   1.659   2.517   6.985 -0.2597 -0.3060  0.6993
 1966SOL    HW117360   1.731   2.495   6.926 -1.6748  1.5933 -1.7194
 1966SOL    HW217361   1.617   2.431   6.990  0.5520 -0.7424  0.0625
 1967SOL     OW17362   1.299   2.067   3.599  0.3318 -0.0846 -0.2699
 1967SOL    HW117363   1.244   2.037   3.527 -0.5445  1.8560 -0.3914
 1967SOL    HW217364   1.365   2.121   3.554 -1.1798  3.4440  1.7602
 1968SOL     OW17365   0.164   2.512   8.851  0.1838  0.4362 -0.0381
 1968SOL    HW117366   0.114   2.443   8.807 -0.9450  0.5501  1.0580
 1968SOL    HW217367   0.247   2.468   8.865 -0.5535 -0.5258  1.2699
 1969SOL     OW17368   3.808   0.644   0.318 -0.4868  0.1239  0.0747
 1969SOL    HW117369   3.729   0.674   0.362  0.6741  1.3284  1.3263
 1969SOL    HW217370   3.803   0.550   0.336  0.0609  0.0063 -0.3856
 1970SOL     OW17371   2.553   1.658  16.856 -0.0740 -0.7823  0.5889
 1970SOL    HW117372   2.531   1.606  16.933 -1.3785  0.2559  0.9285
 1970SOL    HW217373   2.640   1.624  16.837  0.3436  0.4037  0.3893
 1971SOL     OW17374   1.363   4.189   3.623  0.0869  0.1406  0.4065
 1971SOL    HW117375   1.400   4.255   3.565  1.9153 -3.0404 -2.0464
 1971SOL    HW217376   1.439   4.164   3.675 -0.0861 -1.6244 -0.1836
 1972SOL     OW17377   1.328   0.556   2.612 -0.0679  0.1327  0.8029
 1972SOL    HW117378   1.365   0.588   2.694  2.0739  2.3950 -1.0973
 1972SOL    HW217379   1.405   0.535   2.559  0.1489  1.5103  0.5788
 1973SOL     OW17380   1.447   3.022   4.974  0.0020  0.2005  0.0662
 1973SOL    HW117381   1.537   3.054   4.963 -0.2730  1.2473  0.8763
 1973SOL    HW217382   1.454   2.927   4.965 -1.2837 -0.0309  1.5933
 1974SOL     OW17383   4.512   1.015  17.171 -0.2943  0.4859  0.2856
 1974SOL    HW117384   4.544   0.986  17.086 -2.3973  1.8944 -0.9718
 1974SOL    HW217385   4.417   1.014  17.166 -0.2993  0.5058  0.3749
 1975SOL     OW17386   2.634   2.555   7.473 -0.2021  0.2089  0.0159
 1975SOL    HW117387   2.719   2.557   7.429  1.4595  0.9606  3.2945
 1975SOL    HW217388   2.640   2.633   7.528 -0.0923  1.0163 -1.1509
 1976SOL     OW17389   3.470   0.406  15.433  0.0614  0.2357  0.1171
 1976SOL    HW117390   3.479   0.311  15.433  0.9092  0.3155  1.2161
 1976SOL    HW217391   3.540   0.435  15.375  0.7830 -0.6211  0.5702
 1977SOL     OW17392   1.121   1.012  14.923  0.0884 -0.1655  0.4310
 1977SOL    HW117393   1.169   1.074  14.978  0.2886 -2.5349  2.9301
 1977SOL    HW217394   1.052   1.069  14.888 -0.2422 -1.4701 -1.0181
 1978SOL     OW17395   1.406   4.097   1.566 -0.1155 -0.0242  0.6963
 1978SOL    HW117396   1.450   4.102   1.650  1.2141 -0.9342  0.0566
 1978SOL    HW217397   1.483   4.069   1.516  0.6924 -0.9397  2.4451
 1979SOL     OW17398   3.528   3.926   3.783 -0.2594  0.3474 -0.5236
 1979SOL    HW117399   3.492   4.012   3.805  0.8438  1.0299 -1.3543
 1979SOL    HW217400   3.623   3.941   3.788 -0.0218 -1.8061  1.3898
 1980SOL     OW17401   2.909   4.518  16.227  0.1665 -0.7639  0.3297
 1980SOL    HW117402   2.895   4.423  16.225 -0.4170 -0.6272 -2.5031
 1980SOL    HW217403   2.950   4.527  16.141  1.2660 -1.5836  0.7783
 1981SOL     OW17404   4.656   3.596   1.686  0.0677 -0.4834  0.3509
 1981SOL    HW117405   4.676   3.611   1.594 -3.2931 -0.8766 -0.4082
 1981SOL    HW217406   0.016   3.569   1.732 -1.0876 -1.2595  1.8888
 1982SOL     OW17407   1.725   0.102   0.569 -0.3834  0.0190  0.4468
 1982SOL    HW117408   1.801   0.151   0.602  0.2068 -0.7495  0.2297
 1982SOL    HW217409   1.742   0.013   0.600  0.8524  0.3856  0.8550
 1983SOL     OW17410   1.309   2.481   7.392 -0.3202 -0.3840 -0.1091
 1983SOL    HW117411   1.275   2.508   7.477 -0.0912  1.4542 -0.5847
 1983SOL    HW217412   1.351   2.565   7.374  0.3053  0.3264  4.7767
 1984SOL     OW17413   4.061   4.714  16.774 -0.6222  0.4166  0.2965
 1984SOL    HW117414   4.145   0.038  16.785  0.4917 -2.0495  1.6632
 1984SOL    HW217415   4.053   4.701  16.680 -0.4976  0.1250  0.3265
 1985SOL     OW17416   3.487   3.100  15.852  0.3286  0.0287 -0.4185
 1985SOL    HW117417   3.480   3.173  15.915  0.4667 -1.0378  0.8413
 1985SOL    HW217418   3.469   3.146  15.770  2.6728  0.2169 -0.8335
 1986SOL     OW17419   2.690   3.969  11.146 -0.0373  0.0223 -0.1871
 1986SOL    HW117420   2.622   3.965  11.079  0.3614 -0.2840 -0.5662
 1986SOL    HW217421   2.718   3.877  11.145 -0.2223 -0.0460  0.4037
 1987SOL     OW17422   3.702   1.766   2.180  0.2123 -0.0827 -0.2313
 1987SOL    HW117423   3.606   1.766   2.182  0.1931 -0.2098 -1.1718
 1987SOL    HW217424   3.724   1.683   2.222 -2.7526 -1.3385 -1.1688
 1988SOL     OW17425   2.618   3.240  10.415 -0.4323 -0.0361  0.2692
 1988SOL    HW117426   2.687   3.304  10.397  0.5885 -1.5498 -1.1031
 1988SOL    HW217427   2.545   3.280  10.367 -0.6264 -2.8580 -1.7618
 1989SOL     OW17428   4.657   2.749   6.060 -0.0759 -0.5521  0.0677
 1989SOL    HW117429   4.618   2.765   5.974  0.2514 -0.1205  0.0039
 1989SOL    HW217430   0.032   2.758   6.054 -0.4259  1.3359 -2.9810
 1990SOL     OW17431   0.233   1.145   8.520 -0.4146 -0.1734 -0.5560
 1990SOL    HW117432   0.304   1.201   8.489 -1.7691 -0.5371 -4.3058
 1990SOL    HW217433   0.266   1.056   8.512  0.7588  0.0293  2.0088
 1991SOL     OW17434   4.161   3.397  11.015 -0.5150 -0.1696  0.4553
 1991SOL    HW117435   4.088   3.345  11.050 -0.7330 -1.1459 -1.4001
 1991SOL    HW217436   4.233   3.337  11.034 -0.9835 -0.5957  0.8811
 1992SOL     OW17437   1.033   0.111   1.615 -0.3708 -0.1003  0.2513
 1992SOL    HW117438   1.026   0.041   1.551 -0.8390  1.1582 -1.0649
 1992SOL    HW217439   1.120   0.089   1.649 -1.9807 -2.3484  2.9614
 1993SOL     OW17440   2.638   2.000   4.742 -0.1782  0.0652 -0.1656
 1993SOL    HW117441   2.622   1.907   4.732 -1.0710  0.1634  0.2817
 1993SOL    HW217442   2.730   2.008   4.718 -0.3115 -1.5686 -1.2032
 1994SOL     OW17443   2.136   1.410   3.477 -0.4356  0.0725  0.2629
 1994SOL    HW117444   2.042   1.392   3.476 -0.5536  0.7646 -1.3561
 1994SOL    HW217445   2.126   1.492   3.429 -1.4103  0.5579  1.3038
 1995SOL     OW17446   1.429   0.345   2.851 -0.6989  0.1314 -0.2078
 1995SOL    HW117447   1.518   0.312   2.834 -0.7592  0.0735 -0.4081
 1995SOL    HW217448   1.442   0.437   2.872  1.4778 -0.6239  1.8000
 1996SOL     OW17449   3.823   1.843   1.519  0.3748  0.0451  1.0069
 1996SOL    HW117450   3.794   1.934   1.507 -3.1403 -1.3120 -0.7693
 1996SOL    HW217451   3.856   1.850   1.609 -0.4999 -1.3836  1.4377
 1997SOL     OW17452   3.413   4.704   1.570  0.1713  0.9854  0.2041
 1997SOL    HW117453   3.442   4.622   1.611 -0.5953  0.0396 -1.1365
 1997SOL    HW217454   3.497   0.014   1.537  0.5904 -2.4787 -1.8652
 1998SOL     OW17455   4.071   3.094   2.138 -0.3944 -0.1859 -0.2081
 1998SOL    HW117456   4.039   3.172   2.183  1.1111  0.3385 -0.0659
 1998SOL    HW217457   4.002   3.084   2.073 -0.1990 -0.4847 -0.3654
 1999SOL     OW17458   2.831   2.835   4.253 -0.8109 -0.2923 -0.1718
 1999SOL    HW117459   2.790   2.749   4.248 -0.7408 -0.4327  1.5394
 1999SOL    HW217460   2.860   2.835   4.162 -0.3235  1.0861 -0.0183
 2000SOL     OW17461   1.797   0.656   2.433  0.5141 -0.5241  0.0790
 2000SOL    HW117462   1.884   0.664   2.471  0.3601 -0.3067  0.3904
 2000SOL    HW217463   1.818   0.626   2.345 -1.5683 -4.3690  0.8773
 2001SOL     OW17464   2.087   4.637   2.818  0.9481  0.6460  0.3489
 2001SOL    HW117465   2.101   4.581   2.895  1.3783 -2.0713 -1.7163
 2001SOL    HW217466   2.105   0.001   2.860 -0.4193  0.9119  0.4087
 2002SOL     OW17467   3.875   4.175   3.527 -0.0826 -0.2567 -0.3229
 2002SOL    HW117468   3.945   4.192   3.464  1.1763  0.5873  1.3251
 2002SOL    HW217469   3.806   4.153   3.464 -1.0985  1.5597  0.1565
 2003SOL     OW17470   3.296   3.193   8.170  0.2377  0.0857 -0.3855
 2003SOL    HW117471   3.242   3.264   8.203  0.8697  0.2520  0.2997
 2003SOL    HW217472   3.357   3.183   8.243 -0.5611  0.5850  0.3437
 2004SOL     OW17473   3.736   1.404   7.315  0.6023  0.3858 -0.4019
 2004SOL    HW117474   3.800   1.460   7.358 -1.2640  1.7235  0.6379
 2004SOL    HW217475   3.678   1.473   7.284 -0.4295  0.3114  1.3975
 2005SOL     OW17476   1.718   1.817   4.993  0.6145  0.4046 -0.0349
 2005SOL    HW117477   1.638   1.780   5.030  1.2411  0.8219  1.7196
 2005SOL    HW217478   1.685   1.859   4.913  0.0495 -0.1039 -0.0630
 2006SOL     OW17479   3.947   1.538  15.210  0.3063  0.3937  0.5130
 2006SOL    HW117480   3.871   1.538  15.152 -0.0739  1.6955  1.0166
 2006SOL    HW217481   3.909   1.572  15.291  0.7927  2.6037 -0.2011
 2007SOL     OW17482   2.518   3.902  16.181  0.4245  0.3765  0.4640
 2007SOL    HW117483   2.551   3.978  16.229  2.0279 -0.4364  0.6417
 2007SOL    HW217484   2.580   3.901  16.108 -2.1741 -0.2435 -1.7191
 2008SOL     OW17485   1.639   3.507   1.410 -0.4162  0.1723  0.6195
 2008SOL    HW117486   1.650   3.502   1.505 -0.3489 -1.1732  0.5488
 2008SOL    HW217487   1.722   3.474   1.375 -1.4070  0.0556 -1.6060
 2009SOL     OW17488   0.092   1.251   5.233 -0.2331  0.5947  0.2361
 2009SOL    HW117489   0.151   1.250   5.309  0.9534 -0.3623 -0.7085
 2009SOL    HW217490   0.064   1.342   5.226  0.6125  1.0138  2.2939
 2010SOL     OW17491   0.452   2.105  12.928  0.0898  0.3889 -0.2873
 2010SOL    HW117492   0.487   2.179  12.878 -1.2059  0.9828 -0.3246
 2010SOL    HW217493   0.515   2.035  12.913 -1.6047 -1.4215  0.9447
 2011SOL     OW17494   3.346   3.409   6.428 -0.6282 -0.0844  0.3165
 2011SOL    HW117495   3.318   3.351   6.499 -0.5982 -0.5720 -0.0700
 2011SOL    HW217496   3.314   3.359   6.353 -2.1683  0.1958  0.7832
 2012SOL     OW17497   2.082   4.614   0.751  0.0761 -0.1393 -0.1204
 2012SOL    HW117498   2.059   4.570   0.669 -1.9970  0.7104 -0.0074
 2012SOL    HW217499   2.006   4.601   0.809  0.6629 -2.9375  0.0606
 2013SOL     OW17500   1.606   0.869  11.819 -0.2066 -0.1716  0.3533
 2013SOL    HW117501   1.580   0.785  11.859  2.3961 -1.5389 -0.8063
 2013SOL    HW217502   1.588   0.847  11.727 -1.6764  0.1078  0.5759
 2014SOL     OW17503   3.189   0.151   4.841  0.5028  0.6497  0.4160
 2014SOL    HW117504   3.281   0.126   4.850 -0.2520 -1.7478  1.2551
 2014SOL    HW217505   3.196   0.185   4.751  1.9805 -0.1827  0.2081
 2015SOL     OW17506   1.596   4.530  15.530 -0.4946  0.4588  0.0818
 2015SOL    HW117507   1.595   4.525  15.626  2.7661 -0.7022  0.0592
 2015SOL    HW217508   1.633   4.444  15.512 -0.2423  0.5367  0.2237
 2016SOL     OW17509   3.777   3.313   4.976 -0.0839 -0.2338 -0.1544
 2016SOL    HW117510   3.697   3.302   5.027  2.1407  2.3540  3.8429
 2016SOL    HW217511   3.760   3.258   4.899 -1.6513  0.0983 -0.0427
 2017SOL     OW17512   2.933   1.492   7.283 -0.2059 -0.5907  0.7394
 2017SOL    HW117513   3.010   1.548   7.272 -1.9069  1.5306 -0.4080
 2017SOL    HW217514   2.952   1.438   7.359 -0.5190 -1.3066  0.3085
 2018SOL     OW17515   2.792   1.705   9.917 -0.0954  0.3781 -0.5921
 2018SOL    HW117516   2.747   1.708   9.833 -2.2861  0.8458  0.6012
 2018SOL    HW217517   2.879   1.670   9.899  0.0494  0.1971  0.4260
 2019SOL     OW17518   2.546   0.306   4.458 -0.1630 -0.0885  0.3172
 2019SOL    HW117519   2.631   0.316   4.502 -0.1881  1.1605  0.0754
 2019SOL    HW217520   2.565   0.340   4.370  1.2526  1.7817  1.3423
 2020SOL     OW17521   2.658   1.527   8.259  0.2820  0.3101  0.2161
 2020SOL    HW117522   2.704   1.453   8.219  1.2351  1.6611 -1.2174
 2020SOL    HW217523   2.598   1.488   8.323  1.2444 -0.5926  0.5722
 2021SOL     OW17524   1.428   4.496   5.144 -0.0882 -0.0214  0.3579
 2021SOL    HW117525   1.341   4.467   5.170 -0.1887 -0.0171  0.0276
 2021SOL    HW217526   1.449   4.584   5.175  0.0692 -0.1872  0.7206
 2022SOL     OW17527   2.751   3.235   2.724 -0.1469 -0.5917 -0.4122
 2022SOL    HW117528   2.793   3.224   2.809  1.9016 -3.5649 -1.7873
 2022SOL    HW217529   2.660   3.214   2.746  0.5881 -0.1738  2.9765
 2023SOL     OW17530   2.008   1.546   8.491 -0.8859  0.0068  0.5506
 2023SOL    HW117531   1.929   1.538   8.439  0.0642  0.0193 -0.9052
 2023SOL    HW217532   1.977   1.593   8.568  1.2830  1.7372  0.3773
 2024SOL     OW17533   0.915   0.654   2.984 -0.4824  0.5465 -0.0597
 2024SOL    HW117534   0.984   0.599   2.946  0.8539 -0.3592  3.6031
 2024SOL    HW217535   0.853   0.649   2.912 -1.1029  0.5241  0.4761
 2025SOL     OW17536   3.254   1.263   2.051 -0.3077  0.5322  0.4746
 2025SOL    HW117537   3.317   1.200   2.015  0.4063  0.7675  1.3047
 2025SOL    HW217538   3.179   1.251   1.992  1.2081  0.1521 -1.3733
 2026SOL     OW17539   2.160   3.888   4.417 -0.0875 -0.2756  0.5871
 2026SOL    HW117540   2.104   3.817   4.385  2.2882 -1.0588 -1.7656
 2026SOL    HW217541   2.182   3.938   4.339  0.1474  0.3749  1.0755
 2027SOL     OW17542   1.883   1.353   3.444 -0.7054 -0.1658 -0.5784
 2027SOL    HW117543   1.835   1.272   3.461  1.2618 -1.2107 -0.0335
 2027SOL    HW217544   1.808   1.403   3.413 -1.2547  0.8933  2.4031
 2028SOL     OW17545   3.555   4.110  14.794  0.5277  0.3457 -0.9700
 2028SOL    HW117546   3.592   4.127  14.708  2.3233  3.1241  0.3590
 2028SOL    HW217547   3.619   4.154  14.850 -0.7976  2.0115 -0.7751
 2029SOL     OW17548   4.192   2.670   4.099 -0.0740  0.6191 -0.4577
 2029SOL    HW117549   4.147   2.678   4.015  3.3242 -0.5138 -2.3824
 2029SOL    HW217550   4.281   2.663   4.065  0.1225  3.9389 -0.6424
 2030SOL     OW17551   2.821   3.818   5.940  0.1636 -0.2505 -0.1117
 2030SOL    HW117552   2.757   3.772   5.995  0.2592 -0.3552 -0.0876
 2030SOL    HW217553   2.833   3.909   5.967  0.9626 -0.1270 -0.8993
 2031SOL     OW17554   2.930   1.199  12.238 -0.4537 -0.6477  0.2521
 2031SOL    HW117555   2.931   1.113  12.279  1.5158 -0.6331  0.2382
 2031SOL    HW217556   2.891   1.257  12.304 -0.1805  0.6708 -0.7332
 2032SOL     OW17557   3.577   3.542   8.523  0.0460  0.1878  0.6821
 2032SOL    HW117558   3.580   3.614   8.586 -2.2659  0.3409  0.6198
 2032SOL    HW217559   3.585   3.586   8.438  0.5022  1.7800  1.5434
 2033SOL     OW17560   4.370   3.845   7.130  0.4682 -0.3776  0.4428
 2033SOL    HW117561   4.352   3.888   7.046 -1.0203  0.3372  1.1432
 2033SOL    HW217562   4.340   3.756   7.113 -1.6394  0.2996  0.6823
 2034SOL     OW17563   0.331   3.913   4.940 -0.1048 -0.1531  0.0652
 2034SOL    HW117564   0.342   3.835   4.995  3.9628 -0.6981 -1.5565
 2034SOL    HW217565   0.387   3.972   4.990 -1.3042 -1.1882  2.6779
 2035SOL     OW17566   0.946   4.580   7.115 -0.1899 -0.1240 -0.6866
 2035SOL    HW117567   1.012   4.512   7.106  0.6125  0.4638  0.7473
 2035SOL    HW217568   0.971   4.602   7.204  2.3043 -2.4985 -0.7959
 2036SOL     OW17569   3.113   2.396  12.669 -0.2436 -0.5513 -0.4465
 2036SOL    HW117570   3.038   2.437  12.711  1.5279  1.3109  0.9300
 2036SOL    HW217571   3.148   2.354  12.747  0.1563 -0.0383 -0.3569
 2037SOL     OW17572   2.971   0.691  12.825  0.4023  0.4594 -0.2608
 2037SOL    HW117573   2.945   0.613  12.776 -0.4988  0.8478 -0.3918
 2037SOL    HW217574   3.011   0.649  12.901 -0.1616 -3.3606 -2.0939
 2038SOL     OW17575   0.938   4.311   3.133 -0.6059  0.4924 -0.1890
 2038SOL    HW117576   0.994   4.363   3.191 -0.0315 -1.9575  1.4755
 2038SOL    HW217577   0.968   4.335   3.046  2.6424  0.2975  0.8382
 2039SOL     OW17578   0.541   4.709   7.047 -0.4640  0.1852 -0.0394
 2039SOL    HW117579   0.614   4.676   6.996  1.3108  3.4357  0.3617
 2039SOL    HW217580   0.471   4.696   6.984  0.8953 -1.6146 -1.1512
 2040SOL     OW17581   0.428   2.403   8.339 -0.2770 -0.1000 -0.1301
 2040SOL    HW117582   0.469   2.386   8.423  1.3032 -0.1945 -0.9143
 2040SOL    HW217583   0.389   2.320   8.312  0.6897 -0.3069 -0.9102
 2041SOL     OW17584   2.646   2.834  15.492  0.0970 -0.4429 -0.5304
 2041SOL    HW117585   2.716   2.770  15.504  0.9512  0.3694 -1.1629
 2041SOL    HW217586   2.677   2.888  15.564 -1.3521  0.2875 -0.4430
 2042SOL     OW17587   2.100   3.340   7.077 -0.3738 -0.9266 -0.6346
 2042SOL    HW117588   2.102   3.244   7.077 -0.7588 -0.9320  1.5900
 2042SOL    HW217589   2.183   3.350   7.030 -0.1621 -1.4614 -0.3727
 2043SOL     OW17590   2.117   1.988   7.448 -0.4278 -0.3774  0.0354
 2043SOL    HW117591   2.166   2.012   7.528  0.2546 -1.5051 -0.0424
 2043SOL    HW217592   2.107   1.894   7.461 -0.5435 -0.1636  1.5330
 2044SOL     OW17593   3.669   0.201   1.739 -0.0164  0.3729  0.4154
 2044SOL    HW117594   3.672   0.167   1.650 -1.3625  2.7638 -0.5274
 2044SOL    HW217595   3.707   0.121   1.776  0.4816 -0.6895 -2.4307
 2045SOL     OW17596   3.960   1.239   5.961  0.4552  1.0003  0.6647
 2045SOL    HW117597   3.877   1.198   5.985  1.2161 -1.1488 -0.3165
 2045SOL    HW217598   4.020   1.166   5.978 -0.7794  0.1733  1.5189
 2046SOL     OW17599   2.665   0.359   2.037  0.0382 -0.4055  0.2103
 2046SOL    HW117600   2.725   0.423   2.074 -0.6058 -0.6628  1.6864
 2046SOL    HW217601   2.599   0.415   1.998 -0.3006 -0.6096  0.4939
 2047SOL     OW17602   3.041   4.436  10.608  0.5922  0.3912 -0.0936
 2047SOL    HW117603   3.125   4.401  10.637  0.7894 -0.6079 -1.8594
 2047SOL    HW217604   3.069   4.527  10.599  0.1040  0.6613  1.2178
 2048SOL     OW17605   1.798   1.026  13.147  0.5695  0.5393  0.6155
 2048SOL    HW117606   1.787   1.051  13.055  0.1842 -1.5007  0.1044
 2048SOL    HW217607   1.717   1.043  13.195 -0.8006 -0.6899 -1.2152
 2049SOL     OW17608   2.895   0.408   5.469  0.3144  0.5091  0.0418
 2049SOL    HW117609   2.875   0.333   5.526 -2.3338  0.4968 -0.8693
 2049SOL    HW217610   2.828   0.471   5.497 -0.5181  0.5298 -2.0159
 2050SOL     OW17611   3.427   4.091   1.323  0.4067 -0.5765 -0.2227
 2050SOL    HW117612   3.393   4.006   1.294 -0.7802  0.3562 -1.5753
 2050SOL    HW217613   3.506   4.112   1.273 -0.2842  2.6630  0.0519
 2051SOL     OW17614   0.403   2.718   0.646 -0.2990  0.1228  0.0320
 2051SOL    HW117615   0.326   2.769   0.672 -1.8065 -1.2425 -1.8260
 2051SOL    HW217616   0.467   2.780   0.611 -0.6351 -0.7025 -2.0538
 2052SOL     OW17617   1.661   0.819   3.997 -0.4295  0.0394 -0.0952
 2052SOL    HW117618   1.748   0.831   3.959 -1.1181 -0.6624 -1.8735
 2052SOL    HW217619   1.697   0.780   4.078  2.0361 -1.2594 -1.7973
 2053SOL     OW17620   2.028   2.893   4.198 -1.0112  0.0081 -0.3988
 2053SOL    HW117621   1.980   2.972   4.223 -0.1122 -0.1793  1.8483
 2053SOL    HW217622   2.119   2.922   4.185 -0.8028 -0.2488  0.4711
 2054SOL     OW17623   2.849   3.769   8.133  0.0722 -0.1116 -0.0819
 2054SOL    HW117624   2.859   3.779   8.228  0.2562 -0.0161 -0.1112
 2054SOL    HW217625   2.900   3.691   8.109 -0.3410 -1.2596  2.7201
 2055SOL     OW17626   2.762   3.783   5.146  0.1686  0.3407 -0.2853
 2055SOL    HW117627   2.828   3.832   5.196  1.0450 -1.2944  0.1571
 2055SOL    HW217628   2.776   3.835   5.067  1.5634 -0.1492 -0.3617
 2056SOL     OW17629   1.426   3.162   6.394 -0.0673 -0.2311  0.4222
 2056SOL    HW117630   1.359   3.139   6.458 -1.8472  3.3148 -0.1426
 2056SOL    HW217631   1.402   3.252   6.372  3.4582  0.6632  0.2633
 2057SOL     OW17632   4.073   2.103   7.525 -0.0721 -0.1791  0.9812
 2057SOL    HW117633   4.117   2.167   7.580 -0.6194  0.5496  0.5625
 2057SOL    HW217634   4.133   2.030   7.542 -2.5202 -2.0730  1.4778
 2058SOL     OW17635   4.077   2.272   9.261 -0.2645  0.2660 -0.0182
 2058SOL    HW117636   4.060   2.361   9.291 -0.5336  0.8511 -1.9207
 2058SOL    HW217637   4.170   2.260   9.281 -1.0459 -0.6004  3.0241
 2059SOL     OW17638   3.096   3.313   2.442 -0.5323  0.1526  0.2521
 2059SOL    HW117639   3.104   3.338   2.534 -0.6390  0.4059  0.1927
 2059SOL    HW217640   3.007   3.339   2.416  0.4246  2.4950 -0.7345
 2060SOL     OW17641   4.099   3.347   2.858 -0.1158  0.0209  0.3605
 2060SOL    HW117642   4.041   3.410   2.899  1.5913  1.4667  0.5619
 2060SOL    HW217643   4.178   3.399   2.843  0.6805 -1.0464  0.8794
 2061SOL     OW17644   3.643   2.040   5.992  0.3707 -0.1366  0.9833
 2061SOL    HW117645   3.644   2.097   5.915 -4.1000  0.5295  1.4221
 2061SOL    HW217646   3.634   2.095   6.069 -1.3736 -0.5158  1.0576
 2062SOL     OW17647   4.148   1.929   7.146 -0.1018 -0.1229 -0.5092
 2062SOL    HW117648   4.056   1.907   7.161  0.1777 -0.2461  1.0399
 2062SOL    HW217649   4.178   1.867   7.080  1.3688 -0.3240  0.3544
 2063SOL     OW17650   3.878   4.328   5.210  0.3503 -0.3673  0.0461
 2063SOL    HW117651   3.960   4.295   5.247  0.2178  0.7103  1.2953
 2063SOL    HW217652   3.900   4.352   5.120  2.5454 -3.9188 -0.3380
 2064SOL     OW17653   3.362   2.191   7.808 -0.4727 -0.2369  0.1874
 2064SOL    HW117654   3.418   2.236   7.871  0.2199 -0.6856 -0.1094
 2064SOL    HW217655   3.324   2.120   7.861  1.1461 -0.0961  1.5429
 2065SOL     OW17656   2.019   0.794   2.223 -0.4656 -0.5082  0.0212
 2065SOL    HW117657   2.040   0.758   2.309  1.5687  0.6436 -0.0086
 2065SOL    HW217658   1.959   0.724   2.195 -3.1949  1.9092 -0.1683
 2066SOL     OW17659   2.219   0.084  13.686 -0.0030 -0.4398  0.0077
 2066SOL    HW117660   2.192   0.172  13.660 -0.1867  0.2183  2.3579
 2066SOL    HW217661   2.277   0.109  13.758 -1.5939  0.9592  0.8073
 2067SOL     OW17662   1.965   1.667   4.159 -0.2263 -0.1031  0.0787
 2067SOL    HW117663   1.971   1.664   4.063 -3.6480 -1.1151 -0.1098
 2067SOL    HW217664   2.055   1.694   4.178  0.7415 -3.0634 -0.3723
 2068SOL     OW17665   0.663   2.568   3.006 -0.1119 -0.2527  0.3842
 2068SOL    HW117666   0.716   2.531   2.934  0.2629  0.7546  0.1382
 2068SOL    HW217667   0.741   2.606   3.046 -0.2372 -1.2937  1.5992
 2069SOL     OW17668   3.663   0.396  10.369 -0.3194  0.6608 -0.2133
 2069SOL    HW117669   3.571   0.411  10.392  0.4026 -0.2770  3.4138
 2069SOL    HW217670   3.654   0.405  10.275 -0.8530 -5.8243 -0.8087
 2070SOL     OW17671   3.101   1.792   4.169 -0.2121  0.1427  0.0009
 2070SOL    HW117672   3.122   1.713   4.118  0.7030 -0.9624  2.0950
 2070SOL    HW217673   3.163   1.849   4.123  0.6386  1.5407  2.8600
 2071SOL     OW17674   0.917   4.393   6.776 -0.2354  0.0047 -0.3359
 2071SOL    HW117675   0.996   4.407   6.828 -0.1391  1.5022 -0.8865
 2071SOL    HW217676   0.912   4.469   6.718  0.9211  0.1709 -0.2355
 2072SOL     OW17677   3.638   0.434  11.612  0.2384 -0.2580 -0.1918
 2072SOL    HW117678   3.631   0.417  11.518 -1.5288 -1.6609  0.1992
 2072SOL    HW217679   3.625   0.527  11.629  1.3958  0.4244 -3.1318
 2073SOL     OW17680   0.539   1.436   8.248 -0.1973 -0.0495  0.0494
 2073SOL    HW117681   0.489   1.401   8.174 -2.4867  1.6008  0.8187
 2073SOL    HW217682   0.506   1.380   8.318 -0.7751 -1.6274 -1.4853
 2074SOL     OW17683   4.530   3.435   2.323  0.2749  0.1837 -0.2886
 2074SOL    HW117684   4.611   3.388   2.345  0.7974  1.1301 -0.1732
 2074SOL    HW217685   4.530   3.415   2.230  0.4414 -0.0441 -0.2410
 2075SOL     OW17686   4.476   3.580  16.113 -0.3426 -0.3897  0.0446
 2075SOL    HW117687   4.408   3.607  16.052 -0.0421 -0.0403 -0.1315
 2075SOL    HW217688   4.446   3.493  16.140 -3.4207  1.1428  1.6193
 2076SOL     OW17689   1.787   4.368  17.591  0.0509 -0.1134 -0.2687
 2076SOL    HW117690   1.816   4.456  17.616 -1.1756 -0.6448  3.0401
 2076SOL    HW217691   1.712   4.381  17.533 -1.8164 -0.1421  2.0919
 2077SOL     OW17692   3.139   1.319  14.222 -0.2086 -0.1361  0.4949
 2077SOL    HW117693   3.151   1.402  14.175 -0.6975  0.2701  1.0828
 2077SOL    HW217694   3.072   1.277  14.169 -1.1605  0.7892  0.9532
 2078SOL     OW17695   3.785   4.194   4.740 -0.3641 -0.3438  0.1527
 2078SOL    HW117696   3.757   4.138   4.812  1.1216  0.7726  1.5871
 2078SOL    HW217697   3.743   4.274   4.770  2.8513  1.3446  0.0801
 2079SOL     OW17698   3.675   2.487   5.443  0.4196 -0.1115  0.1899
 2079SOL    HW117699   3.580   2.474   5.433  0.3481  0.7787 -0.3031
 2079SOL    HW217700   3.710   2.398   5.430 -4.9705 -2.2416  0.2955
 2080SOL     OW17701   2.456   3.461   5.785 -0.0873  0.0627  0.2506
 2080SOL    HW117702   2.510   3.534   5.816  0.9464 -0.9891  0.9442
 2080SOL    HW217703   2.384   3.507   5.742  0.2653  0.3522 -0.0291
 2081SOL     OW17704   4.384   2.404   4.760  0.5955  0.0170  0.5326
 2081SOL    HW117705   4.297   2.434   4.733  1.5084  1.0364 -1.2320
 2081SOL    HW217706   4.409   2.383   4.670 -0.7540  2.6201 -0.4445
 2082SOL     OW17707   4.475   3.307   2.073  0.2287  0.1236  0.2114
 2082SOL    HW117708   4.543   3.327   2.009 -0.8462  0.2758 -0.8742
 2082SOL    HW217709   4.469   3.212   2.067  1.0470  0.0945 -0.0951
 2083SOL     OW17710   0.613   3.732   2.785  0.0185 -0.2555  0.1278
 2083SOL    HW117711   0.609   3.642   2.818 -1.9957  0.2884  1.3568
 2083SOL    HW217712   0.525   3.758   2.813  1.2750  2.3327  1.7029
 2084SOL     OW17713   0.881   4.338   0.712 -0.6442  0.1571  0.2381
 2084SOL    HW117714   0.906   4.413   0.768  0.6406  0.5240 -0.8167
 2084SOL    HW217715   0.916   4.269   0.768  1.1337  1.5978  0.9391
 2085SOL     OW17716   3.819   1.016   3.901 -0.4333 -0.2251 -0.5510
 2085SOL    HW117717   3.759   1.053   3.966  0.3283  0.0827 -0.0242
 2085SOL    HW217718   3.837   0.926   3.928 -0.0911  0.0688  0.1981
 2086SOL     OW17719   2.526   3.851  10.153 -0.0363  0.0266  0.0749
 2086SOL    HW117720   2.554   3.842  10.062 -0.0940 -2.2231  0.2662
 2086SOL    HW217721   2.552   3.939  10.181  0.1701  0.0598 -0.2249
 2087SOL     OW17722   2.237   1.668   0.303  0.1201  0.1602  0.2323
 2087SOL    HW117723   2.289   1.738   0.342  0.9626 -1.1771  1.5423
 2087SOL    HW217724   2.146   1.690   0.320  0.5391  0.7160  1.7707
 2088SOL     OW17725   1.862   1.964   6.375  0.0890 -0.3862  0.2016
 2088SOL    HW117726   1.784   1.939   6.426  1.0791  1.1129  2.4379
 2088SOL    HW217727   1.835   2.053   6.350  0.9354  0.1670  1.2312
 2089SOL     OW17728   1.459   0.016   5.682 -1.2415  0.0828 -0.2829
 2089SOL    HW117729   1.422   4.651   5.657  1.3512 -0.0619 -3.6092
 2089SOL    HW217730   1.547   0.018   5.644 -1.3922  2.1449 -0.5265
 2090SOL     OW17731   2.991   0.612   4.045 -0.1991  1.0663  0.3811
 2090SOL    HW117732   2.996   0.605   3.949  2.2720 -2.1860  0.7225
 2090SOL    HW217733   2.905   0.644   4.069 -0.3911  0.6355  0.2689
 2091SOL     OW17734   3.721   3.581  12.499 -0.1869 -0.9901  0.1044
 2091SOL    HW117735   3.651   3.645  12.487  0.9643  0.3604  0.5871
 2091SOL    HW217736   3.699   3.549  12.587 -2.2550  2.2062  0.7396
 2092SOL     OW17737   0.525   1.279   0.965 -0.1537 -0.2400  0.7884
 2092SOL    HW117738   0.441   1.309   1.000 -0.4463 -0.0328 -0.0913
 2092SOL    HW217739   0.531   1.192   1.006 -0.4022 -0.1190  1.0824
 2093SOL     OW17740   0.830   4.541   4.160  0.5743  0.3576  0.1119
 2093SOL    HW117741   0.813   4.513   4.250 -3.7552  1.1632 -0.4269
 2093SOL    HW217742   0.756   4.596   4.132 -0.2974 -1.0596 -0.3585
 2094SOL     OW17743   2.739   1.440  10.615 -0.1021 -0.7742 -0.0770
 2094SOL    HW117744   2.646   1.459  10.626  0.3254  0.8354  0.5674
 2094SOL    HW217745   2.733   1.375  10.544 -0.7574 -1.1764  0.3512
 2095SOL     OW17746   1.201   3.886   8.348 -0.2605  0.1739 -0.4718
 2095SOL    HW117747   1.108   3.864   8.346  0.7019 -3.8967  0.5271
 2095SOL    HW217748   1.211   3.934   8.431 -1.4464 -0.6929  0.1735
 2096SOL     OW17749   0.722   1.105   0.754 -0.0780  0.3848  0.1579
 2096SOL    HW117750   0.758   1.191   0.731  1.6334 -0.1704  0.7283
 2096SOL    HW217751   0.653   1.130   0.815  0.5496  1.4480  0.4451
 2097SOL     OW17752   2.124   0.390   2.422 -0.1218  0.3362  0.0693
 2097SOL    HW117753   2.201   0.335   2.435 -0.9355 -0.3222  2.0613
 2097SOL    HW217754   2.090   0.349   2.342 -1.2057  0.7428  0.3114
 2098SOL     OW17755   0.735   4.176   4.095 -0.2549  0.5730 -0.5198
 2098SOL    HW117756   0.761   4.236   4.165  2.3751 -0.8694 -0.2628
 2098SOL    HW217757   0.726   4.087   4.129  0.9794  1.3132  1.7722
 2099SOL     OW17758   2.043   1.560   4.755  0.5182 -0.4356  0.0950
 2099SOL    HW117759   2.072   1.633   4.701  0.4128 -1.0413 -0.7824
 2099SOL    HW217760   1.991   1.606   4.821 -0.3905 -0.4034 -0.6468
 2100SOL     OW17761   2.778   1.949   6.534 -0.2125 -0.0521 -0.0682
 2100SOL    HW117762   2.730   1.945   6.451 -3.3194  0.7199  1.6825
 2100SOL    HW217763   2.723   2.016   6.575  0.0847  0.6895 -0.8788
 2101SOL     OW17764   3.364   1.116   9.011  0.0021 -0.1348 -0.4342
 2101SOL    HW117765   3.343   1.209   9.009 -0.3803 -0.2466 -1.9716
 2101SOL    HW217766   3.280   1.071   9.022  0.0492 -0.8059 -2.8422
 2102SOL     OW17767   4.428   2.935   3.091  0.5113  0.7695 -0.3281
 2102SOL    HW117768   4.457   2.937   3.182 -1.3578  1.1702  0.2683
 2102SOL    HW217769   4.413   3.027   3.071 -1.9798  0.0976 -1.6380
 2103SOL     OW17770   3.956   1.006   7.421 -0.5437  0.9348 -0.2773
 2103SOL    HW117771   4.013   0.967   7.488  1.0054  0.7335 -1.7242
 2103SOL    HW217772   3.871   1.003   7.464  1.0728  1.5158  3.0058
 2104SOL     OW17773   3.388   0.355   8.808 -0.0720 -0.1793  0.5923
 2104SOL    HW117774   3.333   0.290   8.764  0.7822 -0.5117  0.0049
 2104SOL    HW217775   3.363   0.439   8.771 -1.3615 -0.6538  0.3726
 2105SOL     OW17776   3.352   2.225   4.083  0.0289  0.2013 -0.1765
 2105SOL    HW117777   3.321   2.316   4.088 -0.6374 -0.0163 -0.3493
 2105SOL    HW217778   3.412   2.218   4.008  0.3790 -0.5762  0.1798
 2106SOL     OW17779   0.120   4.501   2.285 -0.1551 -0.1553  0.1926
 2106SOL    HW117780   0.124   4.477   2.192  2.6567 -0.8572  0.4875
 2106SOL    HW217781   0.024   4.501   2.288 -0.1399 -0.4345  0.6673
 2107SOL     OW17782   2.740   2.317  15.179 -0.1927 -0.2778  0.3605
 2107SOL    HW117783   2.777   2.233  15.151 -0.0311  0.6795 -2.3072
 2107SOL    HW217784   2.822   2.366  15.189 -0.5678  0.4528 -0.1800
 2108SOL     OW17785   3.413   4.423   0.662 -0.2225 -0.0556  0.0109
 2108SOL    HW117786   3.490   4.389   0.617 -0.1811  1.8971 -1.3466
 2108SOL    HW217787   3.442   4.500   0.710  2.8590 -1.0161 -0.3386
 2109SOL     OW17788   3.554   3.056   2.413  0.4855  0.2845 -0.0268
 2109SOL    HW117789   3.463   3.086   2.415 -0.0645 -1.4885  1.2171
 2109SOL    HW217790   3.604   3.123   2.459 -0.0510  0.5498  0.1703
 2110SOL     OW17791   3.893   1.357   7.682 -0.0023  0.2126  0.6311
 2110SOL    HW117792   3.812   1.332   7.637  0.0112 -3.1280  2.4454
 2110SOL    HW217793   3.873   1.447   7.708  0.1340  0.7373 -1.1230
 2111SOL     OW17794   1.210   3.472   5.006  0.5265  0.7448 -0.4310
 2111SOL    HW117795   1.258   3.433   4.932  0.0426 -0.7141  0.0202
 2111SOL    HW217796   1.133   3.504   4.959 -1.4695 -0.4465  2.0602
 2112SOL     OW17797   4.630   2.840   1.970 -0.7766  0.1117  0.1422
 2112SOL    HW117798   4.600   2.777   2.035 -1.8651  0.3993 -0.0852
 2112SOL    HW217799   4.711   2.802   1.935 -0.2621  0.1098  1.3412
 2113SOL     OW17800   1.511   0.212   1.798  0.3260  0.1210  0.3807
 2113SOL    HW117801   1.451   0.145   1.766 -0.7674  2.3913 -2.3423
 2113SOL    HW217802   1.590   0.159   1.804  0.5899  0.6007  1.2832
 2114SOL     OW17803   1.826   3.934   3.298  0.3267  0.3989  0.4116
 2114SOL    HW117804   1.913   3.972   3.298 -0.3888  2.0250 -1.1970
 2114SOL    HW217805   1.822   3.902   3.208 -0.2107  1.9144 -0.0935
 2115SOL     OW17806   3.725   1.537   9.477 -0.0545 -0.5492 -0.0631
 2115SOL    HW117807   3.640   1.578   9.488  0.5550  1.0374 -1.2835
 2115SOL    HW217808   3.771   1.616   9.447  0.2197  0.0475  1.9441
 2116SOL     OW17809   3.860   3.373   7.039 -0.4051  0.0207 -0.4222
 2116SOL    HW117810   3.928   3.437   7.063  0.0016 -1.6070  2.7373
 2116SOL    HW217811   3.916   3.297   7.055 -2.4366 -1.1502  1.0301
 2117SOL     OW17812   3.062   4.456   6.345 -0.1924  0.8699  0.1432
 2117SOL    HW117813   3.046   4.464   6.439  1.1157  0.2260  0.4132
 2117SOL    HW217814   3.011   4.527   6.306 -2.3658  0.6099  2.5317
 2118SOL     OW17815   4.620   3.326   6.639  0.0452  0.5222 -0.5135
 2118SOL    HW117816   4.574   3.246   6.664 -0.2140  0.7528 -0.2525
 2118SOL    HW217817   4.672   3.337   6.719  1.8179 -2.1795 -1.2904
 2119SOL     OW17818   0.607   0.154   6.081  0.8890 -0.0980  0.3489
 2119SOL    HW117819   0.639   0.140   6.170 -0.9755  0.9283  1.1642
 2119SOL    HW217820   0.555   0.233   6.092 -2.3867 -2.3328  0.8884
 2120SOL     OW17821   2.476   0.262   7.088 -0.3224 -0.2656 -0.0927
 2120SOL    HW117822   2.516   0.295   7.008 -0.3212 -2.0735 -0.8224
 2120SOL    HW217823   2.442   0.178   7.058 -2.1311  0.1153  0.8947
 2121SOL     OW17824   1.646   2.454   5.872 -1.2305 -0.0940  0.1458
 2121SOL    HW117825   1.696   2.390   5.924  2.0371  2.9017  0.7083
 2121SOL    HW217826   1.692   2.452   5.788 -0.6757  0.6357  0.4315
 2122SOL     OW17827   3.691   4.455   4.858  0.3527 -0.2430 -0.3131
 2122SOL    HW117828   3.694   4.495   4.944 -1.2610 -1.5319  0.3421
 2122SOL    HW217829   3.619   4.506   4.820  1.3560 -0.4971 -2.5912
 2123SOL     OW17830   0.955   3.052   2.020 -0.4505 -0.5157  0.3433
 2123SOL    HW117831   1.039   3.051   2.066 -1.2783 -1.4410  1.8433
 2123SOL    HW217832   0.919   2.980   2.072 -0.2132 -0.2425  0.8927
 2124SOL     OW17833   4.447   0.561   1.469  0.5823  0.6259 -0.1600
 2124SOL    HW117834   4.380   0.520   1.524  2.1951 -2.4294 -0.4368
 2124SOL    HW217835   4.426   0.648   1.502 -1.0609  0.5238 -0.9693
 2125SOL     OW17836   4.670   4.090   7.119 -0.1275  0.4186  0.4336
 2125SOL    HW117837   4.586   4.105   7.161 -0.7553  0.2054 -0.7570
 2125SOL    HW217838   4.652   4.121   7.030  0.3402 -0.4057  0.0481
 2126SOL     OW17839   3.974   4.040   3.187  0.2036  0.3234 -0.1990
 2126SOL    HW117840   4.034   3.966   3.180  0.8469  0.8298 -0.0054
 2126SOL    HW217841   3.995   4.086   3.106  0.4859 -0.3400 -0.5040
 2127SOL     OW17842   2.144   4.344   4.058  0.8743  0.0609  0.1559
 2127SOL    HW117843   2.219   4.296   4.024  0.7764 -0.4194  0.6289
 2127SOL    HW217844   2.148   4.315   4.149  1.0465 -0.8343 -0.1341
 2128SOL     OW17845   0.160   0.089   2.810  0.4374  0.4448  0.0334
 2128SOL    HW117846   0.218   0.157   2.844 -0.5695  0.8316  0.9760
 2128SOL    HW217847   0.212   0.055   2.737  2.7334 -1.4171  2.4926
 2129SOL     OW17848   1.454   4.474  16.003 -0.3189  0.5262 -0.1550
 2129SOL    HW117849   1.359   4.469  16.018 -0.3947  2.4832  0.0397
 2129SOL    HW217850   1.485   4.483  16.093  2.6464 -1.9619 -0.9222
 2130SOL     OW17851   1.913   0.156   7.872  0.7758  1.0593  0.2594
 2130SOL    HW117852   1.865   0.194   7.945 -0.8676 -0.4652 -0.0243
 2130SOL    HW217853   1.972   0.102   7.925  0.5054  0.5822  0.0760
 2131SOL     OW17854   2.226   2.970   8.631 -0.0894  0.2542 -0.3907
 2131SOL    HW117855   2.306   3.020   8.650 -0.4394  1.3554 -1.8527
 2131SOL    HW217856   2.247   2.892   8.683  1.2894  0.8320 -0.0853
 2132SOL     OW17857   3.341   4.714   8.128 -0.2344 -0.0369  0.0391
 2132SOL    HW117858   3.291   0.075   8.141 -1.6879 -0.5646 -2.1824
 2132SOL    HW217859   3.422   0.027   8.089  0.5652 -1.0733  0.8433
 2133SOL     OW17860   2.528   1.997   1.915  0.4394 -0.1944  0.2684
 2133SOL    HW117861   2.593   1.979   1.847 -0.8714  0.3969 -1.1498
 2133SOL    HW217862   2.516   1.908   1.947  0.7257 -0.6705 -0.9514
 2134SOL     OW17863   1.210   4.332  15.340 -0.3089 -0.2548  0.0899
 2134SOL    HW117864   1.125   4.327  15.385 -0.6396  0.0275 -0.5119
 2134SOL    HW217865   1.204   4.407  15.281 -0.5628 -0.3831 -0.0481
 2135SOL     OW17866   0.794   4.516  10.676 -0.8276  0.1437  0.1156
 2135SOL    HW117867   0.705   4.493  10.651 -0.1668 -0.1450 -1.9735
 2135SOL    HW217868   0.843   4.441  10.643 -2.1692 -0.6367 -0.0618
 2136SOL     OW17869   0.309   3.916   4.662  0.0049 -0.4350 -0.1602
 2136SOL    HW117870   0.330   3.822   4.656  1.5041 -0.1113  0.0009
 2136SOL    HW217871   0.328   3.932   4.754 -2.7637  0.4800  0.2507
 2137SOL     OW17872   0.545   4.603  10.376  0.0101  0.2535  0.1749
 2137SOL    HW117873   0.598   4.562  10.444 -0.2691  1.0100  0.8525
 2137SOL    HW217874   0.590   4.686  10.366  1.7253 -0.7955 -0.7400
 2138SOL     OW17875   3.576   2.816   5.002  0.2787 -0.0274 -0.3447
 2138SOL    HW117876   3.625   2.735   5.016 -0.3916 -0.4819 -0.6367
 2138SOL    HW217877   3.490   2.790   5.034 -1.2533  3.5132 -1.5768
 2139SOL     OW17878   2.440   2.454  11.815  0.2992  0.0149 -0.3893
 2139SOL    HW117879   2.496   2.439  11.892  0.0988  2.3947  0.2100
 2139SOL    HW217880   2.506   2.432  11.750  1.5628  2.1467  0.1812
 2140SOL     OW17881   1.790   3.378   2.208  0.3123  0.2269 -0.4563
 2140SOL    HW117882   1.815   3.323   2.281 -2.3147 -0.3618 -0.0021
 2140SOL    HW217883   1.765   3.308   2.148  0.0898 -1.4743  1.6235
 2141SOL     OW17884   0.697   1.795   7.745 -0.1081 -0.4243  0.8013
 2141SOL    HW117885   0.653   1.817   7.662  2.0231  3.0850  0.6066
 2141SOL    HW217886   0.787   1.805   7.714 -1.3814 -0.2760 -2.9671
 2142SOL     OW17887   2.329   1.834   9.118  0.1343 -0.2335 -0.4557
 2142SOL    HW117888   2.418   1.865   9.134  0.3643 -1.3154  0.3714
 2142SOL    HW217889   2.345   1.742   9.139  3.1655  0.3452 -0.2502
 2143SOL     OW17890   2.443   1.416   7.365  0.6732 -0.0344 -0.4000
 2143SOL    HW117891   2.415   1.475   7.435  0.4610 -1.8328  1.0413
 2143SOL    HW217892   2.530   1.448   7.340  0.7076 -0.2532 -0.5652
 2144SOL     OW17893   4.576   1.457   2.280 -0.3497 -0.4555  0.4991
 2144SOL    HW117894   4.592   1.410   2.362  0.3944 -0.5768  0.2820
 2144SOL    HW217895   4.493   1.495   2.307 -0.1806 -0.1277  0.5604
 2145SOL     OW17896   2.742   1.123  10.214  0.1177 -0.5034  0.5829
 2145SOL    HW117897   2.708   1.142  10.126 -0.2877 -2.7252  0.2426
 2145SOL    HW217898   2.732   1.028  10.223 -1.2702 -0.5794 -1.4801
 2146SOL     OW17899   3.112   0.356   1.232 -0.3102  0.0905 -0.1753
 2146SOL    HW117900   3.087   0.424   1.295 -0.9549  1.2664 -1.6966
 2146SOL    HW217901   3.152   0.296   1.295  1.0941  1.7830  0.5235
 2147SOL     OW17902   1.825   1.452  15.784  0.5085  0.4177  0.1611
 2147SOL    HW117903   1.815   1.464  15.879  0.5754  0.9527  0.1006
 2147SOL    HW217904   1.738   1.446  15.746  1.3891  0.4955 -1.8517
 2148SOL     OW17905   2.779   2.443   3.392 -0.7769 -0.0674 -0.8064
 2148SOL    HW117906   2.707   2.392   3.357 -1.4870 -1.0857  2.1457
 2148SOL    HW217907   2.746   2.533   3.397 -0.8381  0.0718 -3.4554
 2149SOL     OW17908   3.066   1.365   0.153  0.9055  0.0024 -0.3246
 2149SOL    HW117909   3.154   1.400   0.151  0.9761 -0.2209 -1.2018
 2149SOL    HW217910   3.055   1.363   0.248  0.3629  0.3686 -0.3772
 2150SOL     OW17911   0.530   1.791   5.736  0.6806  1.0417 -0.3104
 2150SOL    HW117912   0.516   1.802   5.642  0.3528  0.8258 -0.2875
 2150SOL    HW217913   0.619   1.755   5.729  0.3129  0.0923 -0.1944
 2151SOL     OW17914   2.793   1.211   9.431 -0.3667 -0.4391  0.1115
 2151SOL    HW117915   2.818   1.132   9.384  2.1881  0.7941 -0.5766
 2151SOL    HW217916   2.792   1.171   9.518 -1.4797  0.3650  0.4686
 2152SOL     OW17917   3.801   0.419   3.147 -0.3798  0.6685 -0.1410
 2152SOL    HW117918   3.734   0.354   3.169 -0.1427  0.4414 -0.0896
 2152SOL    HW217919   3.845   0.394   3.066 -0.0591 -0.0230  0.2507
 2153SOL     OW17920   3.593   2.106   6.982 -0.2980  0.3024  0.3904
 2153SOL    HW117921   3.684   2.103   7.010  0.1138 -2.0207 -1.2113
 2153SOL    HW217922   3.570   2.199   6.974  1.2309  0.6148 -0.5275
 2154SOL     OW17923   2.881   2.315   7.024 -0.2337  0.0425 -0.3718
 2154SOL    HW117924   2.831   2.393   7.049  0.8041  0.4197  0.5216
 2154SOL    HW217925   2.814   2.252   6.997 -0.5257  0.3266 -0.3055
 2155SOL     OW17926   0.733   4.533   6.553 -0.2699  0.4000  0.1986
 2155SOL    HW117927   0.653   4.482   6.539  0.1654 -0.5319  1.1247
 2155SOL    HW217928   0.697   4.597   6.616  0.6278  0.8773  0.2259
 2156SOL     OW17929   0.594   1.966  12.095 -0.2265  0.0930  0.4130
 2156SOL    HW117930   0.566   1.884  12.054  0.3094  0.6082 -0.9635
 2156SOL    HW217931   0.627   2.007  12.015 -1.1213 -1.1592 -0.5839
 2157SOL     OW17932   4.253   2.575   6.665  0.3120 -0.2778 -0.0203
 2157SOL    HW117933   4.192   2.624   6.721 -1.5128 -2.8786  0.2563
 2157SOL    HW217934   4.188   2.523   6.617 -1.1000 -0.5033  2.1472
 2158SOL     OW17935   0.892   1.219   1.859 -0.3847 -0.1204 -1.0352
 2158SOL    HW117936   0.841   1.155   1.910  1.1981 -0.0217  0.7055
 2158SOL    HW217937   0.839   1.298   1.858  0.4870  0.4846  0.8243
 2159SOL     OW17938   1.226   2.474   0.050 -0.1283  0.6109  1.1391
 2159SOL    HW117939   1.253   2.549   0.102 -2.0365  1.4692  0.8832
 2159SOL    HW217940   1.248   2.507  17.646 -0.3759 -2.8738 -0.2778
 2160SOL     OW17941   4.437   0.590  17.179  0.0171  0.0275  0.1901
 2160SOL    HW117942   4.521   0.556  17.209 -1.5146 -1.5051  2.8249
 2160SOL    HW217943   4.381   0.547  17.245 -1.2594  1.4168  0.0236
 2161SOL     OW17944   2.305   3.326   1.851  0.0266  0.8905  0.5220
 2161SOL    HW117945   2.269   3.413   1.868  0.1204  0.8386  0.9622
 2161SOL    HW217946   2.226   3.276   1.826  0.7049  0.3858 -0.6519
 2162SOL     OW17947   4.284   0.603   8.969  0.0599  0.2937  0.1396
 2162SOL    HW117948   4.246   0.582   8.884  1.0231 -2.3834  0.3674
 2162SOL    HW217949   4.336   0.679   8.944  1.7173 -1.2517 -1.0442
 2163SOL     OW17950   0.591   1.908   4.568 -0.0804  0.4079  0.0363
 2163SOL    HW117951   0.615   1.999   4.555  3.3647 -0.4772  0.2740
 2163SOL    HW217952   0.620   1.884   4.656 -1.8360 -0.3610  0.4140
 2164SOL     OW17953   0.786   1.699  13.749  0.0981 -0.4180  0.2258
 2164SOL    HW117954   0.857   1.751  13.785 -1.0012  1.4154 -0.2568
 2164SOL    HW217955   0.764   1.655  13.831 -0.9207  0.0976  0.2237
 2165SOL     OW17956   1.231   2.870   6.411  0.4804  0.5897  0.1248
 2165SOL    HW117957   1.310   2.825   6.381  1.7690  0.9877  2.9655
 2165SOL    HW217958   1.166   2.804   6.386  1.0486  0.1244 -0.1192
 2166SOL     OW17959   1.585   0.344  15.202  0.6067 -0.0295 -0.2665
 2166SOL    HW117960   1.565   0.251  15.201 -0.2763  0.1664 -0.8181
 2166SOL    HW217961   1.651   0.358  15.270 -0.7302 -0.2772  1.0752
 2167SOL     OW17962   0.018   1.202  10.223 -0.1121 -0.6472  0.1640
 2167SOL    HW117963   4.646   1.188  10.202 -0.8565 -0.2965  3.2383
 2167SOL    HW217964   0.033   1.275  10.163 -0.1475 -0.3553  0.5130
 2168SOL     OW17965   1.146   3.598   7.862  0.0497  0.1922 -0.3325
 2168SOL    HW117966   1.113   3.653   7.790 -0.3952  2.4516  1.6003
 2168SOL    HW217967   1.174   3.519   7.815 -0.8162  0.4148 -1.2378
 2169SOL     OW17968   1.198   0.220  17.392 -0.4802  0.1503  0.4652
 2169SOL    HW117969   1.137   0.280  17.434  1.0622  2.4498 -0.5371
 2169SOL    HW217970   1.155   0.135  17.393 -1.7946  0.8104  0.0638
 2170SOL     OW17971   0.352   4.039   0.274 -0.1713 -0.1744 -0.0083
 2170SOL    HW117972   0.387   4.033   0.185  2.2237  1.1810  0.8480
 2170SOL    HW217973   0.402   4.108   0.317 -0.1510 -0.2937  0.1570
 2171SOL     OW17974   2.979   2.507  15.138  0.2229  0.3404 -0.6970
 2171SOL    HW117975   2.977   2.494  15.043  1.2298 -1.8723 -0.4220
 2171SOL    HW217976   2.945   2.596  15.150 -1.9610 -0.3945 -1.4812
 2172SOL     OW17977   3.815   0.319   2.490  0.0177  0.4296 -0.2219
 2172SOL    HW117978   3.836   0.272   2.409 -1.8035  0.4424 -0.6969
 2172SOL    HW217979   3.823   0.259   2.564  0.5274 -0.6308 -1.1321
 2173SOL     OW17980   2.590   4.191  16.211  0.7342  0.3118  0.1482
 2173SOL    HW117981   2.672   4.190  16.260  0.0805 -0.8790  1.2303
 2173SOL    HW217982   2.537   4.250  16.264 -0.5832 -0.6793 -0.0544
 2174SOL     OW17983   4.279   3.357   3.894 -0.2434  0.9362  0.4627
 2174SOL    HW117984   4.297   3.280   3.949 -0.9066  0.6726  0.3120
 2174SOL    HW217985   4.321   3.330   3.813  0.0370  2.7838  0.0069
 2175SOL     OW17986   1.083   3.499   4.365 -0.2160  0.0434 -0.0295
 2175SOL    HW117987   1.062   3.583   4.405  1.5789  0.1553  0.6512
 2175SOL    HW217988   1.149   3.529   4.303  1.4404  2.4833  2.9339
 2176SOL     OW17989   2.518   0.357  13.221  0.6326 -0.3403  0.2047
 2176SOL    HW117990   2.480   0.270  13.211 -0.7712  0.2584  0.3095
 2176SOL    HW217991   2.446   0.399  13.268  0.5709  1.4528 -1.5000
 2177SOL     OW17992   1.700   3.972  11.701 -0.0595  0.4114 -0.1695
 2177SOL    HW117993   1.696   3.876  11.702  0.7061  0.3843  0.2173
 2177SOL    HW217994   1.787   3.993  11.665  0.6505 -0.0727  1.2536
 2178SOL     OW17995   0.382   4.216   7.354  0.3829  0.4768  0.4692
 2178SOL    HW117996   0.295   4.188   7.328  1.6514 -3.2682  0.2691
 2178SOL    HW217997   0.432   4.142   7.319 -1.8754  0.0018 -1.7245
 2179SOL     OW17998   2.503   2.630  15.341 -0.5193  0.4027  0.5844
 2179SOL    HW117999   2.568   2.683  15.386  2.6203 -3.3832  0.4667
 2179SOL    HW218000   2.479   2.682  15.264  1.4820  0.9416  0.3392
 2180SOL     OW18001   2.739   1.399  17.102 -0.0214  0.1883  0.4524
 2180SOL    HW118002   2.829   1.389  17.072  0.2120 -0.2814  1.2812
 2180SOL    HW218003   2.744   1.468  17.168  0.6818  0.1527  0.4333
 2181SOL     OW18004   1.169   1.585   6.926 -0.2752 -0.3415 -0.0787
 2181SOL    HW118005   1.103   1.517   6.942 -0.9232  0.3739  0.2942
 2181SOL    HW218006   1.249   1.549   6.963  0.4491  0.8401 -0.4956
 2182SOL     OW18007   3.568   4.652   2.172 -0.1156 -0.5445  0.2145
 2182SOL    HW118008   3.481   4.613   2.157 -0.2422 -0.2887  0.2811
 2182SOL    HW218009   3.577   0.004   2.110 -0.1905  0.3555  1.2367
 2183SOL     OW18010   0.341   1.956  17.095  0.1510 -0.5678 -0.1475
 2183SOL    HW118011   0.358   1.983  17.185 -0.2656  0.5243 -0.4001
 2183SOL    HW218012   0.309   2.039  17.060  0.4661 -0.3949 -0.0321
 2184SOL     OW18013   3.884   0.951   4.822 -0.0062  0.4793 -0.0937
 2184SOL    HW118014   3.935   0.878   4.857  1.4014  2.8439  2.8852
 2184SOL    HW218015   3.941   0.976   4.750  1.3823 -1.2760  0.4023
 2185SOL     OW18016   2.315   0.479  13.874 -0.4799  0.0247  0.1192
 2185SOL    HW118017   2.402   0.481  13.913  0.2812  0.0700 -1.5511
 2185SOL    HW218018   2.261   0.439  13.942 -0.8707  0.2725 -0.0448
 2186SOL     OW18019   2.878   4.445   0.959 -0.1112  0.0195 -0.3978
 2186SOL    HW118020   2.871   4.401   0.874  1.0252 -1.8691  0.4930
 2186SOL    HW218021   2.973   4.442   0.967 -0.0868  0.5189 -0.4609
 2187SOL     OW18022   1.267   4.168   1.330  0.0944 -0.0049 -0.4484
 2187SOL    HW118023   1.174   4.172   1.351 -0.0128  1.2857 -1.1829
 2187SOL    HW218024   1.308   4.133   1.409  0.0142  0.8110 -0.0465
 2188SOL     OW18025   4.575   1.483   3.958  0.0219 -0.1466  0.5012
 2188SOL    HW118026   4.621   1.480   3.874 -0.9602  2.0980 -0.1207
 2188SOL    HW218027   4.547   1.396   3.986 -0.3668  0.8090  3.0675
 2189SOL     OW18028   2.233   2.703   2.977 -0.3268  0.3448  0.4060
 2189SOL    HW118029   2.284   2.733   2.901  0.7509 -0.3252  0.8678
 2189SOL    HW218030   2.164   2.767   2.994  0.1004  1.3955 -1.8799
 2190SOL     OW18031   2.834   1.954   0.078 -0.0466 -0.1094 -0.5245
 2190SOL    HW118032   2.776   1.934   0.004  1.1027  0.0335 -1.4628
 2190SOL    HW218033   2.814   1.888   0.144  0.4678  1.1686  0.9045
 2191SOL     OW18034   0.915   3.370   8.175  0.3211  0.0071 -0.7304
 2191SOL    HW118035   0.824   3.391   8.158  0.7724  2.5663  0.0537
 2191SOL    HW218036   0.903   3.362   8.270 -0.7360 -1.2412 -0.9599
 2192SOL     OW18037   0.931   1.515   4.021  0.0731 -0.0029  0.2727
 2192SOL    HW118038   0.938   1.449   4.090  2.7350  0.9784  0.9519
 2192SOL    HW218039   0.958   1.464   3.944 -1.4094 -2.0057  1.0843
 2193SOL     OW18040   0.011   3.732  12.816  1.0139 -0.0977 -0.1091
 2193SOL    HW118041   0.014   3.638  12.796  0.0800 -0.4102  1.2187
 2193SOL    HW218042   4.641   3.753  12.791  1.0095 -0.5187 -0.4572
 2194SOL     OW18043   2.490   3.889   3.310  0.3550  0.6175  0.0126
 2194SOL    HW118044   2.505   3.811   3.257 -2.7164  0.6854 -0.9827
 2194SOL    HW218045   2.579   3.905   3.340 -0.1059 -0.6514  2.1062
 2195SOL     OW18046   3.975   1.772   5.514 -0.1011 -0.1698  0.4443
 2195SOL    HW118047   4.070   1.768   5.524 -0.0270 -1.1968 -0.5186
 2195SOL    HW218048   3.966   1.825   5.434 -0.7902 -0.7275  0.1494
 2196SOL     OW18049   3.256   0.151  10.498 -0.0784 -0.3477 -0.3448
 2196SOL    HW118050   3.277   0.088  10.566 -2.0033 -2.0587 -1.3310
 2196SOL    HW218051   3.321   0.128  10.431  1.7852 -0.1101  1.4155
 2197SOL     OW18052   0.191   3.231  12.841 -0.5714  0.1849  0.7306
 2197SOL    HW118053   0.216   3.169  12.773  0.7918  1.2023  0.3014
 2197SOL    HW218054   0.141   3.172  12.897 -0.4356 -0.3488  0.2878
 2198SOL     OW18055   0.755   4.198   6.702 -0.3018 -0.2227  0.5102
 2198SOL    HW118056   0.763   4.170   6.611 -1.4466  0.3585  0.2341
 2198SOL    HW218057   0.805   4.280   6.703 -2.6033  1.1886  0.1871
 2199SOL     OW18058   1.899   2.330   7.603 -0.2250 -0.3272  0.3101
 2199SOL    HW118059   1.804   2.326   7.612 -0.4190  2.4175 -0.4527
 2199SOL    HW218060   1.917   2.287   7.519  1.3104 -1.6612  1.3327
 2200SOL     OW18061   1.443   0.807   7.967 -0.1293 -0.2329  0.0909
 2200SOL    HW118062   1.480   0.761   7.891 -0.7577 -1.1673  0.3479
 2200SOL    HW218063   1.371   0.755   8.001 -2.3372  1.4050 -2.1329
 2201SOL     OW18064   2.842   3.523   5.108  0.1558  0.1733 -0.3080
 2201SOL    HW118065   2.808   3.612   5.117  0.6040  0.4076 -0.9452
 2201SOL    HW218066   2.763   3.474   5.086 -0.0591  0.7527 -0.8330
 2202SOL     OW18067   3.310   3.191  17.059  0.0279 -0.1386 -0.5647
 2202SOL    HW118068   3.280   3.279  17.081  1.3125  0.2054 -0.1983
 2202SOL    HW218069   3.400   3.193  17.090 -0.5488 -0.5782  1.1715
 2203SOL     OW18070   4.017   1.175  12.243  0.0973 -0.2302  0.1375
 2203SOL    HW118071   3.993   1.261  12.209  1.4525  0.6380  1.3645
 2203SOL    HW218072   3.975   1.178  12.328 -2.1856  1.7366 -1.0783
 2204SOL     OW18073   1.686   4.083  17.508 -0.4129 -0.1452  0.1333
 2204SOL    HW118074   1.752   4.152  17.507 -2.4024  1.7378  0.2175
 2204SOL    HW218075   1.725   4.015  17.564 -1.7644 -1.0786 -0.0356
 2205SOL     OW18076   3.437   0.231   3.033 -0.2471  0.1434 -0.5568
 2205SOL    HW118077   3.369   0.297   3.017 -0.4180  0.7370  2.5053
 2205SOL    HW218078   3.438   0.194   2.945  2.4120  0.5044 -0.6719
 2206SOL     OW18079   3.088   1.325  13.734 -1.0273 -0.1592 -0.0630
 2206SOL    HW118080   3.074   1.248  13.789  1.1134 -1.3214 -1.1550
 2206SOL    HW218081   3.102   1.392  13.801  0.4991 -0.4482 -0.0854
 2207SOL     OW18082   2.270   1.086  12.325  0.1995  0.4540  0.1500
 2207SOL    HW118083   2.214   1.149  12.280 -1.4876 -0.4557  0.9936
 2207SOL    HW218084   2.322   1.143  12.382 -1.2095  1.9728 -0.0652
 2208SOL     OW18085   2.842   3.257   2.998 -0.2175  1.0083 -0.2955
 2208SOL    HW118086   2.935   3.261   2.977  0.0423 -1.3439  0.3525
 2208SOL    HW218087   2.850   3.202   3.076 -0.2384  0.4501 -0.6853
 2209SOL     OW18088   2.456   2.661   4.718  0.2206  0.2650  0.2212
 2209SOL    HW118089   2.450   2.625   4.630  2.7240 -1.5647  0.7941
 2209SOL    HW218090   2.497   2.744   4.692 -0.8234  0.0693 -1.9774
 2210SOL     OW18091   4.393   2.463   3.303 -0.3041  0.1936 -0.3171
 2210SOL    HW118092   4.354   2.468   3.215 -3.0309 -0.5609  0.8536
 2210SOL    HW218093   4.426   2.374   3.309  2.8239  1.3899  0.4566
 2211SOL     OW18094   2.884   4.232   2.265  0.2002 -0.6112 -0.4363
 2211SOL    HW118095   2.833   4.152   2.256 -0.7708 -0.0766  0.3611
 2211SOL    HW218096   2.901   4.254   2.173 -2.1980 -2.8292 -1.4179
 2212SOL     OW18097   2.938   0.578   4.897 -0.8674  0.1512  0.6713
 2212SOL    HW118098   2.884   0.527   4.958  1.2899  0.0740  2.4840
 2212SOL    HW218099   2.866   0.605   4.840  0.2424 -2.0940 -1.8021
 2213SOL     OW18100   2.098   2.653   6.973 -0.7307 -0.0719 -0.1723
 2213SOL    HW118101   2.137   2.627   6.890 -0.6667 -1.2049  0.2100
 2213SOL    HW218102   2.057   2.737   6.950 -0.9549  0.3884  1.8935
 2214SOL     OW18103   4.140   0.188   0.521 -0.2983  0.0400 -0.2825
 2214SOL    HW118104   4.161   0.097   0.498 -0.9239 -0.6712  1.9317
 2214SOL    HW218105   4.218   0.236   0.492  0.6422 -1.1501  0.2562
 2215SOL     OW18106   0.186   2.780   5.339  0.0731 -0.3822 -0.0769
 2215SOL    HW118107   0.196   2.721   5.264  0.4646 -0.1416 -0.2139
 2215SOL    HW218108   0.098   2.814   5.331 -0.3972 -1.3321  1.0864
 2216SOL     OW18109   1.586   2.806   3.008 -0.1314  0.1100 -0.6250
 2216SOL    HW118110   1.593   2.885   3.061 -2.7161 -0.6938  0.8858
 2216SOL    HW218111   1.509   2.829   2.957 -0.1316 -1.6271 -1.4256
 2217SOL     OW18112   2.949   1.116  16.670 -0.0897 -0.0215  0.4386
 2217SOL    HW118113   2.948   1.105  16.765 -0.7598 -0.8174  0.3430
 2217SOL    HW218114   2.933   1.210  16.664 -0.4200 -0.1057 -0.0468
 2218SOL     OW18115   2.260   2.003  14.664 -0.4438  0.1479  0.1607
 2218SOL    HW118116   2.343   1.972  14.699  0.4429  1.5347 -0.7040
 2218SOL    HW218117   2.256   2.095  14.690 -2.7802  0.2743 -0.6508
 2219SOL     OW18118   1.200   0.277   5.064  0.7643 -0.1337 -0.2652
 2219SOL    HW118119   1.233   0.188   5.054  0.0852 -0.3630 -0.5251
 2219SOL    HW218120   1.112   0.247   5.089 -0.3100  0.2301 -3.5816
 2220SOL     OW18121   0.748   2.103   8.610 -0.7860 -0.0225 -0.4214
 2220SOL    HW118122   0.817   2.050   8.571  0.6063  1.5582 -0.1267
 2220SOL    HW218123   0.796   2.157   8.674 -1.3712 -0.8130  0.6912
 2221SOL     OW18124   2.109   0.549   2.002  0.3191  0.0544  0.3679
 2221SOL    HW118125   2.163   0.610   2.051  1.2141 -0.9060  0.5689
 2221SOL    HW218126   2.135   0.577   1.914  1.0233  0.6642  0.7770
 2222SOL     OW18127   1.946   3.537   6.974  0.8379 -0.5524  0.6080
 2222SOL    HW118128   2.023   3.584   6.942  1.1619 -0.4534  1.5269
 2222SOL    HW218129   1.989   3.462   7.015  1.5985  0.1868  1.1674
 2223SOL     OW18130   3.231   4.351   5.152 -0.0154 -0.6516  0.1419
 2223SOL    HW118131   3.262   4.280   5.208  2.6502  0.5143  0.1339
 2223SOL    HW218132   3.238   4.420   5.218  1.8494  0.0692 -0.7906
 2224SOL     OW18133   3.167   1.028  10.888 -0.2561  0.0447  0.6977
 2224SOL    HW118134   3.176   1.122  10.903  0.1928  0.4244 -1.9182
 2224SOL    HW218135   3.072   1.015  10.877 -0.3850  2.7329 -1.6990
 2225SOL     OW18136   2.081   4.549   4.306  0.2070  0.3747 -0.1575
 2225SOL    HW118137   2.103   4.458   4.324 -1.0651 -0.0472 -0.7481
 2225SOL    HW218138   2.031   4.570   4.384  0.2153  1.4996 -0.4525
 2226SOL     OW18139   1.341   0.462  14.818  0.4894  0.2722 -0.1123
 2226SOL    HW118140   1.328   0.446  14.724  2.2671 -1.4327 -0.0647
 2226SOL    HW218141   1.251   0.491  14.833  0.0417 -1.4120  0.5535
 2227SOL     OW18142   4.106   0.124   7.676 -0.1029 -0.0573  0.1857
 2227SOL    HW118143   4.035   0.158   7.730 -0.7435 -1.1923  0.0471
 2227SOL    HW218144   4.184   0.134   7.730 -0.1057 -0.6697  0.3030
 2228SOL     OW18145   4.157   4.128  11.653 -0.0853 -0.2441 -0.5238
 2228SOL    HW118146   4.090   4.162  11.713 -1.5606 -1.5885 -1.4155
 2228SOL    HW218147   4.117   4.047  11.621  3.3695 -1.0402 -2.8144
 2229SOL     OW18148   0.530   4.455   1.438 -0.1188  0.1603  0.3929
 2229SOL    HW118149   0.533   4.535   1.489  4.2463  0.8488 -0.9189
 2229SOL    HW218150   0.521   4.493   1.351  0.7444  2.1267  1.1761
 2230SOL     OW18151   2.674   2.136   8.420  0.5528  0.2910 -0.1140
 2230SOL    HW118152   2.585   2.101   8.418  1.5230 -1.9929 -2.9348
 2230SOL    HW218153   2.711   2.126   8.332  2.0011  0.3972  0.4878
 2231SOL     OW18154   4.447   1.674   4.092 -0.1328  0.1360 -0.4453
 2231SOL    HW118155   4.472   1.609   4.026 -0.1221  1.3913 -1.6950
 2231SOL    HW218156   4.479   1.632   4.171  0.4285  3.5072  1.1080
 2232SOL     OW18157   2.795   3.253   6.318  0.2066  0.4436  0.1680
 2232SOL    HW118158   2.832   3.321   6.374  0.4579  0.2644  0.2210
 2232SOL    HW218159   2.872   3.196   6.318  0.8884  1.3482  1.2105
 2233SOL     OW18160   2.178   3.462   4.034 -0.0620 -0.2103  0.0898
 2233SOL    HW118161   2.224   3.402   4.092  0.2270 -1.3584 -1.3216
 2233SOL    HW218162   2.092   3.423   4.047  0.6554 -1.2622  1.5936
 2234SOL     OW18163   0.578   1.920   7.970 -1.0263 -0.6096  0.3025
 2234SOL    HW118164   0.624   1.871   7.902  1.5014 -0.1746  1.6941
 2234SOL    HW218165   0.488   1.895   7.952 -1.3561  0.5079  0.3763
 2235SOL     OW18166   3.158   1.669   7.239 -0.0346  0.4561 -0.5141
 2235SOL    HW118167   3.175   1.686   7.146  0.4937  1.4194 -0.2449
 2235SOL    HW218168   3.163   1.759   7.271 -0.9919  0.8734 -1.5651
 2236SOL     OW18169   4.121   2.372   6.150 -0.1324 -0.0576  0.2133
 2236SOL    HW118170   4.094   2.318   6.076  0.0188  2.9064 -2.0325
 2236SOL    HW218171   4.155   2.314   6.217  1.7043 -0.9108 -1.4663
 2237SOL     OW18172   2.932   0.571   6.847  0.0225 -0.0975  0.6179
 2237SOL    HW118173   3.021   0.606   6.854  0.0230 -0.5312  2.8294
 2237SOL    HW218174   2.912   0.592   6.756  2.7144 -1.2834 -0.2548
 2238SOL     OW18175   1.295   1.145   5.675 -0.4858 -0.4147  0.3761
 2238SOL    HW118176   1.313   1.239   5.669 -0.8588 -0.2994  1.0907
 2238SOL    HW218177   1.377   1.103   5.650 -0.4274  0.0673 -0.2685
 2239SOL     OW18178   2.511   4.011   8.753 -0.2757 -0.5106 -0.4117
 2239SOL    HW118179   2.581   4.006   8.818  1.5648 -0.4423 -2.4261
 2239SOL    HW218180   2.485   3.919   8.757 -1.6902 -0.0691  0.8430
 2240SOL     OW18181   0.597   3.729  11.012 -0.2903 -0.1913 -0.0336
 2240SOL    HW118182   0.574   3.675  10.937  1.1100  0.0105 -0.6194
 2240SOL    HW218183   0.560   3.811  10.980  0.7367  0.3957  0.2843
 2241SOL     OW18184   2.497   2.642   5.932  0.2663 -0.2146 -0.2046
 2241SOL    HW118185   2.423   2.602   5.886  0.0671  0.6681 -0.6660
 2241SOL    HW218186   2.453   2.719   5.970 -1.0203 -1.0578  0.0204
 2242SOL     OW18187   4.586   4.637  11.035  0.4919 -0.5597  0.1483
 2242SOL    HW118188   4.531   4.666  10.962 -1.6640 -1.8425  1.2401
 2242SOL    HW218189   4.650   4.581  10.991 -0.7545 -1.1384 -0.9458
 2243SOL     OW18190   1.651   2.774   8.369 -0.0054 -0.1124  0.0949
 2243SOL    HW118191   1.578   2.790   8.429 -1.3813  0.0229 -1.5840
 2243SOL    HW218192   1.715   2.842   8.391  2.3218 -2.1927 -0.3485
 2244SOL     OW18193   2.450   4.119   5.729  0.5982  0.2898  0.5254
 2244SOL    HW118194   2.389   4.189   5.704  0.2154 -0.1365  0.2665
 2244SOL    HW218195   2.474   4.077   5.646  0.5183  0.8582  0.2146
 2245SOL     OW18196   2.489   1.367   5.593  0.0204 -0.1985 -0.0395
 2245SOL    HW118197   2.582   1.343   5.595  0.2877  0.8760  0.5041
 2245SOL    HW218198   2.449   1.283   5.617  1.6027 -1.1366 -0.6495
 2246SOL     OW18199   2.818   0.453  13.283  0.1020  0.1349 -0.2801
 2246SOL    HW118200   2.753   0.518  13.307 -0.8295  0.1003 -2.6748
 2246SOL    HW218201   2.773   0.389  13.228 -0.1380  2.7702 -3.1477
 2247SOL     OW18202   4.183   0.008   9.039 -0.0074  0.0357  0.0759
 2247SOL    HW118203   4.199   4.635   9.053 -0.7711 -0.2545 -1.0819
 2247SOL    HW218204   4.101   0.012   8.992  0.6858  2.4264 -0.9339
 2248SOL     OW18205   4.041   3.131  11.875  0.2015 -0.0259 -0.1832
 2248SOL    HW118206   3.967   3.189  11.857  0.8159  0.1773 -2.0574
 2248SOL    HW218207   4.012   3.049  11.836 -0.5291 -0.4957  1.3378
 2249SOL     OW18208   2.131   4.577   7.946  0.3622  0.3104 -0.7865
 2249SOL    HW118209   2.118   4.514   7.876 -0.8208 -1.0982  0.7212
 2249SOL    HW218210   2.194   4.523   7.993 -0.9056  0.5889  1.2428
 2250SOL     OW18211   2.348   4.013  10.368 -0.1990 -0.0379 -0.4023
 2250SOL    HW118212   2.323   3.921  10.372 -1.0643  0.2849  1.2944
 2250SOL    HW218213   2.429   4.004  10.419 -0.3088 -1.4042 -0.4642
 2251SOL     OW18214   0.419   2.406   6.940 -0.3861  0.2249  0.4508
 2251SOL    HW118215   0.344   2.386   6.996 -0.8117 -0.4529 -0.3781
 2251SOL    HW218216   0.449   2.488   6.979 -0.1647  0.4408 -0.1794
 2252SOL     OW18217   1.682   4.274   4.133 -0.0699  0.6551 -0.2037
 2252SOL    HW118218   1.658   4.302   4.222  0.4286  3.6180 -0.9989
 2252SOL    HW218219   1.746   4.343   4.113  1.5989 -1.0664 -0.7472
 2253SOL     OW18220   4.165   2.954   4.733 -0.1188  0.6849  0.6089
 2253SOL    HW118221   4.135   3.040   4.704  0.6043 -0.0952 -2.5463
 2253SOL    HW218222   4.238   2.979   4.789  1.2609  0.3309 -1.0299
 2254SOL     OW18223   0.134   2.565   1.517  0.0997  0.7267 -0.0926
 2254SOL    HW118224   0.142   2.645   1.569  1.0783  0.2047  0.5689
 2254SOL    HW218225   0.136   2.605   1.430  0.3707  1.6446  0.3390
 2255SOL     OW18226   2.286   2.008   7.908 -0.3972  0.1076  0.4916
 2255SOL    HW118227   2.367   2.058   7.917  0.5076 -1.2617 -0.3019
 2255SOL    HW218228   2.264   1.992   8.000  2.2903  3.4791  1.7080
 2256SOL     OW18229   1.206   2.236   3.238 -0.0530  0.1279  0.5049
 2256SOL    HW118230   1.193   2.148   3.205  1.0224  0.3559 -0.5234
 2256SOL    HW218231   1.257   2.272   3.165  1.5517 -1.7649  0.7119
 2257SOL     OW18232   0.785   3.948   1.305 -0.1732 -0.1024 -0.2130
 2257SOL    HW118233   0.772   3.900   1.386  1.9299 -1.4493 -0.6850
 2257SOL    HW218234   0.698   3.975   1.275  0.0057 -1.5577 -2.0133
 2258SOL     OW18235   3.256   2.864  14.268 -0.5059 -0.2140  0.3124
 2258SOL    HW118236   3.297   2.778  14.274 -0.3535 -0.1070  0.8289
 2258SOL    HW218237   3.326   2.927  14.249  1.4850 -2.1739  1.1782
 2259SOL     OW18238   0.213   2.589  14.037  0.1110 -0.6352 -0.5439
 2259SOL    HW118239   0.225   2.524  13.968  0.3421 -0.5837 -0.5527
 2259SOL    HW218240   0.292   2.577  14.090  0.2783  1.7338 -0.2880
 2260SOL     OW18241   3.042   3.987   3.743 -0.2596  0.3667  0.4426
 2260SOL    HW118242   3.113   3.958   3.800 -0.1682  0.9482  0.6291
 2260SOL    HW218243   3.094   4.023   3.671  0.0831 -0.8941  0.0762
 2261SOL     OW18244   1.682   3.472   5.351  0.3434  0.2508  0.8936
 2261SOL    HW118245   1.655   3.400   5.408 -0.2897  1.0922  1.6652
 2261SOL    HW218246   1.601   3.504   5.311  0.7694 -2.1610 -1.9086
 2262SOL     OW18247   3.394   3.587  15.399 -0.4599  0.1360  0.5132
 2262SOL    HW118248   3.304   3.615  15.382 -0.2091  0.5558 -0.0942
 2262SOL    HW218249   3.422   3.642  15.472  0.1399 -1.3133  1.3719
 2263SOL     OW18250   2.973   1.391  16.641 -0.0465 -0.2263  0.4020
 2263SOL    HW118251   3.034   1.464  16.629 -2.2450  1.3591 -1.3262
 2263SOL    HW218252   2.931   1.384  16.555  1.8596  1.2396 -0.6370
 2264SOL     OW18253   4.657   0.335   3.295 -0.3862  0.2165 -0.0786
 2264SOL    HW118254   4.574   0.362   3.334 -0.5725  1.8646 -1.5715
 2264SOL    HW218255   4.639   0.338   3.201 -1.4238 -1.6915  0.0526
 2265SOL     OW18256   1.137   2.749  11.618  0.2547 -0.0609  0.1935
 2265SOL    HW118257   1.139   2.664  11.662  3.4667  0.2032  0.5653
 2265SOL    HW218258   1.149   2.713  11.530 -1.6559  1.2929 -0.6307
 2266SOL     OW18259   1.298   1.689   7.511 -0.0368  0.7720 -0.4846
 2266SOL    HW118260   1.256   1.619   7.560  1.6845  0.2394  0.2279
 2266SOL    HW218261   1.385   1.699   7.548 -0.8884 -3.6320  2.6464
 2267SOL     OW18262   2.077   3.589   3.779 -1.2914  0.7535 -0.2512
 2267SOL    HW118263   2.115   3.676   3.771  1.0619 -0.5057 -3.1722
 2267SOL    HW218264   2.119   3.571   3.863 -1.6075  0.9807 -0.0441
 2268SOL     OW18265   0.283   3.613   0.228  0.3529  1.0923 -0.8299
 2268SOL    HW118266   0.243   3.537   0.271 -0.5022  1.8759 -0.2250
 2268SOL    HW218267   0.375   3.613   0.254 -0.1867 -0.6619  1.1164
 2269SOL     OW18268   1.557   0.585   9.983 -0.3745  0.4564 -0.2379
 2269SOL    HW118269   1.644   0.625   9.982  0.4267 -1.2880 -0.3755
 2269SOL    HW218270   1.508   0.650   9.933 -0.6343 -0.7610 -1.5776
 2270SOL     OW18271   0.520   3.863   7.677  0.0537  0.1513  0.3749
 2270SOL    HW118272   0.550   3.838   7.764  0.1404  1.1656  0.6343
 2270SOL    HW218273   0.470   3.942   7.695 -1.1059 -0.4742 -0.0796
 2271SOL     OW18274   1.714   1.349   4.448 -0.4744  0.7301 -0.0368
 2271SOL    HW118275   1.787   1.339   4.509 -0.6493 -0.6128 -0.0436
 2271SOL    HW218276   1.749   1.400   4.374 -1.5309  1.8583  0.2336
 2272SOL     OW18277   1.506   2.802   9.097 -0.3312  0.1983  0.1855
 2272SOL    HW118278   1.588   2.771   9.135 -1.2430  0.3065  2.2392
 2272SOL    HW218279   1.466   2.854   9.167 -2.2353 -0.5354 -0.3559
 2273SOL     OW18280   3.338   4.300   8.715 -0.0483  0.3741  0.1160
 2273SOL    HW118281   3.370   4.248   8.641  0.9520 -0.2609  1.0158
 2273SOL    HW218282   3.384   4.382   8.697 -0.3944  0.3646 -0.8484
 2274SOL     OW18283   4.253   3.281   6.789 -0.4917 -0.0092  0.3661
 2274SOL    HW118284   4.235   3.276   6.695 -1.2827  0.5863  0.4763
 2274SOL    HW218285   4.278   3.374   6.793  0.2368 -0.1833 -0.3321
 2275SOL     OW18286   4.320   2.165   3.339 -0.1551  0.1417  0.2977
 2275SOL    HW118287   4.365   2.144   3.256  1.1531 -0.7763  1.2333
 2275SOL    HW218288   4.227   2.144   3.331  0.0102 -0.6813  0.5203
 2276SOL     OW18289   3.353   0.688   3.169  0.2339 -0.0859 -0.7200
 2276SOL    HW118290   3.293   0.621   3.136 -0.1230 -0.2609  0.2961
 2276SOL    HW218291   3.432   0.638   3.146  0.8775 -0.1474  1.5733
 2277SOL     OW18292   3.962   3.695   2.285  0.1293  0.0552 -0.5905
 2277SOL    HW118293   3.945   3.601   2.284  1.8853 -0.3027  1.5768
 2277SOL    HW218294   4.034   3.710   2.223 -0.9120  0.5522 -1.6806
 2278SOL     OW18295   0.682   4.540   3.769  0.5419  0.1922  0.5937
 2278SOL    HW118296   0.641   4.485   3.835  0.2207  2.2697  2.1065
 2278SOL    HW218297   0.757   4.491   3.734 -0.6992 -1.7708  0.6803
 2279SOL     OW18298   1.481   2.530   9.233 -0.0421  0.7753 -0.0403
 2279SOL    HW118299   1.393   2.528   9.197 -0.8734  1.1716  1.9636
 2279SOL    HW218300   1.475   2.470   9.308 -0.2003  0.7354 -0.0855
 2280SOL     OW18301   3.057   0.263  14.962  0.0263 -0.1536 -0.4691
 2280SOL    HW118302   3.057   0.347  15.009 -1.0959 -0.9011  0.8403
 2280SOL    HW218303   2.965   0.251  14.939 -0.0326 -1.1949  0.3661
 2281SOL     OW18304   1.125   1.393  13.175 -0.0906  0.6374  0.0593
 2281SOL    HW118305   1.110   1.314  13.227 -0.7743  0.9287  0.3021
 2281SOL    HW218306   1.160   1.456  13.238  2.2790 -1.8013  1.1794
 2282SOL     OW18307   1.541   0.557   2.465 -0.0675 -0.0841  0.1499
 2282SOL    HW118308   1.624   0.603   2.463 -0.0324 -0.1076  1.2598
 2282SOL    HW218309   1.559   0.485   2.404  0.8301 -0.8470  1.3359
 2283SOL     OW18310   1.521   3.249   4.328  0.2794 -0.2994 -0.3092
 2283SOL    HW118311   1.438   3.202   4.339  1.3441 -1.7058  1.5543
 2283SOL    HW218312   1.505   3.289   4.242 -2.0347 -2.0711 -0.6949
 2284SOL     OW18313   2.910   2.153   5.719  0.4198 -0.1359  0.2938
 2284SOL    HW118314   2.862   2.117   5.644  0.3848 -1.0859  0.7755
 2284SOL    HW218315   2.847   2.135   5.788  1.6637 -2.4386  0.8384
 2285SOL     OW18316   4.189   0.324  12.622 -1.2254  0.0467 -0.6633
 2285SOL    HW118317   4.156   0.281  12.701 -0.6442  1.1844  0.2166
 2285SOL    HW218318   4.140   0.275  12.557 -2.5772  1.7856 -0.9426
 2286SOL     OW18319   3.077   3.213   5.077 -0.4001 -0.3779 -0.6960
 2286SOL    HW118320   3.127   3.173   5.148  1.2578  0.8385 -1.1873
 2286SOL    HW218321   2.983   3.200   5.088 -0.6541  1.7948 -0.3076
 2287SOL     OW18322   3.856   1.542  14.938 -0.3233 -0.1641  0.1635
 2287SOL    HW118323   3.926   1.490  14.898  0.8066  1.5754 -0.1151
 2287SOL    HW218324   3.840   1.589  14.856  0.4199 -0.8095 -0.3479
 2288SOL     OW18325   0.965   3.346  11.310  0.1267 -0.4157  0.1358
 2288SOL    HW118326   0.996   3.301  11.232  0.9026 -2.3726  1.5566
 2288SOL    HW218327   1.024   3.308  11.376  0.7082  0.7407  0.2733
 2289SOL     OW18328   3.637   0.969   5.393 -0.0861 -0.6038  0.3282
 2289SOL    HW118329   3.601   1.035   5.333 -0.4868 -1.4872 -0.3947
 2289SOL    HW218330   3.728   0.989   5.413  0.2960  0.2559 -2.2008
 2290SOL     OW18331   3.302   3.706  12.516 -0.1958 -0.3450 -0.2919
 2290SOL    HW118332   3.279   3.765  12.589 -0.1514 -0.5616 -0.1052
 2290SOL    HW218333   3.295   3.618  12.552 -1.2296  0.1884  0.8241
 2291SOL     OW18334   1.292   3.070   4.402  0.6213 -0.1231 -0.4969
 2291SOL    HW118335   1.332   2.995   4.356 -1.4213 -3.2105  2.7973
 2291SOL    HW218336   1.201   3.044   4.414  0.3680  0.8728 -0.3315
 2292SOL     OW18337   1.823   3.303   3.615  0.0879 -0.1361 -0.2637
 2292SOL    HW118338   1.817   3.386   3.661  1.1506 -0.4769  0.4783
 2292SOL    HW218339   1.738   3.298   3.571  1.1651  0.9407 -2.4913
 2293SOL     OW18340   1.224   0.310   2.672 -0.4767  0.1393  0.3965
 2293SOL    HW118341   1.263   0.386   2.627  1.2739  0.4904  2.5158
 2293SOL    HW218342   1.299   0.288   2.727  1.0298  0.0255 -1.6720
 2294SOL     OW18343   0.391   4.167   2.547 -0.0273  0.3723  0.1720
 2294SOL    HW118344   0.336   4.114   2.489  2.1885  0.9910 -2.4750
 2294SOL    HW218345   0.332   4.241   2.562 -3.1373 -1.9621 -0.6174
 2295SOL     OW18346   4.466   1.220   0.539  0.0911 -0.0971 -0.5366
 2295SOL    HW118347   4.468   1.140   0.486 -2.8110  0.0911 -0.9467
 2295SOL    HW218348   4.546   1.271   0.531  0.7148 -0.6009  2.5742
 2296SOL     OW18349   2.388   0.753   3.470 -0.2893  0.1960 -0.6991
 2296SOL    HW118350   2.357   0.767   3.560  0.8370  0.3591 -0.3423
 2296SOL    HW218351   2.341   0.670   3.458 -1.4416  0.9281 -1.2776
 2297SOL     OW18352   0.151   0.392  14.123  0.1823  0.3014  0.3656
 2297SOL    HW118353   0.084   0.450  14.086  0.2234  0.8329  1.1132
 2297SOL    HW218354   0.235   0.437  14.124  0.1942  0.2982 -0.5021
 2298SOL     OW18355   2.437   2.563   8.356  0.3020 -0.2613  0.1107
 2298SOL    HW118356   2.421   2.649   8.395  1.1176  0.4531 -1.1500
 2298SOL    HW218357   2.532   2.553   8.361  0.4265  0.0148 -1.8849
 2299SOL     OW18358   3.477   0.126   4.832 -0.3760  0.0545  0.2743
 2299SOL    HW118359   3.567   0.155   4.844 -0.5060 -0.1582  1.7730
 2299SOL    HW218360   3.492   0.109   4.739 -2.3332  0.5684 -0.1430
 2300SOL     OW18361   2.277   4.222   1.476  0.2765  0.8242 -0.2413
 2300SOL    HW118362   2.306   4.135   1.450 -0.7822  0.2707  0.4163
 2300SOL    HW218363   2.357   4.272   1.490  1.1448 -0.4844 -0.5204
 2301SOL     OW18364   3.029   2.267  10.205 -0.8106  0.1525  0.2396
 2301SOL    HW118365   3.075   2.198  10.252  1.3776  1.8051  0.5445
 2301SOL    HW218366   2.949   2.222  10.178 -1.2624  0.1820  1.5328
 2302SOL     OW18367   3.300   1.722  16.188 -0.6957  0.0895  0.3314
 2302SOL    HW118368   3.289   1.693  16.097 -2.4625  2.1999 -0.1270
 2302SOL    HW218369   3.273   1.814  16.187  0.4209  0.4771  5.1292
 2303SOL     OW18370   1.211   4.001   4.580  0.6011 -0.3301 -0.7021
 2303SOL    HW118371   1.278   3.980   4.646  2.4794 -1.1547 -2.8753
 2303SOL    HW218372   1.134   3.962   4.621 -0.3278  3.1924  0.9873
 2304SOL     OW18373   4.183   2.091  10.254 -0.3443  0.0315 -0.0353
 2304SOL    HW118374   4.167   2.128  10.340  0.2760  2.4173 -0.9502
 2304SOL    HW218375   4.278   2.088  10.248 -0.5095 -0.4988 -2.3712
 2305SOL     OW18376   1.624   4.334   7.419  0.2323 -0.5448  0.1437
 2305SOL    HW118377   1.647   4.303   7.506  0.2840 -0.3054  0.2165
 2305SOL    HW218378   1.692   4.401   7.407  1.1999 -1.0082  3.0608
 2306SOL     OW18379   4.065   4.275   0.137  0.3581 -0.4634  0.0419
 2306SOL    HW118380   4.141   4.219   0.118  1.4943  1.1343 -0.0823
 2306SOL    HW218381   3.997   4.214   0.167 -0.3974  1.2005  1.7319
 2307SOL     OW18382   0.569   4.508  12.760  0.4531  0.4144 -0.1419
 2307SOL    HW118383   0.548   4.553  12.678 -1.6844  2.4831  1.5128
 2307SOL    HW218384   0.641   4.448  12.742  0.6787  0.7083 -0.2204
 2308SOL     OW18385   3.706   3.874  15.773 -0.3411 -0.1385 -1.0977
 2308SOL    HW118386   3.626   3.914  15.806  0.1461 -0.8156  0.8877
 2308SOL    HW218387   3.763   3.943  15.808 -1.7460  1.8966 -2.8323
 2309SOL     OW18388   3.281   0.011  16.344  0.6683  0.7230 -0.2606
 2309SOL    HW118389   3.300   4.646  16.384  1.8412  0.1161 -2.0989
 2309SOL    HW218390   3.333   0.019  16.264 -0.6262 -0.5945 -1.2362
 2310SOL     OW18391   2.311   1.598   8.815 -0.5000  0.2589 -0.2136
 2310SOL    HW118392   2.347   1.509   8.818  2.3629  1.3783 -0.5981
 2310SOL    HW218393   2.218   1.581   8.806 -0.4674 -0.2688  0.4310
 2311SOL     OW18394   3.602   3.796   8.163  0.0773  0.0909 -0.3224
 2311SOL    HW118395   3.513   3.763   8.173  0.7146 -1.0542  1.4225
 2311SOL    HW218396   3.639   3.780   8.250 -0.9398  0.2237  0.1400
 2312SOL     OW18397   0.465   2.608   4.741 -0.4804  0.6306  0.5694
 2312SOL    HW118398   0.381   2.648   4.719 -1.3354 -1.7785 -0.5795
 2312SOL    HW218399   0.431   2.525   4.775  1.1692 -0.6359 -0.8636
 2313SOL     OW18400   3.254   2.001   7.011 -0.3292  0.3843 -0.8543
 2313SOL    HW118401   3.221   2.088   6.986 -1.9141 -0.0718 -0.3446
 2313SOL    HW218402   3.244   1.954   6.929  0.5333  0.2952 -0.8999
 2314SOL     OW18403   2.535   3.616   3.156 -0.1476  0.4012 -0.1681
 2314SOL    HW118404   2.606   3.566   3.116 -0.9621  0.2797 -1.4566
 2314SOL    HW218405   2.495   3.660   3.082 -0.2085 -0.4085 -0.6146
 2315SOL     OW18406   0.634   0.004   6.713 -0.0943 -0.1444 -0.3151
 2315SOL    HW118407   0.681   4.684   6.785 -0.4301  0.9454  0.5069
 2315SOL    HW218408   0.661   0.095   6.719  0.6944 -0.2510 -2.3034
 2316SOL     OW18409   1.916   2.467   5.953  0.1141  0.5794 -0.5307
 2316SOL    HW118410   1.922   2.374   5.933  0.8982  0.4643  0.2332
 2316SOL    HW218411   1.977   2.506   5.891  1.1709  0.2639  0.3163
 2317SOL     OW18412   2.482   3.203   5.722 -0.1970 -0.7933 -0.3762
 2317SOL    HW118413   2.471   3.292   5.756  0.2660 -1.0204  0.3645
 2317SOL    HW218414   2.425   3.201   5.645  0.8275  0.8548 -1.1771
 2318SOL     OW18415   0.573   3.454   6.853 -0.2268 -0.2442 -0.3238
 2318SOL    HW118416   0.533   3.384   6.904  2.1211 -0.4117  1.3092
 2318SOL    HW218417   0.627   3.496   6.920  2.3383 -3.7965 -0.1763
 2319SOL     OW18418   3.032   1.959   8.181  0.0856 -0.2284  1.1116
 2319SOL    HW118419   2.937   1.967   8.184  0.0448 -0.1142 -0.7852
 2319SOL    HW218420   3.060   2.041   8.141  3.6656 -2.0499 -0.1075
 2320SOL     OW18421   1.916   4.618   5.825 -0.1826  0.2817  0.4211
 2320SOL    HW118422   1.921   4.527   5.798  0.0021 -0.4514  2.9932
 2320SOL    HW218423   1.848   4.652   5.767 -1.2377 -0.9367  0.9532
 2321SOL     OW18424   4.215   4.123   0.640 -0.0784 -0.3120  0.4593
 2321SOL    HW118425   4.269   4.128   0.719  1.2209  0.1485 -0.4632
 2321SOL    HW218426   4.128   4.140   0.676  0.6237  0.4566  1.7698
 2322SOL     OW18427   4.686   0.953   3.502 -0.1598 -0.0859  0.1761
 2322SOL    HW118428   4.666   1.045   3.521 -0.5642 -0.4036  1.2779
 2322SOL    HW218429   0.011   0.963   3.418 -0.5781 -0.5342 -0.0928
 2323SOL     OW18430   3.382   2.259   4.877 -0.3968 -0.1533 -0.0317
 2323SOL    HW118431   3.325   2.283   4.950 -0.7207  4.0115 -1.6092
 2323SOL    HW218432   3.311   2.263   4.812  1.2932  1.2058 -1.8013
 2324SOL     OW18433   2.384   2.187  14.206 -0.4694 -0.7231 -0.1215
 2324SOL    HW118434   2.381   2.211  14.299 -1.5779 -1.3858  0.0204
 2324SOL    HW218435   2.391   2.276  14.172 -0.2775 -0.2417  1.1590
 2325SOL     OW18436   4.249   2.183   5.279 -0.5063 -0.4456  0.4100
 2325SOL    HW118437   4.228   2.113   5.217  0.9718 -1.4011  1.0208
 2325SOL    HW218438   4.254   2.124   5.354  3.0268 -2.0190 -1.0680
 2326SOL     OW18439   2.894   0.964   4.566 -0.5615 -0.0421  0.4428
 2326SOL    HW118440   2.845   0.916   4.499 -3.1035  1.6283  1.1287
 2326SOL    HW218441   2.980   0.975   4.525 -1.0252  0.0690 -0.4885
 2327SOL     OW18442   1.289   0.026   1.743  0.1556 -0.0306  0.6086
 2327SOL    HW118443   1.319   4.674   1.688 -1.3370  0.8080 -1.3317
 2327SOL    HW218444   1.264   4.709   1.827 -2.5968 -3.0918 -1.5341
 2328SOL     OW18445   4.705   2.424   8.407 -0.4148  0.0552 -0.0538
 2328SOL    HW118446   4.698   2.332   8.382  0.2052 -0.3169  1.1655
 2328SOL    HW218447   0.003   2.406   8.499  0.1959  1.7442  0.1504
 2329SOL     OW18448   0.125   4.209   8.687  0.1334 -0.4557 -0.4737
 2329SOL    HW118449   0.164   4.141   8.632  0.1719  0.3288 -1.4044
 2329SOL    HW218450   0.032   4.187   8.676  0.3172 -1.6899  0.4274
 2330SOL     OW18451   0.135   3.166   7.573  0.1928 -0.3561  0.6871
 2330SOL    HW118452   0.120   3.232   7.640 -1.3123 -2.5875  2.5186
 2330SOL    HW218453   0.229   3.146   7.578  0.1659 -0.5377  0.5100
 2331SOL     OW18454   3.938   3.032   6.404 -0.0750 -0.2044  0.3787
 2331SOL    HW118455   3.968   2.941   6.399  0.8514  0.0530  1.2403
 2331SOL    HW218456   3.936   3.050   6.498  0.4002 -1.6100  0.6641
 2332SOL     OW18457   1.867   0.834   5.315  0.6222 -0.4710 -0.3843
 2332SOL    HW118458   1.959   0.860   5.306  0.6474  0.5387  2.7743
 2332SOL    HW218459   1.872   0.739   5.314  2.9049 -0.3087 -4.1520
 2333SOL     OW18460   2.127   2.601   8.614 -0.9349  0.6161 -0.1412
 2333SOL    HW118461   2.195   2.647   8.664 -1.6319 -1.4076  2.6767
 2333SOL    HW218462   2.072   2.562   8.681 -1.4741 -1.1926 -1.6459
 2334SOL     OW18463   2.297   2.740   7.149 -0.2056 -0.1404 -0.3053
 2334SOL    HW118464   2.252   2.713   7.068  0.1431 -2.4124  0.2556
 2334SOL    HW218465   2.218   2.774   7.192  0.6926  2.2778 -0.5600
 2335SOL     OW18466   3.150   3.557   7.638 -0.3502  0.5478 -0.0278
 2335SOL    HW118467   3.202   3.635   7.615  0.1838  0.8149  2.0638
 2335SOL    HW218468   3.199   3.535   7.717  1.1085  1.7487 -0.5931
 2336SOL     OW18469   1.741   4.242  15.559 -0.1916  0.6709 -0.3400
 2336SOL    HW118470   1.814   4.246  15.621 -0.1479  0.0213 -0.3467
 2336SOL    HW218471   1.667   4.233  15.620 -0.0540  2.0123  0.0359
 2337SOL     OW18472   2.062   2.600   2.069  0.8027  0.5811 -0.6927
 2337SOL    HW118473   2.124   2.532   2.043 -1.1622 -2.5821  3.0319
 2337SOL    HW218474   2.041   2.571   2.157 -0.0976 -2.1513 -1.8192
 2338SOL     OW18475   3.229   1.948   5.681 -0.4929 -0.0699  0.6375
 2338SOL    HW118476   3.227   1.978   5.590 -0.1791 -2.2521 -0.0718
 2338SOL    HW218477   3.145   1.907   5.699 -0.3684  0.4277  2.3956
 2339SOL     OW18478   0.587   0.344   4.599 -0.1838 -0.7827 -0.0925
 2339SOL    HW118479   0.608   0.334   4.506  2.3475 -1.1994  0.5183
 2339SOL    HW218480   0.517   0.278   4.605 -0.0337 -1.0830 -1.6647
 2340SOL     OW18481   3.838   4.625  13.220  0.1028  0.7097  0.2502
 2340SOL    HW118482   3.777   4.664  13.283 -0.0375  0.2037  0.4285
 2340SOL    HW218483   3.925   4.631  13.258  0.0446  0.2921  0.4426
 2341SOL     OW18484   1.156   1.380   2.713  0.1803 -0.0085 -0.2964
 2341SOL    HW118485   1.171   1.327   2.791  0.8839 -0.8453 -1.0116
 2341SOL    HW218486   1.066   1.412   2.723  1.2998  2.5845  1.5792
 2342SOL     OW18487   0.601   4.535  11.356  0.1511  0.1582  0.3243
 2342SOL    HW118488   0.681   4.531  11.409  0.7631 -0.8322 -0.6489
 2342SOL    HW218489   0.625   4.481  11.280 -1.5816 -0.3642  0.1487
 2343SOL     OW18490   3.461   1.251   8.720  0.3239 -0.7072 -0.3043
 2343SOL    HW118491   3.479   1.319   8.785 -2.6813 -2.1248  1.9998
 2343SOL    HW218492   3.446   1.302   8.641  1.5956  0.3991  0.1646
 2344SOL     OW18493   2.761   2.543   9.231  0.1225  0.1657  0.4443
 2344SOL    HW118494   2.689   2.479   9.230  0.8189 -0.6097 -1.5308
 2344SOL    HW218495   2.831   2.488   9.195 -0.9071 -1.3600  0.7554
 2345SOL     OW18496   2.339   1.778   0.012  0.1704  0.4829  0.3545
 2345SOL    HW118497   2.267   1.739   0.061  0.6422  2.0639  2.2869
 2345SOL    HW218498   2.310   1.758  17.606  1.3866 -0.2197  0.1079
 2346SOL     OW18499   0.759   3.379   3.811 -0.3319 -0.0438  0.7475
 2346SOL    HW118500   0.763   3.452   3.873 -0.1860  1.5142 -1.1054
 2346SOL    HW218501   0.828   3.406   3.752  0.9707 -0.5368  2.0508
 2347SOL     OW18502   0.184   2.033   8.667 -0.3638  0.1691 -0.1088
 2347SOL    HW118503   0.275   2.064   8.665 -0.1321 -0.3722  2.1143
 2347SOL    HW218504   0.192   1.955   8.723 -0.6203  1.2885  1.4848
 2348SOL     OW18505   0.601   2.652   2.305 -0.0638 -0.2946 -0.0596
 2348SOL    HW118506   0.675   2.592   2.311  1.0270  0.9929 -0.6300
 2348SOL    HW218507   0.536   2.582   2.307 -0.6573  0.2921  1.7227
 2349SOL     OW18508   4.287   2.215  12.745 -0.0634  0.0944 -0.4546
 2349SOL    HW118509   4.365   2.258  12.780 -0.4410 -0.4389  1.0762
 2349SOL    HW218510   4.232   2.207  12.824 -2.5055  1.6889 -2.0145
 2350SOL     OW18511   3.902   2.109   4.558  0.2828  0.3125 -0.3829
 2350SOL    HW118512   3.888   2.034   4.500  1.6264 -1.3491  1.4366
 2350SOL    HW218513   3.824   2.165   4.547 -0.0206 -0.1122 -0.4029
 2351SOL     OW18514   0.724   2.777   8.262 -0.6322 -0.2707 -0.0206
 2351SOL    HW118515   0.711   2.861   8.306 -1.7391 -1.3183  1.6794
 2351SOL    HW218516   0.634   2.757   8.235 -0.2172  1.3263 -2.5189
 2352SOL     OW18517   1.814   2.620   7.616  0.2984 -0.0381  0.4966
 2352SOL    HW118518   1.905   2.628   7.643  0.0855 -0.2552  1.2959
 2352SOL    HW218519   1.791   2.537   7.659  0.2794 -2.0150 -3.2899
 2353SOL     OW18520   1.366   2.562  12.100  0.1261 -0.1048  0.0339
 2353SOL    HW118521   1.315   2.620  12.157 -0.5698  0.1038 -0.8064
 2353SOL    HW218522   1.340   2.476  12.132  0.3130 -0.0922  0.2242
 2354SOL     OW18523   1.485   4.000   7.987  0.9614  0.5848  0.0616
 2354SOL    HW118524   1.438   3.991   7.904  0.8186 -2.1940  0.4480
 2354SOL    HW218525   1.558   3.939   7.976  1.2802  1.0365 -0.3563
 2355SOL     OW18526   3.372   1.447  11.105 -0.5555  0.1866  0.1446
 2355SOL    HW118527   3.458   1.471  11.141 -0.2998 -0.9750  0.3093
 2355SOL    HW218528   3.314   1.455  11.181 -2.4995 -0.2797 -1.2945
 2356SOL     OW18529   2.269   1.414   2.974  0.7020  0.4484 -0.1025
 2356SOL    HW118530   2.239   1.501   2.949 -3.4461 -0.9884 -0.0936
 2356SOL    HW218531   2.208   1.361   2.923  0.5990  0.9678 -0.5142
 2357SOL     OW18532   2.071   2.616   4.477 -0.2559  0.2909 -0.2127
 2357SOL    HW118533   1.982   2.580   4.483 -0.0425  0.3743  3.1479
 2357SOL    HW218534   2.099   2.620   4.568  0.2219 -0.1366 -0.3472
 2358SOL     OW18535   2.130   1.483  11.747 -0.0017 -0.5322 -0.9424
 2358SOL    HW118536   2.112   1.488  11.653  1.5233 -2.3945 -1.3263
 2358SOL    HW218537   2.216   1.523  11.756 -0.6107  0.5832 -0.0930
 2359SOL     OW18538   2.670   1.553   7.332 -0.0260  0.4411 -0.3842
 2359SOL    HW118539   2.687   1.576   7.423 -1.9658 -1.5487  0.4620
 2359SOL    HW218540   2.762   1.533   7.314 -0.7042 -1.9836 -1.1282
 2360SOL     OW18541   4.408   4.083   9.476 -0.2895 -0.0390  0.3763
 2360SOL    HW118542   4.313   4.074   9.478 -0.3308  0.3272  0.0832
 2360SOL    HW218543   4.434   4.143   9.546  0.2921  0.2370 -0.0761
 2361SOL     OW18544   4.055   2.640   6.839 -0.5301 -0.0646 -0.5693
 2361SOL    HW118545   4.072   2.574   6.906  0.4045  0.7247 -0.0214
 2361SOL    HW218546   4.017   2.715   6.885 -1.0022 -1.2874  1.0245
 2362SOL     OW18547   3.586   1.931   1.030 -0.7060  0.4060  0.6642
 2362SOL    HW118548   3.518   1.937   1.097  1.8099 -0.7181  3.2785
 2362SOL    HW218549   3.537   1.876   0.969  0.6717  1.7834 -1.6920
 2363SOL     OW18550   2.743   4.006   3.362  0.7620  0.1435 -0.2380
 2363SOL    HW118551   2.769   3.975   3.448 -0.6674 -0.2520  0.0508
 2363SOL    HW218552   2.814   3.967   3.311 -0.7524 -0.8120 -1.6385
 2364SOL     OW18553   4.559   2.611   5.289 -0.0244  0.0891 -0.2408
 2364SOL    HW118554   4.493   2.661   5.240  0.5212  2.1407  1.1108
 2364SOL    HW218555   4.532   2.520   5.278 -2.7945  0.9463 -0.5436
 2365SOL     OW18556   3.519   3.700  10.202  0.1832 -1.2372 -0.1532
 2365SOL    HW118557   3.601   3.724  10.160 -0.5830  0.2535 -0.7610
 2365SOL    HW218558   3.455   3.765  10.176 -0.3598 -1.1259  1.5010
 2366SOL     OW18559   2.408   3.303   4.131  0.6895 -0.1594 -0.1828
 2366SOL    HW118560   2.462   3.226   4.145 -1.9826 -2.2888 -1.6236
 2366SOL    HW218561   2.484   3.361   4.120  0.8551 -0.6906 -1.7662
 2367SOL     OW18562   3.336   0.369  13.176  0.5197 -0.4925 -0.0963
 2367SOL    HW118563   3.245   0.367  13.206  0.8265  0.2914  0.8880
 2367SOL    HW218564   3.333   0.405  13.088 -0.5725 -0.4824 -0.0555
 2368SOL     OW18565   0.917   3.380   9.781 -0.0558  0.4284  0.3039
 2368SOL    HW118566   0.925   3.474   9.793  3.9935  0.2561 -0.9649
 2368SOL    HW218567   0.940   3.375   9.688 -0.6377  3.6164  0.0006
 2369SOL     OW18568   1.845   0.949  11.446  0.2619 -0.2370 -0.2936
 2369SOL    HW118569   1.775   1.010  11.470  0.5372  0.5098 -1.3447
 2369SOL    HW218570   1.865   0.986  11.360 -2.2441  0.6468 -0.5148
 2370SOL     OW18571   0.752   1.065   2.766 -0.0823  0.3802  0.2902
 2370SOL    HW118572   0.683   0.999   2.775 -0.6457  0.9631  0.2576
 2370SOL    HW218573   0.700   1.145   2.777  1.8956  1.6620  0.4091
 2371SOL     OW18574   0.302   0.892   7.314  0.6449  0.3334 -0.1763
 2371SOL    HW118575   0.228   0.936   7.271  0.0499 -0.6734 -0.1963
 2371SOL    HW218576   0.362   0.875   7.241  1.1704  0.7294  0.1639
 2372SOL     OW18577   3.721   4.360   1.087 -0.0342 -0.5778  0.5004
 2372SOL    HW118578   3.723   4.435   1.147  2.5240 -0.5725  0.4273
 2372SOL    HW218579   3.720   4.404   1.002 -0.7429 -1.6073 -0.0268
 2373SOL     OW18580   2.132   0.858   7.142 -0.2481  0.3757  0.3458
 2373SOL    HW118581   2.187   0.935   7.150  0.3915 -0.0709  0.2057
 2373SOL    HW218582   2.121   0.829   7.233  1.6334  1.3044  0.8498
 2374SOL     OW18583   2.429   3.803   5.622 -0.0478 -0.1569 -0.3900
 2374SOL    HW118584   2.363   3.859   5.582 -0.0812  0.6442  0.7534
 2374SOL    HW218585   2.505   3.840   5.576  1.0543 -1.5796  0.2561
 2375SOL     OW18586   1.521   2.208   4.327  0.2948 -0.4065 -0.4118
 2375SOL    HW118587   1.537   2.223   4.234  0.8730  0.1301 -0.2205
 2375SOL    HW218588   1.573   2.275   4.370 -1.1784  1.7715 -2.0583
 2376SOL     OW18589   0.395   2.816  16.193 -0.9936  0.0112  0.0524
 2376SOL    HW118590   0.406   2.843  16.102  0.9274 -0.0154  0.2767
 2376SOL    HW218591   0.483   2.829  16.229 -1.0282 -2.0838  0.9047
 2377SOL     OW18592   2.671   1.817  15.393  0.2029 -0.1022 -0.0124
 2377SOL    HW118593   2.684   1.863  15.309 -1.0611 -3.1883 -1.8953
 2377SOL    HW218594   2.674   1.895  15.448  1.0377  0.7927 -1.3150
 2378SOL     OW18595   4.657   0.688   8.564 -0.1372  0.2891  0.8191
 2378SOL    HW118596   4.584   0.711   8.622 -2.5759  0.3932 -2.2678
 2378SOL    HW218597   0.011   0.743   8.586 -0.9932  0.2507  3.8456
 2379SOL     OW18598   3.497   0.554   5.598  0.5622 -0.0696  0.5176
 2379SOL    HW118599   3.415   0.573   5.644  0.1597 -1.0533  0.2112
 2379SOL    HW218600   3.510   0.637   5.551  0.8253 -0.1085  0.5228
 2380SOL     OW18601   0.009   1.074  14.678 -0.2466  0.1492  0.3865
 2380SOL    HW118602   0.082   1.076  14.615  0.3375 -1.3170  1.0160
 2380SOL    HW218603   0.038   1.011  14.744  0.0675  1.0511  1.1033
 2381SOL     OW18604   2.350   2.213  10.006  0.2400 -0.8632  0.2783
 2381SOL    HW118605   2.265   2.241   9.974  1.0569 -0.6369 -1.7487
 2381SOL    HW218606   2.338   2.119  10.020 -2.7526 -0.5198 -0.1088
 2382SOL     OW18607   2.108   3.531  13.748 -0.1510 -0.8441 -0.3399
 2382SOL    HW118608   2.053   3.496  13.678 -0.8895  1.9527 -1.1624
 2382SOL    HW218609   2.143   3.449  13.783 -0.3317 -0.6702  0.2609
 2383SOL     OW18610   2.972   2.136   6.132 -0.2431 -0.3230  0.4686
 2383SOL    HW118611   2.899   2.196   6.144  0.3203  0.1112  1.7617
 2383SOL    HW218612   2.955   2.095   6.047  3.0077  1.3153 -0.9509
 2384SOL     OW18613   4.229   0.301   7.254  0.8113  0.0100 -0.0414
 2384SOL    HW118614   4.152   0.268   7.299  0.4103 -1.2853 -1.6559
 2384SOL    HW218615   4.289   0.314   7.327 -0.7650 -0.0766  1.2598
 2385SOL     OW18616   3.018   2.459   8.471 -0.0193  0.1963 -0.3680
 2385SOL    HW118617   2.940   2.421   8.512  0.1739  0.4993  0.2912
 2385SOL    HW218618   3.052   2.508   8.546  1.5098  0.7799 -1.4343
 2386SOL     OW18619   0.362   2.344   5.074  0.2648 -0.2416  0.4676
 2386SOL    HW118620   0.372   2.337   5.169  1.0103  0.0466  0.4039
 2386SOL    HW218621   0.270   2.319   5.063 -0.1133  0.9619  0.8804
 2387SOL     OW18622   1.843   4.361   5.804 -0.0830 -0.4693 -0.4500
 2387SOL    HW118623   1.828   4.291   5.741 -1.8926 -0.7982  0.3115
 2387SOL    HW218624   1.774   4.339   5.867  0.5209  0.3507  0.5072
 2388SOL     OW18625   4.403   2.157  11.696 -0.6762  0.4211 -0.0624
 2388SOL    HW118626   4.487   2.162  11.742 -0.2495  1.7755 -0.9578
 2388SOL    HW218627   4.395   2.247  11.662  0.9578  0.2287 -0.9638
 2389SOL     OW18628   2.866   0.614   6.601 -0.1425  0.6708 -0.0306
 2389SOL    HW118629   2.848   0.550   6.533 -0.8580  1.2383 -0.3788
 2389SOL    HW218630   2.891   0.683   6.540  2.5691 -1.6876 -1.5317
 2390SOL     OW18631   1.238   1.477   3.382  0.1755  0.2430 -0.0470
 2390SOL    HW118632   1.237   1.520   3.468 -0.8692 -1.6457  0.8729
 2390SOL    HW218633   1.328   1.446   3.376 -0.0409 -0.7253  1.6328
 2391SOL     OW18634   3.109   1.757   7.596 -0.0196  0.2213  0.1159
 2391SOL    HW118635   3.066   1.755   7.682 -0.8897 -3.1345 -0.3921
 2391SOL    HW218636   3.074   1.839   7.562  2.7435  1.6718  0.8039
 2392SOL     OW18637   3.996   3.545  12.417  1.1505  0.1987 -0.2938
 2392SOL    HW118638   3.904   3.527  12.439  0.4812  2.0272 -1.5745
 2392SOL    HW218639   4.022   3.573  12.504  0.3297 -0.3039  0.1164
 2393SOL     OW18640   0.808   0.225   9.391  0.2096 -0.0447  0.2844
 2393SOL    HW118641   0.744   0.261   9.328  0.9414  0.7354 -0.0127
 2393SOL    HW218642   0.822   0.291   9.459  0.1336 -0.2669  0.5131
 2394SOL     OW18643   1.799   4.297   1.435  0.5022  0.1839  0.0873
 2394SOL    HW118644   1.881   4.344   1.454  0.5859 -0.0269  0.2478
 2394SOL    HW218645   1.838   4.224   1.386  1.4714  0.2608  0.7442
 2395SOL     OW18646   2.611   1.077   8.278  0.2727 -0.6619  0.0081
 2395SOL    HW118647   2.632   1.145   8.214 -0.1743 -1.7808 -1.3243
 2395SOL    HW218648   2.531   1.114   8.314 -0.2361 -1.0118 -0.7765
 2396SOL     OW18649   2.314   3.114   3.740  0.5039 -0.9535  0.1967
 2396SOL    HW118650   2.292   3.140   3.651  1.2990 -0.3645  0.1737
 2396SOL    HW218651   2.241   3.155   3.787 -0.5617 -1.4179 -1.0528
 2397SOL     OW18652   4.719   3.180  14.049  0.9053 -0.2082 -0.0391
 2397SOL    HW118653   0.027   3.186  13.958  2.7144 -0.6634  0.4764
 2397SOL    HW218654   4.690   3.091  14.069  1.5908  0.3101  3.4159
 2398SOL     OW18655   0.937   0.430  12.702 -0.3245  0.1191 -0.0466
 2398SOL    HW118656   0.985   0.441  12.620  0.4319 -4.2809 -0.1734
 2398SOL    HW218657   0.866   0.492  12.683 -1.2131 -0.7506  0.4813
 2399SOL     OW18658   0.677   1.030  13.480  0.1102  0.3400 -0.4994
 2399SOL    HW118659   0.610   1.012  13.414  2.1303  0.0120 -2.4672
 2399SOL    HW218660   0.745   0.965  13.460 -0.3397  0.0520 -1.0869
 2400SOL     OW18661   4.002   3.824   0.360  0.6085 -0.2153  0.0582
 2400SOL    HW118662   3.979   3.762   0.429 -1.4388  0.7633  0.2491
 2400SOL    HW218663   3.984   3.778   0.278  2.7973  3.4685 -2.4929
 2401SOL     OW18664   0.339   0.186  17.344 -0.1724 -0.6768  0.7024
 2401SOL    HW118665   0.324   0.097  17.314  1.1565 -0.3565 -0.8841
 2401SOL    HW218666   0.311   0.245  17.274  0.7482  0.7196  1.5126
 2402SOL     OW18667   3.063   1.976   9.115  0.7118 -0.2898  0.1721
 2402SOL    HW118668   3.133   2.009   9.171 -1.1755  2.0598  1.0748
 2402SOL    HW218669   3.112   1.977   9.032  0.3120  1.7929 -0.0144
 2403SOL     OW18670   3.479   0.608  11.828  0.7457  0.3367  1.0337
 2403SOL    HW118671   3.478   0.577  11.918  0.8167 -1.2336  0.4802
 2403SOL    HW218672   3.474   0.529  11.774 -1.7813  1.9932 -1.1525
 2404SOL     OW18673   0.500   2.534   9.278 -0.0599  0.6252 -0.5226
 2404SOL    HW118674   0.457   2.523   9.362  0.7747 -0.9498 -0.2948
 2404SOL    HW218675   0.476   2.458   9.225  1.5318 -0.7731  0.7442
 2405SOL     OW18676   1.024   2.396   9.746 -0.1486 -0.1736 -0.1116
 2405SOL    HW118677   1.117   2.400   9.724  0.4431 -0.9355  2.1825
 2405SOL    HW218678   1.027   2.387   9.841  0.6105 -1.5429 -0.2700
 2406SOL     OW18679   0.788   3.647  14.662  0.8726 -0.6838 -0.1815
 2406SOL    HW118680   0.881   3.667  14.652  0.7028  0.5209  0.6772
 2406SOL    HW218681   0.777   3.622  14.570 -0.6073  1.7052 -0.6391
 2407SOL     OW18682   3.861   1.063   5.513  0.3169  0.3781 -0.3465
 2407SOL    HW118683   3.834   1.127   5.579 -0.0304  0.8190 -0.9133
 2407SOL    HW218684   3.946   1.031   5.545  0.1804  0.6144  0.2511
 2408SOL     OW18685   4.230   3.394   3.475  0.6252  0.0966 -0.2563
 2408SOL    HW118686   4.147   3.369   3.434  0.8018  1.0909 -1.2136
 2408SOL    HW218687   4.207   3.469   3.528  1.3313  0.1886 -0.0754
 2409SOL     OW18688   0.021   3.300   5.714 -0.2815  0.6358  0.6005
 2409SOL    HW118689   0.071   3.352   5.651 -0.7937  0.7664  0.3081
 2409SOL    HW218690   4.654   3.325   5.684 -0.7124 -2.2387 -0.5216
 2410SOL     OW18691   1.450   2.027   5.694  0.4640  0.1123 -0.6467
 2410SOL    HW118692   1.480   2.012   5.604 -3.4268 -2.8642 -1.4272
 2410SOL    HW218693   1.399   2.107   5.684 -0.3550 -0.4434 -0.9696
 2411SOL     OW18694   3.581   0.578   3.040  0.1299  0.6946 -0.3735
 2411SOL    HW118695   3.656   0.526   3.071 -2.7810 -2.9791  0.4321
 2411SOL    HW218696   3.575   0.544   2.951  1.5759  0.4569 -0.3782
 2412SOL     OW18697   1.928   4.619  14.004 -0.7083 -0.0397 -0.5189
 2412SOL    HW118698   1.927   4.544  13.945 -0.2886  0.2930 -0.9497
 2412SOL    HW218699   1.836   4.646  14.010 -1.2069 -1.5549 -1.4935
 2413SOL     OW18700   0.949   3.601   0.962 -0.2921  0.4779  0.4359
 2413SOL    HW118701   0.981   3.614   0.872 -2.2294 -0.3846 -0.3827
 2413SOL    HW218702   0.886   3.532   0.942 -3.2979  3.2791  0.0859
 2414SOL     OW18703   3.094   4.351   3.728 -1.0243  0.2258 -0.0401
 2414SOL    HW118704   3.190   4.350   3.722 -1.2674 -0.0671 -3.4418
 2414SOL    HW218705   3.080   4.306   3.811  2.6512  0.5814  0.7986
 2415SOL     OW18706   1.210   3.992   1.814  0.6938 -0.3850 -0.2224
 2415SOL    HW118707   1.141   3.929   1.834  1.5225 -1.8351 -1.8684
 2415SOL    HW218708   1.216   3.984   1.719  0.4043 -1.2577 -0.1660
 2416SOL     OW18709   4.466   3.287  15.700 -0.2107 -0.2524 -0.2067
 2416SOL    HW118710   4.375   3.314  15.684 -0.1821  0.6213  1.1467
 2416SOL    HW218711   4.510   3.321  15.621 -2.3753 -0.9158 -1.7162
 2417SOL     OW18712   3.633   1.700   8.686 -0.2236  0.1064  0.3832
 2417SOL    HW118713   3.684   1.747   8.622  0.9334 -2.2181 -0.3986
 2417SOL    HW218714   3.706   1.695   8.748  1.2636 -0.0456 -1.3906
 2418SOL     OW18715   1.167   3.381   7.533  0.4139  0.0452 -0.8290
 2418SOL    HW118716   1.138   3.470   7.553  0.8103  0.2129 -0.9997
 2418SOL    HW218717   1.227   3.373   7.607 -0.6313 -1.9043 -0.1979
 2419SOL     OW18718   4.190   3.031   2.508 -0.0574  0.4288 -0.1926
 2419SOL    HW118719   4.272   3.072   2.536  0.4338 -0.0926 -0.8535
 2419SOL    HW218720   4.210   2.997   2.421  2.5787  1.7475 -0.1055
 2420SOL     OW18721   1.856   3.944  12.578 -0.4471 -0.0680 -0.4999
 2420SOL    HW118722   1.940   3.916  12.612 -0.1682  1.7376  0.2646
 2420SOL    HW218723   1.806   3.966  12.657  1.0086 -0.1444  0.4280
 2421SOL     OW18724   0.346   0.928   4.605  0.1300 -0.2182  0.3543
 2421SOL    HW118725   0.291   0.958   4.677 -1.2759  0.8038 -1.1099
 2421SOL    HW218726   0.340   1.009   4.553 -1.0766 -0.1941  0.5251
 2422SOL     OW18727   4.213   3.069   9.556 -0.7098 -0.3685 -0.9057
 2422SOL    HW118728   4.144   3.123   9.518 -1.1285  1.4278  2.3552
 2422SOL    HW218729   4.280   3.136   9.571 -0.7717 -0.2754 -1.0554
 2423SOL     OW18730   4.576   1.302   0.808  0.0329  0.1204 -0.4262
 2423SOL    HW118731   4.561   1.208   0.800 -1.4097  0.2741  0.5116
 2423SOL    HW218732   4.521   1.332   0.736 -1.0074  1.4404  0.9207
 2424SOL     OW18733   4.082   2.361   6.605 -0.0611 -0.5411  0.0645
 2424SOL    HW118734   4.104   2.301   6.676  0.7259 -1.6246 -1.0830
 2424SOL    HW218735   3.988   2.353   6.622 -0.2816  1.2441 -0.3283
 2425SOL     OW18736   1.875   3.208  15.666 -0.2889  0.5497 -0.7213
 2425SOL    HW118737   1.899   3.229  15.576  1.3231 -0.8707 -0.6360
 2425SOL    HW218738   1.802   3.151  15.646  0.2919 -0.3974 -0.1409
 2426SOL     OW18739   3.678   2.301   5.887  0.4869 -0.2270 -0.2600
 2426SOL    HW118740   3.757   2.349   5.910  1.0374 -1.2061 -0.0771
 2426SOL    HW218741   3.605   2.360   5.870 -0.3398 -1.5592 -1.2938
 2427SOL     OW18742   3.729   2.989   6.717 -0.7002  0.3023 -0.1392
 2427SOL    HW118743   3.706   3.042   6.793 -1.3218 -1.1611  0.6757
 2427SOL    HW218744   3.811   3.032   6.693  0.5833 -2.8874 -1.3650
 2428SOL     OW18745   2.459   4.130   2.453  0.2430 -0.6517  0.1973
 2428SOL    HW118746   2.484   4.074   2.526 -0.8967 -1.2000  0.1629
 2428SOL    HW218747   2.534   4.124   2.394 -0.0385 -0.3689 -0.1921
 2429SOL     OW18748   4.117   2.068   4.043  0.4401  0.3237 -0.5187
 2429SOL    HW118749   4.152   1.981   4.058  0.0829 -0.3700 -3.6876
 2429SOL    HW218750   4.093   2.096   4.132 -0.7181 -1.6683 -0.1886
 2430SOL     OW18751   1.339   2.739  11.147  0.5284  0.0659 -0.0132
 2430SOL    HW118752   1.291   2.822  11.154 -3.9301 -2.3277 -1.9666
 2430SOL    HW218753   1.391   2.763  11.071  2.2729  0.1401  1.2125
 2431SOL     OW18754   1.499   0.544   8.395  0.2821 -0.1833 -0.4113
 2431SOL    HW118755   1.530   0.615   8.338  0.5782  1.5965  1.9925
 2431SOL    HW218756   1.583   0.512   8.428  0.8976  0.0757 -1.7222
 2432SOL     OW18757   0.513   3.404   0.362 -0.2887  0.1806 -0.3232
 2432SOL    HW118758   0.566   3.408   0.442 -1.6335 -1.5882  0.6432
 2432SOL    HW218759   0.581   3.368   0.306 -0.3160 -0.5454  0.1143
 2433SOL     OW18760   4.063   4.057   6.039 -0.2507  0.5611 -0.0355
 2433SOL    HW118761   4.027   3.989   6.096  0.7283  0.8784  0.9591
 2433SOL    HW218762   3.994   4.124   6.045 -2.6174 -2.0180  1.4053
 2434SOL     OW18763   2.082   1.562  11.997 -0.3085  0.6486  0.3080
 2434SOL    HW118764   2.075   1.538  11.905  1.6064  0.3302  0.2372
 2434SOL    HW218765   2.175   1.577  12.013  0.2165  1.3778 -3.3543
 2435SOL     OW18766   1.290   3.639   8.245  0.0742  0.1998 -0.7222
 2435SOL    HW118767   1.257   3.717   8.290  0.8844 -0.5947  1.2797
 2435SOL    HW218768   1.204   3.617   8.210 -1.5447  1.3838  2.5765
 2436SOL     OW18769   3.595   1.934   6.743 -0.0064 -0.1776 -0.0632
 2436SOL    HW118770   3.592   1.987   6.823  1.2600 -0.0952 -0.0789
 2436SOL    HW218771   3.516   1.880   6.748  0.0381 -0.4946 -2.8139
 2437SOL     OW18772   2.250   1.178   0.979  0.3515 -0.8008 -0.0004
 2437SOL    HW118773   2.230   1.131   1.060 -1.4739  0.4788  0.2884
 2437SOL    HW218774   2.317   1.119   0.945  1.8050 -0.2587  1.8730
 2438SOL     OW18775   3.225   0.553   8.719  0.2190 -0.0213  0.0554
 2438SOL    HW118776   3.243   0.637   8.677  1.6046  0.3628  1.4167
 2438SOL    HW218777   3.157   0.507   8.671 -0.7058 -0.4259  1.7546
 2439SOL     OW18778   2.429   3.399   7.916 -0.2259  0.4452 -0.4496
 2439SOL    HW118779   2.422   3.352   7.832 -1.6509 -1.1530  0.5599
 2439SOL    HW218780   2.521   3.375   7.922 -0.2663  0.3658 -0.1743
 2440SOL     OW18781   0.305   3.171   3.028 -0.0655 -0.0191 -0.0395
 2440SOL    HW118782   0.370   3.158   3.097 -1.1346 -2.8243  0.4174
 2440SOL    HW218783   0.293   3.265   3.040  1.0882 -0.1939  2.4812
 2441SOL     OW18784   4.512   0.917   1.874 -0.3985 -0.5609 -0.5211
 2441SOL    HW118785   4.449   0.934   1.944  0.3525 -2.3773  0.5873
 2441SOL    HW218786   4.494   0.826   1.848 -2.7125  0.4500 -2.5334
 2442SOL     OW18787   4.359   0.900  16.467 -0.5218  0.0066  0.1849
 2442SOL    HW118788   4.432   0.898  16.528 -0.0369  0.3062 -0.3867
 2442SOL    HW218789   4.303   0.963  16.512  0.7605  0.6817  0.8023
 2443SOL     OW18790   0.849   3.864   7.015 -0.0562  0.1436 -0.0895
 2443SOL    HW118791   0.839   3.862   6.919 -0.1244  2.0654 -0.1112
 2443SOL    HW218792   0.835   3.958   7.024  0.8833  0.3905 -1.0992
 2444SOL     OW18793   2.135   4.577   1.624 -0.1070  0.3952 -0.2911
 2444SOL    HW118794   2.174   4.627   1.696 -0.7593  0.5431 -0.0395
 2444SOL    HW218795   2.183   4.616   1.550  0.2354 -0.4044 -0.4874
 2445SOL     OW18796   1.408   3.770   2.922  0.2368 -0.4191 -0.7487
 2445SOL    HW118797   1.410   3.770   3.017  0.5926 -0.1835 -0.7559
 2445SOL    HW218798   1.330   3.822   2.901  0.3364 -0.5037 -1.3235
 2446SOL     OW18799   2.955   4.204   4.370 -0.2720 -0.2224 -0.2044
 2446SOL    HW118800   3.011   4.154   4.311 -1.0099 -1.7228  0.3632
 2446SOL    HW218801   3.010   4.278   4.395  0.3400 -0.4511 -0.8904
 2447SOL     OW18802   0.754   3.524  11.221 -0.5530 -0.2224 -0.5614
 2447SOL    HW118803   0.742   3.472  11.141  3.7041 -1.1391 -0.6362
 2447SOL    HW218804   0.800   3.460  11.276 -0.5624 -1.0832 -1.5391
 2448SOL     OW18805   0.601   3.483   3.630  0.0996  0.4160 -0.3875
 2448SOL    HW118806   0.665   3.457   3.696 -2.7584 -0.8015  1.9348
 2448SOL    HW218807   0.573   3.569   3.660  0.1260  0.1563  0.3685
 2449SOL     OW18808   1.180   0.996   8.011 -0.0901  0.4333  0.2641
 2449SOL    HW118809   1.137   0.961   8.089 -2.3594  1.0953 -0.6910
 2449SOL    HW218810   1.200   1.087   8.033 -1.3030  0.7583  0.0456
 2450SOL     OW18811   2.989   1.607   9.330  0.3858 -0.2569 -0.1943
 2450SOL    HW118812   3.042   1.579   9.405 -0.7653  0.4953  0.8890
 2450SOL    HW218813   2.904   1.567   9.347  1.3816 -3.7510 -3.3041
 2451SOL     OW18814   3.075   4.601   0.380 -0.2080  0.1116 -0.0508
 2451SOL    HW118815   3.122   4.652   0.314  0.5335  0.8091  1.0264
 2451SOL    HW218816   2.988   4.630   0.353 -0.2255  1.1375  1.1442
 2452SOL     OW18817   3.803   2.230  15.811  0.6008  0.0634  0.1441
 2452SOL    HW118818   3.728   2.209  15.755  0.1167  0.7830  0.5217
 2452SOL    HW218819   3.785   2.170  15.884 -1.7815 -0.1294 -0.5905
 2453SOL     OW18820   2.723   3.106  10.107  0.6471  0.2062  0.2272
 2453SOL    HW118821   2.638   3.084  10.147 -0.0085  1.2826 -0.5549
 2453SOL    HW218822   2.738   3.039  10.042  2.7475  0.0118  0.9207
 2454SOL     OW18823   2.692   3.685   6.970 -0.4971 -0.1078  0.1197
 2454SOL    HW118824   2.638   3.748   7.019  0.2332  0.2830  0.4129
 2454SOL    HW218825   2.761   3.747   6.947 -0.9529  0.9266  1.4818
 2455SOL     OW18826   3.008   4.418   7.027  0.6904  0.2383 -0.7798
 2455SOL    HW118827   2.939   4.403   7.091 -0.1768  2.5502 -1.1764
 2455SOL    HW218828   3.055   4.337   7.046  1.6417  1.1281  0.6563
 2456SOL     OW18829   1.123   0.243  15.008  0.1742 -0.2844  0.0432
 2456SOL    HW118830   1.186   0.265  15.077  0.6494 -1.4835 -0.0214
 2456SOL    HW218831   1.180   0.218  14.936 -1.9135 -2.5804 -0.8078
 2457SOL     OW18832   4.433   3.507   8.085  0.2156  0.0817 -0.0178
 2457SOL    HW118833   4.402   3.559   8.159 -0.4899 -2.4869  1.5130
 2457SOL    HW218834   4.428   3.419   8.122  0.5554 -0.4178 -1.1595
 2458SOL     OW18835   1.033   2.942  17.415 -0.1127  0.0582 -0.3336
 2458SOL    HW118836   1.066   2.873  17.358 -1.2345  0.4486 -1.4641
 2458SOL    HW218837   1.017   2.890  17.494  0.0727 -1.3797 -1.2546
 2459SOL     OW18838   3.692   0.602  14.027 -0.2665  0.2201 -0.3670
 2459SOL    HW118839   3.785   0.586  14.046 -0.4451 -0.7327 -0.2692
 2459SOL    HW218840   3.657   0.533  13.970  0.8556 -0.4802 -0.2219
 2460SOL     OW18841   3.299   0.302   6.978  0.4546  0.4990  0.0537
 2460SOL    HW118842   3.293   0.348   7.062  0.6735 -1.8491  1.3567
 2460SOL    HW218843   3.229   0.336   6.922  1.0795 -1.6237 -2.0448
 2461SOL     OW18844   2.425   4.220   7.764 -0.4771  0.1377 -0.0529
 2461SOL    HW118845   2.392   4.135   7.733  2.6541 -1.1613  0.1969
 2461SOL    HW218846   2.351   4.268   7.727 -0.4606  0.3942  0.2498
 2462SOL     OW18847   1.242   0.269   7.509  0.1935  0.1613 -0.1379
 2462SOL    HW118848   1.248   0.341   7.571  0.2872  0.1795 -0.1673
 2462SOL    HW218849   1.168   0.299   7.456  0.2716 -0.2449 -0.4788
 2463SOL     OW18850   1.620   1.244   3.241 -0.6275  0.6662  0.4403
 2463SOL    HW118851   1.685   1.291   3.188  1.8201 -0.2983  2.6344
 2463SOL    HW218852   1.611   1.298   3.319  1.0091 -0.5308  1.4601
 2464SOL     OW18853   3.477   1.464   8.935  0.1391 -0.6728 -0.0613
 2464SOL    HW118854   3.405   1.409   8.965 -2.3787  1.3549 -2.3547
 2464SOL    HW218855   3.517   1.467   9.021  1.0046 -0.0762 -0.4849
 2465SOL     OW18856   1.316   1.611   4.236  0.1213 -0.4510  0.3779
 2465SOL    HW118857   1.302   1.656   4.153  2.1657 -1.1301 -0.3421
 2465SOL    HW218858   1.405   1.646   4.243  0.3532 -0.8406 -0.5963
 2466SOL     OW18859   4.436   4.273  10.146 -0.4364  0.8780  0.3566
 2466SOL    HW118860   4.424   4.338  10.215  1.4422  0.3859  1.1275
 2466SOL    HW218861   4.525   4.242  10.160 -0.0528  1.8239  0.0320
 2467SOL     OW18862   4.176   1.331   9.216  0.2850  0.4855 -0.3148
 2467SOL    HW118863   4.106   1.369   9.269  1.0475 -0.0672  1.0945
 2467SOL    HW218864   4.195   1.407   9.162  0.9439  0.2361 -0.4385
 2468SOL     OW18865   1.236   4.502   6.232  0.4402  0.4391 -0.0735
 2468SOL    HW118866   1.240   4.424   6.177 -0.2283  0.7720 -0.5933
 2468SOL    HW218867   1.326   4.529   6.219  0.4861  0.5619  0.5276
 2469SOL     OW18868   1.296   2.056   5.035  0.0070  0.5480 -0.3355
 2469SOL    HW118869   1.375   2.033   5.084  1.0714  2.2593 -1.2569
 2469SOL    HW218870   1.330   2.032   4.949  4.1488  0.7113  1.2656
 2470SOL     OW18871   3.275   0.696   8.488  0.4379 -0.0365 -0.3407
 2470SOL    HW118872   3.249   0.788   8.493  1.5418  0.3592 -1.9636
 2470SOL    HW218873   3.353   0.703   8.433  0.9810  0.1982  0.4697
 2471SOL     OW18874   4.440   1.737   0.966 -0.0528 -0.2373  0.2484
 2471SOL    HW118875   4.348   1.750   0.993 -0.2695 -0.2966 -0.4667
 2471SOL    HW218876   4.428   1.740   0.871  1.8768 -0.8137 -0.0045
 2472SOL     OW18877   2.077   3.179  13.140  0.3972  0.9057  0.5806
 2472SOL    HW118878   2.164   3.150  13.114  0.2987  1.0540  0.0754
 2472SOL    HW218879   2.084   3.162  13.234  2.4515  0.4607  0.3317
 2473SOL     OW18880   1.218   4.345   5.212  0.4574  0.1914 -0.1209
 2473SOL    HW118881   1.158   4.272   5.200 -1.4431  1.6177  0.7784
 2473SOL    HW218882   1.255   4.321   5.297 -1.6432 -0.8336  0.4843
 2474SOL     OW18883   3.328   3.283  14.850  0.2775 -0.0836 -0.1949
 2474SOL    HW118884   3.238   3.262  14.876  0.6840 -1.6888 -0.0690
 2474SOL    HW218885   3.339   3.216  14.783  0.8151 -0.0286 -0.1608
 2475SOL     OW18886   1.103   1.164   8.748 -0.1104 -0.0149 -0.1785
 2475SOL    HW118887   1.023   1.212   8.728  0.6094  1.0455 -0.5079
 2475SOL    HW218888   1.158   1.242   8.750 -0.9672  0.5230  1.4307
 2476SOL     OW18889   4.336   2.875   7.915  0.5386 -0.8001  0.6830
 2476SOL    HW118890   4.269   2.927   7.959  0.3491  1.3079 -2.0846
 2476SOL    HW218891   4.317   2.784   7.937  0.0099 -0.8435  0.0540
 2477SOL     OW18892   2.816   0.232   1.123  0.2360 -0.1333 -0.1237
 2477SOL    HW118893   2.795   0.169   1.054 -0.8403 -0.6999  0.7311
 2477SOL    HW218894   2.837   0.304   1.063 -0.3652 -0.5155 -0.8036
 2478SOL     OW18895   4.147   0.275  16.298  0.4626 -0.1687  0.8803
 2478SOL    HW118896   4.179   0.288  16.387 -1.1539  0.6158  1.3602
 2478SOL    HW218897   4.114   0.361  16.272 -2.1812 -1.0851  1.1860
 2479SOL     OW18898   0.799   3.596  14.385 -0.6675 -0.4028 -0.0971
 2479SOL    HW118899   0.817   3.655  14.312 -0.5460  2.2011  2.0493
 2479SOL    HW218900   0.885   3.596  14.426  0.0118 -1.9933 -1.5493
 2480SOL     OW18901   3.163   0.515  12.921  0.0539  0.2004  0.2234
 2480SOL    HW118902   3.250   0.511  12.880 -0.0957 -0.9630  0.0208
 2480SOL    HW218903   3.135   0.424  12.915 -0.6065  0.5257 -1.5302
 2481SOL     OW18904   2.228   1.767   7.770 -0.2390  0.1388  0.1935
 2481SOL    HW118905   2.134   1.782   7.778 -0.6257 -2.3681  0.4485
 2481SOL    HW218906   2.264   1.821   7.841 -0.0246  0.6466 -0.3049
 2482SOL     OW18907   2.955   0.500   2.912 -0.0190 -0.1646 -0.1508
 2482SOL    HW118908   2.869   0.530   2.942  0.0484 -0.0517 -0.0714
 2482SOL    HW218909   2.995   0.583   2.884  2.3292 -1.2082  0.1150
 2483SOL     OW18910   3.911   1.541   4.494  0.5045 -0.4671  0.7429
 2483SOL    HW118911   3.906   1.548   4.398  0.4855  1.3505  0.8740
 2483SOL    HW218912   3.832   1.491   4.512  0.3566 -0.8903 -1.0518
 2484SOL     OW18913   3.038   3.914   6.247 -0.2242 -0.2077 -0.4218
 2484SOL    HW118914   3.112   3.901   6.187 -0.9032 -0.1397 -1.2860
 2484SOL    HW218915   3.098   3.954   6.310 -0.4412 -0.7299  0.1140
 2485SOL     OW18916   3.565   1.678  15.755  0.5454 -0.5225  0.1448
 2485SOL    HW118917   3.568   1.708  15.664  1.5773  0.5750  0.5409
 2485SOL    HW218918   3.483   1.629  15.744  1.0051 -1.4242  0.7610
 2486SOL     OW18919   1.396   3.173   5.548 -0.1058  0.1539 -0.4123
 2486SOL    HW118920   1.384   3.089   5.591 -0.0217 -0.4147 -1.4857
 2486SOL    HW218921   1.378   3.151   5.456  1.4802  0.1369 -0.7107
 2487SOL     OW18922   4.174   3.090   2.945  0.5769  0.0018 -0.1511
 2487SOL    HW118923   4.255   3.131   2.975  1.0763 -1.9848  1.1406
 2487SOL    HW218924   4.129   3.173   2.924  0.6326 -0.1050 -0.7076
 2488SOL     OW18925   0.305   3.453   3.379  0.2271 -0.3989  0.2153
 2488SOL    HW118926   0.277   3.545   3.373  1.8132  0.0422 -0.3725
 2488SOL    HW218927   0.231   3.408   3.339  0.2649 -0.6129  0.3910
 2489SOL     OW18928   0.625   1.690   2.635  0.0681  0.1346 -0.3236
 2489SOL    HW118929   0.598   1.708   2.725  0.4773  0.4962 -0.2733
 2489SOL    HW218930   0.630   1.595   2.635  0.3900  0.1586  1.7411
 2490SOL     OW18931   3.857   2.767   7.698 -0.6126  0.6535  0.4123
 2490SOL    HW118932   3.917   2.842   7.704 -1.5450  1.5505 -1.4157
 2490SOL    HW218933   3.807   2.809   7.628 -0.6027 -1.1126 -0.6599
 2491SOL     OW18934   1.580   2.283   1.921 -0.5649 -0.4867  0.2781
 2491SOL    HW118935   1.488   2.302   1.902 -0.3529  0.4047  0.1255
 2491SOL    HW218936   1.630   2.342   1.865  0.6473  0.3334  2.2673
 2492SOL     OW18937   1.254   2.545   3.995  0.1112 -0.1376  0.5519
 2492SOL    HW118938   1.284   2.466   3.949  1.3291  1.4057 -1.3172
 2492SOL    HW218939   1.311   2.616   3.965  1.3002 -1.4840 -0.3584
 2493SOL     OW18940   2.039   0.508   6.055  0.3953 -0.4131  0.6351
 2493SOL    HW118941   2.067   0.599   6.062  0.5360 -0.4026 -0.0377
 2493SOL    HW218942   1.944   0.516   6.046  0.4040  1.8614  2.6451
 2494SOL     OW18943   3.378   3.868  11.309 -0.0719  0.0118 -0.4710
 2494SOL    HW118944   3.327   3.942  11.343  0.9877  0.4972  0.0638
 2494SOL    HW218945   3.430   3.911  11.241  0.1683  0.2174 -0.1509
 2495SOL     OW18946   4.237   4.127   4.563 -0.0930  0.6053  0.0234
 2495SOL    HW118947   4.176   4.130   4.489 -0.8570  0.5722  0.6402
 2495SOL    HW218948   4.175   4.077   4.616  1.6343 -2.3286 -0.7251
 2496SOL     OW18949   4.043   3.891  11.535 -0.5390  0.3911  0.3597
 2496SOL    HW118950   4.006   3.829  11.472  1.5745 -0.5647  0.0605
 2496SOL    HW218951   4.028   3.845  11.617 -0.0356  1.8603  1.2738
 2497SOL     OW18952   3.134   3.589   6.503 -0.2877  0.1983 -0.0393
 2497SOL    HW118953   3.167   3.672   6.468  1.8396 -0.9624 -0.8207
 2497SOL    HW218954   3.208   3.530   6.488  0.6956  1.7846 -1.4762
 2498SOL     OW18955   0.683   0.349  13.305 -0.4484 -0.0575  0.6985
 2498SOL    HW118956   0.649   0.429  13.264 -1.5205  0.1576  1.9824
 2498SOL    HW218957   0.767   0.343  13.261 -0.6420 -0.0149  0.3238
 2499SOL     OW18958   2.767   3.594   8.450 -0.1476 -0.5431 -0.6418
 2499SOL    HW118959   2.800   3.683   8.443  3.0105 -1.6572 -0.0468
 2499SOL    HW218960   2.688   3.603   8.396 -0.6001  0.6384  0.1989
 2500SOL     OW18961   2.467   4.670   8.818 -0.6764  0.4006 -0.0080
 2500SOL    HW118962   2.375   4.657   8.841 -0.4687 -0.2794  0.4127
 2500SOL    HW218963   2.471   0.045   8.810  1.4874  0.2753 -0.4723
 2501SOL     OW18964   0.812   2.894  15.876  0.3809 -0.2720 -0.3770
 2501SOL    HW118965   0.905   2.910  15.892  0.7060 -1.3787 -1.1865
 2501SOL    HW218966   0.813   2.846  15.793  0.1084  0.4281 -0.7875
 2502SOL     OW18967   3.502   3.518   8.864 -0.5845 -0.3477 -0.1603
 2502SOL    HW118968   3.585   3.565   8.853 -1.9131  2.7757  3.1328
 2502SOL    HW218969   3.487   3.511   8.958  0.7839  0.7003  0.1443
 2503SOL     OW18970   2.097   3.126  17.585  0.5528 -0.2967 -0.7188
 2503SOL    HW118971   2.084   3.054  17.524 -0.2300 -0.0890 -0.7995
 2503SOL    HW218972   2.173   3.096  17.635  1.1849 -0.1158 -1.5771
 2504SOL     OW18973   0.355   0.159   4.581  0.0231  0.4006  0.2870
 2504SOL    HW118974   0.401   0.082   4.613 -0.9358 -0.5558 -0.6196
 2504SOL    HW218975   0.284   0.173   4.644  0.2827  0.1308  0.6362
 2505SOL     OW18976   0.962   3.864   7.919 -0.1017 -0.3821 -0.5442
 2505SOL    HW118977   0.988   3.918   7.844 -0.3081 -1.3069 -1.2791
 2505SOL    HW218978   0.875   3.832   7.897  0.0180  0.2007 -1.8571
 2506SOL     OW18979   3.080   0.200   3.151  0.0244  0.3891  0.0935
 2506SOL    HW118980   3.094   0.110   3.177 -0.0514  0.6393  0.9793
 2506SOL    HW218981   2.985   0.196   3.159  0.0733 -4.3167 -1.5855
 2507SOL     OW18982   3.527   4.531   8.715  0.0010 -0.0698  0.0569
 2507SOL    HW118983   3.519   4.552   8.808 -1.6877 -0.6536  0.0506
 2507SOL    HW218984   3.593   4.588   8.677 -1.0491  1.2983  0.2657
 2508SOL     OW18985   2.109   2.363   2.805  0.4786  0.6765  0.2436
 2508SOL    HW118986   2.137   2.355   2.714 -0.4084 -2.1853  0.2207
 2508SOL    HW218987   2.026   2.315   2.814  1.4749 -0.9893  0.5722
 2509SOL     OW18988   2.037   2.725   3.349  0.6617  0.4762  0.1869
 2509SOL    HW118989   2.050   2.707   3.442 -2.4235 -1.6329  0.1936
 2509SOL    HW218990   2.124   2.712   3.310  0.5458 -0.5954  0.2852
 2510SOL     OW18991   2.036   0.124   7.404 -0.3630  0.4333 -0.8317
 2510SOL    HW118992   2.068   0.090   7.321 -0.3719 -0.0409 -0.6395
 2510SOL    HW218993   2.091   0.077   7.467  0.4758  2.2573 -0.2084
 2511SOL     OW18994   4.441   0.597   3.047  0.2048  0.5373 -0.6679
 2511SOL    HW118995   4.451   0.502   3.058 -0.3916  0.6752  1.0099
 2511SOL    HW218996   4.505   0.620   3.113 -1.3014 -0.3804  1.1106
 2512SOL     OW18997   0.180   3.847  15.498 -0.0832  0.2064  0.3772
 2512SOL    HW118998   0.093   3.886  15.499 -0.2459 -0.1646  0.4798
 2512SOL    HW218999   0.239   3.921  15.516 -0.8087  0.8814 -0.0081
 2513SOL     OW19000   0.552   3.269   2.607 -0.1252  0.2188 -0.5081
 2513SOL    HW119001   0.586   3.210   2.674  1.1898  0.2666 -1.1259
 2513SOL    HW219002   0.597   3.235   2.530 -2.7298 -1.7649 -1.1030
 2514SOL     OW19003   2.342   4.030   8.359  0.2111  0.5219 -1.0369
 2514SOL    HW119004   2.383   4.088   8.423  1.2974 -1.6708  0.2682
 2514SOL    HW219005   2.265   3.995   8.403  0.7616  0.4392 -0.1268
 2515SOL     OW19006   4.552   0.290   8.879 -0.1195 -0.0040 -0.0854
 2515SOL    HW119007   4.517   0.337   8.955 -0.3228 -0.5238  0.1444
 2515SOL    HW219008   4.476   0.252   8.836 -1.0444  1.5457  0.1881
 2516SOL     OW19009   1.522   4.457   8.265  0.0818  0.0925 -0.4360
 2516SOL    HW119010   1.567   4.380   8.229  0.9409  1.5410 -2.4573
 2516SOL    HW219011   1.559   4.444   8.353  1.9124  0.2508 -1.1933
 2517SOL     OW19012   2.302   2.801   3.906  0.2959  0.6014  0.4317
 2517SOL    HW119013   2.325   2.751   3.828  1.9609  0.2901  1.1263
 2517SOL    HW219014   2.240   2.738   3.944 -2.0282  1.1952 -2.3312
 2518SOL     OW19015   0.247   2.576   4.141  0.3907 -0.4965  0.4126
 2518SOL    HW119016   0.258   2.492   4.098  0.1004 -0.0091 -0.6179
 2518SOL    HW219017   0.155   2.567   4.165  0.1977 -0.6397 -0.4151
 2519SOL     OW19018   1.918   3.510   2.455  0.6778 -0.0964  0.1783
 2519SOL    HW119019   2.000   3.460   2.459 -0.0715 -1.1933  1.9506
 2519SOL    HW219020   1.923   3.571   2.381 -0.5979 -1.4430 -1.0266
 2520SOL     OW19021   1.028   1.834  10.074 -0.5231  0.2035  0.0082
 2520SOL    HW119022   0.969   1.777  10.123 -0.0495 -1.1849 -1.0038
 2520SOL    HW219023   1.067   1.877  10.149 -1.6239  2.1675 -0.5638
 2521SOL     OW19024   4.206   0.680   5.557  0.3167 -0.0582 -0.3495
 2521SOL    HW119025   4.164   0.676   5.643  2.0736  0.3678  0.5413
 2521SOL    HW219026   4.145   0.622   5.512  1.3352 -0.9615 -0.5620
 2522SOL     OW19027   0.496   1.706  12.017 -0.1679 -0.6785 -0.0227
 2522SOL    HW119028   0.401   1.703  12.015 -0.1668 -0.1196 -0.9781
 2522SOL    HW219029   0.522   1.647  12.088 -0.7542 -2.2334 -1.1153
 2523SOL     OW19030   3.652   1.524   3.750  0.0317  0.2935  0.1483
 2523SOL    HW119031   3.578   1.534   3.690  0.0941  0.8205  0.1653
 2523SOL    HW219032   3.641   1.431   3.772 -1.8635  0.5957  0.4859
 2524SOL     OW19033   0.579   0.677   7.473 -0.3599  0.2134  0.0524
 2524SOL    HW119034   0.658   0.682   7.527  1.9021 -0.5882 -3.1670
 2524SOL    HW219035   0.611   0.724   7.396 -1.2048 -0.3300 -0.6304
 2525SOL     OW19036   0.269   2.291   9.857 -0.0519  0.0073  0.0568
 2525SOL    HW119037   0.262   2.375   9.902 -0.1129  0.1954 -0.3062
 2525SOL    HW219038   0.268   2.314   9.764  1.0551 -2.2906 -0.5036
 2526SOL     OW19039   0.085   0.639   9.462  0.0450  0.1067  0.1537
 2526SOL    HW119040   0.066   0.717   9.410 -0.8819 -0.3606 -0.2150
 2526SOL    HW219041   0.174   0.616   9.434 -0.8550 -1.6341 -1.3108
 2527SOL     OW19042   3.631   3.256   6.518  0.1660  0.2005  0.2890
 2527SOL    HW119043   3.559   3.194   6.531  2.4139 -2.1913  1.4303
 2527SOL    HW219044   3.606   3.285   6.431  0.9136 -0.9161 -0.2951
 2528SOL     OW19045   2.495   1.195   4.527  0.0681  0.0019  0.5474
 2528SOL    HW119046   2.481   1.287   4.504  2.5491  1.0093  3.0133
 2528SOL    HW219047   2.526   1.211   4.616  1.0550  0.0660  0.1911
 2529SOL     OW19048   3.617   0.852   5.010 -0.1857  0.0278 -0.5001
 2529SOL    HW119049   3.649   0.762   5.017 -1.3661 -0.2420  1.4176
 2529SOL    HW219050   3.686   0.880   4.950  1.5591 -2.8501  0.1912
 2530SOL     OW19051   2.031   1.250   5.580  0.2785  0.3470 -0.3682
 2530SOL    HW119052   2.032   1.341   5.609  0.4666  0.0359  0.6231
 2530SOL    HW219053   2.020   1.208   5.665  0.5361 -2.5612 -1.7768
 2531SOL     OW19054   3.012   0.139   2.063  0.9654  0.1076  0.2142
 2531SOL    HW119055   3.083   0.074   2.058  1.3703  0.5008  0.7827
 2531SOL    HW219056   3.062   0.204   2.013 -0.3035 -0.2315 -1.4858
 2532SOL     OW19057   0.894   0.808  15.937  0.0768 -0.0076 -0.0837
 2532SOL    HW119058   0.856   0.833  16.021  0.2600  0.5105 -0.1553
 2532SOL    HW219059   0.866   0.886  15.888  0.4937 -0.3899 -0.9305
 2533SOL     OW19060   4.032   3.609   0.797 -0.1542 -0.1381  0.5084
 2533SOL    HW119061   3.961   3.610   0.862  0.3706 -1.1633  1.0916
 2533SOL    HW219062   4.113   3.615   0.847  1.1257  2.1093 -1.8238
 2534SOL     OW19063   3.406   2.470   5.361  0.4706 -0.0523  0.1008
 2534SOL    HW119064   3.384   2.428   5.278  1.0210  0.3667 -0.2603
 2534SOL    HW219065   3.345   2.544   5.365  0.9530  0.3655 -0.1990
 2535SOL     OW19066   4.161   4.602   6.282  0.6606 -0.2987  0.0783
 2535SOL    HW119067   4.221   4.596   6.208 -0.8223  0.2961 -1.1639
 2535SOL    HW219068   4.133   4.693   6.281 -1.7481 -1.0854 -3.8357
 2536SOL     OW19069   2.852   2.046  12.672 -0.4362  0.3942  0.3451
 2536SOL    HW119070   2.852   2.121  12.730 -2.5300 -0.5117  1.5258
 2536SOL    HW219071   2.766   2.056  12.630 -0.7691  0.0196  0.9365
 2537SOL     OW19072   4.526   1.720   2.158 -0.0888 -0.1467  0.1871
 2537SOL    HW119073   4.496   1.709   2.068 -0.1077 -1.4010  0.3464
 2537SOL    HW219074   4.521   1.627   2.181 -2.1544  0.2821  1.4647
 2538SOL     OW19075   2.194   0.510   4.145 -0.0706  0.1205  0.3961
 2538SOL    HW119076   2.171   0.575   4.079  1.0672  0.5190  0.3921
 2538SOL    HW219077   2.279   0.541   4.178  1.0966 -3.0890  0.5109
 2539SOL     OW19078   4.535   1.641   2.863 -0.1590 -0.5612  0.5918
 2539SOL    HW119079   4.481   1.580   2.812  1.4085 -0.4614 -1.1898
 2539SOL    HW219080   4.613   1.586   2.859 -0.2679 -0.6666 -0.1121
 2540SOL     OW19081   4.307   1.981   8.710  0.0690 -0.3282 -0.3284
 2540SOL    HW119082   4.257   2.060   8.692  0.8571 -0.4156 -3.0333
 2540SOL    HW219083   4.348   1.981   8.623 -1.4125 -0.3718 -1.0165
 2541SOL     OW19084   3.296   1.821   9.266 -0.2792  0.0857  0.2094
 2541SOL    HW119085   3.267   1.896   9.319  0.4068  0.3242  0.2528
 2541SOL    HW219086   3.373   1.852   9.219 -0.7024  0.5771 -0.1599
 2542SOL     OW19087   3.064   0.998  12.338 -0.4927 -0.1980 -0.4955
 2542SOL    HW119088   3.160   1.007  12.345 -0.3708 -3.2697  2.0730
 2542SOL    HW219089   3.058   0.904  12.320  0.7745  0.1968 -3.0101
 2543SOL     OW19090   3.853   1.380  13.819  0.0305 -0.0800  0.1951
 2543SOL    HW119091   3.889   1.421  13.897  0.8777  2.4114 -1.4984
 2543SOL    HW219092   3.839   1.293  13.856  0.2917  0.2234  1.0066
 2544SOL     OW19093   1.765   3.423  14.660  0.0010  0.7056 -0.1243
 2544SOL    HW119094   1.788   3.348  14.714  0.6589  0.4971 -0.6990
 2544SOL    HW219095   1.849   3.452  14.623  1.0499 -3.8702 -1.3435
 2545SOL     OW19096   3.620   3.993   2.583 -0.0565 -0.2646 -0.2924
 2545SOL    HW119097   3.635   3.905   2.548  2.4955 -0.1340  0.4725
 2545SOL    HW219098   3.704   4.036   2.566 -0.1131 -0.0068  0.1000
 2546SOL     OW19099   3.857   0.185   8.445 -0.2125  0.0145 -0.8881
 2546SOL    HW119100   3.876   0.140   8.363  1.0255 -0.1682 -0.5094
 2546SOL    HW219101   3.762   0.178   8.453  0.0531 -0.2015  2.2704
 2547SOL     OW19102   3.937   1.517   1.752 -0.1771 -0.4390 -0.3376
 2547SOL    HW119103   3.982   1.569   1.819 -0.4393 -1.3838  0.5643
 2547SOL    HW219104   3.855   1.567   1.746  0.6539  1.2493  2.2653
 2548SOL     OW19105   2.424   3.652   4.190 -0.1562  0.0198 -0.0713
 2548SOL    HW119106   2.445   3.744   4.172  0.1956  0.1142  0.8346
 2548SOL    HW219107   2.340   3.651   4.145  0.2096 -0.7292 -0.7494
 2549SOL     OW19108   3.393   2.809   8.849 -0.3160 -0.3683 -0.6762
 2549SOL    HW119109   3.446   2.797   8.928 -1.2074 -0.9457 -0.1697
 2549SOL    HW219110   3.301   2.794   8.869 -0.5385 -1.3633 -2.4597
 2550SOL     OW19111   0.144   3.273  10.966 -0.0895  0.2922 -0.2942
 2550SOL    HW119112   0.128   3.201  11.027 -2.6761  0.5959 -0.6174
 2550SOL    HW219113   0.053   3.302  10.954 -0.8017 -1.0402  1.8935
 2551SOL     OW19114   2.653   2.770   5.464  0.2828 -0.0843  0.0955
 2551SOL    HW119115   2.663   2.741   5.373 -0.1049  1.3144 -0.3966
 2551SOL    HW219116   2.690   2.856   5.443  2.2333 -1.0380 -0.4013
 2552SOL     OW19117   4.428   4.098   7.253 -0.0673  0.3578 -0.0366
 2552SOL    HW119118   4.386   4.017   7.226 -1.4359  0.0351  3.0238
 2552SOL    HW219119   4.362   4.166   7.238  0.2673  0.9161  1.0023
 2553SOL     OW19120   4.093   1.356   3.091  0.4269  0.3551  0.4005
 2553SOL    HW119121   4.117   1.414   3.163  2.0429  1.1619 -0.7912
 2553SOL    HW219122   4.016   1.407   3.065  0.8013 -0.2487 -1.9357
 2554SOL     OW19123   2.023   2.610  10.054 -0.0443 -0.9384 -0.1745
 2554SOL    HW119124   2.073   2.679  10.100 -0.2815 -0.8318 -0.0779
 2554SOL    HW219125   1.946   2.663  10.035  0.3611 -1.3133 -2.8424
 2555SOL     OW19126   1.645   0.959   3.291 -0.0235  0.4901  0.2876
 2555SOL    HW119127   1.579   1.027   3.281 -0.4732  0.1044  0.5988
 2555SOL    HW219128   1.696   0.977   3.213 -1.7062 -1.0120 -1.1871
 2556SOL     OW19129   2.904   3.108  10.311 -0.2332 -0.5494 -0.3512
 2556SOL    HW119130   2.835   3.111  10.245 -0.7848  0.2134  0.2653
 2556SOL    HW219131   2.972   3.068  10.256 -1.1636  0.2124 -2.0659
 2557SOL     OW19132   3.925   0.412   6.479  0.0162 -0.1011  0.6539
 2557SOL    HW119133   3.897   0.501   6.455  0.1734  0.4619  2.5924
 2557SOL    HW219134   3.870   0.356   6.423  0.5229  0.1700 -0.1228
 2558SOL     OW19135   1.732   2.158   6.836 -0.1237 -0.2048 -0.5895
 2558SOL    HW119136   1.662   2.207   6.878  1.3694 -0.1672  1.9125
 2558SOL    HW219137   1.751   2.097   6.908 -3.2060 -1.4089 -0.7995
 2559SOL     OW19138   0.724   4.709   5.883 -0.7343 -0.5048  0.1105
 2559SOL    HW119139   0.706   0.048   5.955  0.9592 -0.1946  0.2769
 2559SOL    HW219140   0.815   4.682   5.893 -0.4406  1.4756  2.7209
 2560SOL     OW19141   0.984   3.084   3.291  0.4036  0.5933  0.0955
 2560SOL    HW119142   1.056   3.021   3.298  0.8434  1.1749  0.8170
 2560SOL    HW219143   1.031   3.166   3.274  3.7350 -1.0064  1.5707
 2561SOL     OW19144   1.755   2.720   5.973 -0.2259  0.3894  0.2832
 2561SOL    HW119145   1.842   2.733   5.933  0.0200 -2.5672 -0.1096
 2561SOL    HW219146   1.783   2.662   6.043  1.5976  2.2280  1.0863
 2562SOL     OW19147   3.187   1.937   7.260 -0.0777  0.3951 -0.1859
 2562SOL    HW119148   3.224   1.946   7.173 -0.3406 -0.6580 -0.4114
 2562SOL    HW219149   3.263   1.988   7.289 -0.7910  1.9254 -1.0447
 2563SOL     OW19150   1.420   1.176   2.246 -0.2364 -0.3610 -0.0020
 2563SOL    HW119151   1.407   1.083   2.231 -0.8018 -0.4333  0.9564
 2563SOL    HW219152   1.474   1.198   2.170 -0.5006  0.3369  0.0142
 2564SOL     OW19153   1.456   1.730  13.426 -0.6295  0.2410 -0.0419
 2564SOL    HW119154   1.426   1.663  13.366 -0.0467 -0.3149  0.2846
 2564SOL    HW219155   1.515   1.678  13.481 -2.1151 -0.6848  0.6907
 2565SOL     OW19156   1.809   1.872   3.689 -0.1353 -0.2901  0.2598
 2565SOL    HW119157   1.726   1.874   3.736 -0.6604 -1.3639 -0.6138
 2565SOL    HW219158   1.816   1.966   3.675 -1.0223 -0.1450  0.8368
 2566SOL     OW19159   3.124   4.021   7.958  0.4602 -0.1860 -0.2772
 2566SOL    HW119160   3.097   4.012   8.050 -0.2087 -0.2766 -0.4811
 2566SOL    HW219161   3.156   3.932   7.941 -0.2198 -0.3245 -0.8507
 2567SOL     OW19162   3.711   1.471   5.246 -0.2776  0.5428 -0.3291
 2567SOL    HW119163   3.668   1.510   5.170 -1.4413  0.5983  0.3707
 2567SOL    HW219164   3.803   1.484   5.221 -0.7534  0.7601 -1.9375
 2568SOL     OW19165   3.987   4.181  14.562 -0.6986 -0.0292  0.0272
 2568SOL    HW119166   4.060   4.162  14.622  0.5446 -1.0395 -1.7903
 2568SOL    HW219167   3.930   4.238  14.613  0.1953  0.5332  0.3850
 2569SOL     OW19168   0.457   2.916   8.769 -0.1735 -0.1468  0.2056
 2569SOL    HW119169   0.512   2.952   8.699  0.7662 -0.2150  0.9013
 2569SOL    HW219170   0.454   2.829   8.729  1.7825  0.0282 -0.3459
 2570SOL     OW19171   1.516   3.444  14.598 -0.1993  0.1675 -0.0222
 2570SOL    HW119172   1.606   3.444  14.631  0.0157 -1.0787 -0.5937
 2570SOL    HW219173   1.535   3.478  14.511 -0.7911  0.0623 -0.1914
 2571SOL     OW19174   4.652   0.952   8.012 -0.8479  0.0072 -0.0546
 2571SOL    HW119175   4.683   1.041   8.030 -0.9637 -0.1478  0.9520
 2571SOL    HW219176   4.693   0.935   7.928  1.7869  0.3131  1.1726
 2572SOL     OW19177   0.600   3.992   4.572 -0.0419  0.5742 -0.1492
 2572SOL    HW119178   0.524   4.026   4.525 -1.1156  0.1694  1.2958
 2572SOL    HW219179   0.622   4.072   4.620  0.5455 -0.5844  1.5182
 2573SOL     OW19180   0.268   4.640   7.973  0.6872 -0.9333 -0.2448
 2573SOL    HW119181   0.192   4.585   7.953  0.5837 -0.5579 -0.8790
 2573SOL    HW219182   0.232   4.678   8.053 -0.2079 -0.0055 -1.0823
 2574SOL     OW19183   0.200   3.842   8.044  0.2932  0.0856 -0.2246
 2574SOL    HW119184   0.168   3.880   8.126 -0.6097  1.8132 -1.3808
 2574SOL    HW219185   0.222   3.754   8.074  0.9596  0.6800  1.0117
 2575SOL     OW19186   1.077   3.028   5.057  0.3150 -0.2893 -0.0804
 2575SOL    HW119187   1.120   3.013   4.973 -0.7823  0.0006 -0.6884
 2575SOL    HW219188   0.988   3.030   5.020  1.0082 -1.4455 -1.8020
 2576SOL     OW19189   3.159   2.526   2.563 -0.0968 -0.0171  0.6420
 2576SOL    HW119190   3.067   2.516   2.536  0.6190  0.4946 -1.9549
 2576SOL    HW219191   3.186   2.558   2.477 -0.9925 -0.1312  0.3090
 2577SOL     OW19192   2.137   0.668  14.499 -0.4619  0.2989  0.0857
 2577SOL    HW119193   2.105   0.758  14.505 -0.5383  0.1885  1.4368
 2577SOL    HW219194   2.060   0.612  14.501  0.3016 -0.7809 -0.8612
 2578SOL     OW19195   3.210   0.646   6.022 -0.3666 -0.3019 -0.1902
 2578SOL    HW119196   3.135   0.664   6.079 -0.3970  2.5386 -1.1084
 2578SOL    HW219197   3.279   0.645   6.088  1.0484  0.7629 -1.6717
 2579SOL     OW19198   2.243   4.292   7.548 -0.4771  0.2307  0.2935
 2579SOL    HW119199   2.276   4.252   7.467  0.4774 -0.7757  1.1821
 2579SOL    HW219200   2.157   4.252   7.558 -1.3632  2.5925  2.1505
 2580SOL     OW19201   2.435   3.292   7.657  0.0465  0.2874  0.4889
 2580SOL    HW119202   2.505   3.356   7.646  0.5705 -0.3373  0.1937
 2580SOL    HW219203   2.395   3.300   7.571  0.5989  0.8190  0.2847
 2581SOL     OW19204   3.989   0.586  16.016  0.1969 -0.3792  0.3872
 2581SOL    HW119205   4.022   0.584  16.106  0.6836  0.5645  0.2318
 2581SOL    HW219206   3.922   0.519  16.027 -0.6051  0.4251  0.3312
 2582SOL     OW19207   2.634   4.514   5.906 -0.1602 -0.1643 -0.4607
 2582SOL    HW119208   2.664   4.434   5.862 -0.1238  0.0896 -0.9006
 2582SOL    HW219209   2.539   4.500   5.907 -0.2449  0.6181  1.8864
 2583SOL     OW19210   1.145   0.179   4.024 -0.1455 -0.0590 -0.9669
 2583SOL    HW119211   1.106   0.095   4.001  0.2839 -0.1083 -1.4923
 2583SOL    HW219212   1.214   0.141   4.078 -2.4232  1.4327  3.0519
 2584SOL     OW19213   1.332   2.465   6.404 -0.0969  1.0429 -0.2446
 2584SOL    HW119214   1.366   2.554   6.391  0.0732  1.0543  0.2676
 2584SOL    HW219215   1.263   2.483   6.467 -1.0999 -0.5531 -0.8999
 2585SOL     OW19216   2.360   3.618   4.650 -0.9106 -0.6727  0.2130
 2585SOL    HW119217   2.448   3.604   4.685 -1.2071 -2.6511  0.1780
 2585SOL    HW219218   2.315   3.683   4.703 -0.1339 -0.4304  0.5805
 2586SOL     OW19219   2.772   0.093   9.816  0.0416 -0.4526 -0.1299
 2586SOL    HW119220   2.826   0.125   9.744 -0.8743 -2.5479 -1.7555
 2586SOL    HW219221   2.691   0.066   9.773  0.0490 -1.5202  0.5451
 2587SOL     OW19222   3.183   2.828   6.626  0.1995  0.6911 -0.8527
 2587SOL    HW119223   3.252   2.873   6.676  0.1803 -2.3533  1.8832
 2587SOL    HW219224   3.160   2.890   6.556 -2.0197  0.9042  0.0702
 2588SOL     OW19225   4.697   2.462   6.064  0.1359 -0.2439  0.4451
 2588SOL    HW119226   0.068   2.447   6.088 -0.5357 -1.5964  2.1750
 2588SOL    HW219227   4.678   2.555   6.069 -1.8488 -0.7437  2.4116
 2589SOL     OW19228   2.707   3.867   2.706 -0.3390  0.0142 -0.3273
 2589SOL    HW119229   2.735   3.882   2.796  0.4083  1.9619 -0.8892
 2589SOL    HW219230   2.790   3.881   2.662 -1.3235  1.4583 -1.7558
 2590SOL     OW19231   4.490   0.924   6.650 -0.1925  0.0442  0.4973
 2590SOL    HW119232   4.526   0.836   6.634 -1.1199  0.0040 -1.3304
 2590SOL    HW219233   4.498   0.934   6.745 -2.3503 -1.7533  0.8791
 2591SOL     OW19234   0.510   0.152  16.517  0.3157 -0.2761  0.1516
 2591SOL    HW119235   0.492   0.157  16.611 -2.2783 -0.1449 -0.3583
 2591SOL    HW219236   0.434   0.100  16.490  0.8431 -1.0350  0.1063
 2592SOL     OW19237   0.131   4.392   4.968 -0.0533  0.7489  0.0735
 2592SOL    HW119238   0.080   4.395   5.049  0.5259 -1.5667  0.5114
 2592SOL    HW219239   0.062   4.405   4.902 -1.3872 -0.8257  1.1499
 2593SOL     OW19240   4.255   2.803   7.092  0.3519 -0.0456 -0.6559
 2593SOL    HW119241   4.247   2.852   7.174  0.2103  2.4885 -2.1755
 2593SOL    HW219242   4.168   2.814   7.055 -0.0864 -1.6139 -0.0619
 2594SOL     OW19243   2.088   2.071   4.577  0.0139  0.4658 -0.4347
 2594SOL    HW119244   2.166   2.118   4.604 -0.0967  0.6187 -0.3867
 2594SOL    HW219245   2.022   2.139   4.585  1.4176  1.5683  1.4702
 2595SOL     OW19246   0.430   0.335   6.137  0.2350  0.3395  0.2583
 2595SOL    HW119247   0.392   0.421   6.118  0.1686  0.8314  2.6433
 2595SOL    HW219248   0.442   0.329   6.232 -1.4034  1.8746  0.5519
 2596SOL     OW19249   2.360   2.093  12.761  0.0232 -0.0059  0.2695
 2596SOL    HW119250   2.331   2.182  12.781  0.5147 -0.0446  1.1543
 2596SOL    HW219251   2.446   2.102  12.720  0.3448  2.6247  1.5233
 2597SOL     OW19252   1.378   3.095   7.641 -0.1938  0.0349 -0.3949
 2597SOL    HW119253   1.400   3.182   7.607 -1.3984 -0.3026 -2.0502
 2597SOL    HW219254   1.354   3.055   7.558 -0.3319 -1.9287  0.6022
 2598SOL     OW19255   0.566   0.257   7.043 -0.0854 -0.0244  0.2615
 2598SOL    HW119256   0.560   0.161   7.045 -0.9709  0.0921  3.0844
 2598SOL    HW219257   0.530   0.267   7.131 -0.8871 -0.7975  0.0301
 2599SOL     OW19258   1.068   0.219   3.258  0.2229  0.2614 -0.4086
 2599SOL    HW119259   1.081   0.166   3.180 -0.4276 -4.2168  2.4959
 2599SOL    HW219260   1.110   0.301   3.232  1.6187  0.5981  2.8942
 2600SOL     OW19261   3.909   0.371  16.445 -0.9122 -0.0643  0.3749
 2600SOL    HW119262   3.907   0.288  16.398 -3.3632  0.4846 -0.4968
 2600SOL    HW219263   3.962   0.335  16.516  0.8538  0.1347 -0.8380
 2601SOL     OW19264   4.516   0.537   2.126  0.7844  0.0270 -0.2734
 2601SOL    HW119265   4.451   0.585   2.074 -0.1915  0.5039  1.3706
 2601SOL    HW219266   4.460   0.527   2.203  0.1288 -1.6141 -0.9483
 2602SOL     OW19267   0.494   0.415   7.995 -0.7329  0.1930  0.6423
 2602SOL    HW119268   0.419   0.357   8.014 -0.4693 -0.3341  0.0663
 2602SOL    HW219269   0.547   0.416   8.075 -0.5399  1.3625  0.5020
 2603SOL     OW19270   2.334   4.217  15.948  0.1844 -0.5943  0.1479
 2603SOL    HW119271   2.350   4.278  16.021  2.6559  0.0777 -0.9658
 2603SOL    HW219272   2.413   4.233  15.898 -0.4858  0.0984 -0.7001
 2604SOL     OW19273   3.392   2.862   2.239  0.3424  0.2237 -0.1790
 2604SOL    HW119274   3.460   2.898   2.183  0.0510  1.7203  0.4264
 2604SOL    HW219275   3.349   2.941   2.273  0.8604  0.7889 -0.8398
 2605SOL     OW19276   2.797   4.116   8.592 -0.1289  0.1842  0.2653
 2605SOL    HW119277   2.855   4.167   8.647  0.2013  1.1595 -0.9725
 2605SOL    HW219278   2.718   4.115   8.646 -1.0922  0.0977 -1.1309
 2606SOL     OW19279   0.293   0.418   4.211  0.5054  0.4391 -0.2781
 2606SOL    HW119280   0.362   0.407   4.145  1.3417  0.5639  0.5652
 2606SOL    HW219281   0.249   0.334   4.200  1.8147 -0.2303 -0.3984
 2607SOL     OW19282   1.799   3.262   9.196  0.4214  0.3367 -0.1557
 2607SOL    HW119283   1.742   3.217   9.259 -0.4490 -2.3266 -2.8455
 2607SOL    HW219284   1.856   3.202   9.147  1.0174 -0.2432  1.2326
 2608SOL     OW19285   4.571   3.929   6.524 -0.2450  0.3839 -0.4896
 2608SOL    HW119286   4.575   3.917   6.619 -0.6676  1.6673 -0.3084
 2608SOL    HW219287   4.664   3.924   6.502  0.0980  3.5622  0.2612
 2609SOL     OW19288   2.572   1.622  17.464 -0.8647  0.7954 -0.6151
 2609SOL    HW119289   2.493   1.661  17.425 -0.6685 -1.6044 -3.4277
 2609SOL    HW219290   2.638   1.622  17.395 -0.2571  1.6541 -0.0196
 2610SOL     OW19291   0.176   3.853   5.984  0.6452 -0.0232 -0.3117
 2610SOL    HW119292   0.126   3.784   5.940 -1.3686  1.2274 -0.0093
 2610SOL    HW219293   0.264   3.842   5.950 -0.2423 -1.4699 -2.1611
 2611SOL     OW19294   1.798   0.308   4.890  0.0750 -0.3807 -0.1534
 2611SOL    HW119295   1.715   0.356   4.896 -1.3332 -2.8742  0.1409
 2611SOL    HW219296   1.798   0.263   4.975 -0.6283 -0.5835 -0.2626
 2612SOL     OW19297   1.680   4.314  14.652  0.3634 -0.2353  0.7482
 2612SOL    HW119298   1.605   4.261  14.626  0.5124 -0.8223  1.5012
 2612SOL    HW219299   1.738   4.241  14.631 -0.2230 -0.1796 -1.0824
 2613SOL     OW19300   2.935   1.827   5.752 -0.2870  0.1559  0.1849
 2613SOL    HW119301   2.940   1.734   5.729 -0.2126  0.2257 -0.0824
 2613SOL    HW219302   2.935   1.872   5.668  0.3697  1.2418  0.7758
 2614SOL     OW19303   1.683   1.893  16.803 -0.0853 -0.6639  0.4503
 2614SOL    HW119304   1.616   1.830  16.827 -0.0413 -0.5326  0.9238
 2614SOL    HW219305   1.628   1.971  16.796 -1.0577 -1.1926  2.0786
 2615SOL     OW19306   2.654   3.547   7.596  0.2841 -0.8667  0.2138
 2615SOL    HW119307   2.723   3.606   7.626  0.1564 -1.4366  1.6118
 2615SOL    HW219308   2.587   3.614   7.608  1.9493  1.1310 -1.5421
 2616SOL     OW19309   3.619   4.619  11.920 -0.1978 -0.3521 -0.2494
 2616SOL    HW119310   3.640   4.712  11.912 -0.7063 -0.2298 -0.2067
 2616SOL    HW219311   3.550   4.625  11.986  0.4162 -1.4772  0.4944
 2617SOL     OW19312   3.013   4.576   8.333  0.3489  0.0674 -0.1784
 2617SOL    HW119313   3.106   4.553   8.342  0.5127  0.0050 -1.9446
 2617SOL    HW219314   2.997   4.628   8.411  0.3513  1.1168 -0.8804
 2618SOL     OW19315   3.577   2.175   8.924  0.1836 -0.0270  0.5395
 2618SOL    HW119316   3.542   2.231   8.855  0.7312  1.6811  1.6299
 2618SOL    HW219317   3.657   2.138   8.887 -1.5925 -1.9181 -1.4171
 2619SOL     OW19318   1.128   1.255   8.221  0.0542  0.2935 -0.3544
 2619SOL    HW119319   1.052   1.209   8.257 -0.1359  0.5232 -0.4603
 2619SOL    HW219320   1.189   1.242   8.293  1.3063  0.1873 -1.4460
 2620SOL     OW19321   1.842   0.280  17.559 -0.3084 -0.2357  0.0779
 2620SOL    HW119322   1.836   0.375  17.567  0.9405  0.0214 -2.1461
 2620SOL    HW219323   1.932   0.264  17.532 -0.3660 -0.0269 -0.2316
 2621SOL     OW19324   3.058   1.428   6.643 -0.1022  0.1138 -0.8672
 2621SOL    HW119325   2.964   1.424   6.656  0.1110  0.3182  0.7250
 2621SOL    HW219326   3.093   1.357   6.697  0.6919  0.8903 -0.3577
 2622SOL     OW19327   0.100   2.468  17.567 -0.3395 -0.2172  0.0268
 2622SOL    HW119328   0.067   2.475  17.656  1.3479 -1.1231  0.7185
 2622SOL    HW219329   0.043   2.536  17.532  1.0669  0.6692 -0.5201
 2623SOL     OW19330   2.538   4.052   9.107  0.0857 -0.7637 -0.2603
 2623SOL    HW119331   2.571   3.967   9.135  0.1939 -0.4950  0.4182
 2623SOL    HW219332   2.445   4.032   9.118 -0.2017  0.2729 -0.7663
 2624SOL     OW19333   3.248   4.386   6.045  0.3772 -0.0702  0.5124
 2624SOL    HW119334   3.207   4.455   6.097  0.4423 -2.0414  3.1886
 2624SOL    HW219335   3.341   4.403   6.059  0.2647  0.1484  1.0063
 2625SOL     OW19336   3.181   0.222   3.674  0.0939 -0.0038 -0.3165
 2625SOL    HW119337   3.250   0.169   3.634 -0.6737  0.5318 -2.3607
 2625SOL    HW219338   3.229   0.262   3.746  0.2146 -3.6280  1.6084
 2626SOL     OW19339   1.826   3.631   8.025 -0.3282 -0.7004  0.1543
 2626SOL    HW119340   1.774   3.568   8.075  1.7442 -2.2504  0.3327
 2626SOL    HW219341   1.902   3.602   8.075  0.6442 -0.3512 -1.1541
 2627SOL     OW19342   4.119   1.461   5.994  0.0260 -0.2292 -0.4621
 2627SOL    HW119343   4.187   1.407   6.034 -0.0537  1.3442  1.8068
 2627SOL    HW219344   4.050   1.395   5.985  0.4430 -0.6040 -0.9177
 2628SOL     OW19345   4.678   2.005   9.331  0.1029  0.2303 -0.1164
 2628SOL    HW119346   0.004   2.075   9.377 -0.6486 -0.4955  1.7265
 2628SOL    HW219347   0.022   1.956   9.279  0.6571 -0.4263  1.1956
 2629SOL     OW19348   3.312   0.281   9.054  0.5247  0.4746 -0.4387
 2629SOL    HW119349   3.350   0.302   8.969 -1.2962  1.4647 -1.0075
 2629SOL    HW219350   3.218   0.265   9.050  0.7428  0.1588 -4.1155
 2630SOL     OW19351   2.134   3.173   5.089  0.0014  0.0788  0.3283
 2630SOL    HW119352   2.182   3.252   5.115  0.1763  0.6396 -1.6927
 2630SOL    HW219353   2.114   3.131   5.173  2.4869 -3.1194 -0.6985
 2631SOL     OW19354   1.618   0.458   9.472 -0.2492  0.0101 -0.2457
 2631SOL    HW119355   1.622   0.522   9.542 -0.9634 -1.0074  0.7346
 2631SOL    HW219356   1.629   0.503   9.388  1.1287  0.1647  0.0220
 2632SOL     OW19357   2.759   2.431   4.016  0.5506  0.0193  0.0582
 2632SOL    HW119358   2.750   2.507   3.959  0.4071  0.3498  0.5174
 2632SOL    HW219359   2.784   2.359   3.959 -0.1417  0.2153 -0.4863
 2633SOL     OW19360   1.625   0.595   7.136  0.3822 -0.3055  0.1653
 2633SOL    HW119361   1.616   0.569   7.227  1.2684 -2.2381 -0.2809
 2633SOL    HW219362   1.721   0.604   7.138  0.1572  2.0620 -0.1382
 2634SOL     OW19363   1.254   1.142   0.328 -0.2336 -0.4047  0.2576
 2634SOL    HW119364   1.333   1.120   0.379 -0.8626  2.8716  2.7147
 2634SOL    HW219365   1.276   1.091   0.251  1.1680 -1.1480  1.1385
 2635SOL     OW19366   3.864   1.197   6.545 -0.5021  0.2924 -0.2939
 2635SOL    HW119367   3.935   1.193   6.481 -1.7148  1.0277 -1.6933
 2635SOL    HW219368   3.785   1.202   6.489 -0.7351 -0.2857 -0.0160
 2636SOL     OW19369   3.405   1.288  12.406  0.1287  0.3441  0.1431
 2636SOL    HW119370   3.318   1.323  12.427  0.4543  1.0125  0.4100
 2636SOL    HW219371   3.380   1.196  12.401 -0.6066  0.6882 -2.5043
 2637SOL     OW19372   2.028   0.959   3.482  0.8829  0.6743 -0.6268
 2637SOL    HW119373   1.997   0.868   3.479  0.2315  0.8718  0.3606
 2637SOL    HW219374   2.099   0.956   3.546  0.0931  0.9426  0.2541
 2638SOL     OW19375   3.054   2.304   3.831 -0.0169 -0.4627  0.2270
 2638SOL    HW119376   3.108   2.382   3.816 -0.1170 -0.4256  0.0616
 2638SOL    HW219377   2.969   2.324   3.792  1.1812  3.1784 -0.5118
 2639SOL     OW19378   4.350   4.457   8.548 -0.1695  0.3593  0.5016
 2639SOL    HW119379   4.345   4.423   8.458 -2.4981  5.2587 -1.2529
 2639SOL    HW219380   4.434   4.504   8.539 -1.0614  1.7439 -0.6002
 2640SOL     OW19381   1.879   3.685  14.518  0.2538  0.0990 -0.7695
 2640SOL    HW119382   1.918   3.607  14.556 -0.0237 -0.3366 -1.3870
 2640SOL    HW219383   1.908   3.692  14.427  1.9517  3.0797 -0.0080
 2641SOL     OW19384   1.985   4.619   4.545  0.1186 -0.4750 -0.0926
 2641SOL    HW119385   2.009   4.709   4.565  1.0213 -0.2628 -2.1046
 2641SOL    HW219386   2.052   4.573   4.595 -0.2209 -1.7902 -0.8580
 2642SOL     OW19387   1.431   0.632  14.263  0.0719 -0.5083  0.6278
 2642SOL    HW119388   1.429   0.666  14.173 -0.0800  0.3070  0.9390
 2642SOL    HW219389   1.389   0.700  14.315 -0.8914 -0.3264 -0.3789
 2643SOL     OW19390   3.383   1.897   1.275 -0.5737  0.4239 -0.3303
 2643SOL    HW119391   3.424   1.811   1.271  1.1005  1.1777  0.6272
 2643SOL    HW219392   3.294   1.887   1.240 -0.6089 -0.9505  0.1702
 2644SOL     OW19393   1.624   1.884  15.517  0.4553  0.2850  0.4106
 2644SOL    HW119394   1.566   1.917  15.449  1.5455  0.2702 -0.5370
 2644SOL    HW219395   1.711   1.898  15.479  1.1783 -1.8506  1.2687
 2645SOL     OW19396   2.067   4.124   6.571 -0.3870 -0.2180 -0.3676
 2645SOL    HW119397   2.138   4.086   6.518  1.1292  0.6561  1.0209
 2645SOL    HW219398   2.000   4.064   6.541  0.3905 -1.6607  0.7900
 2646SOL     OW19399   2.774   0.301  14.780  0.6156 -0.7505 -0.4872
 2646SOL    HW119400   2.773   0.242  14.704 -0.6640  0.5781 -1.5064
 2646SOL    HW219401   2.694   0.269  14.820  1.4122 -1.6164  0.4155
 2647SOL     OW19402   3.605   3.873   6.249 -0.0272 -0.4296  0.4009
 2647SOL    HW119403   3.577   3.909   6.165 -1.0824 -0.5599  0.7038
 2647SOL    HW219404   3.655   3.950   6.277  0.7688 -0.5402 -0.7230
 2648SOL     OW19405   1.213   2.027   4.707  0.2439  0.1246 -0.3894
 2648SOL    HW119406   1.285   2.088   4.723  0.3950 -0.1852  0.1352
 2648SOL    HW219407   1.199   2.035   4.613 -1.1915 -1.2187 -0.2954
 2649SOL     OW19408   4.643   2.624   7.593 -0.3538 -0.2163  0.4205
 2649SOL    HW119409   4.671   2.707   7.631  2.9455 -0.7057 -0.9430
 2649SOL    HW219410   4.586   2.651   7.522  0.9547  1.1040 -0.1309
 2650SOL     OW19411   0.962   0.435   7.740 -0.2172  0.5278  0.1119
 2650SOL    HW119412   0.942   0.505   7.802  2.3358  1.6997 -0.3840
 2650SOL    HW219413   0.972   0.489   7.661 -1.2129  0.2029 -0.2374
 2651SOL     OW19414   3.101   2.127   8.782  0.5929  0.4870 -0.2473
 2651SOL    HW119415   3.085   2.062   8.714 -1.4219 -1.5795  2.2455
 2651SOL    HW219416   3.158   2.076   8.839 -0.5032  1.1702  1.4657
 2652SOL     OW19417   2.857   1.635  13.572 -0.0290 -0.1691  0.5984
 2652SOL    HW119418   2.874   1.571  13.503 -0.9634 -2.5493  2.5265
 2652SOL    HW219419   2.807   1.705  13.531  2.2494  2.5048  2.3760
 2653SOL     OW19420   2.463   1.963   3.462  0.3866 -0.2216  0.3405
 2653SOL    HW119421   2.476   1.897   3.530  2.1904 -0.0683  0.1595
 2653SOL    HW219422   2.555   1.971   3.437  0.2068  1.8867  0.3731
 2654SOL     OW19423   3.959   2.858   0.794 -0.3495  0.0686  0.3640
 2654SOL    HW119424   3.900   2.886   0.865 -1.2373  0.6308 -0.5944
 2654SOL    HW219425   3.958   2.763   0.806  0.7327 -0.2847 -2.3872
 2655SOL     OW19426   1.388   4.472   7.375 -0.6915  0.0538 -0.2103
 2655SOL    HW119427   1.470   4.423   7.375 -2.1155 -2.3493 -0.5950
 2655SOL    HW219428   1.422   4.546   7.425  1.6917 -1.4982  0.4494
 2656SOL     OW19429   4.563   0.379   7.668 -0.2658 -0.1892  0.3574
 2656SOL    HW119430   4.633   0.399   7.606 -1.9479 -0.5066 -1.6708
 2656SOL    HW219431   4.615   0.390   7.748  2.1825 -1.1719 -1.0931
 2657SOL     OW19432   4.380   3.591  15.237 -0.1451 -0.0827  0.3243
 2657SOL    HW119433   4.348   3.520  15.182 -0.8872  0.6188 -0.1559
 2657SOL    HW219434   4.300   3.593  15.290 -0.7439 -0.9314 -0.5493
 2658SOL     OW19435   2.058   1.713   7.444 -0.1526 -0.1442  1.0585
 2658SOL    HW119436   2.072   1.619   7.458  0.6872 -0.0198  1.0829
 2658SOL    HW219437   2.001   1.714   7.367 -0.7318 -3.2194  1.4632
 2659SOL     OW19438   2.169   0.015  16.123  0.3649 -0.0986  0.0956
 2659SOL    HW119439   2.142   4.691  16.042 -1.1248 -0.6040  0.8576
 2659SOL    HW219440   2.230   0.083  16.096  1.4233 -0.4544  1.5959
 2660SOL     OW19441   0.171   1.710   8.066  0.3421 -0.2500 -0.1537
 2660SOL    HW119442   0.156   1.654   7.990 -1.3623 -1.1683  0.8411
 2660SOL    HW219443   0.206   1.652   8.134 -2.0087 -1.9565 -0.3856
 2661SOL     OW19444   0.118   1.141  12.292 -0.6640 -0.0284 -0.5466
 2661SOL    HW119445   0.155   1.123  12.378  2.1893  1.3211 -1.5094
 2661SOL    HW219446   0.175   1.214  12.271  1.2671 -0.8234  1.9600
 2662SOL     OW19447   3.045   4.211  12.397 -0.3275  0.1545  0.2425
 2662SOL    HW119448   3.124   4.185  12.348 -2.2665 -0.5243 -2.4930
 2662SOL    HW219449   3.045   4.139  12.460  2.0860  1.0802  1.3084
 2663SOL     OW19450   4.004   1.033  12.923  0.0583  0.3341  0.6304
 2663SOL    HW119451   4.035   1.122  12.907 -1.0995  0.4475 -0.9771
 2663SOL    HW219452   3.949   1.006  12.848  1.0133 -0.8377  0.3478
 2664SOL     OW19453   0.594   0.137   3.688  0.7525  0.2134 -0.2615
 2664SOL    HW119454   0.659   0.205   3.705 -0.5059  1.4185 -0.2653
 2664SOL    HW219455   0.654   0.063   3.686  1.8597  1.1098 -0.3336
 2665SOL     OW19456   0.742   3.267   9.201 -0.2411 -0.7440 -0.3989
 2665SOL    HW119457   0.727   3.348   9.250  0.7387 -0.5607 -0.4044
 2665SOL    HW219458   0.651   3.264   9.171 -0.0869 -0.5344 -0.8991
 2666SOL     OW19459   0.819   1.153  16.310 -0.0483 -0.3765 -0.2798
 2666SOL    HW119460   0.853   1.201  16.385  0.2354 -1.2572  0.1573
 2666SOL    HW219461   0.729   1.184  16.300  0.0281 -1.3912 -4.1622
 2667SOL     OW19462   0.246   2.742   8.386 -0.3574  0.4115  0.2678
 2667SOL    HW119463   0.191   2.801   8.438  1.3785  3.4498 -1.3199
 2667SOL    HW219464   0.179   2.682   8.352 -0.7131  1.3513 -0.6805
 2668SOL     OW19465   1.995   0.081   4.075 -0.0951  0.2871  0.3978
 2668SOL    HW119466   2.006   4.706   4.074  0.3601  0.3176  2.4963
 2668SOL    HW219467   2.016   0.098   4.167 -0.8150  0.0946  0.5990
 2669SOL     OW19468   4.019   1.978   8.261 -0.7183 -0.0977 -0.2987
 2669SOL    HW119469   4.027   2.023   8.345  1.8229 -0.2742 -0.4242
 2669SOL    HW219470   4.112   1.966   8.241 -0.6725 -2.4144  1.2017
 2670SOL     OW19471   4.345   1.331   5.840 -0.4162  0.0052 -0.1247
 2670SOL    HW119472   4.353   1.426   5.842  2.1876 -0.2101 -0.4138
 2670SOL    HW219473   4.286   1.323   5.765 -1.5336  0.2155  0.7369
 2671SOL     OW19474   1.779   3.988   2.559 -0.0283 -0.4265 -0.0037
 2671SOL    HW119475   1.769   4.008   2.652 -2.2848  4.7288 -1.3789
 2671SOL    HW219476   1.874   3.978   2.547 -0.1867 -0.0780 -1.4576
 2672SOL     OW19477   1.893   3.628   4.947  0.3651 -0.5396  0.1425
 2672SOL    HW119478   1.914   3.545   4.988  0.2190 -0.7588 -0.2234
 2672SOL    HW219479   1.874   3.607   4.855  2.1369 -2.1225  0.1371
 2673SOL     OW19480   2.161   1.916   8.492 -0.3245 -0.2748  0.0465
 2673SOL    HW119481   2.147   1.933   8.585  0.3060 -0.3401  0.1570
 2673SOL    HW219482   2.074   1.891   8.462 -0.8479  1.4054  0.1774
 2674SOL     OW19483   3.606   0.032  14.121 -0.3802  0.4820 -0.6197
 2674SOL    HW119484   3.683   4.712  14.080 -0.3584 -0.8774  0.7415
 2674SOL    HW219485   3.635   0.123  14.133  1.9524 -0.4746  1.1009
 2675SOL     OW19486   4.133   4.441  12.725  0.2052  0.5844  0.2014
 2675SOL    HW119487   4.163   4.411  12.639 -0.1537  0.0614  0.2594
 2675SOL    HW219488   4.193   4.513  12.746  0.4141  0.5178 -0.1537
 2676SOL     OW19489   1.752   4.573   8.009 -0.1619  0.0567 -0.1285
 2676SOL    HW119490   1.664   4.537   8.023  0.0850 -0.8917 -1.0484
 2676SOL    HW219491   1.748   4.654   8.059  1.1291  0.0941 -0.0917
 2677SOL     OW19492   1.410   3.832  11.814 -0.3233  0.3820  0.1120
 2677SOL    HW119493   1.373   3.744  11.804  0.4384 -0.1328  1.9012
 2677SOL    HW219494   1.463   3.815  11.892  0.0912 -0.6300 -0.3766
 2678SOL     OW19495   2.487   0.562  13.427 -0.2113  0.0853 -0.2543
 2678SOL    HW119496   2.405   0.561  13.477 -0.6473  0.2461 -0.9686
 2678SOL    HW219497   2.551   0.535  13.493  1.6885 -1.4602 -2.7345
 2679SOL     OW19498   3.054   1.330   6.381 -0.4411  0.9410 -0.1100
 2679SOL    HW119499   3.144   1.297   6.385 -0.1292  1.9044  0.8869
 2679SOL    HW219500   3.055   1.380   6.463  1.0061 -2.4204  1.9203
 2680SOL     OW19501   1.875   1.539   6.259 -0.0564  0.2278 -0.1928
 2680SOL    HW119502   1.935   1.503   6.194  0.9804  0.9335  0.3875
 2680SOL    HW219503   1.787   1.535   6.220  0.2490  1.4447 -1.0165
 2681SOL     OW19504   3.222   4.037   6.416 -0.0027  0.9864  0.0370
 2681SOL    HW119505   3.276   4.008   6.490 -1.8423 -2.9197 -0.1569
 2681SOL    HW219506   3.262   4.118   6.385 -0.6433  2.4975  3.2104
 2682SOL     OW19507   0.942   1.815   5.027 -0.3468 -0.2546 -0.0966
 2682SOL    HW119508   0.973   1.901   5.052  0.9661 -1.3088  1.8870
 2682SOL    HW219509   1.008   1.796   4.960  1.1188 -0.0789  1.3027
 2683SOL     OW19510   3.270   4.562   2.442 -0.2706  0.0941 -0.6528
 2683SOL    HW119511   3.215   4.520   2.508 -3.0611 -1.1312 -3.7304
 2683SOL    HW219512   3.218   4.537   2.365  2.3728  1.6867 -2.9348
 2684SOL     OW19513   2.596   1.799   5.791 -0.4983 -0.2114  0.1578
 2684SOL    HW119514   2.671   1.800   5.850  0.0062 -2.0723 -0.4682
 2684SOL    HW219515   2.609   1.875   5.734 -0.1690  0.2902  0.9038
 2685SOL     OW19516   2.664   0.846   8.133 -0.3586  0.0530 -0.2274
 2685SOL    HW119517   2.693   0.794   8.208 -0.0855 -0.3652 -0.6214
 2685SOL    HW219518   2.630   0.928   8.169  2.0484  1.0105 -0.1512
 2686SOL     OW19519   3.396   2.001   5.378  0.6347 -0.3054  0.4601
 2686SOL    HW119520   3.351   1.970   5.299  0.5958  1.1496 -0.1053
 2686SOL    HW219521   3.336   2.074   5.395 -0.9354 -1.8869  1.6208
 2687SOL     OW19522   0.084   4.383   7.941  0.1276 -0.1498 -0.3912
 2687SOL    HW119523   0.058   4.324   7.870 -0.2658 -1.4067  0.7940
 2687SOL    HW219524   0.180   4.381   7.940  0.1062 -2.0307  0.6714
 2688SOL     OW19525   2.461   3.806   7.046 -0.0170  0.1321 -0.1291
 2688SOL    HW119526   2.381   3.760   7.021 -1.5271  1.9027  1.4090
 2688SOL    HW219527   2.484   3.843   6.960 -0.2568 -0.3630 -0.4082
 2689SOL     OW19528   0.718   4.456   1.135  0.0356 -0.0328  0.4375
 2689SOL    HW119529   0.744   4.504   1.057 -0.4430 -1.5987 -0.6895
 2689SOL    HW219530   0.624   4.476   1.137  0.0261 -0.2362  1.9101
 2690SOL     OW19531   1.324   1.621   7.847 -1.0136 -0.2887 -0.2153
 2690SOL    HW119532   1.321   1.566   7.925  4.3270  0.3303  0.4251
 2690SOL    HW219533   1.393   1.682   7.875 -2.2494  0.8901  0.2436
 2691SOL     OW19534   1.053   0.816   3.220 -0.6616 -0.1905 -0.2852
 2691SOL    HW119535   1.140   0.856   3.224 -1.0236  0.4434  1.1612
 2691SOL    HW219536   1.054   0.784   3.130  0.2157  0.3803 -0.4786
 2692SOL     OW19537   0.208   3.724   3.342 -0.1554  0.4104  0.1964
 2692SOL    HW119538   0.179   3.783   3.272  0.0044 -1.9585 -1.8434
 2692SOL    HW219539   0.265   3.786   3.388  0.1736  0.2876 -0.0476
 2693SOL     OW19540   0.271   1.719  13.916  0.0359 -0.0775 -0.1415
 2693SOL    HW119541   0.232   1.799  13.951 -0.2785 -0.0855 -0.4708
 2693SOL    HW219542   0.196   1.688  13.865  0.0450  0.3971 -0.4523
 2694SOL     OW19543   0.108   4.650   8.661 -0.1774  0.0816  0.7768
 2694SOL    HW119544   0.179   4.593   8.632 -1.0875 -0.9745  0.6047
 2694SOL    HW219545   0.149   0.016   8.672 -2.3624  1.2431 -0.1521
 2695SOL     OW19546   3.607   1.204   1.803 -0.2984  0.1552  0.3555
 2695SOL    HW119547   3.511   1.194   1.798 -0.6379  2.2815  2.6909
 2695SOL    HW219548   3.633   1.245   1.721 -1.3884 -0.5885 -0.3730
 2696SOL     OW19549   4.533   4.265   5.596  0.2479 -0.1632  0.1938
 2696SOL    HW119550   4.597   4.208   5.637  0.5086 -1.3484 -1.8325
 2696SOL    HW219551   4.579   4.337   5.552  1.6900 -0.5518  1.0618
 2697SOL     OW19552   0.075   2.202   4.432 -0.1665 -0.5825 -0.4801
 2697SOL    HW119553   0.129   2.281   4.431 -2.5322  1.0453  0.2249
 2697SOL    HW219554   0.142   2.138   4.456  3.2542  3.2947  0.2990
 2698SOL     OW19555   4.413   0.606   6.922  0.2455  0.1742 -0.9717
 2698SOL    HW119556   4.379   0.604   7.012  1.2786  2.9910 -0.5274
 2698SOL    HW219557   4.497   0.649   6.936 -0.3433  0.8690  0.4316
 2699SOL     OW19558   1.929   1.803   8.931 -0.0188 -0.4520 -0.2190
 2699SOL    HW119559   1.890   1.886   8.957 -0.5051 -0.5234 -0.7354
 2699SOL    HW219560   1.966   1.779   9.017  0.4281  0.1573 -0.2423
 2700SOL     OW19561   2.053   3.324   3.111  0.1250  0.1034  0.5615
 2700SOL    HW119562   2.003   3.301   3.189 -1.1904 -0.0212 -0.3212
 2700SOL    HW219563   2.146   3.325   3.136  0.0978 -0.5687  0.6907
 2701SOL     OW19564   2.334   1.625  12.875 -0.6436 -0.1972  0.3677
 2701SOL    HW119565   2.315   1.565  12.947 -0.6954 -1.9513 -1.1354
 2701SOL    HW219566   2.425   1.647  12.898 -0.9209  0.5045  0.7955
 2702SOL     OW19567   4.162   1.030   2.606 -0.0324 -0.2852 -0.3877
 2702SOL    HW119568   4.185   1.051   2.696  0.0605 -2.0755  0.0217
 2702SOL    HW219569   4.091   1.094   2.605 -0.3288 -0.5736  1.2492
 2703SOL     OW19570   3.697   1.097   6.777 -0.1068  0.4734  0.4278
 2703SOL    HW119571   3.719   1.148   6.855 -3.2716 -0.2143  1.7907
 2703SOL    HW219572   3.722   1.156   6.707 -2.3428  1.3112  0.3238
 2704SOL     OW19573   2.982   0.411  14.491  0.2405 -0.5000  0.5927
 2704SOL    HW119574   3.034   0.387  14.414  1.3573 -0.4359  1.3238
 2704SOL    HW219575   3.035   0.373  14.562 -1.4123  0.6845  2.4784
 2705SOL     OW19576   3.842   1.819  14.314  0.7130 -0.0947 -0.0778
 2705SOL    HW119577   3.863   1.770  14.234 -0.9741 -1.5839  0.3953
 2705SOL    HW219578   3.749   1.826  14.294  0.8402 -0.8853 -0.9613
 2706SOL     OW19579   3.018   1.866   8.679  0.1307 -0.4342  0.2302
 2706SOL    HW119580   2.923   1.859   8.667  0.2986 -0.5876 -1.0051
 2706SOL    HW219581   3.023   1.853   8.774 -0.4122  4.2819  0.8896
 2707SOL     OW19582   0.940   3.014   8.898 -0.4368  0.0875  0.1426
 2707SOL    HW119583   0.891   3.080   8.849 -0.2948 -0.8273 -1.2385
 2707SOL    HW219584   1.023   3.021   8.851  0.2677  0.4003  1.4358
 2708SOL     OW19585   0.742   1.477   7.766  0.7758  0.1499 -0.5492
 2708SOL    HW119586   0.806   1.407   7.754  1.0414 -0.0260  1.9089
 2708SOL    HW219587   0.778   1.531   7.836 -0.1902 -0.8928  0.7607
 2709SOL     OW19588   1.508   2.855   6.628  0.2673  0.3072 -0.3654
 2709SOL    HW119589   1.544   2.816   6.549  1.1135 -3.0248  1.6560
 2709SOL    HW219590   1.530   2.796   6.700  1.4451  0.9877 -0.1819
 2710SOL     OW19591   1.454   1.485   4.518 -0.7216 -0.1395 -0.2968
 2710SOL    HW119592   1.545   1.459   4.506 -1.5396 -2.8224 -0.6170
 2710SOL    HW219593   1.459   1.576   4.490 -0.5101  0.2038  0.8489
 2711SOL     OW19594   3.313   0.137   1.033 -0.7396  0.3427 -0.2287
 2711SOL    HW119595   3.223   0.143   1.066 -1.6009 -4.3007 -1.8673
 2711SOL    HW219596   3.311   0.196   0.958 -1.4350  1.4007  0.6110
 2712SOL     OW19597   1.578   3.899  14.236 -0.1450 -0.2249  0.6278
 2712SOL    HW119598   1.521   3.946  14.297 -1.9135 -0.8514 -0.5464
 2712SOL    HW219599   1.529   3.818  14.224  1.5912 -1.0721 -0.7731
 2713SOL     OW19600   3.099   1.987  17.127  0.0544  0.1888  0.3313
 2713SOL    HW119601   3.090   2.021  17.038  1.5762 -1.0722 -0.3000
 2713SOL    HW219602   3.172   1.926  17.119 -0.7172 -0.9995  2.2957
 2714SOL     OW19603   2.322   3.676   8.486  0.3233  0.4164  0.0315
 2714SOL    HW119604   2.316   3.712   8.397 -1.7002 -1.0003 -0.4062
 2714SOL    HW219605   2.311   3.582   8.476 -1.2630  0.6574 -0.6171
 2715SOL     OW19606   0.176   0.215   6.796 -0.2651  0.1526 -0.1513
 2715SOL    HW119607   0.143   0.262   6.873  0.3264 -1.9624  1.3858
 2715SOL    HW219608   0.093   0.221   6.747 -0.8756  0.5104  0.9258
 2716SOL     OW19609   3.019   1.758   5.203  0.3698  0.6296 -0.1745
 2716SOL    HW119610   3.012   1.668   5.233  1.8264  0.4208 -0.4687
 2716SOL    HW219611   2.944   1.763   5.144 -0.4086  1.5892  0.8961
 2717SOL     OW19612   2.899   3.516   1.567 -0.5602 -0.4631  0.3287
 2717SOL    HW119613   2.836   3.527   1.638 -0.9917 -1.0491  0.0377
 2717SOL    HW219614   2.844   3.477   1.499  0.6094 -1.6108  0.0446
 2718SOL     OW19615   2.541   4.059  10.554  0.1824  0.8770  0.2750
 2718SOL    HW119616   2.566   4.025  10.640  0.5218 -0.3708 -0.3288
 2718SOL    HW219617   2.619   4.110  10.530  0.2027  0.5264 -0.4058
 2719SOL     OW19618   4.103   2.444   7.031 -0.0469 -0.0901 -0.1631
 2719SOL    HW119619   4.139   2.484   7.111  0.1009  3.7611 -2.1523
 2719SOL    HW219620   4.153   2.363   7.024 -0.7812 -0.5498 -0.0741
 2720SOL     OW19621   0.080   3.724   5.646 -0.7162  0.0371  0.0670
 2720SOL    HW119622   4.707   3.745   5.658 -0.5182  1.9623 -1.8307
 2720SOL    HW219623   0.108   3.706   5.736  2.4550 -0.2543 -0.9853
 2721SOL     OW19624   0.525   1.996   7.602  0.0659 -0.2343 -0.2733
 2721SOL    HW119625   0.615   2.027   7.592  0.5937 -1.2776  1.1656
 2721SOL    HW219626   0.490   2.028   7.685  2.6622  1.9884 -0.0171
 2722SOL     OW19627   1.369   1.563   8.676  0.4504 -0.1777  0.1278
 2722SOL    HW119628   1.303   1.566   8.606  1.0395 -2.6113 -0.5420
 2722SOL    HW219629   1.437   1.601   8.620 -0.0366 -0.5118 -0.7044
 2723SOL     OW19630   3.302   0.036   6.755 -0.3312  0.0121  0.2605
 2723SOL    HW119631   3.210   0.035   6.781 -0.7425  0.1075 -1.1507
 2723SOL    HW219632   3.347   0.068   6.833 -0.8478  2.8085 -0.5828
 2724SOL     OW19633   2.561   1.446  13.815 -0.4493 -0.3037  0.3176
 2724SOL    HW119634   2.534   1.538  13.815 -1.7587 -0.6791 -2.3441
 2724SOL    HW219635   2.558   1.429  13.909 -1.2237 -1.0353  0.1666
 2725SOL     OW19636   1.411   0.643  17.005  0.3481 -0.5904 -0.1305
 2725SOL    HW119637   1.363   0.725  16.987 -1.5280 -2.1210 -2.1100
 2725SOL    HW219638   1.405   0.610  16.915 -0.2133 -0.5703 -0.1031
 2726SOL     OW19639   1.052   1.113  14.351  0.4983 -0.7945  0.1746
 2726SOL    HW119640   1.034   1.036  14.405  1.1928 -0.9107  0.2407
 2726SOL    HW219641   0.967   1.131  14.312  0.7836 -2.8052 -1.3656
 2727SOL     OW19642   3.931   4.408   6.943  0.2479  0.7684  0.1192
 2727SOL    HW119643   3.877   4.458   6.881  1.7293  1.5776 -0.5254
 2727SOL    HW219644   3.891   4.435   7.025  0.3966 -0.2181  0.5119
 2728SOL     OW19645   0.722   1.552  12.379 -0.0125  0.5381 -0.7082
 2728SOL    HW119646   0.663   1.627  12.389 -0.3874  0.4536 -2.2254
 2728SOL    HW219647   0.797   1.604  12.409 -0.3383  0.2773  0.5690
 2729SOL     OW19648   0.376   1.761   6.164 -0.1544 -0.4434 -0.2755
 2729SOL    HW119649   0.467   1.733   6.159  0.4555  1.5966 -0.4934
 2729SOL    HW219650   0.392   1.838   6.219 -2.1013 -0.0979 -0.1931
 2730SOL     OW19651   4.649   0.532  10.959  0.4895  0.1568 -0.5568
 2730SOL    HW119652   4.701   0.460  10.924  1.3264 -0.1120  1.2631
 2730SOL    HW219653   4.567   0.499  10.924 -0.9682  2.2979  0.8418
 2731SOL     OW19654   0.387   0.442  11.418 -0.0627 -0.0170 -0.0080
 2731SOL    HW119655   0.354   0.375  11.478  0.5630  1.3658  1.8606
 2731SOL    HW219656   0.464   0.410  11.371 -0.6012 -0.0127 -0.8959
 2732SOL     OW19657   2.551   1.100  12.594  0.0292 -0.1441 -0.2209
 2732SOL    HW119658   2.574   1.058  12.511  0.8828 -0.6523  0.2725
 2732SOL    HW219659   2.634   1.131  12.631 -0.3158  2.5720 -1.7250
 2733SOL     OW19660   0.367   2.592   3.097  0.2260  0.2943  0.2828
 2733SOL    HW119661   0.306   2.536   3.145 -0.0256 -0.8095 -1.2868
 2733SOL    HW219662   0.454   2.552   3.100 -0.6106 -1.4199  1.4787
 2734SOL     OW19663   0.049   0.617   4.158  0.5097 -0.0003 -0.1034
 2734SOL    HW119664   0.018   0.629   4.068  0.8779  0.3630 -0.1802
 2734SOL    HW219665   0.093   0.533   4.148  0.6216  0.2332 -1.5626
 2735SOL     OW19666   2.009   1.007   5.010  0.3801  0.8277 -0.3386
 2735SOL    HW119667   2.007   1.049   4.924  2.0935  0.0281 -0.7536
 2735SOL    HW219668   2.007   1.089   5.060  2.0033  1.4692 -1.3363
 2736SOL     OW19669   4.654   0.378   8.293 -0.1308 -0.2733 -0.4614
 2736SOL    HW119670   4.694   0.418   8.370 -2.1741  2.0129 -0.5826
 2736SOL    HW219671   4.566   0.417   8.291  0.0877  0.2571  1.0158
 2737SOL     OW19672   1.037   3.141   7.480 -0.4154  0.3386  0.2843
 2737SOL    HW119673   0.974   3.149   7.551 -0.3916  0.9954  0.2299
 2737SOL    HW219674   1.103   3.208   7.501 -0.6151  0.1385  1.5603
 2738SOL     OW19675   2.760   2.558  12.558 -0.8267 -0.4673 -0.0215
 2738SOL    HW119676   2.840   2.582  12.512 -1.2926 -0.9380 -1.0761
 2738SOL    HW219677   2.758   2.604  12.642 -1.8424  2.1670 -1.5177
 2739SOL     OW19678   1.011   4.647   4.005  0.2761  0.2854 -0.4904
 2739SOL    HW119679   1.056   4.576   3.959  0.7799 -0.0079  0.4538
 2739SOL    HW219680   0.959   4.599   4.069  1.0576 -1.7705 -1.4008
 2740SOL     OW19681   2.538   4.392  14.764 -0.5161  0.4095 -0.9032
 2740SOL    HW119682   2.472   4.431  14.706 -1.6024 -1.8019 -1.1659
 2740SOL    HW219683   2.540   4.298  14.744 -0.3729  0.6530 -2.0234
 2741SOL     OW19684   2.945   0.188   3.816  0.1292  0.2415 -0.1814
 2741SOL    HW119685   2.919   0.268   3.769  1.1573  0.3812 -0.5204
 2741SOL    HW219686   3.019   0.165   3.759 -0.6106  1.6141 -1.6955
 2742SOL     OW19687   3.204   2.881   4.386 -0.2533 -0.1870  0.4487
 2742SOL    HW119688   3.244   2.904   4.470  1.1996  1.7576 -0.7777
 2742SOL    HW219689   3.121   2.928   4.398 -0.7943 -0.9335 -0.2930
 2743SOL     OW19690   0.173   3.399   7.184  0.1790  0.4097  0.1186
 2743SOL    HW119691   0.250   3.455   7.195 -0.3348  1.2760 -0.6601
 2743SOL    HW219692   0.133   3.427   7.102 -1.0799  1.2067  1.0163
 2744SOL     OW19693   0.849   1.210   7.668 -0.4860 -0.1362  0.0489
 2744SOL    HW119694   0.944   1.217   7.674 -0.5640 -0.3884  1.4979
 2744SOL    HW219695   0.837   1.193   7.575  0.8330 -1.0470  0.0508
 2745SOL     OW19696   4.593   1.205  12.176  0.3254  0.2926 -0.0102
 2745SOL    HW119697   4.637   1.125  12.204 -0.9859 -0.7513 -0.9388
 2745SOL    HW219698   4.667   1.261  12.149  1.4508  0.0256  2.5375
 2746SOL     OW19699   3.785   2.693   5.626  0.2525 -0.6150  0.5569
 2746SOL    HW119700   3.816   2.634   5.557 -0.5707  0.6015 -0.8499
 2746SOL    HW219701   3.690   2.686   5.616  0.1984  2.6045 -1.4721
 2747SOL     OW19702   1.085   0.351   0.069  0.6925  0.0259  0.3564
 2747SOL    HW119703   1.104   0.348   0.163 -0.8454 -0.4144  0.6545
 2747SOL    HW219704   1.010   0.409   0.086 -1.0166 -1.6279 -1.5849
 2748SOL     OW19705   3.212   1.762   0.634  0.1514  0.0901  0.1236
 2748SOL    HW119706   3.276   1.696   0.661 -0.2536 -1.0122 -1.6091
 2748SOL    HW219707   3.209   1.735   0.542  0.1664  2.8098 -0.6633
 2749SOL     OW19708   0.788   0.641   0.374 -0.1429  0.3120  0.2975
 2749SOL    HW119709   0.865   0.612   0.325 -0.4223  0.6900 -0.3667
 2749SOL    HW219710   0.825   0.728   0.387  0.2739  0.2189 -0.2691
 2750SOL     OW19711   1.217   2.473  10.928  0.0375 -0.3424  0.1752
 2750SOL    HW119712   1.207   2.417  10.850  0.8009 -0.7401  0.3605
 2750SOL    HW219713   1.286   2.419  10.966 -0.6915 -1.1107  0.4001
 2751SOL     OW19714   4.124   2.202   2.488  0.0484  0.6996  0.4910
 2751SOL    HW119715   4.171   2.180   2.408 -1.0914  1.1506 -0.3041
 2751SOL    HW219716   4.071   2.278   2.463  0.8868  0.4341 -2.0245
 2752SOL     OW19717   0.196   1.482  15.457  0.1713 -0.2301 -0.1368
 2752SOL    HW119718   0.183   1.521  15.544 -3.4575 -0.7888 -0.4123
 2752SOL    HW219719   0.193   1.389  15.475 -0.1012  0.0372  1.2127
 2753SOL     OW19720   0.206   2.953   2.609  0.2471  0.0330  0.4158
 2753SOL    HW119721   0.228   2.996   2.527  1.0795 -0.1192  0.5638
 2753SOL    HW219722   0.258   2.874   2.600  0.5586  0.3567 -0.5653
 2754SOL     OW19723   2.878   2.644   4.869 -0.4953 -0.2738 -0.1442
 2754SOL    HW119724   2.785   2.630   4.851 -0.5683  0.7007 -0.5245
 2754SOL    HW219725   2.889   2.572   4.931  0.1102  2.4324  2.8742
 2755SOL     OW19726   2.547   3.103   1.111  0.1858 -0.3999 -0.9756
 2755SOL    HW119727   2.605   3.108   1.035  0.9147  0.9500 -0.3279
 2755SOL    HW219728   2.602   3.124   1.187 -0.3540  0.0284 -0.7059
 2756SOL     OW19729   2.798   2.820   6.080 -0.3945  0.2674  0.3235
 2756SOL    HW119730   2.780   2.805   6.173 -0.6597  1.3833  0.4613
 2756SOL    HW219731   2.828   2.911   6.074  1.1472 -0.1899  1.2129
 2757SOL     OW19732   4.661   3.090  11.438  0.4944  0.2698 -0.1074
 2757SOL    HW119733   4.581   3.050  11.473  0.3246 -0.8230 -1.7644
 2757SOL    HW219734   4.683   3.027  11.369 -0.0801  1.0143 -0.9628
 2758SOL     OW19735   0.625   3.867  16.174 -0.0189  0.2111 -0.0479
 2758SOL    HW119736   0.599   3.781  16.207 -1.1159  1.0096  1.1740
 2758SOL    HW219737   0.686   3.834  16.108 -0.3395  0.7137 -0.5976
 2759SOL     OW19738   3.001   1.204   9.987 -0.8146 -0.7399 -0.1215
 2759SOL    HW119739   3.031   1.114   9.995 -0.8603 -0.7461 -0.0224
 2759SOL    HW219740   3.050   1.246  10.057 -0.4364  0.5234 -1.1416
 2760SOL     OW19741   3.316   0.564   3.821  0.2221  0.3498 -0.0864
 2760SOL    HW119742   3.355   0.619   3.890  0.2883 -0.4719  0.5313
 2760SOL    HW219743   3.399   0.555   3.774 -0.0109 -0.6177 -0.3006
 2761SOL     OW19744   0.613   0.956   5.087 -0.1981 -0.3153 -0.1505
 2761SOL    HW119745   0.576   0.918   5.167  0.9721  0.9665  1.0124
 2761SOL    HW219746   0.696   0.989   5.122 -1.1286 -0.2555  1.9951
 2762SOL     OW19747   3.161   3.309   2.732 -0.2034  0.1565 -0.1073
 2762SOL    HW119748   3.187   3.399   2.713  0.1548 -0.0285 -0.4907
 2762SOL    HW219749   3.149   3.323   2.826 -0.1873  0.1021 -0.0970
 2763SOL     OW19750   3.963   0.304   0.855  0.5028 -0.0818 -0.4920
 2763SOL    HW119751   3.961   0.209   0.850 -2.7179  0.0172 -0.9235
 2763SOL    HW219752   3.872   0.330   0.843  0.0640 -1.1112  0.5566
 2764SOL     OW19753   0.166   4.415   3.962 -0.2558 -0.7486 -0.4702
 2764SOL    HW119754   0.197   4.501   3.989 -0.1736 -1.4072  1.5357
 2764SOL    HW219755   0.232   4.397   3.896 -1.3668 -0.8605 -1.5577
 2765SOL     OW19756   0.812   0.305   6.948  0.6286 -0.1841  0.5215
 2765SOL    HW119757   0.725   0.283   6.980  0.1832  2.6491  1.2719
 2765SOL    HW219758   0.863   0.280   7.024  1.0702  0.8259  0.5627
 2766SOL     OW19759   1.921   4.331  17.262 -0.8948 -0.1475  0.1114
 2766SOL    HW119760   1.951   4.418  17.237 -1.7908 -0.2746 -1.3758
 2766SOL    HW219761   1.991   4.294  17.315  0.3194 -0.8113 -1.9536
 2767SOL     OW19762   3.053   1.330   3.109  0.6505 -0.0454  0.3706
 2767SOL    HW119763   2.998   1.254   3.130  0.1096  0.7235  1.7328
 2767SOL    HW219764   2.997   1.378   3.047  0.1702  2.4924  2.7829
 2768SOL     OW19765   2.967   1.551   5.606  0.0343 -0.4734  0.4140
 2768SOL    HW119766   2.911   1.530   5.680 -2.8225 -2.1952 -2.2171
 2768SOL    HW219767   3.061   1.538   5.621  0.2258  3.3462  2.3996
 2769SOL     OW19768   2.579   4.143   3.051 -0.2366 -0.3066 -0.4214
 2769SOL    HW119769   2.586   4.178   2.962 -0.7891 -0.4926 -0.5384
 2769SOL    HW219770   2.663   4.169   3.088  0.1636 -1.3929 -0.5540
 2770SOL     OW19771   3.135   4.378   2.644 -0.2334  0.5414  0.7652
 2770SOL    HW119772   3.077   4.305   2.664 -0.5921  0.4455 -0.6100
 2770SOL    HW219773   3.222   4.338   2.632  0.7384  3.6141 -2.5242
 2771SOL     OW19774   1.930   3.319   1.836  0.5390 -0.0519  0.4766
 2771SOL    HW119775   2.010   3.270   1.814 -0.9088 -2.4564  0.5994
 2771SOL    HW219776   1.968   3.406   1.843 -0.2189  0.4203 -1.2794
 2772SOL     OW19777   0.570   3.133  12.233  0.1331  0.6557  0.3085
 2772SOL    HW119778   0.493   3.150  12.289 -0.7234 -2.6325  0.1158
 2772SOL    HW219779   0.600   3.219  12.205 -4.3617  1.7797 -1.1750
 2773SOL     OW19780   3.227   3.947   3.958  0.4063  0.3147  0.2559
 2773SOL    HW119781   3.283   4.014   3.998 -0.0131 -0.4780  2.1413
 2773SOL    HW219782   3.261   3.870   4.002 -0.1825  0.0881  0.3088
 2774SOL     OW19783   4.406   2.009   9.697 -0.1826 -0.3328  0.7854
 2774SOL    HW119784   4.478   2.049   9.746 -1.0811  1.5050  0.5805
 2774SOL    HW219785   4.349   1.983   9.769  0.2563  0.2969  1.3573
 2775SOL     OW19786   3.917   4.647   8.961  0.3938 -0.3130 -0.3408
 2775SOL    HW119787   3.827   4.626   8.988  0.1207  0.6680 -0.5214
 2775SOL    HW219788   3.960   4.572   9.004  1.2669 -0.2850 -1.1775
 2776SOL     OW19789   3.483   0.328  12.031  0.1471  0.2523 -0.3310
 2776SOL    HW119790   3.502   0.415  12.066 -1.0238  0.3701  0.0286
 2776SOL    HW219791   3.569   0.287  12.024 -1.2344 -2.7489  0.2784
 2777SOL     OW19792   2.420   4.172  10.173 -0.2592  0.4690  0.2386
 2777SOL    HW119793   2.407   4.134  10.259  1.8022  0.1757  0.4076
 2777SOL    HW219794   2.357   4.244  10.178 -1.2040 -0.4047  0.8370
 2778SOL     OW19795   1.339   2.942   8.268  0.4555  0.1416  0.1548
 2778SOL    HW119796   1.435   2.941   8.272  0.5434  1.4451 -1.5414
 2778SOL    HW219797   1.328   2.961   8.175 -2.4902 -1.2520  0.2477
 2779SOL     OW19798   3.074   3.691   3.739  0.2591 -0.1717 -0.0362
 2779SOL    HW119799   3.163   3.722   3.753  1.4469 -2.0418 -3.3365
 2779SOL    HW219800   3.069   3.661   3.648 -1.9310  0.2825 -0.0607
 2780SOL     OW19801   1.678   3.073   8.071  0.2441  0.2438 -0.1155
 2780SOL    HW119802   1.664   3.061   7.977 -2.2286  0.5977  0.2117
 2780SOL    HW219803   1.754   3.016   8.074  0.0708  0.0138 -0.0772
 2781SOL     OW19804   0.251   2.031   5.657 -0.3282 -0.0692 -0.0322
 2781SOL    HW119805   0.200   1.950   5.654  0.4170 -0.5497  0.3686
 2781SOL    HW219806   0.218   2.069   5.576  0.1232 -3.1239 -1.6609
 2782SOL     OW19807   2.231   0.788   7.651  0.1257 -0.0016  0.3789
 2782SOL    HW119808   2.275   0.721   7.703  1.1300  1.7681  1.7883
 2782SOL    HW219809   2.300   0.843   7.615 -2.1082  1.1775 -2.1204
 2783SOL     OW19810   2.836   3.446   2.566  0.2823 -0.7561 -0.2501
 2783SOL    HW119811   2.810   3.449   2.474 -0.7951 -0.6658  0.0548
 2783SOL    HW219812   2.803   3.361   2.596 -1.3026 -0.2182 -0.5030
 2784SOL     OW19813   3.709   1.186   8.409  0.3868 -0.8615 -0.6428
 2784SOL    HW119814   3.716   1.146   8.495 -0.2593 -0.9790 -0.6481
 2784SOL    HW219815   3.765   1.264   8.415 -0.0021 -0.5752 -0.6959
 2785SOL     OW19816   4.698   3.290   9.692  0.1383  0.0544 -0.6024
 2785SOL    HW119817   4.618   3.241   9.709 -1.0824  1.5113 -2.1629
 2785SOL    HW219818   0.009   3.317   9.779 -1.7702 -0.7179  0.3137
 2786SOL     OW19819   3.220   0.187  16.564  0.1985 -0.0173  0.0873
 2786SOL    HW119820   3.180   0.133  16.632 -2.0434 -2.0043 -2.8277
 2786SOL    HW219821   3.253   0.126  16.497 -0.0857 -0.1789  0.0914
 2787SOL     OW19822   0.115   4.420   2.027  0.5153 -0.6766 -0.4256
 2787SOL    HW119823   0.029   4.410   1.986  1.5125  0.2371 -2.7227
 2787SOL    HW219824   0.153   4.332   2.021 -1.7502 -1.5530 -2.0260
 2788SOL     OW19825   4.204   4.424  17.093 -0.2345  0.6329 -0.3295
 2788SOL    HW119826   4.152   4.452  17.018  0.5107 -0.7845 -1.3605
 2788SOL    HW219827   4.241   4.503  17.133 -1.5446  1.5570 -0.9441
 2789SOL     OW19828   0.809   1.346   8.127  0.2754  0.9429  0.3460
 2789SOL    HW119829   0.749   1.395   8.183  1.9761  1.3783  1.7831
 2789SOL    HW219830   0.860   1.414   8.084  0.7392 -0.7156 -1.7777
 2790SOL     OW19831   4.310   0.098   8.791 -0.1096  0.3549  0.4049
 2790SOL    HW119832   4.318   0.068   8.882 -2.3410  3.1029  1.5147
 2790SOL    HW219833   4.233   0.057   8.755 -0.8810  1.5827  0.6472
 2791SOL     OW19834   3.079   1.526   4.940 -0.5886 -0.9062  0.2220
 2791SOL    HW119835   3.046   1.613   4.963  1.7610  0.1916 -0.5189
 2791SOL    HW219836   3.123   1.495   5.019 -0.2515  0.9295  0.7529
 2792SOL     OW19837   2.631   3.591   6.488 -1.3531  0.0476  0.1623
 2792SOL    HW119838   2.648   3.675   6.530 -0.6629  0.2245 -0.4858
 2792SOL    HW219839   2.661   3.593   6.397  1.6885 -0.0672  1.1840
 2793SOL     OW19840   0.377   4.296   1.708  0.1666 -0.3462  0.1413
 2793SOL    HW119841   0.357   4.205   1.728 -2.8973  0.4367  0.7724
 2793SOL    HW219842   0.304   4.302   1.646  1.0663 -1.1599 -0.9844
 2794SOL     OW19843   0.902   0.322   6.686 -0.2091  0.1098  0.1209
 2794SOL    HW119844   0.856   0.258   6.632 -1.7258  0.3447  1.1471
 2794SOL    HW219845   0.869   0.310   6.774  1.5618  2.1678  1.0672
 2795SOL     OW19846   4.291   0.958   6.911 -0.0294  0.2272  0.0611
 2795SOL    HW119847   4.315   1.037   6.959  0.7515 -0.1984  0.3726
 2795SOL    HW219848   4.250   0.899   6.975  1.0485 -0.1017  0.4409
 2796SOL     OW19849   0.383   2.640   1.792  0.5461 -0.2785  0.6432
 2796SOL    HW119850   0.442   2.576   1.833 -0.0508 -2.4294 -1.8880
 2796SOL    HW219851   0.317   2.649   1.861  0.3088  2.3945  0.0731
 2797SOL     OW19852   4.301   0.320   4.178 -0.1829 -0.3987  0.1137
 2797SOL    HW119853   4.276   0.393   4.235  2.5241  1.3448 -0.9255
 2797SOL    HW219854   4.396   0.330   4.181 -0.3457  1.0317  0.3256
 2798SOL     OW19855   3.733   2.203   7.668 -0.0639 -1.0174 -0.1939
 2798SOL    HW119856   3.728   2.249   7.584  1.1671 -1.1788 -0.3562
 2798SOL    HW219857   3.823   2.229   7.684 -0.6622  1.1533 -0.3829
 2799SOL     OW19858   0.603   2.742   6.593 -0.5902 -0.2523 -0.0564
 2799SOL    HW119859   0.607   2.786   6.678 -4.3456 -0.9916  0.4957
 2799SOL    HW219860   0.510   2.721   6.597 -0.7711  0.1746 -2.1109
 2800SOL     OW19861   1.967   4.440   5.311 -0.0507 -0.1435 -0.1448
 2800SOL    HW119862   2.008   4.382   5.248 -0.1810 -0.1755 -0.2007
 2800SOL    HW219863   1.949   4.517   5.256 -0.7106  1.2868  2.0567
 2801SOL     OW19864   3.345   1.104   6.092  0.6870  0.0630  0.0994
 2801SOL    HW119865   3.411   1.107   6.162  1.0001 -0.8182 -0.1612
 2801SOL    HW219866   3.395   1.088   6.012  1.1900 -0.3091  0.4897
 2802SOL     OW19867   0.729   2.091   5.759 -0.0917 -0.3986  0.0372
 2802SOL    HW119868   0.654   2.130   5.715  0.0693  0.7262  0.7339
 2802SOL    HW219869   0.768   2.155   5.820  2.0193 -0.8630 -0.8361
 2803SOL     OW19870   1.754   1.483  10.141 -0.3314 -0.2254 -0.0683
 2803SOL    HW119871   1.725   1.570  10.113 -0.3966 -0.2894 -0.1966
 2803SOL    HW219872   1.733   1.492  10.234 -1.5709 -1.9001 -0.1922
 2804SOL     OW19873   1.684   2.585  10.116  0.2497 -0.3426  0.2792
 2804SOL    HW119874   1.711   2.609  10.028 -0.7583  0.3319  0.1588
 2804SOL    HW219875   1.747   2.516  10.141  0.2416 -0.8840 -1.1881
 2805SOL     OW19876   4.462   4.293   9.646  0.3684 -0.0113  0.1084
 2805SOL    HW119877   4.512   4.258   9.720  1.8733 -0.6048 -1.2222
 2805SOL    HW219878   4.448   4.384   9.674  0.4621 -0.1930  0.7586
 2806SOL     OW19879   2.254   1.630  12.594 -0.0641  0.1875  0.2670
 2806SOL    HW119880   2.162   1.616  12.573 -0.2188 -0.1837  1.1858
 2806SOL    HW219881   2.262   1.552  12.649  2.3910  1.3652  1.5939
 2807SOL     OW19882   3.585   0.613   0.806  0.8585  0.1497  0.2449
 2807SOL    HW119883   3.629   0.698   0.796  0.7904 -0.0086 -1.3461
 2807SOL    HW219884   3.534   0.609   0.725 -0.1159 -2.3952  0.9890
 2808SOL     OW19885   1.076   4.122   5.249  0.0558 -0.4884  0.4001
 2808SOL    HW119886   1.107   4.097   5.336  1.3065 -0.8410 -0.1467
 2808SOL    HW219887   1.019   4.048   5.229 -1.3139  0.7837 -0.3756
 2809SOL     OW19888   3.318   2.964  17.217  0.0879  0.0299 -0.3607
 2809SOL    HW119889   3.312   3.034  17.151  2.6071  1.8426  1.3346
 2809SOL    HW219890   3.367   3.009  17.285 -1.2015 -0.2736  0.7615
 2810SOL     OW19891   1.874   0.475   7.700 -0.4097  0.3807 -0.4806
 2810SOL    HW119892   1.817   0.426   7.759  0.1435 -0.4073 -0.5948
 2810SOL    HW219893   1.959   0.434   7.715  0.5849  1.7868 -2.3117
 2811SOL     OW19894   0.079   4.278   4.437 -0.4470  0.2573  0.4586
 2811SOL    HW119895   0.015   4.208   4.429 -0.6733  0.5608 -0.4290
 2811SOL    HW219896   0.155   4.227   4.465  0.0318 -0.0777 -1.4084
 2812SOL     OW19897   0.562   1.111   5.698  0.1343  0.3123  0.3571
 2812SOL    HW119898   0.645   1.068   5.718 -1.7242 -2.4246  2.1853
 2812SOL    HW219899   0.592   1.184   5.644 -0.4865  0.4230  0.1528
 2813SOL     OW19900   3.688   2.157   3.387  0.2826  0.6968 -0.2811
 2813SOL    HW119901   3.747   2.175   3.314  1.5748 -0.9790  0.3506
 2813SOL    HW219902   3.727   2.196   3.465 -2.1741  0.1738  1.2238
 2814SOL     OW19903   0.304   2.287  12.593  0.3964 -0.8769 -0.1972
 2814SOL    HW119904   0.282   2.377  12.569  2.3748  0.1911  1.9700
 2814SOL    HW219905   0.301   2.253  12.504  1.0871 -2.7201  0.4737
 2815SOL     OW19906   2.641   3.599  17.273 -0.1262 -0.3514  0.2189
 2815SOL    HW119907   2.592   3.581  17.353  0.5313  0.4713  0.8098
 2815SOL    HW219908   2.648   3.512  17.234  1.2121 -0.7183  1.3090
 2816SOL     OW19909   2.643   2.896  10.830 -0.6349  0.0485 -0.3073
 2816SOL    HW119910   2.575   2.882  10.896 -0.5854 -0.7470 -0.4208
 2816SOL    HW219911   2.700   2.819  10.835  1.5086  1.7311  1.1874
 2817SOL     OW19912   3.505   1.367   9.205 -0.1286 -0.0320  0.2187
 2817SOL    HW119913   3.577   1.425   9.179  1.6788 -2.8051 -0.9130
 2817SOL    HW219914   3.434   1.432   9.203  0.2922  0.3987 -0.8926
 2818SOL     OW19915   1.725   0.381   3.265  1.0275  0.4456  0.1704
 2818SOL    HW119916   1.763   0.373   3.177 -0.2621  3.4647 -0.6627
 2818SOL    HW219917   1.723   0.476   3.276 -1.3592  0.3559  0.5026
 2819SOL     OW19918   2.094   3.729   3.331 -0.1321 -0.1993  0.0281
 2819SOL    HW119919   2.167   3.675   3.360  0.7353 -0.7131 -3.1319
 2819SOL    HW219920   2.020   3.720   3.391 -0.7868 -2.2643 -1.0849
 2820SOL     OW19921   3.039   0.749   2.815  0.8461  0.7553  0.1062
 2820SOL    HW119922   2.967   0.801   2.779  1.2936 -0.4343 -2.4897
 2820SOL    HW219923   3.083   0.797   2.885 -1.7877  3.4757 -0.0635
 2821SOL     OW19924   2.069   2.382   7.015 -0.6719 -0.1430 -0.4783
 2821SOL    HW119925   2.070   2.478   7.015 -0.8886 -0.1392 -0.2828
 2821SOL    HW219926   2.147   2.348   7.057 -1.7736 -1.4419  0.5170
 2822SOL     OW19927   3.565   2.036   5.175  0.1096 -0.1687  0.1890
 2822SOL    HW119928   3.533   2.012   5.262 -0.4785  0.6548  0.2016
 2822SOL    HW219929   3.559   2.132   5.174 -2.4415 -0.3384 -1.1771
 2823SOL     OW19930   3.889   4.560   0.343  0.3605  0.0368 -0.0685
 2823SOL    HW119931   3.928   4.498   0.405  0.2641 -0.3384 -0.3872
 2823SOL    HW219932   3.796   4.569   0.366  0.3987  2.5730 -0.8784
 2824SOL     OW19933   2.987   3.609   6.754  0.2431 -0.0171 -0.4552
 2824SOL    HW119934   3.021   3.585   6.668  1.2505  1.5925 -0.4912
 2824SOL    HW219935   2.992   3.522   6.794  3.2648  0.8933  1.1496
 2825SOL     OW19936   4.034   4.718   4.976 -0.3076  0.5018  0.0666
 2825SOL    HW119937   3.972   0.067   4.996  0.2520  1.1629 -0.5030
 2825SOL    HW219938   4.061   4.698   5.066  0.6598 -1.3478 -0.6269
 2826SOL     OW19939   4.443   2.809  13.947  0.1879  0.2851  0.1798
 2826SOL    HW119940   4.536   2.787  13.945  0.5809  1.8284  1.1207
 2826SOL    HW219941   4.436   2.886  13.890 -1.7699 -0.4010 -0.4784
 2827SOL     OW19942   1.052   2.850  14.629  0.2678 -0.1481  0.8885
 2827SOL    HW119943   1.147   2.861  14.633  0.0543  2.1086  0.1033
 2827SOL    HW219944   1.026   2.893  14.548 -1.5672 -2.6762  0.1441
 2828SOL     OW19945   1.382   4.574   8.088 -0.1026 -0.2048 -0.4015
 2828SOL    HW119946   1.440   4.540   8.155 -0.0634  0.4713 -0.0876
 2828SOL    HW219947   1.351   4.488   8.059 -1.4759 -0.0857  0.7406
 2829SOL     OW19948   0.227   1.862   4.987 -0.3360 -0.0542 -0.1459
 2829SOL    HW119949   0.224   1.771   5.016  3.9012  0.3799  1.5085
 2829SOL    HW219950   0.279   1.833   4.912 -2.3770 -0.7542 -1.2950
 2830SOL     OW19951   4.170   4.705   4.733  0.4340  0.1099  0.5674
 2830SOL    HW119952   4.114   4.685   4.808 -0.2489 -0.0761  0.0036
 2830SOL    HW219953   4.201   4.616   4.717  1.0953  0.1840  1.4274
 2831SOL     OW19954   2.881   3.101   0.082 -0.1633  0.4881  0.2957
 2831SOL    HW119955   2.882   3.015   0.122  2.0027  0.7524  0.7576
 2831SOL    HW219956   2.966   3.135   0.110  0.0131 -0.8624  1.3841
 2832SOL     OW19957   4.686   2.824   2.307 -0.6139  0.5061 -0.3194
 2832SOL    HW119958   4.660   2.851   2.395  2.0205  2.1369 -0.0461
 2832SOL    HW219959   0.037   2.761   2.317  0.1010  1.3557 -0.1078
 2833SOL     OW19960   4.236   2.600   7.626 -0.0426 -0.4243  0.1404
 2833SOL    HW119961   4.152   2.615   7.670  1.2798  3.2800  1.3737
 2833SOL    HW219962   4.298   2.606   7.699 -1.7622  0.9786  1.4761
 2834SOL     OW19963   3.137   2.016  16.083 -0.3328 -0.5895  0.3321
 2834SOL    HW119964   3.190   2.024  16.004 -1.8315 -0.4079 -0.6657
 2834SOL    HW219965   3.049   2.011  16.045 -0.2869  0.7698  0.0325
 2835SOL     OW19966   3.102   0.492   7.144  0.0638 -1.2058 -0.2240
 2835SOL    HW119967   3.180   0.543   7.164 -0.6217 -0.4573  0.4988
 2835SOL    HW219968   3.068   0.533   7.064  0.2491  2.6958  1.6974
 2836SOL     OW19969   1.667   3.499   2.591 -0.2200  0.1303  0.3077
 2836SOL    HW119970   1.650   3.593   2.602 -1.9733 -0.4228  2.2124
 2836SOL    HW219971   1.744   3.497   2.535 -0.1307 -1.8700  0.5261
 2837SOL     OW19972   4.338   0.068  11.541  0.6944 -0.3028  1.4769
 2837SOL    HW119973   4.330   0.049  11.448  1.1833 -0.7566  1.5289
 2837SOL    HW219974   4.308   4.712  11.590  0.5113 -1.8457 -1.0909
 2838SOL     OW19975   3.521   3.705   7.036  0.6313 -0.4293 -0.4506
 2838SOL    HW119976   3.584   3.751   7.091  1.5624  0.5347 -2.3140
 2838SOL    HW219977   3.575   3.632   7.006  1.3557  0.6245 -1.7291
 2839SOL     OW19978   3.342   3.114  16.813 -0.3146  0.1936  0.3813
 2839SOL    HW119979   3.332   3.161  16.896  0.8484 -0.8295  1.0947
 2839SOL    HW219980   3.281   3.043  16.831  0.5596 -0.8489 -0.7651
 2840SOL     OW19981   3.361   2.288  11.004  0.5729 -0.2659 -0.1801
 2840SOL    HW119982   3.324   2.375  10.995 -1.0703 -1.1655 -2.2281
 2840SOL    HW219983   3.376   2.285  11.098 -1.5153  1.3657  0.1868
 2841SOL     OW19984   3.009   4.129   4.779  0.2349  0.2194 -0.0026
 2841SOL    HW119985   3.076   4.094   4.720  0.8930  2.7437 -0.7626
 2841SOL    HW219986   3.030   4.222   4.770 -0.9831  0.3918 -0.9750
 2842SOL     OW19987   3.350   4.058   7.263 -0.2717  0.5910  0.1278
 2842SOL    HW119988   3.400   4.119   7.318 -0.6265  0.1354  0.9622
 2842SOL    HW219989   3.417   4.025   7.203 -1.2462  0.0761 -0.6809
 2843SOL     OW19990   2.412   1.276   6.444  0.1101 -0.0201 -0.0190
 2843SOL    HW119991   2.479   1.208   6.452  0.9599  1.0247  1.7607
 2843SOL    HW219992   2.465   1.347   6.407 -2.6025  1.4861 -1.0052
 2844SOL     OW19993   0.541   4.443   7.752 -0.2130 -0.2120  0.2663
 2844SOL    HW119994   0.483   4.450   7.677 -2.2031 -0.0796  1.8161
 2844SOL    HW219995   0.554   4.535   7.775  0.1437  0.3320 -2.1584
 2845SOL     OW19996   4.633   1.687   6.042 -0.1301  0.6291 -0.0885
 2845SOL    HW119997   4.583   1.676   5.961  0.9574  0.6900 -0.7826
 2845SOL    HW219998   4.681   1.769   6.031  0.4666  0.3989  0.8180
 2846SOL     OW19999   3.021   2.330  15.353  1.1845  0.6086  0.0953
 2846SOL    HW120000   3.076   2.407  15.362  0.3691  0.9614  2.0949
 2846SOL    HW220001   2.949   2.358  15.409  1.7921  1.3639  0.4878
 2847SOL     OW20002   3.175   0.192   2.696 -0.0437 -0.5447  0.3705
 2847SOL    HW120003   3.143   0.178   2.607 -2.1792  0.3842  0.9878
 2847SOL    HW220004   3.095   0.167   2.742 -0.9811 -1.9527 -2.0047
 2848SOL     OW20005   3.693   1.067   2.174  0.2204 -0.0466 -0.0576
 2848SOL    HW120006   3.787   1.083   2.169  0.3472 -0.1675  1.8136
 2848SOL    HW220007   3.687   1.013   2.253 -0.7739  0.4954  0.2364
 2849SOL     OW20008   0.918   4.074   6.000 -0.0033 -0.7442  0.2994
 2849SOL    HW120009   0.990   4.048   6.059  1.0061 -1.4972 -1.2625
 2849SOL    HW220010   0.887   4.152   6.045 -0.8509 -0.9806  0.1161
 2850SOL     OW20011   4.656   1.422   6.647 -0.0621 -0.3573 -0.2995
 2850SOL    HW120012   0.008   1.367   6.616  0.6594 -1.5354  3.4408
 2850SOL    HW220013   4.647   1.398   6.740  0.8816 -0.4299 -0.2227
 2851SOL     OW20014   3.371   1.049   0.516 -0.6155  0.0757  1.2136
 2851SOL    HW120015   3.464   1.027   0.522 -0.3089  0.7622 -0.8188
 2851SOL    HW220016   3.377   1.135   0.474  0.8574  0.0770  1.4342
 2852SOL     OW20017   0.705   2.895   1.283  0.3067  0.0251  0.1819
 2852SOL    HW120018   0.719   2.913   1.376  1.0170  1.2721 -0.1685
 2852SOL    HW220019   0.773   2.829   1.267  0.5951  0.2022  0.6888
 2853SOL     OW20020   3.678   4.127   1.202 -0.6593 -0.2163  0.4089
 2853SOL    HW120021   3.704   4.204   1.152 -0.6085 -0.2063  0.4504
 2853SOL    HW220022   3.748   4.122   1.268 -0.0114 -5.1667 -0.6588
 2854SOL     OW20023   3.013   2.975   1.992 -0.1147  0.2289 -0.5201
 2854SOL    HW120024   3.103   2.951   2.012 -0.0648  0.0680 -0.9383
 2854SOL    HW220025   3.023   3.015   1.906 -0.6934  1.9599  0.2064
 2855SOL     OW20026   2.558   0.597  10.730  0.0058 -0.1655 -0.4563
 2855SOL    HW120027   2.549   0.674  10.786  0.5826 -2.0045  2.1313
 2855SOL    HW220028   2.594   0.627  10.646 -1.8126  0.9084 -0.8536
 2856SOL     OW20029   2.480   0.362  12.911  0.0332  0.1951  0.2249
 2856SOL    HW120030   2.497   0.344  13.004 -0.8760 -3.4530 -0.3577
 2856SOL    HW220031   2.542   0.434  12.897  0.9865 -0.3236  1.7452
 2857SOL     OW20032   3.659   4.126   4.217 -0.5100 -0.3113  0.1216
 2857SOL    HW120033   3.739   4.098   4.173  0.0003 -1.1042  1.5288
 2857SOL    HW220034   3.689   4.139   4.307  1.1375 -2.0342 -0.1539
 2858SOL     OW20035   0.565   3.815  14.219 -0.5082 -0.5434 -0.1474
 2858SOL    HW120036   0.493   3.859  14.264 -0.0562 -0.3515  0.3943
 2858SOL    HW220037   0.532   3.727  14.203  0.3967 -0.7128 -1.0314
 2859SOL     OW20038   4.300   0.662   5.023  0.0499 -0.5667  0.1897
 2859SOL    HW120039   4.339   0.726   4.964  0.8231 -1.4347 -0.2382
 2859SOL    HW220040   4.332   0.686   5.110  0.4156  1.3174 -0.4608
 2860SOL     OW20041   2.102   3.085   5.341 -0.5927 -0.7770  0.0869
 2860SOL    HW120042   2.176   3.116   5.394 -1.0663  1.5418 -0.6191
 2860SOL    HW220043   2.034   3.109   5.405  0.8668  3.8570 -0.1688
 2861SOL     OW20044   3.762   3.903  11.717  0.1395  0.0752  0.1329
 2861SOL    HW120045   3.736   3.909  11.626  1.1070 -2.0901 -0.3009
 2861SOL    HW220046   3.719   3.983  11.746 -2.0908 -0.3655 -1.9757
 2862SOL     OW20047   2.061   1.670  13.167 -0.4640 -0.6769 -0.1364
 2862SOL    HW120048   2.127   1.636  13.107  0.5976  1.8682 -0.3918
 2862SOL    HW220049   2.022   1.726  13.100 -0.1451  0.4563  0.6281
 2863SOL     OW20050   2.818   1.061   9.664  0.0040  0.5024 -0.0127
 2863SOL    HW120051   2.819   1.137   9.723 -2.6834 -1.2738  2.3103
 2863SOL    HW220052   2.885   1.010   9.709 -2.0604 -0.2731  2.1689
 2864SOL     OW20053   2.421   2.664  16.167  0.1979  0.0526  0.2318
 2864SOL    HW120054   2.363   2.599  16.206  1.2670 -1.1232 -0.1401
 2864SOL    HW220055   2.450   2.627  16.084  0.5391 -2.1768  1.3531
 2865SOL     OW20056   1.971   0.746  16.855  0.6569 -0.1024 -0.0697
 2865SOL    HW120057   1.999   0.710  16.771 -0.2524 -0.4069 -0.2475
 2865SOL    HW220058   2.036   0.812  16.880  0.0285  1.3036 -2.1984
 2866SOL     OW20059   2.977   4.173   8.986 -0.1136 -0.8209 -0.4404
 2866SOL    HW120060   2.942   4.158   8.898 -0.9799 -0.9494 -0.0748
 2866SOL    HW220061   3.065   4.201   8.962 -0.0502  0.0805  0.8190
 2867SOL     OW20062   4.436   3.072   2.601 -0.0678 -0.3569 -0.3018
 2867SOL    HW120063   4.514   3.044   2.553 -1.3538 -0.8632 -2.0744
 2867SOL    HW220064   4.437   3.004   2.669 -1.2137 -1.6702 -1.6134
 2868SOL     OW20065   3.372   3.370   5.373 -0.4174 -0.1058  0.2829
 2868SOL    HW120066   3.459   3.375   5.334 -0.7452 -3.0739 -0.8505
 2868SOL    HW220067   3.367   3.460   5.404 -0.2614  0.1613 -0.4691
 2869SOL     OW20068   2.497   1.293   0.414  0.2083 -0.2634 -0.4174
 2869SOL    HW120069   2.550   1.368   0.387  0.7505 -1.2354 -2.0630
 2869SOL    HW220070   2.414   1.329   0.447  0.1256  0.2361 -1.1651
 2870SOL     OW20071   0.217   1.245  15.598  0.0982 -0.2619 -0.1157
 2870SOL    HW120072   0.149   1.274  15.659 -0.2954 -0.1393 -0.6090
 2870SOL    HW220073   0.301   1.249  15.642  0.1544 -2.4050 -0.0533
 2871SOL     OW20074   3.888   4.494   7.789 -0.0300  0.2273 -0.1103
 2871SOL    HW120075   3.886   4.530   7.700 -0.7192 -3.1445 -1.4647
 2871SOL    HW220076   3.814   4.433   7.796  1.4641 -1.6895 -1.0743
 2872SOL     OW20077   0.240   2.233   9.014  0.4188  0.1306 -0.2791
 2872SOL    HW120078   0.150   2.209   8.992  0.4655  0.9872 -1.4050
 2872SOL    HW220079   0.232   2.279   9.097  0.0589 -1.0300  0.3258
 2873SOL     OW20080   3.004   2.865   3.170  0.1477 -0.3315  0.6522
 2873SOL    HW120081   2.944   2.803   3.128 -0.2080 -0.2802  1.0749
 2873SOL    HW220082   2.942   2.929   3.205 -0.2939  0.2756 -1.2842
 2874SOL     OW20083   3.626   0.051  17.079 -0.4308  0.5276 -0.1358
 2874SOL    HW120084   3.560   4.709  17.050  0.2545 -1.4580  2.5353
 2874SOL    HW220085   3.703   0.033  17.026  0.4013  0.3275  1.1350
 2875SOL     OW20086   2.745   0.768   7.231 -0.3281  0.1503 -0.2923
 2875SOL    HW120087   2.717   0.725   7.151  0.0338 -0.1259 -0.2707
 2875SOL    HW220088   2.810   0.707   7.265 -0.1495  1.6108  2.0308
 2876SOL     OW20089   4.123   0.226   2.463  0.6293 -0.5272 -0.6504
 2876SOL    HW120090   4.130   0.316   2.497  1.0321 -1.2026  1.0523
 2876SOL    HW220091   4.067   0.244   2.387  1.1116  2.6764 -0.2801
 2877SOL     OW20092   1.173   2.349   9.435  0.5923 -0.6172 -0.1343
 2877SOL    HW120093   1.246   2.309   9.481  1.6748  0.0219 -1.2978
 2877SOL    HW220094   1.176   2.442   9.459  1.5762 -1.2021  1.8989
 2878SOL     OW20095   0.265   2.384   4.384  0.1633  0.0031 -0.2149
 2878SOL    HW120096   0.333   2.406   4.319 -0.6586  1.4280 -0.5968
 2878SOL    HW220097   0.224   2.470   4.396  0.6888 -0.2691  3.3094
 2879SOL     OW20098   1.297   4.271  11.626 -0.8535  0.5418 -0.0528
 2879SOL    HW120099   1.325   4.317  11.547 -1.1147  0.1380 -0.3829
 2879SOL    HW220100   1.357   4.197  11.635 -2.4602 -0.7463  0.0863
 2880SOL     OW20101   3.225   0.673   4.198 -0.2455  0.2885 -0.0069
 2880SOL    HW120102   3.263   0.734   4.135 -2.3559  0.6155 -0.9543
 2880SOL    HW220103   3.147   0.656   4.146 -0.5608 -0.7679  0.7899
 2881SOL     OW20104   2.859   0.854  10.036  0.5879 -0.1015 -0.1359
 2881SOL    HW120105   2.870   0.758  10.036 -0.1755 -0.1873 -0.1351
 2881SOL    HW220106   2.900   0.886  10.117  0.2970 -0.7213  0.2591
 2882SOL     OW20107   0.480   2.749   8.543 -0.5682 -0.1984 -0.0010
 2882SOL    HW120108   0.409   2.716   8.488  2.0249 -1.3660 -2.6404
 2882SOL    HW220109   0.520   2.804   8.476 -1.2432  1.5094  1.0073
 2883SOL     OW20110   4.348   1.728   5.198  0.6345  0.1154 -0.1192
 2883SOL    HW120111   4.438   1.704   5.220  0.3237 -0.1395  0.8543
 2883SOL    HW220112   4.345   1.713   5.103 -1.1706  2.5183 -0.4313
 2884SOL     OW20113   4.705   4.422   5.454 -0.1918 -0.4411  0.2871
 2884SOL    HW120114   0.072   4.448   5.425 -0.2589 -0.4350  0.0885
 2884SOL    HW220115   4.670   4.396   5.369 -1.1523 -0.0005  0.5408
 2885SOL     OW20116   1.348   1.268   7.891  0.4883  0.0181 -0.2588
 2885SOL    HW120117   1.424   1.211   7.905 -1.0556 -1.6639  1.3631
 2885SOL    HW220118   1.385   1.336   7.836  1.6371 -0.8559 -0.5809
 2886SOL     OW20119   0.055   4.565  10.327  0.2741  0.7870  0.4833
 2886SOL    HW120120   0.068   4.599  10.239  2.0889  1.9511  1.1945
 2886SOL    HW220121   0.115   4.615  10.383  0.8377  0.3930  0.2409
 2887SOL     OW20122   4.541   1.284  10.523 -0.6309 -0.0329 -0.0548
 2887SOL    HW120123   4.597   1.258  10.597 -0.5562 -0.1618 -0.1574
 2887SOL    HW220124   4.521   1.199  10.485 -1.9959  0.1900  0.1766
 2888SOL     OW20125   1.298   1.746   3.087  0.2544 -0.3182 -0.2325
 2888SOL    HW120126   1.372   1.688   3.102 -0.4374 -1.8988 -2.9073
 2888SOL    HW220127   1.287   1.734   2.993 -1.2724  0.1697 -0.1230
 2889SOL     OW20128   2.904   1.194  13.070 -0.2580  0.3922  0.4591
 2889SOL    HW120129   2.850   1.273  13.067  1.5474  1.6539  1.3292
 2889SOL    HW220130   2.992   1.232  13.062 -0.2749  0.5099  0.8452
 2890SOL     OW20131   0.158   1.990  16.168  0.3855  0.0017 -0.0051
 2890SOL    HW120132   0.065   2.008  16.155  0.5499 -0.5974 -2.0089
 2890SOL    HW220133   0.152   1.898  16.195 -0.0472 -0.6226 -2.2112
 2891SOL     OW20134   1.888   2.880   2.013 -0.2039 -0.1636 -0.3794
 2891SOL    HW120135   1.828   2.860   1.941  2.0896 -0.6542 -2.1492
 2891SOL    HW220136   1.869   2.811   2.077  2.7122 -0.9532 -0.3739
 2892SOL     OW20137   0.433   3.087   0.237  0.1841  0.7886 -0.1875
 2892SOL    HW120138   0.361   3.058   0.293  0.9885 -0.8200  0.0024
 2892SOL    HW220139   0.509   3.082   0.295  1.1363 -1.1329 -1.5656
 2893SOL     OW20140   2.270   2.904   5.058 -0.0170  0.1562  0.0063
 2893SOL    HW120141   2.233   2.988   5.030  0.2066  0.3093  0.1746
 2893SOL    HW220142   2.358   2.927   5.087 -0.7435  0.5986  1.8431
 2894SOL     OW20143   2.373   4.335   5.510  0.6439  0.6760 -0.3091
 2894SOL    HW120144   2.417   4.412   5.545  2.4015 -0.0031 -1.0630
 2894SOL    HW220145   2.413   4.344   5.424  0.8562 -1.6129 -0.4521
 2895SOL     OW20146   3.158   1.547   1.443  0.3543  0.2861 -0.3618
 2895SOL    HW120147   3.165   1.614   1.375 -0.5193 -0.3281 -1.0569
 2895SOL    HW220148   3.063   1.545   1.461  0.0356  1.1951 -1.9904
 2896SOL     OW20149   2.947   4.295  13.219 -0.1385  0.5497  0.0251
 2896SOL    HW120150   2.996   4.345  13.154  0.3907 -0.4082 -0.3052
 2896SOL    HW220151   2.959   4.351  13.296 -0.8271 -1.8786  1.9077
 2897SOL     OW20152   0.862   2.985   0.497 -0.3417 -0.1102  0.3735
 2897SOL    HW120153   0.954   2.972   0.472 -0.6683 -0.6556 -0.5285
 2897SOL    HW220154   0.871   3.003   0.591  3.2770  0.8062 -0.1382
 2898SOL     OW20155   1.433   2.789  10.878  0.3288 -0.0305 -0.2681
 2898SOL    HW120156   1.363   2.725  10.863 -0.4592  1.3349 -2.4505
 2898SOL    HW220157   1.440   2.834  10.794  3.8073  0.0956  0.1171
 2899SOL     OW20158   0.947   3.061  15.036 -0.2423 -0.0213  0.0102
 2899SOL    HW120159   0.917   3.026  14.952  1.1545  2.8216 -1.6633
 2899SOL    HW220160   1.042   3.061  15.027 -0.4413 -1.1358 -2.0789
 2900SOL     OW20161   1.303   2.686   5.571  0.1208 -0.1043  0.5088
 2900SOL    HW120162   1.255   2.630   5.510  0.6254 -1.5503  1.4361
 2900SOL    HW220163   1.354   2.625   5.623 -0.0774  0.6856  1.6329
 2901SOL     OW20164   3.860   2.651  12.875  0.3570  0.1957 -0.5860
 2901SOL    HW120165   3.800   2.666  12.947  0.3606  0.3884 -0.6212
 2901SOL    HW220166   3.821   2.713  12.813 -0.9887  0.1406  0.2188
 2902SOL     OW20167   3.547   4.011   8.772 -0.0150 -0.5508  0.3761
 2902SOL    HW120168   3.463   3.969   8.793  0.7541 -1.2033  2.0939
 2902SOL    HW220169   3.532   4.096   8.813  1.6752 -0.0951  0.0285
 2903SOL     OW20170   3.047   1.822   6.554  0.2278 -0.6444  0.0245
 2903SOL    HW120171   3.015   1.788   6.470 -0.6899  0.1544  0.0453
 2903SOL    HW220172   2.971   1.879   6.564  1.5751  0.7285  2.4208
 2904SOL     OW20173   3.028   2.212   3.396 -0.0438 -0.3104  0.5908
 2904SOL    HW120174   2.935   2.232   3.390  0.3656  1.8905  1.4646
 2904SOL    HW220175   3.049   2.213   3.303  1.0699  1.0082  0.8575
 2905SOL     OW20176   1.768   2.563   7.903  0.3428 -0.4891 -0.2568
 2905SOL    HW120177   1.715   2.604   7.972  0.4410 -0.1581 -0.3764
 2905SOL    HW220178   1.837   2.627   7.886  0.9450 -0.7253  1.3195
 2906SOL     OW20179   1.616   0.993  17.473  0.1311 -0.0980  0.3692
 2906SOL    HW120180   1.672   1.057  17.428 -2.2229  0.1321 -2.2387
 2906SOL    HW220181   1.572   0.957  17.396 -0.3462  0.6539  0.2933
 2907SOL     OW20182   3.860   3.846  10.377  0.2403 -0.5153  0.7140
 2907SOL    HW120183   3.787   3.889  10.421 -0.4596  0.1766 -1.1276
 2907SOL    HW220184   3.936   3.885  10.421 -2.1871  1.1101  3.5512
 2908SOL     OW20185   4.064   0.001   8.751 -0.5406 -0.0794 -0.6049
 2908SOL    HW120186   4.027   4.677   8.674 -0.7386 -0.3494 -0.3544
 2908SOL    HW220187   4.005   4.683   8.816  0.3442 -2.0386 -0.9217
 2909SOL     OW20188   0.754   2.966   7.333  0.5783 -0.0806 -0.3178
 2909SOL    HW120189   0.712   3.044   7.298 -1.8867 -2.5896 -2.9733
 2909SOL    HW220190   0.845   2.974   7.304  0.4230  1.4781 -0.3551
 2910SOL     OW20191   4.288   3.200   4.126 -0.2856  0.5934  0.7031
 2910SOL    HW120192   4.292   3.105   4.130 -0.0599  0.6797  2.3675
 2910SOL    HW220193   4.372   3.221   4.168 -0.9709 -0.6508  2.6889
 2911SOL     OW20194   3.669   4.699   3.337 -0.5340 -0.1546 -0.0815
 2911SOL    HW120195   3.650   4.692   3.431 -1.7647  2.1470 -0.1631
 2911SOL    HW220196   3.738   4.633   3.344  1.8991  2.1965 -2.2556
 2912SOL     OW20197   2.844   2.809  10.000  0.1998  0.0899  0.8005
 2912SOL    HW120198   2.857   2.765  10.084  0.2405  0.7505  1.1452
 2912SOL    HW220199   2.935   2.833   9.981 -0.4987  1.6120 -0.6170
 2913SOL     OW20200   4.602   1.938  11.869  0.2549  0.2872  0.5383
 2913SOL    HW120201   4.691   1.905  11.860 -0.0061 -0.3212  0.1107
 2913SOL    HW220202   4.545   1.874  11.826  0.6553  0.4805 -0.2800
 2914SOL     OW20203   2.607   1.869   7.758  0.3775 -0.0543 -0.1886
 2914SOL    HW120204   2.613   1.854   7.852  0.3837 -3.7328 -0.7537
 2914SOL    HW220205   2.684   1.922   7.739  0.8682 -0.8801 -0.4873
 2915SOL     OW20206   2.581   1.369  16.224  0.0051 -0.1200  0.3853
 2915SOL    HW120207   2.497   1.329  16.200 -0.4030  0.8701  0.1388
 2915SOL    HW220208   2.610   1.416  16.146  1.0660 -0.5632  0.5245
 2916SOL     OW20209   3.456   3.094   4.325 -0.3681 -0.1749  0.5118
 2916SOL    HW120210   3.549   3.107   4.311 -0.3542 -2.4423 -1.6668
 2916SOL    HW220211   3.434   3.128   4.412  0.3208 -0.3278  0.7455
 2917SOL     OW20212   3.792   2.207   6.322  0.3330  0.4381  0.0378
 2917SOL    HW120213   3.743   2.180   6.400  2.4140  0.1306  1.2586
 2917SOL    HW220214   3.723   2.218   6.257  0.2439 -0.7210 -0.0484
 2918SOL     OW20215   3.899   4.232   3.907 -0.0725 -0.4244 -0.5352
 2918SOL    HW120216   3.993   4.246   3.918 -0.4079  1.6074 -0.2462
 2918SOL    HW220217   3.890   4.186   3.991  0.7792 -0.4427 -0.4545
 2919SOL     OW20218   2.687   0.219   2.343 -0.2073  0.1487  0.4948
 2919SOL    HW120219   2.697   0.173   2.260  0.0184 -0.2643  0.7498
 2919SOL    HW220220   2.757   0.283   2.330 -1.9327  1.9892  0.3301
 2920SOL     OW20221   2.352   1.121   9.448 -0.5406 -0.2176  0.2745
 2920SOL    HW120222   2.371   1.117   9.542 -1.5635 -0.9629  0.4410
 2920SOL    HW220223   2.404   1.047   9.417  1.1414  0.7187  0.8619
 2921SOL     OW20224   3.961   2.472   5.484 -0.0219 -0.8299  0.4036
 2921SOL    HW120225   3.987   2.436   5.400 -0.9884  0.3324 -0.3928
 2921SOL    HW220226   3.936   2.390   5.527  0.6978 -0.3764  1.6990
 2922SOL     OW20227   2.686   2.953   5.880 -0.0831 -0.2132 -1.2907
 2922SOL    HW120228   2.739   3.018   5.926 -0.0957 -0.2212 -1.2652
 2922SOL    HW220229   2.687   2.879   5.941  0.5254  1.3449  0.5803
 2923SOL     OW20230   3.207   1.023  10.028  0.3768  0.0215 -0.7256
 2923SOL    HW120231   3.202   0.940  10.076  0.6844 -0.8360 -2.1817
 2923SOL    HW220232   3.276   0.999   9.966 -0.3936 -1.2211 -1.0881
 2924SOL     OW20233   0.575   2.942   0.592  0.4695  0.8114  0.2107
 2924SOL    HW120234   0.598   3.006   0.525  1.6806  0.2046  0.0481
 2924SOL    HW220235   0.582   3.002   0.666  1.4282 -1.9554  2.4024
 2925SOL     OW20236   3.807   1.100   0.122 -0.7882  0.0281 -0.3988
 2925SOL    HW120237   3.797   1.017   0.076 -0.7635  0.1870 -0.6926
 2925SOL    HW220238   3.732   1.142   0.080 -0.7393  0.0831 -0.4311
 2926SOL     OW20239   2.177   1.869  12.755  0.0959  0.0834 -0.5240
 2926SOL    HW120240   2.214   1.787  12.786 -2.8252 -0.6346  1.0242
 2926SOL    HW220241   2.256   1.920  12.737 -0.6422  2.2211  2.2514
 2927SOL     OW20242   2.343   0.170   2.414 -0.6641 -0.0516  0.4432
 2927SOL    HW120243   2.361   0.172   2.508  1.4134  0.4785  0.0423
 2927SOL    HW220244   2.432   0.162   2.380 -1.1802  1.7410 -1.2829
 2928SOL     OW20245   3.830   1.579   6.867  0.2113 -0.0955 -0.1297
 2928SOL    HW120246   3.837   1.559   6.774 -0.6776 -4.4316  0.7249
 2928SOL    HW220247   3.777   1.659   6.869  1.2555  0.5755  0.7749
 2929SOL     OW20248   3.330   3.234   7.720 -0.0601  0.5909  0.0985
 2929SOL    HW120249   3.349   3.259   7.811  0.9384  0.2672 -0.0183
 2929SOL    HW220250   3.420   3.234   7.688  0.1334  0.2020  0.6352
 2930SOL     OW20251   2.249   2.499   8.182 -0.0567 -0.2446 -0.1509
 2930SOL    HW120252   2.318   2.515   8.246 -1.9191  1.0616  1.5165
 2930SOL    HW220253   2.171   2.496   8.237 -1.6109 -0.9121 -2.3962
 2931SOL     OW20254   0.462   0.263  11.671  0.7574 -0.2106  0.3141
 2931SOL    HW120255   0.434   0.320  11.743  0.5438 -0.7114  0.6337
 2931SOL    HW220256   0.553   0.289  11.656  0.4410  0.6386 -0.1284
 2932SOL     OW20257   3.173   3.285   4.810  0.1986 -0.0536  0.1189
 2932SOL    HW120258   3.117   3.244   4.745  2.3063 -1.5301 -0.7556
 2932SOL    HW220259   3.160   3.223   4.882  1.9479  1.1216  1.4681
 2933SOL     OW20260   1.173   0.477   6.244  0.3439 -0.5609  0.3337
 2933SOL    HW120261   1.229   0.426   6.185  0.7628  2.0459 -1.5218
 2933SOL    HW220262   1.232   0.548   6.272 -0.4652 -0.5845  2.0466
 2934SOL     OW20263   0.913   4.057   3.034 -0.5621 -0.0259 -0.2687
 2934SOL    HW120264   1.007   4.039   3.029 -0.6669 -0.7961  0.7448
 2934SOL    HW220265   0.916   4.151   3.053 -2.3464 -0.1566  0.6165
 2935SOL     OW20266   1.874   0.731  17.332  0.3245 -0.0494 -0.9139
 2935SOL    HW120267   1.945   0.701  17.275 -1.2895 -1.0379 -2.3748
 2935SOL    HW220268   1.852   0.817  17.296  0.7955  1.0877  1.5398
 2936SOL     OW20269   1.220   3.029  10.937 -0.2661  0.0358 -0.8037
 2936SOL    HW120270   1.187   2.942  10.959  0.8576 -0.1395  0.2631
 2936SOL    HW220271   1.259   3.009  10.852 -2.6163 -2.3545 -1.3073
 2937SOL     OW20272   0.731   1.474   3.296  0.2038 -0.2061 -0.3107
 2937SOL    HW120273   0.726   1.561   3.257 -2.0180 -0.4559 -0.5821
 2937SOL    HW220274   0.823   1.450   3.282  0.0931 -0.4755 -0.5818
 2938SOL     OW20275   1.326   2.159   9.097 -0.1196  0.2589  0.2273
 2938SOL    HW120276   1.376   2.078   9.089 -0.5677  0.1242 -1.1393
 2938SOL    HW220277   1.275   2.139   9.175 -0.9370 -0.3292 -0.4639
 2939SOL     OW20278   3.820   1.720  16.695 -0.5224 -0.3703 -0.5610
 2939SOL    HW120279   3.899   1.771  16.675 -0.3146  0.0342  1.3549
 2939SOL    HW220280   3.758   1.771  16.643 -0.9257  0.9063  1.1880
 2940SOL     OW20281   0.144   3.001  11.075 -0.2128  0.2939 -0.3936
 2940SOL    HW120282   0.239   2.999  11.069 -0.0600  1.8985  1.4989
 2940SOL    HW220283   0.119   2.939  11.006  1.3355  0.8291 -1.4318
 2941SOL     OW20284   3.905   1.709  10.008 -0.0391  0.2695 -0.3400
 2941SOL    HW120285   3.965   1.687   9.937  1.3391  2.2615  0.2006
 2941SOL    HW220286   3.925   1.803  10.013 -1.2099  0.4094  1.5222
 2942SOL     OW20287   3.672   2.390  13.793 -0.3147  0.3203 -1.1127
 2942SOL    HW120288   3.581   2.401  13.818 -0.1430 -3.0536  1.0829
 2942SOL    HW220289   3.716   2.453  13.850 -0.7189 -1.1031  0.7553
 2943SOL     OW20290   3.391   4.684   8.534  0.3258 -0.2438  0.5518
 2943SOL    HW120291   3.315   4.717   8.582 -1.0394 -0.6672 -1.3364
 2943SOL    HW220292   3.429   4.621   8.595 -2.4603 -3.5496 -1.1920
 2944SOL     OW20293   0.795   0.828   1.666 -0.0196  0.0474  0.1677
 2944SOL    HW120294   0.885   0.796   1.663 -0.4688 -0.8692 -3.0681
 2944SOL    HW220295   0.809   0.920   1.690  1.9340 -0.2772  0.3027
 2945SOL     OW20296   3.245   4.695  12.458  0.4887 -0.0420  0.4965
 2945SOL    HW120297   3.243   4.616  12.513  0.1522  0.9141  1.8419
 2945SOL    HW220298   3.287   0.025  12.528 -0.8407  1.8035 -0.0399
 2946SOL     OW20299   1.946   1.551   6.839  0.0606 -0.1055 -0.0143
 2946SOL    HW120300   1.952   1.481   6.773 -0.3365  0.1840 -0.3582
 2946SOL    HW220301   2.030   1.540   6.883 -1.2450 -0.1582  2.4600
 2947SOL     OW20302   4.693   3.088   4.121 -0.5134  0.0114  0.2364
 2947SOL    HW120303   0.067   3.094   4.140 -0.5018  2.1970 -0.4088
 2947SOL    HW220304   4.691   3.087   4.025 -0.1311 -0.8948  0.2426
 2948SOL     OW20305   1.948   2.449   8.794 -0.4076 -0.0075  0.0055
 2948SOL    HW120306   2.008   2.382   8.827 -0.7783 -0.9621 -1.2559
 2948SOL    HW220307   1.942   2.508   8.870  0.9625 -0.8931  0.8048
 2949SOL     OW20308   0.651   4.613   3.339  0.6312 -0.2690 -0.2041
 2949SOL    HW120309   0.728   4.567   3.373  1.0635 -0.4281 -1.4140
 2949SOL    HW220310   0.646   4.577   3.251 -1.0426 -1.2594  0.3067
 2950SOL     OW20311   4.638   3.117   7.821  0.1675 -0.6233 -0.1190
 2950SOL    HW120312   4.611   3.090   7.909  0.8333  0.8528  0.5435
 2950SOL    HW220313   4.698   3.190   7.836 -1.6677  1.6522 -4.0119
 2951SOL     OW20314   3.384   1.147   3.120  0.2267 -0.2284 -0.0136
 2951SOL    HW120315   3.476   1.169   3.135  0.2061 -0.1299 -0.0325
 2951SOL    HW220316   3.399   1.069   3.066  0.1511  0.9286 -1.7101
 2952SOL     OW20317   2.150   0.839   5.283  0.1139  0.0846  0.2719
 2952SOL    HW120318   2.201   0.825   5.203  0.4812 -1.3494  0.7701
 2952SOL    HW220319   2.176   0.761   5.331  0.2347  1.0611  1.7953
 2953SOL     OW20320   2.550   1.876  10.003 -0.0377  0.5236 -0.7924
 2953SOL    HW120321   2.481   1.911   9.948 -2.5726 -0.5750  1.7133
 2953SOL    HW220322   2.505   1.868  10.087  3.2783 -1.4318  0.8156
 2954SOL     OW20323   1.600   1.314  15.610 -0.0456 -0.2976 -0.0805
 2954SOL    HW120324   1.538   1.287  15.678 -0.2984  1.7004  0.4823
 2954SOL    HW220325   1.646   1.232  15.594  0.6636  0.3896 -1.5473
 2955SOL     OW20326   3.554   4.519   1.763  0.2292 -0.5308  0.6398
 2955SOL    HW120327   3.644   4.499   1.737 -0.2782 -1.0749 -0.6599
 2955SOL    HW220328   3.527   4.428   1.768  2.0815 -1.0428  1.1632
 2956SOL     OW20329   4.323   2.173   9.006  0.1980 -0.7099  0.2082
 2956SOL    HW120330   4.242   2.173   8.956  0.8348  2.3029 -0.7933
 2956SOL    HW220331   4.339   2.079   9.000 -1.2016 -0.9408  0.0823
 2957SOL     OW20332   1.636   3.976   8.752 -0.0964  0.1248 -0.3769
 2957SOL    HW120333   1.707   4.036   8.775  0.3812 -1.2889  1.8343
 2957SOL    HW220334   1.627   3.927   8.834 -1.4702 -0.4977 -0.8926
 2958SOL     OW20335   0.669   1.036   7.813  0.0019  0.3311 -0.4976
 2958SOL    HW120336   0.701   1.094   7.743 -1.8811  0.5109 -1.1973
 2958SOL    HW220337   0.738   1.053   7.878  0.1948 -0.1125 -0.5800
 2959SOL     OW20338   0.251   3.002  16.337 -0.3287  0.3497  0.4201
 2959SOL    HW120339   0.307   2.931  16.307 -0.3727 -1.0100  3.4901
 2959SOL    HW220340   0.208   3.029  16.256  2.8815  2.2516 -0.6769
 2960SOL     OW20341   4.422   1.582   5.864 -0.3149  0.0862  0.1633
 2960SOL    HW120342   4.378   1.658   5.903 -0.9910  1.1560 -2.6490
 2960SOL    HW220343   4.436   1.609   5.773  1.6609 -1.0801  0.1367
 2961SOL     OW20344   4.192   4.607   4.411 -0.2850 -0.0549  0.7401
 2961SOL    HW120345   4.199   4.553   4.332 -1.4225  0.8859  0.0021
 2961SOL    HW220346   4.187   4.537   4.477 -4.1739 -0.2237  0.2891
 2962SOL     OW20347   1.220   3.606   0.230  0.2504 -0.0091  0.5094
 2962SOL    HW120348   1.268   3.594   0.312 -1.3866 -1.1846  1.2964
 2962SOL    HW220349   1.138   3.564   0.255  0.9518 -0.5778  1.8526
 2963SOL     OW20350   2.355   1.553  13.352  0.0839 -0.2317 -0.8836
 2963SOL    HW120351   2.264   1.577  13.372  0.4125 -0.1739  0.5381
 2963SOL    HW220352   2.371   1.509  13.436 -2.0234  1.7016  0.5485
 2964SOL     OW20353   4.350   2.275   9.256 -0.5111  0.4133 -0.2432
 2964SOL    HW120354   4.384   2.186   9.250 -0.0625  0.3272  3.4384
 2964SOL    HW220355   4.337   2.284   9.162 -0.2646 -0.0752 -0.3234
 2965SOL     OW20356   0.891   4.654   2.689 -0.3501  0.2462 -0.7191
 2965SOL    HW120357   0.815   4.679   2.637 -0.6691 -0.4235 -0.5732
 2965SOL    HW220358   0.953   0.005   2.674 -0.1142  0.4398  1.1902
 2966SOL     OW20359   0.827   4.456   4.867  0.3509  0.1175 -0.2692
 2966SOL    HW120360   0.866   4.414   4.944  1.2475 -1.3793 -1.5278
 2966SOL    HW220361   0.754   4.502   4.909  0.9884  0.0541  0.9110
 2967SOL     OW20362   2.467   0.035   7.958  0.0356 -0.2590  0.0541
 2967SOL    HW120363   2.457   4.701   7.880 -1.0660  0.7820 -0.5283
 2967SOL    HW220364   2.562   0.036   7.972 -0.0257  1.4216  0.3839
 2968SOL     OW20365   4.079   4.567  14.225  0.0970 -0.4121 -0.1197
 2968SOL    HW120366   4.134   4.581  14.302  0.5233  0.2420 -0.5460
 2968SOL    HW220367   4.030   4.488  14.249 -1.6396  1.1292  1.3200
 2969SOL     OW20368   2.759   0.735   9.414  0.0903  0.2469  0.4269
 2969SOL    HW120369   2.720   0.664   9.465  2.8427 -1.8466 -0.4269
 2969SOL    HW220370   2.849   0.746   9.443  0.4739 -0.3474 -0.5438
 2970SOL     OW20371   4.162   1.070  11.054  0.0791  0.0267 -0.0098
 2970SOL    HW120372   4.161   1.161  11.084 -1.6901  0.2614 -0.7750
 2970SOL    HW220373   4.080   1.064  11.004 -0.1342  0.0549  0.3400
 2971SOL     OW20374   4.279   1.973   8.252  0.3657 -0.6557 -0.3865
 2971SOL    HW120375   4.281   2.038   8.322  0.4431 -3.3553  2.1184
 2971SOL    HW220376   4.358   1.924   8.274 -1.0573 -3.4085 -1.2955
 2972SOL     OW20377   4.661   3.653   4.821 -0.2634 -0.0268  0.5666
 2972SOL    HW120378   4.595   3.643   4.890 -0.4272 -2.0106  0.1055
 2972SOL    HW220379   0.019   3.649   4.877  0.6686  0.0717 -0.7402
 2973SOL     OW20380   2.261   1.832  12.430 -0.1418  0.2059  0.2614
 2973SOL    HW120381   2.266   1.753  12.484  0.5766 -0.4862 -0.8308
 2973SOL    HW220382   2.171   1.828  12.399  0.1113  2.8728 -0.8259
 2974SOL     OW20383   3.914   3.501  11.197 -0.1161 -0.1281 -0.2828
 2974SOL    HW120384   3.842   3.526  11.139 -0.5922 -2.7108 -0.8042
 2974SOL    HW220385   3.929   3.412  11.165 -1.7297  0.6053 -3.0723
 2975SOL     OW20386   0.518   3.867   6.482  0.0621  0.1759 -0.0033
 2975SOL    HW120387   0.585   3.836   6.543  0.3030 -1.8172 -1.3011
 2975SOL    HW220388   0.448   3.805   6.503  1.8931 -2.2787 -1.1636
 2976SOL     OW20389   1.839   1.660  17.644  0.1886  0.4017 -0.2792
 2976SOL    HW120390   1.765   1.614   0.002  0.3602 -1.0656 -1.5976
 2976SOL    HW220391   1.908   1.652   0.026  0.5753  3.0802 -0.3687
 2977SOL     OW20392   3.866   3.635   1.008 -0.6284  0.3055 -0.6387
 2977SOL    HW120393   3.823   3.624   1.093 -0.4100  1.4266 -0.3724
 2977SOL    HW220394   3.800   3.695   0.971  1.5309  2.7385 -0.5664
 2978SOL     OW20395   0.740   1.471   4.438 -0.2865 -0.9470  0.1213
 2978SOL    HW120396   0.649   1.491   4.456 -0.1076 -0.0181 -0.0427
 2978SOL    HW220397   0.771   1.527   4.509 -1.3369  0.9539 -0.9509
 2979SOL     OW20398   3.692   0.220  11.157  0.1808 -0.4253  0.4060
 2979SOL    HW120399   3.625   0.159  11.189 -1.1613  0.7071 -0.2361
 2979SOL    HW220400   3.684   0.287  11.225  0.0446 -1.4956  1.4496
 2980SOL     OW20401   2.286   2.873   8.367  0.8642 -0.1461 -0.0988
 2980SOL    HW120402   2.228   2.904   8.437  1.4441 -0.5714  0.5677
 2980SOL    HW220403   2.363   2.855   8.421 -0.3393 -1.6557  1.1435
 2981SOL     OW20404   2.011   1.923   2.261  0.1583 -0.5879  0.0498
 2981SOL    HW120405   1.993   1.975   2.183  0.2464 -0.2482  0.2528
 2981SOL    HW220406   1.994   1.832   2.237  0.9304 -0.1987 -1.9129
 2982SOL     OW20407   2.845   1.284  12.002  0.3178 -0.1331 -0.3138
 2982SOL    HW120408   2.816   1.358  12.055  1.8657 -0.9835  1.7105
 2982SOL    HW220409   2.867   1.218  12.067  1.2800  1.9225  1.4667
 2983SOL     OW20410   3.059   1.829   4.908 -0.3283  0.5401 -0.5229
 2983SOL    HW120411   3.148   1.826   4.943  0.1698 -1.2640 -1.9501
 2983SOL    HW220412   3.086   1.825   4.816  0.7305 -1.7098 -0.1016
 2984SOL     OW20413   0.352   3.675   2.101  0.4134  0.5611  0.4211
 2984SOL    HW120414   0.391   3.706   2.183  1.3706 -0.3621  0.3107
 2984SOL    HW220415   0.335   3.763   2.069  0.7065  0.3544 -0.2949
 2985SOL     OW20416   0.168   3.668   2.842  0.3855 -0.4637 -0.1537
 2985SOL    HW120417   0.151   3.575   2.857  1.5662 -0.7121 -0.3216
 2985SOL    HW220418   0.075   3.689   2.851  0.3620  0.0120 -1.3794
 2986SOL     OW20419   0.489   2.370  10.366 -0.5165 -0.0265 -0.4065
 2986SOL    HW120420   0.408   2.331  10.333 -0.3024 -2.1300  1.5954
 2986SOL    HW220421   0.453   2.407  10.447 -2.5165 -1.0178 -0.8509
 2987SOL     OW20422   3.251   2.193   3.158 -0.8002  0.0079  0.3947
 2987SOL    HW120423   3.330   2.179   3.105 -1.6375  1.0102 -1.1132
 2987SOL    HW220424   3.278   2.132   3.226 -0.7272  1.2197  1.4519
 2988SOL     OW20425   4.132   2.050  11.578  0.2223  0.9330  0.8141
 2988SOL    HW120426   4.084   2.103  11.515 -0.2729 -0.5052 -0.0041
 2988SOL    HW220427   4.062   2.017  11.634  0.9389 -1.5937  0.2479
 2989SOL     OW20428   4.359   2.283   2.304  0.0401  0.0022  0.3140
 2989SOL    HW120429   4.402   2.264   2.221  1.4166 -0.0376  1.0431
 2989SOL    HW220430   4.427   2.253   2.364  0.0238 -1.1744 -0.2517
 2990SOL     OW20431   3.229   3.233   4.255  0.0888 -0.6027  0.6403
 2990SOL    HW120432   3.149   3.189   4.284  1.0768 -0.6673  3.2525
 2990SOL    HW220433   3.296   3.165   4.267  1.5690  0.6591 -0.3916
 2991SOL     OW20434   0.407   1.809   4.793 -0.2478  0.4267  0.5232
 2991SOL    HW120435   0.474   1.874   4.814 -0.4037  0.8435 -0.2649
 2991SOL    HW220436   0.403   1.805   4.697 -1.0399 -2.5175  0.6614
 2992SOL     OW20437   3.130   2.929   8.264  0.0233 -0.1774  0.2053
 2992SOL    HW120438   3.149   3.023   8.263  0.4855 -0.2861 -1.6219
 2992SOL    HW220439   3.035   2.934   8.280  0.3644  1.4578  1.6971
 2993SOL     OW20440   4.292   3.451   1.167 -1.0667  0.1286 -0.2072
 2993SOL    HW120441   4.284   3.370   1.117 -1.0875 -0.7457  1.2180
 2993SOL    HW220442   4.387   3.455   1.181 -1.3244 -0.1654  1.6007
 2994SOL     OW20443   1.364   0.771   1.798 -0.3038  0.0719  0.1242
 2994SOL    HW120444   1.335   0.715   1.726 -1.1130 -0.5824  0.9689
 2994SOL    HW220445   1.406   0.710   1.859  1.2816 -0.1996 -1.2274
 2995SOL     OW20446   2.152   2.671   9.105 -0.2240 -0.4127 -0.3764
 2995SOL    HW120447   2.129   2.755   9.144 -2.4341 -1.0506 -0.2917
 2995SOL    HW220448   2.192   2.630   9.181 -0.0633 -0.6795 -0.6043
 2996SOL     OW20449   2.075   1.418   6.082  0.4124 -0.1037 -0.0669
 2996SOL    HW120450   2.096   1.493   6.027  2.0102 -0.1171  0.5106
 2996SOL    HW220451   2.078   1.355   6.010  1.4641 -2.0165  1.6610
 2997SOL     OW20452   3.440   1.012   7.677 -0.2050  0.1731  0.2484
 2997SOL    HW120453   3.366   1.069   7.654  0.1391 -0.8232 -3.3662
 2997SOL    HW220454   3.480   1.071   7.740 -0.0937 -1.6832  1.9020
 2998SOL     OW20455   3.050   2.698   5.115 -0.3095 -0.0950 -0.1413
 2998SOL    HW120456   3.010   2.689   5.029 -2.0248  0.3643  0.6087
 2998SOL    HW220457   3.011   2.779   5.146 -2.9196 -0.1269 -3.3255
 2999SOL     OW20458   0.027   0.544   7.551 -0.5140  0.0337 -0.5538
 2999SOL    HW120459   4.679   0.589   7.501  2.0382  3.1949 -1.1277
 2999SOL    HW220460   0.108   0.581   7.515 -1.1283  0.2139 -1.7575
 3000SOL     OW20461   3.049   0.853  10.267 -0.1058 -0.4026 -0.0933
 3000SOL    HW120462   3.127   0.818  10.223  0.6976  2.1021 -0.6882
 3000SOL    HW220463   3.034   0.777  10.322 -1.8317 -0.8458 -1.1690
 3001SOL     OW20464   0.983   0.879   8.172  0.4586  0.0818  0.1711
 3001SOL    HW120465   1.011   0.798   8.215  1.5829  0.6925  0.5961
 3001SOL    HW220466   0.903   0.854   8.126 -0.1706  1.1219  0.7160
 3002SOL     OW20467   2.709   0.219   6.573  0.2402 -0.5483  0.6762
 3002SOL    HW120468   2.678   0.291   6.518  0.9720 -2.0024 -1.6399
 3002SOL    HW220469   2.790   0.254   6.610 -0.3297  1.4284  0.0541
 3003SOL     OW20470   4.474   1.082   7.347 -0.0229  0.3326  1.3546
 3003SOL    HW120471   4.479   1.108   7.439  1.7148 -0.0396  1.3608
 3003SOL    HW220472   4.553   1.124   7.315 -0.2973  0.0958  0.3815
 3004SOL     OW20473   1.901   3.807   7.034 -0.1583 -0.0205 -0.2797
 3004SOL    HW120474   1.971   3.795   6.970 -0.1050 -2.4603  0.2522
 3004SOL    HW220475   1.893   3.717   7.065  0.2630  0.1921  0.4388
 3005SOL     OW20476   1.045   2.906   3.894  0.0227  0.2387 -0.5205
 3005SOL    HW120477   1.045   3.001   3.878 -1.7488  0.1952 -0.7520
 3005SOL    HW220478   1.003   2.897   3.979  0.4803  0.4134 -0.2777
 3006SOL     OW20479   0.603   0.575   5.003 -0.7659 -0.2094  0.2710
 3006SOL    HW120480   0.516   0.542   5.025 -1.0250  0.9590  1.0195
 3006SOL    HW220481   0.604   0.575   4.907 -0.9859 -0.1569  0.2681
 3007SOL     OW20482   4.438   3.778   5.841  0.1422  0.1494  0.0422
 3007SOL    HW120483   4.459   3.707   5.902 -0.5496 -1.3469 -1.4912
 3007SOL    HW220484   4.374   3.817   5.901 -1.6442  0.2307 -1.9292
 3008SOL     OW20485   3.471   0.526   1.820  0.5936 -0.2695 -0.0262
 3008SOL    HW120486   3.383   0.560   1.835 -0.4825 -2.4476 -1.3938
 3008SOL    HW220487   3.488   0.469   1.895  2.0271 -0.5055 -0.5218
 3009SOL     OW20488   1.525   2.262   3.520 -0.7900 -0.3418  0.4294
 3009SOL    HW120489   1.518   2.226   3.432  1.1779 -1.4235  0.7108
 3009SOL    HW220490   1.614   2.242   3.549 -0.7201  0.3245  0.6826
 3010SOL     OW20491   1.906   0.221   3.391 -0.5645 -0.2027 -0.4936
 3010SOL    HW120492   1.827   0.272   3.373 -0.6507  0.9047  2.9275
 3010SOL    HW220493   1.920   0.189   3.302 -2.1156 -0.3829 -0.6657
 3011SOL     OW20494   2.742   1.172   6.521  0.2310  0.7803  0.3132
 3011SOL    HW120495   2.776   1.196   6.434 -1.0676  2.1759  0.1824
 3011SOL    HW220496   2.708   1.252   6.560 -0.5859  0.6055 -0.0338
 3012SOL     OW20497   1.761   1.841   9.201 -0.3052  0.4544  0.0330
 3012SOL    HW120498   1.774   1.852   9.295  0.3753 -1.5430  0.1767
 3012SOL    HW220499   1.690   1.777   9.210  0.6378 -0.9583 -2.7056
 3013SOL     OW20500   4.208   1.179   1.387 -0.1414 -0.0399  0.2784
 3013SOL    HW120501   4.263   1.254   1.406  2.5525 -1.0664 -3.3726
 3013SOL    HW220502   4.239   1.115   1.451 -0.3984  1.7210  2.1363
 3014SOL     OW20503   2.001   3.869  10.187 -0.6485 -0.6470 -0.5674
 3014SOL    HW120504   1.938   3.886  10.117 -0.6827 -1.6670 -0.7873
 3014SOL    HW220505   2.071   3.820  10.144  0.6261 -0.7809  1.6867
 3015SOL     OW20506   1.675   3.599   1.886  0.2283 -0.6687  0.1374
 3015SOL    HW120507   1.704   3.629   1.972  0.2435 -1.8561  0.5417
 3015SOL    HW220508   1.590   3.561   1.911 -0.6931  2.0295  1.1452
 3016SOL     OW20509   2.207   2.244  16.372  0.2241  0.0982 -0.4484
 3016SOL    HW120510   2.208   2.209  16.283  1.9134 -1.2471  0.0869
 3016SOL    HW220511   2.273   2.195  16.422 -1.2264 -2.5165 -1.1335
 3017SOL     OW20512   3.229   1.816   0.343  0.2029 -0.1976  0.8836
 3017SOL    HW120513   3.251   1.900   0.383  1.6475 -1.5226  2.8738
 3017SOL    HW220514   3.278   1.829   0.262 -0.1018 -0.2861  0.6854
 3018SOL     OW20515   4.558   1.204   3.401  0.8531  0.0681  0.0875
 3018SOL    HW120516   4.574   1.210   3.495  1.8637  0.8704 -0.1312
 3018SOL    HW220517   4.578   1.295   3.380  0.7527 -0.3633 -1.8587
 3019SOL     OW20518   2.966   1.619   0.132 -0.0009 -0.0042 -0.2334
 3019SOL    HW120519   2.880   1.622   0.091 -0.6314 -1.7543  0.9614
 3019SOL    HW220520   2.979   1.524   0.138  0.4617  0.0626 -0.2068
 3020SOL     OW20521   4.165   2.124  17.316  0.0503 -0.2428 -0.1030
 3020SOL    HW120522   4.155   2.051  17.378 -1.4099 -1.1468 -1.4018
 3020SOL    HW220523   4.076   2.130  17.282 -0.0787 -1.2131  0.0644
 3021SOL     OW20524   0.051   2.788   9.768 -0.4019 -0.1908  0.2089
 3021SOL    HW120525   4.712   2.787   9.843 -1.8275  1.7756 -0.9002
 3021SOL    HW220526   0.112   2.857   9.795  0.5150 -1.6875  1.9280
 3022SOL     OW20527   4.028   1.653  14.409  0.4946 -0.3360  0.2213
 3022SOL    HW120528   3.946   1.698  14.389  0.0343 -1.0837  0.4703
 3022SOL    HW220529   4.091   1.720  14.380  0.4962 -0.6550 -0.5198
 3023SOL     OW20530   4.329   2.634  12.704  0.3613 -0.2277  0.3386
 3023SOL    HW120531   4.249   2.608  12.750  0.2085 -2.0318 -0.9908
 3023SOL    HW220532   4.334   2.728  12.723 -1.5778 -0.3062  1.2931
 3024SOL     OW20533   4.211   3.178   5.067  0.4616  0.1721 -0.1303
 3024SOL    HW120534   4.150   3.171   5.141  1.5591 -1.2030  0.6634
 3024SOL    HW220535   4.169   3.245   5.014 -0.8138  0.6511  1.4776
 3025SOL     OW20536   3.767   3.740  13.916  0.2725 -0.0080  0.0076
 3025SOL    HW120537   3.860   3.733  13.894 -0.0470  3.5714 -2.4326
 3025SOL    HW220538   3.774   3.793  13.995  0.0866  0.6084 -0.3956
 3026SOL     OW20539   0.119   1.138   9.560  0.1326 -0.3412  0.1774
 3026SOL    HW120540   0.192   1.160   9.619 -0.4748  1.7582  0.1621
 3026SOL    HW220541   0.164   1.077   9.502 -0.1826  0.0517 -0.4682
 3027SOL     OW20542   2.786   1.583   5.809  0.0358 -0.1644  0.0737
 3027SOL    HW120543   2.738   1.519   5.862 -2.8141  1.9761  0.0713
 3027SOL    HW220544   2.711   1.641   5.797 -0.4271 -0.9349 -0.8280
 3028SOL     OW20545   3.498   1.262   4.148 -0.2201 -0.3579 -0.0001
 3028SOL    HW120546   3.456   1.326   4.091 -0.6131 -1.1377 -0.5837
 3028SOL    HW220547   3.528   1.316   4.221  1.8819  0.7490 -1.6987
 3029SOL     OW20548   2.748   0.245   6.194  0.1371  0.3043  0.0465
 3029SOL    HW120549   2.780   0.173   6.139 -0.2043 -0.2240  0.5287
 3029SOL    HW220550   2.654   0.226   6.191  0.1105  0.4959 -0.2763
 3030SOL     OW20551   0.148   2.882   5.743  0.3860  0.0804  0.5046
 3030SOL    HW120552   0.201   2.846   5.814 -0.1336 -1.6566  0.0045
 3030SOL    HW220553   0.162   2.976   5.758  0.1893  0.1998 -0.0393
 3031SOL     OW20554   3.735   4.431   3.991 -0.1445  0.0039 -0.4456
 3031SOL    HW120555   3.784   4.424   4.073  0.8423  1.5632 -0.9056
 3031SOL    HW220556   3.759   4.351   3.945 -0.1994 -0.2600 -0.0207
 3032SOL     OW20557   0.859   1.820   2.537  0.1482  0.0384 -0.5484
 3032SOL    HW120558   0.914   1.781   2.604  0.6759  1.8110  0.0666
 3032SOL    HW220559   0.777   1.770   2.534  0.2811 -0.1397 -1.2259
 3033SOL     OW20560   3.080   1.267   0.771 -0.2896 -0.2778  0.9775
 3033SOL    HW120561   3.096   1.176   0.745  3.0965  0.4611  0.5516
 3033SOL    HW220562   3.079   1.263   0.867  0.3550  3.0033  1.1144
 3034SOL     OW20563   3.441   4.000   2.923  0.0878  0.7454 -0.8113
 3034SOL    HW120564   3.421   4.027   2.834  0.3277  0.2237 -1.0212
 3034SOL    HW220565   3.449   4.083   2.970  0.8517  1.4196 -2.1474
 3035SOL     OW20566   2.922   0.293   4.858 -0.0634  0.1430 -0.0272
 3035SOL    HW120567   2.914   0.358   4.927 -1.6883 -0.5970  0.4841
 3035SOL    HW220568   3.015   0.272   4.849  0.0027  0.0872  0.8402
 3036SOL     OW20569   2.243   3.619   5.695  0.1634  0.2106  0.0958
 3036SOL    HW120570   2.298   3.695   5.679  1.8824 -2.2484 -5.6661
 3036SOL    HW220571   2.157   3.660   5.705 -0.1990 -0.6381  0.4687
 3037SOL     OW20572   1.565   4.598  17.478 -0.1049 -0.2411 -0.3471
 3037SOL    HW120573   1.631   4.606  17.409  0.6640 -0.7858  0.3175
 3037SOL    HW220574   1.543   4.505  17.474  2.7005 -0.9095 -0.4758
 3038SOL     OW20575   1.051   3.468  12.992  0.5483  0.1264  0.1264
 3038SOL    HW120576   0.994   3.394  13.014  0.2416 -0.0929 -1.4358
 3038SOL    HW220577   1.135   3.424  12.987  0.8476  0.6517  0.5499
 3039SOL     OW20578   4.346   3.949   3.157 -0.0496  0.1215  0.0458
 3039SOL    HW120579   4.355   3.867   3.205 -0.6559 -0.8136 -1.4300
 3039SOL    HW220580   4.303   3.922   3.076 -0.4403  0.2075  0.2278
 3040SOL     OW20581   0.964   1.316   4.498 -0.3321 -0.1166  0.0821
 3040SOL    HW120582   1.018   1.395   4.493 -0.3916  0.0633  2.2541
 3040SOL    HW220583   0.879   1.356   4.482 -0.9257 -1.0017  1.0360
 3041SOL     OW20584   1.573   1.592   6.330  0.0188  0.2772 -0.0916
 3041SOL    HW120585   1.584   1.615   6.237  0.8794 -0.3386 -0.1415
 3041SOL    HW220586   1.536   1.503   6.335 -0.7016  0.6257  0.7280
 3042SOL     OW20587   1.448   0.684   0.377  0.2066  0.5739  0.5030
 3042SOL    HW120588   1.446   0.606   0.321  2.6297 -0.4561  1.8404
 3042SOL    HW220589   1.531   0.725   0.356 -0.3051  1.8480  0.9623
 3043SOL     OW20590   3.529   1.202   9.435 -0.3307  0.0055 -0.7172
 3043SOL    HW120591   3.499   1.258   9.365  1.3238  1.1938 -0.4844
 3043SOL    HW220592   3.515   1.116   9.395  0.5453  1.1736 -3.5115
 3044SOL     OW20593   0.543   2.125   8.124 -0.4801  0.5175 -0.6952
 3044SOL    HW120594   0.629   2.160   8.146  0.3019 -2.7470  1.4351
 3044SOL    HW220595   0.563   2.044   8.078 -1.5847 -0.1943  0.0989
 3045SOL     OW20596   3.566   3.134   7.624  0.0217 -0.3158 -0.1142
 3045SOL    HW120597   3.544   3.071   7.692 -0.7354  1.3237  1.1565
 3045SOL    HW220598   3.659   3.145   7.645 -0.3445  0.5371  1.0236
 3046SOL     OW20599   4.254   2.390   8.191 -0.5425 -0.1201 -0.1348
 3046SOL    HW120600   4.330   2.352   8.147 -2.0252  0.3418 -3.0900
 3046SOL    HW220601   4.188   2.331   8.155 -1.6527  0.1427  1.4575
 3047SOL     OW20602   4.179   1.725   4.334 -0.1020 -0.0172  0.7924
 3047SOL    HW120603   4.131   1.724   4.417 -1.7677  0.9242 -0.1794
 3047SOL    HW220604   4.265   1.728   4.377 -0.6459  0.0592  1.8875
 3048SOL     OW20605   4.357   1.431   8.847  0.2429 -0.1642  0.1035
 3048SOL    HW120606   4.390   1.341   8.852  1.5343  0.3655  1.3331
 3048SOL    HW220607   4.372   1.468   8.760  0.2012 -0.7041 -0.1281
 3049SOL     OW20608   1.557   0.917   9.692  0.2393 -0.7345  0.4879
 3049SOL    HW120609   1.489   0.977   9.722  0.7054 -0.2698  0.6139
 3049SOL    HW220610   1.528   0.840   9.741  0.3817  1.0203  3.2711
 3050SOL     OW20611   2.986   0.133   6.448 -0.0650  0.7459 -0.8288
 3050SOL    HW120612   3.075   0.128   6.415  0.5419  2.1314  0.6444
 3050SOL    HW220613   2.950   0.072   6.383  2.1503  0.3183 -1.6440
 3051SOL     OW20614   2.532   2.758  16.415 -0.0313 -0.6378 -0.4388
 3051SOL    HW120615   2.491   2.746  16.329  0.2522  1.3009 -0.8343
 3051SOL    HW220616   2.625   2.755  16.393  0.1215  1.9158 -0.1799
 3052SOL     OW20617   4.016   1.220   0.547 -0.0856 -0.2343  0.1834
 3052SOL    HW120618   4.075   1.145   0.559 -1.4010 -1.6029 -1.8980
 3052SOL    HW220619   4.063   1.259   0.473 -1.0890 -0.2773 -0.4640
 3053SOL     OW20620   1.157   2.908   2.777  0.1342 -0.3051 -0.1835
 3053SOL    HW120621   1.182   2.979   2.718 -2.2751  2.0074  1.5566
 3053SOL    HW220622   1.094   2.948   2.837  0.1045  0.3014 -0.6169
 3054SOL     OW20623   2.506   0.102   3.598 -0.0453  0.1352  0.3164
 3054SOL    HW120624   2.578   0.042   3.616 -0.7519 -0.3676  1.5144
 3054SOL    HW220625   2.500   0.156   3.677 -0.4754 -2.5049  2.0691
 3055SOL     OW20626   2.743   2.383   7.807 -0.2035 -0.0034  0.1095
 3055SOL    HW120627   2.674   2.371   7.742  2.5214 -0.9411 -2.6625
 3055SOL    HW220628   2.708   2.436   7.878  3.0133  0.8610  1.0718
 3056SOL     OW20629   1.643   3.775   5.923 -0.1011 -0.5533  0.4459
 3056SOL    HW120630   1.610   3.720   5.995  1.8563 -0.5374  1.3567
 3056SOL    HW220631   1.634   3.717   5.847 -0.0128  0.7368 -0.5380
 3057SOL     OW20632   1.782   1.427   6.468 -0.0785 -0.4100 -0.5410
 3057SOL    HW120633   1.816   1.477   6.393  0.6898  1.5692  1.1176
 3057SOL    HW220634   1.702   1.479   6.476  1.0025  0.6041  3.5264
 3058SOL     OW20635   4.597   1.545   8.921 -0.4064  0.5971 -0.1318
 3058SOL    HW120636   4.618   1.501   8.838  1.8797  0.4556  0.5332
 3058SOL    HW220637   4.506   1.515   8.926 -0.5081  0.9019 -0.1901
 3059SOL     OW20638   1.378   1.082  14.340 -0.4031 -0.5631 -0.5250
 3059SOL    HW120639   1.440   1.154  14.335  0.0661 -1.0446 -1.6132
 3059SOL    HW220640   1.429   1.014  14.297 -1.3608 -0.2537 -2.1358
 3060SOL     OW20641   3.325   3.802   6.605  0.0263 -0.0807 -0.9980
 3060SOL    HW120642   3.393   3.812   6.671 -0.1218 -3.1029 -0.3688
 3060SOL    HW220643   3.372   3.758   6.535 -1.2808 -1.4800 -0.9978
 3061SOL     OW20644   0.162   3.035   9.357 -0.4326  0.1296 -0.5389
 3061SOL    HW120645   0.141   3.007   9.267 -2.5520 -1.4797  0.4410
 3061SOL    HW220646   0.190   3.125   9.345  0.5709 -0.3033 -1.4703
 3062SOL     OW20647   4.064   3.045  15.052  0.2141 -0.2520  0.3729
 3062SOL    HW120648   4.020   2.968  15.087 -0.9547  1.2929  2.3393
 3062SOL    HW220649   4.110   3.006  14.978  0.2435  0.3330  0.0823
 3063SOL     OW20650   3.600   1.197  12.749  0.3776  0.6708  0.1990
 3063SOL    HW120651   3.511   1.217  12.777  0.4600 -2.5102  2.6881
 3063SOL    HW220652   3.661   1.255  12.795  1.6613  1.5383 -2.5443
 3064SOL     OW20653   1.761   2.796  11.829 -0.6584 -0.6573  1.0311
 3064SOL    HW120654   1.835   2.856  11.825 -2.0184  0.9052 -0.6764
 3064SOL    HW220655   1.724   2.801  11.741  0.0461 -2.1038  0.6524
 3065SOL     OW20656   2.178   2.871   2.138 -0.4471 -0.2116 -0.0656
 3065SOL    HW120657   2.131   2.788   2.131 -0.8598  0.1732 -1.8079
 3065SOL    HW220658   2.111   2.938   2.127  0.0779  0.3989  0.4351
 3066SOL     OW20659   0.984   2.876   6.675 -0.4146 -0.0907 -0.2744
 3066SOL    HW120660   0.982   2.819   6.753  1.7611  1.5166  0.9413
 3066SOL    HW220661   1.065   2.925   6.685 -1.1639  0.7811  1.4722
 3067SOL     OW20662   0.044   3.054   6.039  0.5115 -0.4516 -0.4491
 3067SOL    HW120663   0.040   2.963   6.070  1.2469 -0.8691 -1.5837
 3067SOL    HW220664   0.117   3.091   6.087 -1.1978  1.0380  1.0146
 3068SOL     OW20665   2.251   2.680  16.484  0.1210 -0.2289 -0.5337
 3068SOL    HW120666   2.341   2.701  16.460  0.2797 -0.1047  0.1778
 3068SOL    HW220667   2.203   2.759  16.461 -1.0933 -1.0970 -1.0334
 3069SOL     OW20668   2.519   2.434   3.685  0.6764  0.3842 -0.4804
 3069SOL    HW120669   2.477   2.387   3.757  0.3650  0.3708 -0.6721
 3069SOL    HW220670   2.555   2.358   3.639 -2.2922 -0.3927 -1.5067
 3070SOL     OW20671   2.477   4.475   8.210 -0.0198  0.3019  0.9342
 3070SOL    HW120672   2.507   4.488   8.120 -3.0504 -0.6728 -0.2524
 3070SOL    HW220673   2.399   4.421   8.192 -0.7437  0.0961  4.6228
 3071SOL     OW20674   2.367   4.596   3.082  0.1466 -0.0172  0.0502
 3071SOL    HW120675   2.292   4.547   3.047 -0.1557  1.6228 -1.6306
 3071SOL    HW220676   2.353   4.583   3.175  0.1613  1.6772  0.2830
 3072SOL     OW20677   0.065   3.432   6.060 -0.4501  0.0672  0.0542
 3072SOL    HW120678   0.051   3.344   6.096 -2.3637  0.1524 -0.5047
 3072SOL    HW220679   4.700   3.465   6.031 -0.5580  0.6270  1.0051
 3073SOL     OW20680   2.061   1.911  12.999  0.4763 -0.2381 -0.5080
 3073SOL    HW120681   2.113   1.916  12.918  2.3845  0.1091  0.7482
 3073SOL    HW220682   1.979   1.876  12.963 -1.4691  1.6882  2.1165
 3074SOL     OW20683   2.628   1.708  12.888  0.2802 -0.1771 -0.9109
 3074SOL    HW120684   2.718   1.689  12.913 -0.2518 -0.8448  0.5144
 3074SOL    HW220685   2.606   1.773  12.955  1.4059  0.3426 -1.0334
 3075SOL     OW20686   0.732   3.869   0.217 -1.0307  0.2000 -0.1979
 3075SOL    HW120687   0.773   3.904   0.138  0.7693  1.9251  1.5360
 3075SOL    HW220688   0.644   3.841   0.192 -1.0894 -0.3091  0.5540
 3076SOL     OW20689   3.405   1.296   2.539 -0.7087  0.3375  0.7981
 3076SOL    HW120690   3.467   1.277   2.610 -2.4380  0.9928  2.4788
 3076SOL    HW220691   3.322   1.269   2.577  0.8077 -0.8304  3.2676
 3077SOL     OW20692   0.492   2.675   9.030  0.0219 -0.4569  0.3835
 3077SOL    HW120693   0.487   2.636   9.118  1.4261 -1.6202 -0.0517
 3077SOL    HW220694   0.406   2.717   9.024  1.2872  1.8336 -1.1537
 3078SOL     OW20695   3.925   2.395   7.547 -0.8479  0.2213 -0.8763
 3078SOL    HW120696   3.934   2.331   7.477  3.1771  0.4478 -0.5725
 3078SOL    HW220697   3.883   2.466   7.499 -0.6726  0.7926 -0.1940
 3079SOL     OW20698   4.027   4.634  16.512  0.0313 -0.2148  0.1778
 3079SOL    HW120699   4.093   4.577  16.475  0.1986  0.3246 -0.3510
 3079SOL    HW220700   4.006   4.683  16.433 -1.8185 -1.9834 -0.4187
 3080SOL     OW20701   4.262   2.252   5.678  0.5302 -0.5209 -0.0603
 3080SOL    HW120702   4.203   2.201   5.622  0.9202 -1.9793  0.8743
 3080SOL    HW220703   4.269   2.340   5.641 -0.7745  0.2649  1.5243
 3081SOL     OW20704   4.528   2.890   3.344  0.4087 -0.0165  0.3497
 3081SOL    HW120705   4.546   2.800   3.368 -0.4470  0.1150  1.5047
 3081SOL    HW220706   4.461   2.916   3.408  0.1025  0.7917 -0.2975
 3082SOL     OW20707   0.566   3.515  16.533 -0.4313  0.5925 -0.0121
 3082SOL    HW120708   0.562   3.420  16.545  2.9119  0.4170 -0.3081
 3082SOL    HW220709   0.594   3.534  16.443  0.2505  1.2600  0.3438
 3083SOL     OW20710   0.745   0.938   3.328  0.0551  0.3722  0.2973
 3083SOL    HW120711   0.698   1.019   3.311 -0.5146  0.0474  0.3367
 3083SOL    HW220712   0.745   0.935   3.424  1.5200  0.7878  0.3168
 3084SOL     OW20713   4.173   2.192  10.507  0.4315  0.3688  0.2310
 3084SOL    HW120714   4.192   2.283  10.482  0.4159  0.3268  0.0640
 3084SOL    HW220715   4.135   2.211  10.592  1.3430  0.4869  0.6103
 3085SOL     OW20716   4.719   1.812   3.305 -0.3153  0.4825  0.1611
 3085SOL    HW120717   4.642   1.756   3.297  0.4510 -1.0735  3.5246
 3085SOL    HW220718   0.001   1.830   3.399 -1.3185 -0.0980  0.2953
 3086SOL     OW20719   0.343   0.476   5.422 -0.1927 -0.0123  0.2905
 3086SOL    HW120720   0.368   0.474   5.514  0.3446 -1.1540  0.1131
 3086SOL    HW220721   0.338   0.570   5.406 -1.8684  0.3681  3.1377
 3087SOL     OW20722   2.843   4.266   6.506  0.1095  0.1798  0.3478
 3087SOL    HW120723   2.906   4.233   6.571  0.0044  0.4872  0.6103
 3087SOL    HW220724   2.863   4.359   6.519  0.1982  0.0774  0.9661
 3088SOL     OW20725   0.738   0.889   7.354  0.2239 -0.0184 -0.2019
 3088SOL    HW120726   0.651   0.930   7.360  1.2696  2.6896 -3.2861
 3088SOL    HW220727   0.801   0.955   7.382 -0.2956  0.5464 -0.3497
 3089SOL     OW20728   0.574   2.811   7.167  0.2613 -0.0747  0.6263
 3089SOL    HW120729   0.644   2.872   7.191  1.0376 -0.5628 -0.4167
 3089SOL    HW220730   0.502   2.856   7.212  0.1557 -0.9101  1.2845
 3090SOL     OW20731   0.678   3.557   7.761  0.1937  0.0206 -0.0792
 3090SOL    HW120732   0.728   3.604   7.694 -0.5923  1.0127  0.0222
 3090SOL    HW220733   0.625   3.503   7.703  0.5913 -1.4779  0.9644
 3091SOL     OW20734   4.028   3.745   9.854  0.0332 -0.1479 -0.6436
 3091SOL    HW120735   4.066   3.822   9.896 -0.3519 -0.4129  0.1991
 3091SOL    HW220736   4.114   3.704   9.842 -0.4182 -1.6517  1.1740
 3092SOL     OW20737   2.321   0.508   1.183 -0.2266 -0.5873 -0.3142
 3092SOL    HW120738   2.369   0.502   1.266  0.3203 -0.3601 -0.6141
 3092SOL    HW220739   2.252   0.447   1.208 -2.1808  1.1709 -1.4958
 3093SOL     OW20740   3.451   0.262   6.547  0.6212 -0.2000  0.1450
 3093SOL    HW120741   3.457   0.335   6.609  0.8685  0.6541 -0.8903
 3093SOL    HW220742   3.464   0.178   6.591 -3.2512 -0.7008  0.3738
 3094SOL     OW20743   0.649   0.585   4.228 -0.9379 -0.1395  0.2405
 3094SOL    HW120744   0.635   0.495   4.256 -1.4767  0.9120  3.3573
 3094SOL    HW220745   0.599   0.604   4.148  2.6461 -0.5504 -2.0959
 3095SOL     OW20746   0.942   1.701   7.059 -0.1066 -0.2846 -0.5844
 3095SOL    HW120747   1.015   1.669   7.006 -0.0542 -1.0599 -0.0487
 3095SOL    HW220748   0.884   1.627   7.078  1.2409 -0.7365  1.8157
 3096SOL     OW20749   0.338   2.192   7.650  0.1565  0.4667  0.4289
 3096SOL    HW120750   0.247   2.220   7.645  0.3694  0.8802 -1.5004
 3096SOL    HW220751   0.353   2.141   7.570 -2.3183 -1.4792  1.2446
 3097SOL     OW20752   4.150   3.615   3.641 -0.3029 -0.2595 -0.3370
 3097SOL    HW120753   4.164   3.703   3.607  0.0821  0.1080  0.7795
 3097SOL    HW220754   4.134   3.635   3.733 -2.0387 -1.4905 -0.3617
 3098SOL     OW20755   2.176   3.936   8.577  0.4514 -0.5855  0.3585
 3098SOL    HW120756   2.251   3.922   8.635  1.2629 -0.7435 -0.7201
 3098SOL    HW220757   2.125   3.860   8.605  0.4124 -0.7546 -0.1728
 3099SOL     OW20758   3.524   0.759   0.327  0.3598  0.4208 -0.2432
 3099SOL    HW120759   3.572   0.819   0.383 -0.3213  2.4567 -1.8399
 3099SOL    HW220760   3.456   0.729   0.388 -0.9806  0.4060 -1.7510
 3100SOL     OW20761   0.289   3.920  15.032  0.6142  0.0612  1.2658
 3100SOL    HW120762   0.201   3.900  15.065 -0.1440  2.0820  0.4747
 3100SOL    HW220763   0.316   3.955  15.117  0.4194 -0.5564  1.5826
 3101SOL     OW20764   2.670   3.379   4.481 -0.8046 -0.2308 -0.5490
 3101SOL    HW120765   2.588   3.336   4.505 -2.2397  2.8675  0.0372
 3101SOL    HW220766   2.661   3.464   4.524 -0.5118  0.2720 -1.4773
 3102SOL     OW20767   1.721   3.809   5.483 -0.4250  0.0884  0.1164
 3102SOL    HW120768   1.686   3.745   5.545  1.9732 -0.8922  0.4502
 3102SOL    HW220769   1.638   3.854   5.466 -0.4847  0.4786  1.4422
 3103SOL     OW20770   1.037   0.928  14.529  0.1317 -0.0260  0.1844
 3103SOL    HW120771   1.014   0.860  14.592 -1.2739  0.3452  0.0706
 3103SOL    HW220772   0.986   0.890  14.457 -1.0361 -1.8881  1.9817
 3104SOL     OW20773   4.081   4.218   3.359 -0.4226 -0.1261 -0.3217
 3104SOL    HW120774   4.041   4.161   3.293  0.1630 -2.4298  1.2822
 3104SOL    HW220775   4.175   4.210   3.343 -0.3748  1.4502 -0.8169
 3105SOL     OW20776   0.216   1.292  11.553 -0.0121 -0.1220 -0.3139
 3105SOL    HW120777   0.292   1.310  11.498 -0.5410  0.9256 -0.6895
 3105SOL    HW220778   0.191   1.209  11.512 -1.1101  0.6014 -1.1077
 3106SOL     OW20779   4.532   3.805  16.233  0.0704 -0.2304  0.1856
 3106SOL    HW120780   4.534   3.713  16.207 -1.1230 -0.3429  0.5131
 3106SOL    HW220781   4.626   3.823  16.225  0.1104 -0.7082 -0.4194
 3107SOL     OW20782   2.849   1.352   8.180  0.0418 -0.2398  0.7826
 3107SOL    HW120783   2.884   1.267   8.206  1.1896 -0.2732 -0.9061
 3107SOL    HW220784   2.787   1.319   8.115  1.2220 -1.9506  0.5454
 3108SOL     OW20785   1.465   2.319   6.634  0.0286 -0.2852 -0.2382
 3108SOL    HW120786   1.387   2.296   6.685 -1.1649 -0.6554 -2.2463
 3108SOL    HW220787   1.418   2.364   6.564  1.7885 -0.7505 -1.7087
 3109SOL     OW20788   0.004   4.251  10.204 -0.3009  0.2489  0.2062
 3109SOL    HW120789   0.096   4.232  10.222 -0.7814 -0.9414  1.4615
 3109SOL    HW220790   4.697   4.165  10.171  0.3180 -0.4965  1.6077
 3110SOL     OW20791   3.035   3.098  11.641  0.2939  0.1927 -0.1667
 3110SOL    HW120792   2.946   3.098  11.675 -0.0136 -0.2590 -0.9492
 3110SOL    HW220793   3.065   3.181  11.678  1.0224  1.2207 -3.0014
 3111SOL     OW20794   0.183   2.889   3.465 -0.0694  0.3112 -0.6502
 3111SOL    HW120795   0.272   2.855   3.455 -0.3227 -0.0140 -1.8342
 3111SOL    HW220796   0.158   2.829   3.535  1.1825 -0.2970 -0.7349
 3112SOL     OW20797   0.384   3.171   7.709  0.0282  0.0389  0.1945
 3112SOL    HW120798   0.476   3.144   7.717  0.8038  1.7572 -3.0905
 3112SOL    HW220799   0.342   3.112   7.772 -1.5680  2.3362  1.2551
 3113SOL     OW20800   3.608   4.084   5.603  0.3181  0.2873 -0.5423
 3113SOL    HW120801   3.638   4.090   5.694  0.2089 -0.6327 -0.4451
 3113SOL    HW220802   3.514   4.090   5.620  0.1590 -1.8282 -0.6222
 3114SOL     OW20803   0.857   3.030   9.227  0.2999  0.1715 -0.4749
 3114SOL    HW120804   0.891   3.057   9.312 -0.7793  0.8304 -0.2444
 3114SOL    HW220805   0.813   3.112   9.208  1.6743  1.2791  1.1415
 3115SOL     OW20806   3.235   0.865  13.063  0.4151  0.4530 -0.4214
 3115SOL    HW120807   3.139   0.875  13.059  0.3509 -0.7439 -1.6993
 3115SOL    HW220808   3.242   0.830  13.152 -1.5024  0.5641 -0.2279
 3116SOL     OW20809   3.193   2.643  13.053 -0.5838  0.2764  0.5649
 3116SOL    HW120810   3.197   2.658  13.147  0.8325 -1.1891  0.7436
 3116SOL    HW220811   3.099   2.623  13.042 -0.0979 -1.2839 -0.8117
 3117SOL     OW20812   4.023   1.596   1.232  0.4347 -0.3993  0.0302
 3117SOL    HW120813   3.994   1.505   1.230 -0.5892 -0.0900  0.4572
 3117SOL    HW220814   4.092   1.606   1.298  0.1115 -1.3763  0.5256
 3118SOL     OW20815   1.539   2.865   4.716  0.0635 -0.1576 -0.3241
 3118SOL    HW120816   1.604   2.889   4.650 -2.7097  1.6364 -2.3965
 3118SOL    HW220817   1.590   2.843   4.794 -2.0627 -1.0646  0.8485
 3119SOL     OW20818   3.935   1.188  12.518  0.2475 -0.2052 -0.2177
 3119SOL    HW120819   3.904   1.206  12.607 -0.1282 -2.4857  0.1108
 3119SOL    HW220820   3.944   1.094  12.529 -0.3727 -0.3127 -0.6155
 3120SOL     OW20821   3.165   4.349  16.249  0.3624 -0.3310  0.2155
 3120SOL    HW120822   3.104   4.292  16.204  1.2544 -0.3957 -0.9188
 3120SOL    HW220823   3.143   4.435  16.213 -1.2840 -1.6237 -1.8083
 3121SOL     OW20824   1.233   3.781  17.210 -0.1741  0.6830 -0.3675
 3121SOL    HW120825   1.149   3.757  17.171 -0.1446 -1.0539  0.6050
 3121SOL    HW220826   1.222   3.771  17.305  0.2552  1.9958 -0.1788
 3122SOL     OW20827   3.261   3.462   3.828  0.3773  0.2514  0.1817
 3122SOL    HW120828   3.346   3.502   3.845  0.8238  0.7209 -3.2308
 3122SOL    HW220829   3.200   3.532   3.853  0.5045  0.1623  0.7536
 3123SOL     OW20830   4.537   0.939   3.199  0.1458 -0.2615  0.0105
 3123SOL    HW120831   4.606   0.980   3.250 -0.1629  0.0636  0.1732
 3123SOL    HW220832   4.546   0.852   3.236 -2.6900 -1.2022 -1.4309
 3124SOL     OW20833   4.337   4.478   3.100 -0.2397  0.0981 -0.5589
 3124SOL    HW120834   4.325   4.569   3.074  2.6431  0.1383 -1.7896
 3124SOL    HW220835   4.348   4.499   3.193 -1.1530 -0.1270 -0.3974
 3125SOL     OW20836   0.392   4.287   4.881 -0.1901  0.2332  0.3192
 3125SOL    HW120837   0.434   4.332   4.954  2.2048  0.4707 -1.1784
 3125SOL    HW220838   0.303   4.313   4.905 -0.9888  0.2401 -2.6285
 3126SOL     OW20839   4.004   0.519   4.074 -0.4651  0.7475  0.2090
 3126SOL    HW120840   3.982   0.426   4.086  0.3887  0.4828 -0.2506
 3126SOL    HW220841   4.082   0.527   4.130 -0.6272  0.8860  0.4155
 3127SOL     OW20842   4.162   2.548   4.700 -0.5583 -0.4455 -0.3162
 3127SOL    HW120843   4.166   2.600   4.619  0.2058  2.2495  1.4518
 3127SOL    HW220844   4.114   2.606   4.759  0.1750 -1.3018  1.1040
 3128SOL     OW20845   0.171   3.898   8.776 -0.0239 -0.7612  0.0290
 3128SOL    HW120846   0.237   3.841   8.815  1.8222  1.7326  0.5230
 3128SOL    HW220847   0.217   3.942   8.704 -0.6007 -1.4986 -0.8022
 3129SOL     OW20848   3.261   1.272  16.227  0.5155  0.7204  0.3092
 3129SOL    HW120849   3.292   1.263  16.317 -1.2585  1.7287  1.0314
 3129SOL    HW220850   3.183   1.217  16.229 -1.7781  3.9932  1.2584
 3130SOL     OW20851   2.313   0.823  10.049  0.1025 -0.1467  0.3883
 3130SOL    HW120852   2.362   0.901  10.073  0.9994 -1.1752  1.8782
 3130SOL    HW220853   2.376   0.753  10.069 -0.5438 -1.0401 -0.7050
 3131SOL     OW20854   1.437   1.433   8.937 -0.0975 -0.7117 -0.2009
 3131SOL    HW120855   1.351   1.425   8.977  0.2974  0.3425  0.8482
 3131SOL    HW220856   1.423   1.483   8.857 -0.7421 -1.2986 -0.4524
 3132SOL     OW20857   1.101   3.568   2.544 -0.4401 -0.1635  0.3197
 3132SOL    HW120858   1.113   3.648   2.595 -2.2342  1.1726 -1.3585
 3132SOL    HW220859   1.099   3.508   2.617 -2.5618  1.9964  2.0432
 3133SOL     OW20860   1.144   2.573   2.311 -0.3231 -0.3685 -0.4709
 3133SOL    HW120861   1.143   2.603   2.402  1.9544 -0.5987 -0.3671
 3133SOL    HW220862   1.231   2.532   2.311  0.5409  1.4484  1.1275
 3134SOL     OW20863   1.161   0.392   1.815  0.2486 -0.0333  0.1013
 3134SOL    HW120864   1.218   0.396   1.891  2.2544 -3.4253 -1.2110
 3134SOL    HW220865   1.076   0.383   1.858 -0.1714 -0.8893 -0.8891
 3135SOL     OW20866   2.622   4.097   9.465 -0.2388  0.0813  0.2967
 3135SOL    HW120867   2.681   4.101   9.540  3.3461  1.1772 -2.6316
 3135SOL    HW220868   2.689   4.092   9.398 -0.2222 -0.7009  0.3762
 3136SOL     OW20869   0.084   3.509   2.494  0.6054 -0.4920 -0.2569
 3136SOL    HW120870   0.082   3.454   2.415  1.3822 -0.7184 -0.1208
 3136SOL    HW220871   0.118   3.442   2.553  3.4865 -1.4797 -2.9872
 3137SOL     OW20872   2.366   1.249   9.205  0.3374 -0.0407 -0.4419
 3137SOL    HW120873   2.447   1.199   9.193  1.0308  0.5155  1.8906
 3137SOL    HW220874   2.352   1.221   9.296  1.0298 -0.0305 -0.3260
 3138SOL     OW20875   3.849   3.515  15.998  0.4340 -0.2653  0.3462
 3138SOL    HW120876   3.803   3.444  16.043 -0.3731  0.9050  1.3552
 3138SOL    HW220877   3.941   3.492  16.014  1.0704 -0.2514 -3.2198
 3139SOL     OW20878   2.733   1.656   6.484  0.1252  0.0473  0.6902
 3139SOL    HW120879   2.826   1.670   6.463 -0.4277  1.9207 -0.4716
 3139SOL    HW220880   2.715   1.734   6.536  2.6263  1.3176 -0.3678
 3140SOL     OW20881   0.878   2.561   7.288  0.2351 -0.4038 -0.1124
 3140SOL    HW120882   0.839   2.617   7.356  0.4004  0.8947 -1.0795
 3140SOL    HW220883   0.909   2.491   7.346  2.2081  0.5720  0.0149
 3141SOL     OW20884   3.966   2.338   2.893 -0.4965  0.6864  0.4752
 3141SOL    HW120885   4.033   2.269   2.891 -1.1384  0.0641  0.2123
 3141SOL    HW220886   3.974   2.379   2.807  3.0927  2.0322  1.4555
 3142SOL     OW20887   2.959   0.516  14.790  0.3268 -0.0685  0.1531
 3142SOL    HW120888   3.033   0.495  14.734  0.6042 -1.0502  0.9037
 3142SOL    HW220889   2.905   0.438  14.777 -0.5120 -0.0233  3.3728
 3143SOL     OW20890   4.443   2.731   0.300 -0.2861 -0.3868 -0.0353
 3143SOL    HW120891   4.423   2.641   0.328  1.8329 -1.0172 -0.4959
 3143SOL    HW220892   4.388   2.777   0.363 -2.4588 -1.7132 -0.9418
 3144SOL     OW20893   4.307   1.999  13.711 -0.1374 -0.1716  0.6053
 3144SOL    HW120894   4.332   1.950  13.633 -1.7158  1.2907 -0.8218
 3144SOL    HW220895   4.219   1.963  13.722 -0.9108  1.5805  0.2406
 3145SOL     OW20896   0.814   3.293   6.368  0.6128  0.4421  0.2434
 3145SOL    HW120897   0.888   3.351   6.349  0.8923  0.0096 -0.0148
 3145SOL    HW220898   0.827   3.282   6.462  2.0838 -0.7609 -0.0896
 3146SOL     OW20899   0.972   1.651   6.273 -0.3805  0.7514  0.2184
 3146SOL    HW120900   0.974   1.615   6.184  0.6332  1.0735  0.1095
 3146SOL    HW220901   1.063   1.639   6.302 -0.5169 -0.1133  0.3013
 3147SOL     OW20902   2.342   0.596   3.860 -0.2668 -0.1687 -0.3156
 3147SOL    HW120903   2.356   0.512   3.902 -0.2204 -0.0926 -0.1801
 3147SOL    HW220904   2.408   0.587   3.791  2.2277  1.9557  1.7950
 3148SOL     OW20905   1.821   2.345   8.223  1.1461 -0.5797 -0.4970
 3148SOL    HW120906   1.832   2.259   8.264 -0.5958 -1.8958 -2.7463
 3148SOL    HW220907   1.768   2.393   8.287 -0.6085 -1.7889 -1.0554
 3149SOL     OW20908   2.571   3.746  17.051  0.6178  0.0004  0.2096
 3149SOL    HW120909   2.564   3.832  17.093 -0.8417 -0.1492  0.2665
 3149SOL    HW220910   2.604   3.701  17.129  0.0235 -0.4671  0.1909
 3150SOL     OW20911   4.448   3.423  12.669 -0.0258 -0.1799  0.0717
 3150SOL    HW120912   4.520   3.485  12.652 -0.4305  0.2027 -0.2492
 3150SOL    HW220913   4.473   3.394  12.756 -0.1424 -0.0135  0.1596
 3151SOL     OW20914   0.140   0.608   3.192  0.9822 -0.2542  0.2163
 3151SOL    HW120915   0.157   0.517   3.165  1.6750  0.3029 -1.2521
 3151SOL    HW220916   0.173   0.656   3.116  1.9205 -0.1641  0.6834
 3152SOL     OW20917   4.323   4.497  15.411  0.7990  0.3868  0.3900
 3152SOL    HW120918   4.404   4.545  15.426  1.8786 -0.9972 -1.0576
 3152SOL    HW220919   4.275   4.554  15.351  1.1293 -0.7800 -0.9691
 3153SOL     OW20920   4.702   3.631   4.035 -0.4717  0.8636  0.3441
 3153SOL    HW120921   4.650   3.706   4.006 -0.7844  0.4175 -0.2364
 3153SOL    HW220922   0.035   3.614   3.957 -2.1328  1.7975 -1.0069
 3154SOL     OW20923   4.369   2.990   4.935  0.0182 -0.3101  0.1165
 3154SOL    HW120924   4.323   3.059   4.982  0.7096  0.6889 -0.6631
 3154SOL    HW220925   4.359   2.916   4.995  0.9490 -0.9874 -0.5583
 3155SOL     OW20926   3.328   1.108  14.556  0.4053 -0.2263  0.2074
 3155SOL    HW120927   3.411   1.067  14.579  1.2270 -0.3106 -2.8576
 3155SOL    HW220928   3.276   1.028  14.559 -2.9352  1.9596  0.1256
 3156SOL     OW20929   1.518   1.110  11.742  0.1971  0.2259  0.0040
 3156SOL    HW120930   1.429   1.096  11.774  0.6840 -0.7073  0.9321
 3156SOL    HW220931   1.566   1.036  11.778  1.2680  0.6711 -0.5164
 3157SOL     OW20932   2.565   2.405   4.233  0.0879 -0.0068 -0.1364
 3157SOL    HW120933   2.641   2.379   4.182  0.4049  1.5961 -0.4890
 3157SOL    HW220934   2.521   2.324   4.259  1.4264 -0.9922 -0.9314
 3158SOL     OW20935   4.389   1.668  12.723 -0.0418 -0.0458 -0.4591
 3158SOL    HW120936   4.370   1.629  12.637  0.7847 -1.7454  0.1150
 3158SOL    HW220937   4.354   1.756  12.715 -0.6967  0.0087  3.1323
 3159SOL     OW20938   2.209   2.363   7.335  0.1124  0.2980  0.3277
 3159SOL    HW120939   2.138   2.423   7.314  0.5720  1.0423  0.8886
 3159SOL    HW220940   2.232   2.386   7.425  0.0021  0.4932  0.3080
 3160SOL     OW20941   1.090   3.793   5.460  0.8075 -0.1720 -0.2275
 3160SOL    HW120942   1.131   3.746   5.388 -0.9362  0.7611 -1.8208
 3160SOL    HW220943   1.040   3.724   5.503  0.6153 -0.7002 -1.3077
 3161SOL     OW20944   3.033   1.092  12.755 -0.0659 -0.9824 -0.5274
 3161SOL    HW120945   3.022   1.019  12.815 -1.6213 -2.0633 -2.1428
 3161SOL    HW220946   3.102   1.059  12.697  0.3106 -1.2627  0.0837
 3162SOL     OW20947   1.313   2.328   3.813 -0.2981  0.1799 -0.0571
 3162SOL    HW120948   1.278   2.376   3.739  0.7995  0.8217 -0.1669
 3162SOL    HW220949   1.377   2.268   3.773 -0.5631  0.0513 -0.2863
 3163SOL     OW20950   4.326   0.280   3.861 -0.0895 -0.3580  0.6829
 3163SOL    HW120951   4.310   0.278   3.955 -0.3991  1.4750  0.6712
 3163SOL    HW220952   4.270   0.210   3.829  1.5018 -1.2517 -0.1829
 3164SOL     OW20953   4.715   2.947   9.545 -0.5126  0.0454 -0.2349
 3164SOL    HW120954   0.053   2.978   9.476 -0.9279  0.2127 -0.5079
 3164SOL    HW220955   0.019   2.980   9.631 -1.8509  2.5111 -0.8038
 3165SOL     OW20956   0.161   0.047   9.326 -0.0904 -0.1589  0.6238
 3165SOL    HW120957   0.112   0.005   9.255 -0.2943 -2.5770  2.2064
 3165SOL    HW220958   0.121   0.134   9.316 -1.6003 -0.5173  3.6597
 3166SOL     OW20959   1.309   3.705   3.824 -0.2281  0.0507  0.6046
 3166SOL    HW120960   1.252   3.781   3.817  1.0737  1.0295  0.7417
 3166SOL    HW220961   1.326   3.678   3.733 -2.7235  1.3359 -0.2346
 3167SOL     OW20962   0.571   3.552   4.784  0.1808  0.2385 -0.9710
 3167SOL    HW120963   0.510   3.578   4.715 -0.3392  1.7029  0.0406
 3167SOL    HW220964   0.532   3.470   4.813 -1.2853  1.4946  0.5910
 3168SOL     OW20965   2.234   2.752  17.003 -0.1818 -0.3590 -0.0838
 3168SOL    HW120966   2.281   2.834  17.016 -0.4147  0.1008 -2.1402
 3168SOL    HW220967   2.267   2.720  16.920 -0.6490  0.9594 -0.7836
 3169SOL     OW20968   2.025   1.513   5.690  0.1040  0.0422 -0.3390
 3169SOL    HW120969   2.041   1.546   5.778 -2.3635 -0.0280  0.1278
 3169SOL    HW220970   1.988   1.589   5.644  0.8009  1.3150  1.1938
 3170SOL     OW20971   2.530   3.852   7.340  0.2740 -0.2514 -0.2551
 3170SOL    HW120972   2.536   3.947   7.328 -0.2792 -0.0569  1.0781
 3170SOL    HW220973   2.509   3.815   7.254  1.3132 -0.3148 -0.4936
 3171SOL     OW20974   2.817   2.362  11.910  0.2196 -0.1416 -0.0728
 3171SOL    HW120975   2.728   2.375  11.944  0.5676 -1.1857  1.2486
 3171SOL    HW220976   2.818   2.268  11.930  2.0222  0.3638  2.2222
 3172SOL     OW20977   3.207   2.593   6.908  0.1981 -0.1968 -0.0909
 3172SOL    HW120978   3.232   2.684   6.894  3.9716 -0.9780  1.3614
 3172SOL    HW220979   3.113   2.593   6.893  0.5896  0.1100 -2.5233
 3173SOL     OW20980   1.076   4.019  14.337 -0.1602  0.4655 -0.1359
 3173SOL    HW120981   1.018   4.010  14.261 -1.4739  0.2643  0.8848
 3173SOL    HW220982   1.021   4.080  14.387 -0.1207  0.1767  0.2659
 3174SOL     OW20983   2.549   0.464  17.415 -0.1223 -0.5432 -0.4031
 3174SOL    HW120984   2.626   0.477  17.469 -0.1035  1.4484 -0.9256
 3174SOL    HW220985   2.530   0.555  17.394  0.4252  0.2853  2.7326
 3175SOL     OW20986   2.614   1.112   5.981  0.1408  0.2433 -0.2088
 3175SOL    HW120987   2.689   1.091   5.926  0.6319  0.7463  0.2562
 3175SOL    HW220988   2.635   1.063   6.060  1.1139  0.4122 -0.3681
 3176SOL     OW20989   0.570   4.141  14.824  0.2009  0.5690  0.0691
 3176SOL    HW120990   0.528   4.226  14.812 -1.0779 -0.1593 -0.6276
 3176SOL    HW220991   0.500   4.077  14.815  0.5965  0.0732  0.5305
 3177SOL     OW20992   2.435   0.482   1.435 -0.4239 -0.2663 -0.3433
 3177SOL    HW120993   2.488   0.520   1.505 -0.4587 -1.8262  0.5350
 3177SOL    HW220994   2.383   0.413   1.477  0.0092 -0.8105 -0.6992
 3178SOL     OW20995   2.085   3.438   7.636 -0.1733  0.0281 -0.5061
 3178SOL    HW120996   2.028   3.513   7.620  2.1936  1.9672  0.1492
 3178SOL    HW220997   2.144   3.457   7.564  1.6817  1.5972  1.3994
 3179SOL     OW20998   4.270   0.170   4.546  0.1770 -0.2223 -0.0302
 3179SOL    HW120999   4.342   0.163   4.609  0.2342  2.9377  0.2863
 3179SOL    HW221000   4.203   0.111   4.580  0.1431  0.6732  1.4977
 3180SOL     OW21001   4.233   4.656   8.201  0.5852  0.5424 -0.6251
 3180SOL    HW121002   4.257   4.567   8.229  1.1073  0.7377 -0.4542
 3180SOL    HW221003   4.247   4.651   8.106  0.2773 -0.1613 -0.6340
 3181SOL     OW21004   2.772   1.203   8.802 -0.0039  0.1963  0.2263
 3181SOL    HW121005   2.713   1.218   8.728 -0.4200  0.7895  0.6766
 3181SOL    HW221006   2.714   1.182   8.875  0.7322  0.1583  0.7902
 3182SOL     OW21007   2.787   4.448   3.041 -0.0419 -0.1965  0.1853
 3182SOL    HW121008   2.810   4.357   3.061  0.8723 -0.1930 -0.8051
 3182SOL    HW221009   2.871   4.460   2.997  0.0948 -1.4838  0.0707
 3183SOL     OW21010   4.176   4.234   7.195  0.0118  0.0390 -0.6183
 3183SOL    HW121011   4.102   4.293   7.208 -0.7755 -0.4884 -2.7980
 3183SOL    HW221012   4.124   4.157   7.170  0.0048  0.5366 -2.1290
 3184SOL     OW21013   3.036   0.640   2.382 -0.6612  0.2073  0.2494
 3184SOL    HW121014   2.966   0.671   2.440  0.4034  0.5843  1.3392
 3184SOL    HW221015   3.100   0.647   2.453 -0.2178 -1.5731  0.0239
 3185SOL     OW21016   4.718   2.417   3.473  0.2549 -0.0592  0.0477
 3185SOL    HW121017   4.683   2.331   3.448 -1.5549  0.1453  1.8825
 3185SOL    HW221018   0.091   2.406   3.451  0.5744 -1.4578  2.0658
 3186SOL     OW21019   2.418   4.463   3.340 -0.0996  0.0297 -0.2512
 3186SOL    HW121020   2.483   4.392   3.345 -0.4804 -0.1917  1.5518
 3186SOL    HW221021   2.376   4.449   3.424 -0.9761  1.1064 -0.5102
 3187SOL     OW21022   4.101   1.577   8.282  0.1190 -0.1728  0.0826
 3187SOL    HW121023   4.018   1.608   8.244  0.0674 -0.2418  0.1402
 3187SOL    HW221024   4.116   1.518   8.209 -1.2981 -0.4713  0.0255
 3188SOL     OW21025   4.048   4.490  17.623  0.3527  0.2542 -0.0140
 3188SOL    HW121026   4.069   4.542   0.017 -1.7686  0.8143  0.1555
 3188SOL    HW221027   4.037   4.403  17.661 -1.0908  0.5587  0.2495
 3189SOL     OW21028   1.617   0.802   1.714  0.0666 -0.1031  0.0297
 3189SOL    HW121029   1.617   0.710   1.687 -1.4647  0.4844 -1.9682
 3189SOL    HW221030   1.524   0.798   1.738 -0.2788 -1.3273 -1.5372
 3190SOL     OW21031   3.869   1.880   4.366 -0.1740 -0.2380 -0.4133
 3190SOL    HW121032   3.873   1.908   4.275  0.1852  0.8960 -0.0468
 3190SOL    HW221033   3.880   1.788   4.342 -1.9466 -0.2767 -0.9982
 3191SOL     OW21034   4.708   1.270   7.264  0.4562 -0.3764 -0.1006
 3191SOL    HW121035   0.008   1.339   7.327  0.7562 -1.9583  1.5390
 3191SOL    HW221036   4.704   1.323   7.184  0.6716 -0.2996 -0.0590
 3192SOL     OW21037   3.284   2.876  12.644  0.2772  0.0652 -0.3145
 3192SOL    HW121038   3.347   2.808  12.669 -1.0173 -0.5732  1.1528
 3192SOL    HW221039   3.243   2.895  12.728  0.3894 -0.7361 -0.0836
 3193SOL     OW21040   0.501   0.549  11.126 -0.1013 -0.6348  0.5032
 3193SOL    HW121041   0.466   0.492  11.057  0.5379 -1.4473  0.8430
 3193SOL    HW221042   0.555   0.491  11.180  1.7869  0.4226 -0.2703
 3194SOL     OW21043   3.764   2.645   3.822 -0.1454  0.3241  0.2984
 3194SOL    HW121044   3.775   2.616   3.731  1.5174  0.7098  0.3696
 3194SOL    HW221045   3.723   2.569   3.863  0.6581 -0.8691 -1.1336
 3195SOL     OW21046   2.651   1.261  13.432 -0.4600 -0.4518  0.1625
 3195SOL    HW121047   2.719   1.209  13.389 -1.6554 -0.1730 -2.0783
 3195SOL    HW221048   2.695   1.256  13.516  1.2634 -2.2143 -0.8546
 3196SOL     OW21049   2.852   2.301   0.781 -0.0311 -0.6664 -0.5571
 3196SOL    HW121050   2.782   2.264   0.835  0.1530  1.9625  1.4753
 3196SOL    HW221051   2.803   2.379   0.754 -1.0851 -0.6228  1.4274
 3197SOL     OW21052   0.851   3.335   5.054  0.0235  0.0560 -0.2484
 3197SOL    HW121053   0.786   3.402   5.076 -2.2135 -1.5365 -1.9430
 3197SOL    HW221054   0.922   3.388   5.019  2.1368 -0.6962  2.9648
 3198SOL     OW21055   2.749   1.069  15.644 -0.4098 -0.4595 -0.0369
 3198SOL    HW121056   2.784   1.047  15.557  1.7423  3.6309 -0.1608
 3198SOL    HW221057   2.688   1.139  15.623  1.5484  0.7550 -1.7217
 3199SOL     OW21058   0.448   1.061   9.240  0.8234  0.2338  0.3210
 3199SOL    HW121059   0.377   1.009   9.276 -0.0952  1.7008  0.6203
 3199SOL    HW221060   0.397   1.112   9.176 -0.2730 -2.1118 -0.6675
 3200SOL     OW21061   3.495   2.886   6.339 -0.0670  0.1448  0.0577
 3200SOL    HW121062   3.536   2.923   6.262  0.0734  0.5300  0.3178
 3200SOL    HW221063   3.408   2.849   6.322  0.1441 -0.5985  0.6117
 3201SOL     OW21064   1.100   1.815   0.409 -0.1899 -0.3503 -0.0463
 3201SOL    HW121065   1.168   1.849   0.350 -1.2812 -0.4258 -1.3541
 3201SOL    HW221066   1.044   1.761   0.353 -0.1635 -0.3920 -0.0329
 3202SOL     OW21067   3.809   2.686   5.319  0.0845  0.6949 -0.0492
 3202SOL    HW121068   3.786   2.599   5.351 -0.0925 -0.4994 -3.3919
 3202SOL    HW221069   3.769   2.689   5.232 -1.9664  0.1015  0.8626
 3203SOL     OW21070   4.441   3.312   1.437 -0.1560 -0.1513 -0.3449
 3203SOL    HW121071   4.480   3.378   1.380 -0.7732 -1.0361 -1.7852
 3203SOL    HW221072   4.486   3.335   1.519 -0.3933  1.2052 -0.6031
 3204SOL     OW21073   3.270   2.260   4.402  0.6327 -0.1351 -0.2159
 3204SOL    HW121074   3.191   2.218   4.367  0.9800 -1.9460  1.1830
 3204SOL    HW221075   3.334   2.192   4.385  1.0021  0.2590 -0.4069
 3205SOL     OW21076   0.954   2.484   6.729 -0.3558 -0.1447 -0.5043
 3205SOL    HW121077   0.945   2.517   6.818 -0.5040  2.3407 -1.4261
 3205SOL    HW221078   0.869   2.442   6.720 -0.9260  0.3559  2.6558
 3206SOL     OW21079   1.322   0.011  14.534 -0.4676  0.4140 -0.4747
 3206SOL    HW121080   1.284   4.644  14.531  2.4597 -0.8251 -1.8714
 3206SOL    HW221081   1.294   0.052  14.453 -2.8750 -0.5557 -0.1275
 3207SOL     OW21082   0.127   3.902   7.135 -0.0347  0.0506 -0.2368
 3207SOL    HW121083   0.089   3.988   7.116  2.8346  1.5967  1.0808
 3207SOL    HW221084   0.045   3.853   7.136  0.5105 -0.9167 -1.8042
 3208SOL     OW21085   0.282   2.672   2.885  0.2259 -0.1408  0.1534
 3208SOL    HW121086   0.263   2.752   2.935 -0.9046  1.4873 -2.8669
 3208SOL    HW221087   0.318   2.623   2.958  2.4973 -0.0264 -0.8965
 3209SOL     OW21088   3.509   4.659   0.752 -0.0658  0.4490  0.5899
 3209SOL    HW121089   3.580   0.001   0.763  0.1957  0.0656  1.0757
 3209SOL    HW221090   3.434   4.715   0.734  0.2427  0.4901 -0.6074
 3210SOL     OW21091   3.572   3.751   7.443  0.1793  0.5916 -0.0736
 3210SOL    HW121092   3.590   3.839   7.412 -2.9372  1.2246 -0.1471
 3210SOL    HW221093   3.621   3.753   7.525 -0.9358 -0.7002  0.6503
 3211SOL     OW21094   4.111   1.006   6.066 -0.4437 -0.1434 -0.2871
 3211SOL    HW121095   4.198   1.015   6.026 -0.2366 -0.2564  0.1303
 3211SOL    HW221096   4.145   0.991   6.155  0.1247 -0.2987 -0.5280
 3212SOL     OW21097   0.095   3.447   1.998  0.4146  0.3549  0.1271
 3212SOL    HW121098   0.126   3.457   2.088 -1.1725 -0.1158  0.7330
 3212SOL    HW221099   0.139   3.364   1.981 -1.1697 -0.5158  0.2955
 3213SOL     OW21100   3.094   2.373   6.183  0.5683 -0.7267  0.3154
 3213SOL    HW121101   3.101   2.279   6.167  5.2486 -0.6107  1.4574
 3213SOL    HW221102   3.008   2.389   6.144  0.1291  1.4267  2.1865
 3214SOL     OW21103   2.062   2.345  12.904  0.4782  0.0590  0.0557
 3214SOL    HW121104   1.971   2.325  12.926  0.6410 -1.7988 -0.9664
 3214SOL    HW221105   2.058   2.328  12.810 -3.9635 -1.3363  0.4975
 3215SOL     OW21106   4.667   0.355   3.024 -0.1735  0.2724  0.3790
 3215SOL    HW121107   0.035   0.327   3.049  0.4955  3.1724  1.2238
 3215SOL    HW221108   4.690   0.420   2.958 -2.0636 -0.5023 -1.0587
 3216SOL     OW21109   0.271   0.701   5.189  0.0543 -0.2721 -0.0084
 3216SOL    HW121110   0.285   0.607   5.195  1.8033  0.1440  2.2356
 3216SOL    HW221111   0.300   0.709   5.098  1.2033 -2.4262  0.1699
 3217SOL     OW21112   1.107   3.315   6.020 -0.0927 -0.3922 -0.1917
 3217SOL    HW121113   1.116   3.332   5.926 -1.1011 -2.4909 -0.6638
 3217SOL    HW221114   1.160   3.236   6.027  2.1653  1.0721 -1.0151
 3218SOL     OW21115   0.691   2.923   2.483  0.1658 -0.0516 -0.5232
 3218SOL    HW121116   0.758   2.891   2.423  1.0794 -0.9428  0.9580
 3218SOL    HW221117   0.710   2.883   2.568 -1.0851  1.0308  0.2775
 3219SOL     OW21118   0.808   2.893   7.028  0.1928  0.2924 -0.5292
 3219SOL    HW121119   0.876   2.939   7.077 -1.1380 -0.9343  2.4875
 3219SOL    HW221120   0.861   2.846   6.963  0.2490 -1.2209  0.6211
 3220SOL     OW21121   1.412   2.913   3.673  0.5901 -0.0961 -0.0176
 3220SOL    HW121122   1.384   2.954   3.755  3.4486 -1.5534  1.6914
 3220SOL    HW221123   1.430   2.998   3.631 -1.9839 -0.5370 -2.0276
 3221SOL     OW21124   4.652   4.554   4.013  0.0422  0.1450  0.2518
 3221SOL    HW121125   4.714   4.626   4.001  1.0267 -0.4812  1.5159
 3221SOL    HW221126   4.700   4.477   3.982  0.0316 -1.0531  3.2093
 3222SOL     OW21127   4.392   0.155  15.016 -0.5241 -0.1146 -0.1095
 3222SOL    HW121128   4.342   0.153  14.934  0.7188 -0.5816 -0.8602
 3222SOL    HW221129   4.429   0.242  14.997 -0.2863 -0.3614 -0.7953
 3223SOL     OW21130   2.799   3.145   5.058  0.0787  0.4415  0.1668
 3223SOL    HW121131   2.793   3.082   4.986 -0.2957  2.2649 -1.4125
 3223SOL    HW221132   2.729   3.205   5.030  1.1139  3.0460  3.0907
 3224SOL     OW21133   2.923   0.233   2.867  0.1301  0.1461  0.0648
 3224SOL    HW121134   2.872   0.210   2.945  2.4529  0.2958  1.6336
 3224SOL    HW221135   2.949   0.324   2.883  0.8947  0.4365 -2.9495
 3225SOL     OW21136   2.154   1.250   6.313  0.1250 -0.6266  0.3118
 3225SOL    HW121137   2.230   1.275   6.365  0.0368  2.2950 -0.9496
 3225SOL    HW221138   2.125   1.330   6.269  0.6423 -1.0210 -0.7470
 3226SOL     OW21139   4.212   0.104   6.624 -0.1130 -0.0789 -0.0006
 3226SOL    HW121140   4.279   0.070   6.565 -1.3021 -0.0196 -1.3581
 3226SOL    HW221141   4.162   0.022   6.629 -2.5313  1.4076 -0.0617
 3227SOL     OW21142   0.672   2.076   9.166  0.2078  0.3688  0.1450
 3227SOL    HW121143   0.628   1.996   9.194  0.3373  0.0211 -0.6670
 3227SOL    HW221144   0.648   2.142   9.232  2.6693  1.1723  0.2435
 3228SOL     OW21145   1.446   3.053  13.281  0.4039 -0.2981  0.7192
 3228SOL    HW121146   1.448   3.101  13.363 -2.9884 -1.4093  1.4719
 3228SOL    HW221147   1.503   3.103  13.223  0.1164 -0.7209  0.0729
 3229SOL     OW21148   4.508   1.990   6.523 -0.0266  0.2846  0.1559
 3229SOL    HW121149   4.558   1.936   6.462  0.2796  1.0656 -0.2756
 3229SOL    HW221150   4.531   1.945   6.605  1.9477  1.0237 -0.0023
 3230SOL     OW21151   0.438   2.709   3.372 -0.1395  0.0409  0.0801
 3230SOL    HW121152   0.408   2.709   3.281 -0.4893 -2.9886  0.1900
 3230SOL    HW221153   0.474   2.622   3.390 -0.7523 -0.6716 -2.1359
 3231SOL     OW21154   3.637   4.527   5.717 -0.3177 -0.5306  0.1654
 3231SOL    HW121155   3.613   4.617   5.696 -0.3102 -0.5469  0.0880
 3231SOL    HW221156   3.661   4.529   5.810  3.1567  2.4781 -0.7775
 3232SOL     OW21157   4.391   1.020   5.623 -0.4907  0.0653 -0.5375
 3232SOL    HW121158   4.435   0.939   5.649  0.7517  0.8861 -0.0739
 3232SOL    HW221159   4.396   1.005   5.529 -0.3261  2.4800 -0.9068
 3233SOL     OW21160   0.830   4.388   8.334 -0.4079  0.3856  0.7574
 3233SOL    HW121161   0.821   4.376   8.240  1.4085  0.3266  0.5834
 3233SOL    HW221162   0.797   4.304   8.366  0.4966 -0.1439  0.3113
 3234SOL     OW21163   1.141   4.402   1.108  0.7732 -0.4290 -0.5497
 3234SOL    HW121164   1.053   4.405   1.147  1.9284 -0.9862  2.1442
 3234SOL    HW221165   1.125   4.444   1.024 -0.4106  0.4620  0.1205
 3235SOL     OW21166   1.772   4.670   2.309 -0.3162 -0.1247  0.0023
 3235SOL    HW121167   1.693   4.643   2.357 -1.4236 -1.5342 -2.6603
 3235SOL    HW221168   1.755   4.612   2.235 -0.8352 -0.1378  0.1301
 3236SOL     OW21169   2.082   2.481   3.061  0.0383 -0.2990 -0.2725
 3236SOL    HW121170   2.087   2.432   2.979  1.8783 -1.5088  0.5398
 3236SOL    HW221171   2.125   2.561   3.029 -0.4336 -0.4694 -1.3412
 3237SOL     OW21172   0.412   4.260   2.072 -0.6458 -0.6447  0.5243
 3237SOL    HW121173   0.365   4.221   2.146  0.3709 -2.1893  0.3565
 3237SOL    HW221174   0.374   4.223   1.992  0.2915  0.4256 -0.4105
 3238SOL     OW21175   3.489   3.829   5.826  0.2638 -0.0283 -0.1758
 3238SOL    HW121176   3.437   3.896   5.782 -1.6216 -0.8765  0.7884
 3238SOL    HW221177   3.540   3.882   5.888  0.9142 -0.2032 -0.5595
 3239SOL     OW21178   3.371   1.771   6.795  0.2836  0.2027 -0.2075
 3239SOL    HW121179   3.304   1.832   6.766  0.7731  1.5935  1.5604
 3239SOL    HW221180   3.356   1.697   6.737 -0.7362  1.0245 -0.9826
 3240SOL     OW21181   2.486   3.350  11.935 -0.7603  0.0216  0.7681
 3240SOL    HW121182   2.485   3.445  11.941  1.4107  0.0486  0.7038
 3240SOL    HW221183   2.394   3.331  11.919 -0.2398 -2.2567  0.4093
 3241SOL     OW21184   1.046   4.417   2.522 -0.1555 -0.0611  0.2267
 3241SOL    HW121185   0.986   4.418   2.596 -0.4836 -1.6077 -0.0321
 3241SOL    HW221186   0.986   4.415   2.447  2.2085 -0.6546 -1.6685
 3242SOL     OW21187   3.701   3.232   4.443  0.2793  0.1921 -0.3305
 3242SOL    HW121188   3.718   3.251   4.351  2.0978  1.6256  0.3098
 3242SOL    HW221189   3.688   3.318   4.481  0.7469 -0.0662  0.4259
 3243SOL     OW21190   1.618   3.375   2.963  0.3871 -0.1810  0.3772
 3243SOL    HW121191   1.611   3.283   2.987 -0.0267 -0.1760  0.2687
 3243SOL    HW221192   1.537   3.404   2.922 -0.5441  0.8682  2.9462
 3244SOL     OW21193   4.129   0.532   0.897  0.2504  0.7209 -0.5126
 3244SOL    HW121194   4.055   0.591   0.881 -0.5776  0.0847  0.9475
 3244SOL    HW221195   4.073   0.455   0.906  0.5404  0.3632 -1.8184
 3245SOL     OW21196   3.673   2.287   4.487  0.3361  0.4217 -0.4171
 3245SOL    HW121197   3.605   2.221   4.472 -0.1418  1.2593 -1.9874
 3245SOL    HW221198   3.622   2.369   4.489 -0.4065 -0.0625  0.8794
 3246SOL     OW21199   1.058   1.751   4.073 -0.0528 -0.8223  0.3259
 3246SOL    HW121200   1.023   1.758   4.162  0.9990 -1.2396  0.7751
 3246SOL    HW221201   0.998   1.694   4.025 -1.5941  0.8956  0.2035
 3247SOL     OW21202   3.373   3.003  11.407  0.4715 -0.2544 -0.2385
 3247SOL    HW121203   3.398   2.948  11.333 -1.2781 -0.0370 -0.9826
 3247SOL    HW221204   3.392   3.090  11.372 -0.7292 -0.1758 -0.7144
 3248SOL     OW21205   4.321   3.230  13.633  0.0032  0.4456 -0.1822
 3248SOL    HW121206   4.229   3.255  13.623  0.2193  1.3792  0.1514
 3248SOL    HW221207   4.363   3.310  13.665  0.5053  0.1265 -0.0426
 3249SOL     OW21208   3.079   0.480   4.494  0.1617  0.2753 -0.2269
 3249SOL    HW121209   3.099   0.501   4.585 -0.0537  1.1374 -0.3831
 3249SOL    HW221210   3.152   0.524   4.449  0.3033  0.3168  0.0440
 3250SOL     OW21211   2.734   4.008   2.217  0.2072  0.3059  0.6510
 3250SOL    HW121212   2.791   3.933   2.236 -0.4357  0.2018  2.0926
 3250SOL    HW221213   2.676   3.968   2.153 -2.2789  1.5781  2.1345
 3251SOL     OW21214   0.063   3.319  13.152  0.4031  0.2783 -0.4752
 3251SOL    HW121215   0.100   3.407  13.157  0.3015  0.4630 -2.8135
 3251SOL    HW221216   0.095   3.295  13.239 -3.3799 -1.8856  0.3680
 3252SOL     OW21217   0.111   0.487   9.163 -0.4528 -0.3873 -0.6208
 3252SOL    HW121218   0.186   0.427   9.158  0.2404  0.4051  0.3479
 3252SOL    HW221219   0.053   0.431   9.214 -1.9170 -1.1481 -3.0894
 3253SOL     OW21220   3.785   3.181   2.019 -0.3079  0.0430  0.2868
 3253SOL    HW121221   3.794   3.096   1.975  1.8725  0.6041 -0.3581
 3253SOL    HW221222   3.795   3.165   2.113 -1.9105  0.8782  0.5974
 3254SOL     OW21223   3.204   2.029   2.783  0.3394  0.3641 -0.5703
 3254SOL    HW121224   3.113   2.048   2.804  0.5715  1.0801 -0.2365
 3254SOL    HW221225   3.233   2.114   2.753  2.3482 -0.5555 -1.2456
 3255SOL     OW21226   1.930   4.075   9.370  0.3544 -0.0861 -0.3699
 3255SOL    HW121227   1.988   4.130   9.317  3.1934  0.6727  3.5934
 3255SOL    HW221228   1.892   4.019   9.302 -1.8373  0.2250  0.6054
 3256SOL     OW21229   0.420   0.278   0.928  0.1810 -0.2810 -0.3206
 3256SOL    HW121230   0.420   0.243   0.839  0.8400  0.2502 -0.5237
 3256SOL    HW221231   0.383   0.209   0.984 -3.4483 -0.4615 -2.9642
 3257SOL     OW21232   2.489   1.584   4.245 -0.4814 -0.1527  0.4984
 3257SOL    HW121233   2.397   1.566   4.267 -1.0472  0.8021 -1.0314
 3257SOL    HW221234   2.506   1.644   4.318  1.5348 -0.0482 -0.0777
 3258SOL     OW21235   0.758   0.397   1.663  0.2433  0.1869  0.0490
 3258SOL    HW121236   0.674   0.419   1.623 -0.0980  1.1217  1.2437
 3258SOL    HW221237   0.822   0.389   1.593 -2.1319  1.8126 -2.2881
 3259SOL     OW21238   3.542   4.321  11.977 -0.1232  0.2553  0.2432
 3259SOL    HW121239   3.505   4.408  11.990  0.3836  0.2239  1.8181
 3259SOL    HW221240   3.497   4.273  12.046  1.8975 -1.0438  0.6703
 3260SOL     OW21241   1.250   1.599   6.314 -0.2698 -0.5874  0.0290
 3260SOL    HW121242   1.276   1.690   6.307 -0.2190 -0.6054 -0.0126
 3260SOL    HW221243   1.325   1.558   6.271 -0.6341  0.2699 -1.4102
 3261SOL     OW21244   4.703   1.319   4.904 -0.7740 -0.3702 -0.9258
 3261SOL    HW121245   0.010   1.240   4.950  0.0540 -0.4031 -1.4567
 3261SOL    HW221246   0.069   1.343   4.870 -0.7356  0.1663 -0.4549
 3262SOL     OW21247   1.948   4.200  15.747  0.1171  0.0461  0.0240
 3262SOL    HW121248   2.037   4.166  15.759 -1.3137 -3.1570  1.3641
 3262SOL    HW221249   1.950   4.274  15.808  1.0432  2.3141 -2.7480
 3263SOL     OW21250   0.973   4.107   7.296  0.0756  0.1451  0.2517
 3263SOL    HW121251   1.052   4.156   7.319  1.2510 -0.8446 -1.6408
 3263SOL    HW221252   1.003   4.066   7.215  0.8959  1.0524  0.0913
 3264SOL     OW21253   2.031   4.272   4.718 -0.8586  0.1649  0.4582
 3264SOL    HW121254   2.004   4.336   4.783 -2.9141 -2.3650  2.0750
 3264SOL    HW221255   1.952   4.257   4.667  0.2169 -1.1264 -0.8552
 3265SOL     OW21256   0.237   1.328  11.144  0.5781 -0.1905  0.1179
 3265SOL    HW121257   0.296   1.359  11.076 -0.4773  1.4577 -0.0332
 3265SOL    HW221258   0.186   1.264  11.095  0.0206  0.3733 -0.0340
 3266SOL     OW21259   1.193   3.467   1.622  0.4246  0.4637 -0.4200
 3266SOL    HW121260   1.104   3.502   1.629  0.4354  0.0551  1.6465
 3266SOL    HW221261   1.194   3.424   1.536  1.2117 -1.1766  0.4118
 3267SOL     OW21262   3.442   1.069   2.094  0.5132  0.4487  0.0503
 3267SOL    HW121263   3.536   1.068   2.109  0.7007  0.6619 -1.1235
 3267SOL    HW221264   3.438   0.981   2.057 -0.4411 -0.1762  1.5970
 3268SOL     OW21265   4.361   4.322   7.670 -0.0681 -0.5294  0.3747
 3268SOL    HW121266   4.383   4.356   7.758 -1.6952  0.0870  0.5379
 3268SOL    HW221267   4.437   4.264   7.665 -0.8833 -1.5255 -0.3577
 3269SOL     OW21268   3.822   2.874   2.663  0.3385 -0.4127  0.0513
 3269SOL    HW121269   3.884   2.834   2.724 -0.2571  0.4210  1.2020
 3269SOL    HW221270   3.869   2.955   2.643 -0.1852 -0.1904 -0.2727
 3270SOL     OW21271   1.192   2.286   7.062  0.0940  0.3185 -0.3621
 3270SOL    HW121272   1.101   2.263   7.082  0.3433 -0.9411 -0.6854
 3270SOL    HW221273   1.201   2.220   6.993  2.6354 -0.0409  0.3035
 3271SOL     OW21274   3.706   1.476  10.650 -0.8974 -0.2475 -0.1129
 3271SOL    HW121275   3.625   1.526  10.656 -0.0938  0.9755  0.6196
 3271SOL    HW221276   3.692   1.391  10.690 -0.2236 -0.0868  0.4617
 3272SOL     OW21277   2.138   4.634  16.431 -0.3852  0.1472  0.1588
 3272SOL    HW121278   2.144   4.703  16.365  1.2983 -1.0731 -0.9499
 3272SOL    HW221279   2.054   4.658  16.471 -1.0064 -1.1040 -0.3641
 3273SOL     OW21280   4.523   4.186   1.447  0.3845 -0.6310 -0.4704
 3273SOL    HW121281   4.582   4.138   1.505 -1.2237 -1.5963  0.3321
 3273SOL    HW221282   4.502   4.260   1.504  1.1809  0.7444 -1.9570
 3274SOL     OW21283   4.663   1.212   5.523 -0.3230  0.3084  0.6161
 3274SOL    HW121284   4.626   1.299   5.533 -1.7159 -0.5630  3.0548
 3274SOL    HW221285   0.038   1.227   5.524 -0.1080 -0.9040 -0.3478
 3275SOL     OW21286   4.359   1.420  10.382  0.5827  0.0160 -0.0334
 3275SOL    HW121287   4.275   1.425  10.427  0.2005  1.2945 -0.8870
 3275SOL    HW221288   4.422   1.378  10.441  2.1100  2.2238 -0.1201
 3276SOL     OW21289   3.093   3.621   2.382 -0.1598 -0.7195 -0.4415
 3276SOL    HW121290   3.119   3.621   2.474  0.0924 -0.2749 -0.5098
 3276SOL    HW221291   3.170   3.577   2.346  0.1837 -0.1560 -0.3929
 3277SOL     OW21292   4.610   4.199  12.882 -0.4458 -0.7213 -0.3991
 3277SOL    HW121293   4.534   4.183  12.938  1.2909  0.0384  2.1832
 3277SOL    HW221294   4.563   4.242  12.810  0.5027 -1.7707 -1.6561
 3278SOL     OW21295   0.587   2.758   9.955  0.4700  0.1362 -0.0519
 3278SOL    HW121296   0.679   2.784   9.963 -0.2560  2.5221  0.6068
 3278SOL    HW221297   0.564   2.747  10.047  0.0948 -0.6177 -0.2393
 3279SOL     OW21298   2.584   2.221   6.577  0.0413 -0.3959 -0.0664
 3279SOL    HW121299   2.516   2.195   6.515 -0.1612  0.0645 -0.0430
 3279SOL    HW221300   2.535   2.274   6.640  1.2597 -0.6245  1.0825
 3280SOL     OW21301   1.039   3.598   8.124 -0.4824 -0.2144 -0.4188
 3280SOL    HW121302   1.079   3.605   8.037  0.4838  0.7255  0.1172
 3280SOL    HW221303   1.003   3.509   8.124  1.6240 -1.0818 -1.7924
 3281SOL     OW21304   2.655   2.253  17.278  0.0356  0.0320  0.2961
 3281SOL    HW121305   2.629   2.165  17.252 -1.7037 -0.0786  2.4055
 3281SOL    HW221306   2.747   2.252  17.251 -0.0383 -1.5048  0.1308
 3282SOL     OW21307   2.879   3.328   3.679  0.2129 -0.1769  0.7671
 3282SOL    HW121308   2.869   3.239   3.715  0.7207 -0.7923 -0.6107
 3282SOL    HW221309   2.878   3.387   3.754 -0.2432 -0.1772  0.7580
 3283SOL     OW21310   3.191   4.397  14.035  0.0911  0.5374  0.0459
 3283SOL    HW121311   3.183   4.490  14.015 -3.5225  0.9622  3.5772
 3283SOL    HW221312   3.109   4.382  14.082  1.5543 -2.3759  1.6627
 3284SOL     OW21313   3.066   1.047   2.565  0.4013 -0.6643  0.4439
 3284SOL    HW121314   3.097   1.137   2.577  1.4296 -1.1491  1.3382
 3284SOL    HW221315   2.997   1.068   2.502  0.2534 -1.4403  0.3487
 3285SOL     OW21316   3.121   2.281   1.554  0.3179  0.3611 -0.4996
 3285SOL    HW121317   3.070   2.354   1.518  0.8115  0.9733  0.0508
 3285SOL    HW221318   3.093   2.279   1.645 -1.4703  2.3018 -1.0243
 3286SOL     OW21319   2.441   0.212   6.430 -0.2352  0.0429  0.4930
 3286SOL    HW121320   2.429   0.297   6.473  1.8687 -0.0822  1.3520
 3286SOL    HW221321   2.363   0.162   6.451 -1.5219  2.6516  1.8590
 3287SOL     OW21322   3.972   1.416   8.634  0.2243  0.0093  0.5046
 3287SOL    HW121323   4.029   1.485   8.668 -1.3303 -0.1841  3.4931
 3287SOL    HW221324   3.929   1.394   8.717 -0.7888 -2.8287 -0.7601
 3288SOL     OW21325   3.141   1.560   3.291  0.2369  0.3889  0.3233
 3288SOL    HW121326   3.093   1.642   3.303  1.3042  0.9329  0.9175
 3288SOL    HW221327   3.112   1.537   3.203  0.5198 -0.5328  0.4703
 3289SOL     OW21328   0.748   0.831   3.589 -0.0172 -0.1795  0.2287
 3289SOL    HW121329   0.795   0.879   3.658  0.0258 -0.0199  0.0892
 3289SOL    HW221330   0.813   0.786   3.536  1.3392  1.5569  0.4090
 3290SOL     OW21331   1.338   1.071   6.296 -0.5853 -0.1113  0.1297
 3290SOL    HW121332   1.287   0.991   6.309 -1.4978  0.2699 -1.1711
 3290SOL    HW221333   1.272   1.137   6.316  0.3237  0.9085 -0.2387
 3291SOL     OW21334   1.922   1.926  16.008  0.3327 -0.3495  0.3457
 3291SOL    HW121335   1.996   1.980  15.980 -0.7451  1.1851  0.4325
 3291SOL    HW221336   1.876   1.913  15.925 -0.3190  2.7425  0.2310
 3292SOL     OW21337   1.563   3.352  10.892  0.7184 -0.0239 -0.3313
 3292SOL    HW121338   1.588   3.260  10.890 -0.6941 -0.3769 -1.4810
 3292SOL    HW221339   1.473   3.346  10.859  0.9272 -1.6180 -0.6085
 3293SOL     OW21340   4.541   0.277  11.525 -0.4376  0.2514  0.2444
 3293SOL    HW121341   4.564   0.307  11.613 -0.3143 -0.7697  0.5609
 3293SOL    HW221342   4.464   0.223  11.543 -0.9400  1.0212  0.3768
 3294SOL     OW21343   2.048   0.393   1.262 -0.0857 -0.2641 -0.0828
 3294SOL    HW121344   1.999   0.396   1.180 -0.5297 -0.7645  0.1623
 3294SOL    HW221345   1.982   0.439   1.314  1.5017  1.5268  0.3517
 3295SOL     OW21346   4.290   3.500   0.044  0.4714  0.1092 -0.3013
 3295SOL    HW121347   4.369   3.495   0.097 -0.6056 -0.1623  1.2850
 3295SOL    HW221348   4.241   3.428   0.082 -0.3964  1.6960  1.6116
 3296SOL     OW21349   3.386   0.330   5.474 -0.4003  0.9098 -0.0436
 3296SOL    HW121350   3.423   0.418   5.485  1.4341  0.1822 -0.2893
 3296SOL    HW221351   3.292   0.343   5.463 -0.1602  1.0411 -1.8353
 3297SOL     OW21352   1.524   2.754   9.480  0.0592 -0.0129 -0.0535
 3297SOL    HW121353   1.499   2.819   9.415  0.6134  0.2449 -0.0084
 3297SOL    HW221354   1.569   2.811   9.542 -1.1247  1.2885 -0.4141
 3298SOL     OW21355   4.313   1.894   9.918 -0.5013 -0.7624 -0.4732
 3298SOL    HW121356   4.345   1.809   9.950  0.3011 -0.0714  0.5789
 3298SOL    HW221357   4.231   1.859   9.885 -0.8864 -1.2158  0.9405
 3299SOL     OW21358   0.610   2.206   3.228 -0.2840 -0.0325 -0.3070
 3299SOL    HW121359   0.520   2.235   3.241 -0.6929 -0.8934 -1.2448
 3299SOL    HW221360   0.651   2.235   3.309 -0.8188  2.1348 -0.8044
 3300SOL     OW21361   2.766   3.859  17.420 -0.3338 -0.1013  0.5035
 3300SOL    HW121362   2.686   3.883  17.373  1.2223 -1.0940 -2.6705
 3300SOL    HW221363   2.838   3.909  17.383 -0.6876 -0.1969 -0.3208
 3301SOL     OW21364   0.752   3.211   1.993 -0.4609  0.1326  0.3874
 3301SOL    HW121365   0.829   3.155   1.982 -1.1979 -0.6294 -0.8615
 3301SOL    HW221366   0.788   3.267   2.063 -0.9138 -0.6014  1.2074
 3302SOL     OW21367   0.531   1.284   1.908  0.5277 -0.0988 -0.0930
 3302SOL    HW121368   0.502   1.202   1.949  1.4033 -0.6513 -0.5829
 3302SOL    HW221369   0.466   1.351   1.932  0.8821 -0.1290  0.9392
 3303SOL     OW21370   0.133   0.300  12.552 -0.2583  0.4668 -0.4157
 3303SOL    HW121371   0.058   0.359  12.542  0.0071  1.0519  1.0703
 3303SOL    HW221372   0.195   0.310  12.480 -0.0202  2.0754  0.0124
 3304SOL     OW21373   2.908   3.676   7.275  0.2427 -0.2694  0.4287
 3304SOL    HW121374   2.999   3.683   7.302  0.7594 -3.9316 -0.3758
 3304SOL    HW221375   2.875   3.743   7.335  1.4849  2.1527 -1.6050
 3305SOL     OW21376   1.760   3.887  13.295  0.4566 -0.4837  0.1972
 3305SOL    HW121377   1.702   3.811  13.307 -0.7655  0.2722 -0.8486
 3305SOL    HW221378   1.760   3.925  13.383  0.1012  0.6941 -0.3122
 3306SOL     OW21379   0.743   3.387   8.390  0.4800  0.1622  0.7484
 3306SOL    HW121380   0.767   3.411   8.479  0.4579  2.6995  0.0672
 3306SOL    HW221381   0.678   3.321   8.412  0.5765  0.5692  2.2795
 3307SOL     OW21382   0.206   4.658   4.981  0.4540  0.0787 -0.2195
 3307SOL    HW121383   0.283   4.674   4.926  1.3778  1.6807  1.5415
 3307SOL    HW221384   0.191   4.565   4.965  2.6336 -0.4345  0.7150
 3308SOL     OW21385   0.611   4.237   4.700 -0.0088 -0.0496 -0.3130
 3308SOL    HW121386   0.543   4.215   4.763 -0.7241  1.9740 -0.4026
 3308SOL    HW221387   0.673   4.282   4.757 -0.7600 -0.0921  0.5254
 3309SOL     OW21388   4.365   1.621  16.495 -0.4089  0.0017  0.0900
 3309SOL    HW121389   4.431   1.604  16.429  1.2210  0.3422  1.6274
 3309SOL    HW221390   4.299   1.673  16.449  0.7920  1.5324  0.0867
 3310SOL     OW21391   1.823   1.417   8.737  0.1938  0.0119  0.1780
 3310SOL    HW121392   1.882   1.345   8.714 -1.0487 -0.9080 -0.0963
 3310SOL    HW221393   1.765   1.380   8.803  0.2645 -1.8073 -0.7902
 3311SOL     OW21394   2.094   2.575   5.787 -0.1166  0.3271  0.0586
 3311SOL    HW121395   2.039   2.522   5.728 -1.9299  0.7876  1.3288
 3311SOL    HW221396   2.177   2.534   5.764  0.5116  0.5356  1.9745
 3312SOL     OW21397   1.491   2.620   7.771  0.0346  0.0504  0.2902
 3312SOL    HW121398   1.532   2.707   7.765  1.4807 -0.4698  2.6497
 3312SOL    HW221399   1.570   2.566   7.770 -1.5006 -2.1754  0.2178
 3313SOL     OW21400   2.551   3.322   8.627  0.3277 -0.0333 -0.6774
 3313SOL    HW121401   2.625   3.375   8.660  0.3419 -0.2980 -0.2835
 3313SOL    HW221402   2.574   3.281   8.544 -2.3947 -1.3803 -0.7505
 3314SOL     OW21403   3.672   0.043  10.144  0.2637  0.5420  0.1466
 3314SOL    HW121404   3.719   0.122  10.115  1.0580 -0.5455 -1.5112
 3314SOL    HW221405   3.746   4.703  10.157  0.7457  0.8753 -1.0241
 3315SOL     OW21406   2.439   4.045   2.111 -0.2119  0.2896  0.7310
 3315SOL    HW121407   2.411   4.065   2.022  0.2895 -0.0749  0.4893
 3315SOL    HW221408   2.430   4.131   2.151  2.4473 -0.0876  2.1291
 3316SOL     OW21409   2.661   4.174   1.291 -0.1104  0.3447  0.7359
 3316SOL    HW121410   2.609   4.237   1.240 -0.3875 -0.0495  0.5314
 3316SOL    HW221411   2.625   4.088   1.272  2.4336 -0.3043 -1.1491
 3317SOL     OW21412   0.860   0.955   8.685  0.1325 -0.1568  0.3119
 3317SOL    HW121413   0.784   1.010   8.664  0.1530 -0.8051 -1.4546
 3317SOL    HW221414   0.875   0.941   8.779  2.8965 -2.2985 -0.4684
 3318SOL     OW21415   3.746   2.922   5.439  0.4739  0.6904  0.6908
 3318SOL    HW121416   3.658   2.884   5.430 -0.2246  2.1028  1.5861
 3318SOL    HW221417   3.792   2.860   5.382 -2.0144  0.0265 -0.5754
 3319SOL     OW21418   3.871   0.276   9.771 -0.0239  0.3935 -0.4856
 3319SOL    HW121419   3.860   0.357   9.821  1.1622 -0.1738  0.6587
 3319SOL    HW221420   3.944   0.292   9.712 -0.5106  0.2280 -1.1349
 3320SOL     OW21421   2.868   0.151   3.403 -0.5628  0.3722  0.3858
 3320SOL    HW121422   2.890   0.092   3.475  1.1902 -0.0568 -0.4935
 3320SOL    HW221423   2.806   0.099   3.352 -0.0227  0.6099 -0.5228
 3321SOL     OW21424   3.705   3.633   6.324 -0.1694  0.1943  0.1737
 3321SOL    HW121425   3.665   3.715   6.297  1.6296  0.4921 -1.5990
 3321SOL    HW221426   3.651   3.611   6.400 -1.3034 -0.0201 -0.7042
 3322SOL     OW21427   0.091   1.604   7.683 -0.2138 -0.4896 -0.0964
 3322SOL    HW121428   0.060   1.663   7.614 -0.0123  0.7459  0.8771
 3322SOL    HW221429   0.180   1.637   7.692 -0.1327 -0.6895 -0.1629
 3323SOL     OW21430   3.396   3.024  13.186 -0.6324 -0.4310 -0.2962
 3323SOL    HW121431   3.416   2.965  13.259  0.1662  0.5980  0.3213
 3323SOL    HW221432   3.317   3.071  13.211 -0.7553  0.1428 -1.7679
 3324SOL     OW21433   2.964   1.117  13.883 -0.1275 -0.8227  0.2435
 3324SOL    HW121434   2.939   1.029  13.854 -3.1099 -0.1855  0.9662
 3324SOL    HW221435   2.938   1.113  13.975 -2.8294  1.9769 -0.4266
 3325SOL     OW21436   3.543   0.880  14.285 -0.3122 -0.7340 -0.3314
 3325SOL    HW121437   3.550   0.947  14.353 -0.8623 -1.0841  0.0639
 3325SOL    HW221438   3.452   0.854  14.293  0.0223 -1.9005 -0.3939
 3326SOL     OW21439   1.896   3.204   1.555 -0.5254  0.6587  0.6042
 3326SOL    HW121440   1.943   3.286   1.569 -0.6920  0.7854  0.4247
 3326SOL    HW221441   1.969   3.142   1.556 -0.7994  0.3130 -0.3393
 3327SOL     OW21442   2.188   4.070   7.231 -0.0895  0.1713  0.0077
 3327SOL    HW121443   2.161   4.119   7.153 -3.2436 -1.7322 -0.0933
 3327SOL    HW221444   2.281   4.095   7.235 -0.0417 -0.2624  1.5457
 3328SOL     OW21445   0.072   3.327   6.892  0.0903 -0.5426  0.0005
 3328SOL    HW121446   0.002   3.288   6.944  0.7568 -2.5238 -0.5980
 3328SOL    HW221447   0.062   3.422   6.900 -0.3675 -0.4322 -2.0131
 3329SOL     OW21448   1.167   3.398   6.842 -0.1334 -0.3594 -0.3887
 3329SOL    HW121449   1.244   3.455   6.850 -0.4488  0.1577 -1.0375
 3329SOL    HW221450   1.096   3.461   6.851 -1.2673 -1.6342 -0.3725
 3330SOL     OW21451   2.986   1.539   8.852  0.3499 -0.2639  0.4985
 3330SOL    HW121452   3.013   1.614   8.906 -0.8680 -0.6595  1.6585
 3330SOL    HW221453   2.916   1.503   8.906  0.1866 -0.5263  0.1051
 3331SOL     OW21454   3.258   3.269   6.671 -0.8536 -0.2244  0.6998
 3331SOL    HW121455   3.201   3.326   6.722 -1.1174  0.0174  0.1428
 3331SOL    HW221456   3.318   3.241   6.740  1.2340  1.2697 -0.5133
 3332SOL     OW21457   4.352   0.771   9.467 -0.2378  0.8385 -0.0212
 3332SOL    HW121458   4.407   0.702   9.432 -2.2284 -1.4096  1.2850
 3332SOL    HW221459   4.295   0.769   9.391 -0.0511 -0.1117 -0.1376
 3333SOL     OW21460   2.526   0.010   4.657 -0.1749  0.2382 -0.1658
 3333SOL    HW121461   2.615   0.045   4.653  0.1537 -0.5004  0.6344
 3333SOL    HW221462   2.549   4.641   4.633 -2.8526 -0.5374  0.2154
 3334SOL     OW21463   1.694   3.422   3.230 -0.1627  0.2989  0.1546
 3334SOL    HW121464   1.684   3.513   3.256  0.6179  0.4934 -0.2218
 3334SOL    HW221465   1.683   3.432   3.136 -0.8518 -1.1353  0.0809
 3335SOL     OW21466   3.997   1.496  14.004 -0.2959 -0.2112 -0.4700
 3335SOL    HW121467   3.958   1.579  14.027 -0.3877 -0.1344 -0.8984
 3335SOL    HW221468   4.085   1.487  14.040 -0.3889 -1.4226 -0.5221
 3336SOL     OW21469   3.147   0.519   0.642  0.1996 -0.6537 -0.1552
 3336SOL    HW121470   3.195   0.468   0.707  0.4590  2.7359  2.3155
 3336SOL    HW221471   3.175   0.472   0.563  2.5400 -0.8186  0.7804
 3337SOL     OW21472   3.351   2.931   6.836  0.3764  0.0037  0.4799
 3337SOL    HW121473   3.413   2.894   6.898  1.4088  2.0266  0.6327
 3337SOL    HW221474   3.401   2.967   6.762  0.2509 -0.4661  0.1627
 3338SOL     OW21475   4.527   1.614  15.621  0.1693  0.1633  0.8858
 3338SOL    HW121476   4.477   1.623  15.539  0.3772  0.1309  0.7544
 3338SOL    HW221477   4.552   1.706  15.633  0.9836 -0.3488  3.0875
 3339SOL     OW21478   4.658   3.048   7.424 -0.0450 -0.2453  0.0545
 3339SOL    HW121479   0.020   3.088   7.451 -0.6517 -1.1028  3.1616
 3339SOL    HW221480   4.636   3.117   7.361  0.0289  0.0795  0.3859
 3340SOL     OW21481   0.956   1.738   3.326 -0.0916  0.2798 -0.5037
 3340SOL    HW121482   0.990   1.717   3.239 -0.9361  0.7886 -0.9525
 3340SOL    HW221483   0.891   1.807   3.315  2.3219  3.0068  2.1518
 3341SOL     OW21484   0.264   4.472  14.107 -0.1643 -0.1535 -0.3191
 3341SOL    HW121485   0.212   4.398  14.138  1.2634 -1.6469 -1.4561
 3341SOL    HW221486   0.291   4.514  14.189  1.1085 -0.1017 -0.7608
 3342SOL     OW21487   2.975   4.258   8.719  0.1680 -0.0335 -0.6229
 3342SOL    HW121488   2.967   4.353   8.725  1.0538  0.1696 -2.9250
 3342SOL    HW221489   3.062   4.241   8.683 -0.1954  0.6480 -1.7944
 3343SOL     OW21490   4.043   2.674   3.860 -0.0228  0.3788 -0.2118
 3343SOL    HW121491   3.957   2.704   3.831 -1.6349  0.8365  5.0888
 3343SOL    HW221492   4.029   2.579   3.857  3.2621 -0.1036 -0.2086
 3344SOL     OW21493   3.350   4.051   5.735 -0.4210  0.4109  0.3678
 3344SOL    HW121494   3.341   4.147   5.738 -0.0340  0.4335  0.6892
 3344SOL    HW221495   3.267   4.018   5.770 -1.9246  0.5996 -2.9328
 3345SOL     OW21496   2.658   1.812  13.496  0.3698  0.3553 -0.4871
 3345SOL    HW121497   2.604   1.807  13.575 -1.1417  0.1662 -1.5302
 3345SOL    HW221498   2.591   1.817  13.429 -2.0956  1.9025  2.0972
 3346SOL     OW21499   4.344   0.026   7.325 -0.1271 -0.3226 -0.5183
 3346SOL    HW121500   4.401   0.075   7.384 -2.0231  1.9072 -0.5653
 3346SOL    HW221501   4.332   0.087   7.253  0.6407  0.7224  0.2273
 3347SOL     OW21502   0.922   2.350   9.225  0.2449 -0.0249 -0.5899
 3347SOL    HW121503   0.944   2.301   9.304 -1.3303  0.7727  0.3400
 3347SOL    HW221504   0.904   2.438   9.257 -0.5674 -0.1011 -0.8325
 3348SOL     OW21505   3.440   2.818   6.026  0.1888 -0.2214  0.7665
 3348SOL    HW121506   3.380   2.793   6.096 -0.3497  0.1852  0.4506
 3348SOL    HW221507   3.378   2.849   5.960  0.7600  0.8362  0.7233
 3349SOL     OW21508   1.573   0.896   6.126 -0.3184  0.5026  0.2260
 3349SOL    HW121509   1.554   0.898   6.219  2.2661  0.9874  0.7370
 3349SOL    HW221510   1.522   0.825   6.088  2.4871 -0.1167 -2.3978
 3350SOL     OW21511   0.316   2.106   7.105 -0.7117  0.2727  0.0915
 3350SOL    HW121512   0.402   2.101   7.064 -1.0342  0.3894 -0.5957
 3350SOL    HW221513   0.253   2.063   7.048 -0.4534 -1.4311  1.1028
 3351SOL     OW21514   2.502   2.560  12.500 -0.2511 -0.6482  0.2452
 3351SOL    HW121515   2.477   2.595  12.585  0.8285 -0.4471  0.4799
 3351SOL    HW221516   2.597   2.557  12.514 -0.2750 -0.3459  0.4731
 3352SOL     OW21517   1.385   2.946   5.685 -0.4685 -0.5881  0.2233
 3352SOL    HW121518   1.337   2.867   5.660  0.4119 -0.8325 -0.6554
 3352SOL    HW221519   1.465   2.915   5.728  0.5594  0.4893 -0.9251
 3353SOL     OW21520   1.428   2.006   3.997 -0.2654  0.0578 -0.5071
 3353SOL    HW121521   1.338   2.037   3.986 -0.2876  0.7135  1.4308
 3353SOL    HW221522   1.464   2.086   4.036 -0.7768 -1.0737  2.3297
 3354SOL     OW21523   1.959   3.020   8.544 -0.2630 -0.7493  0.0841
 3354SOL    HW121524   2.040   3.020   8.595 -1.5495 -0.9057  2.1298
 3354SOL    HW221525   1.947   2.928   8.518  0.0064 -1.5077  2.6751
 3355SOL     OW21526   0.366   3.472   6.214  0.2854  0.2486 -0.2881
 3355SOL    HW121527   0.355   3.463   6.309 -1.8381  2.8926 -0.2898
 3355SOL    HW221528   0.294   3.528   6.184 -0.4024  0.1416  1.1687
 3356SOL     OW21529   4.446   0.905   0.415  0.0036 -0.6732 -0.2350
 3356SOL    HW121530   4.367   0.881   0.463  0.2197  0.9343  0.9009
 3356SOL    HW221531   4.438   0.836   0.348 -1.3549 -1.7613  1.0563
 3357SOL     OW21532   1.140   3.155  10.555  0.2764 -0.2927 -0.6000
 3357SOL    HW121533   1.149   3.060  10.543 -0.9255 -0.2437 -2.0170
 3357SOL    HW221534   1.128   3.182  10.464  0.2743  1.1247 -0.1702
 3358SOL     OW21535   1.032   3.046   4.372 -0.6927  0.0159  0.1528
 3358SOL    HW121536   1.007   3.117   4.313  0.1904  1.5300  1.5814
 3358SOL    HW221537   1.015   2.969   4.318 -0.2024 -0.1383  0.2176
 3359SOL     OW21538   2.396   1.134   7.369  0.0138 -0.0403 -0.1547
 3359SOL    HW121539   2.423   1.225   7.384 -1.9930  0.4250  0.6372
 3359SOL    HW221540   2.484   1.096   7.368  0.3989  0.7221  3.4975
 3360SOL     OW21541   2.055   0.239   6.572  0.2466 -0.4411  0.1094
 3360SOL    HW121542   2.018   0.303   6.633 -0.1027  0.7387 -1.3367
 3360SOL    HW221543   2.030   0.276   6.487  1.7460  1.0286  0.3080
 3361SOL     OW21544   1.696   3.682   3.337  0.1967 -0.0890  0.2490
 3361SOL    HW121545   1.746   3.764   3.331  0.2620 -0.1350  0.1497
 3361SOL    HW221546   1.722   3.650   3.423 -0.5209  0.8872  0.8275
 3362SOL     OW21547   1.762   4.105   2.054 -0.6728  0.0718 -0.2642
 3362SOL    HW121548   1.826   4.150   1.998  0.7982  1.9253  2.8667
 3362SOL    HW221549   1.776   4.152   2.137 -0.8247  0.4121 -0.4319
 3363SOL     OW21550   4.359   4.215   2.593 -0.2989 -0.1645  0.0177
 3363SOL    HW121551   4.345   4.123   2.568  0.9206 -0.4584  0.4493
 3363SOL    HW221552   4.330   4.262   2.514 -2.2218  0.5822  1.1608
 3364SOL     OW21553   1.562   1.553   3.916  0.3821 -0.7584 -0.7173
 3364SOL    HW121554   1.527   1.466   3.934 -0.6934 -0.4037 -1.1305
 3364SOL    HW221555   1.491   1.605   3.954  1.1679 -0.4485  0.3336
 3365SOL     OW21556   1.507   0.341  10.393 -0.0303  0.0640  0.3674
 3365SOL    HW121557   1.419   0.364  10.422 -0.1350  1.6230 -1.1612
 3365SOL    HW221558   1.520   0.273  10.460  3.0281  1.6539  1.3896
 3366SOL     OW21559   3.130   2.772   8.921  0.2090  0.2561 -0.1999
 3366SOL    HW121560   3.073   2.849   8.925  0.5428  0.4657  0.6596
 3366SOL    HW221561   3.138   2.740   9.011  0.8886 -1.7462 -0.9798
 3367SOL     OW21562   3.296   2.221   6.587 -0.3847 -0.1824  0.0816
 3367SOL    HW121563   3.241   2.276   6.642 -0.3664  1.0284 -1.1053
 3367SOL    HW221564   3.228   2.199   6.523 -1.4798  0.6765  0.9543
 3368SOL     OW21565   2.236   1.568   8.352  0.5196  0.0448  0.2607
 3368SOL    HW121566   2.162   1.580   8.411  0.4199  0.2735  0.0892
 3368SOL    HW221567   2.200   1.625   8.284 -0.4128 -0.2051  0.5497
 3369SOL     OW21568   2.808   2.915   2.356 -0.1407 -0.2490 -0.1803
 3369SOL    HW121569   2.855   2.969   2.293 -2.4324  1.6481 -0.2484
 3369SOL    HW221570   2.827   2.829   2.318 -1.9971  0.7810 -3.4039
 3370SOL     OW21571   1.405   0.199  14.193 -0.1866 -0.4822 -0.3066
 3370SOL    HW121572   1.427   0.203  14.100 -0.3566  0.1593 -0.3140
 3370SOL    HW221573   1.420   0.105  14.205 -1.9903 -0.9015 -1.2987
 3371SOL     OW21574   2.299   0.266   8.997  0.4507 -0.2752  0.4064
 3371SOL    HW121575   2.260   0.218   8.924 -0.1027  2.9866 -1.4444
 3371SOL    HW221576   2.311   0.196   9.061 -0.0328 -0.2902  0.4793
 3372SOL     OW21577   0.506   2.158   5.593  0.2741  0.5183 -0.3789
 3372SOL    HW121578   0.428   2.105   5.608  2.1681 -2.3522 -0.5001
 3372SOL    HW221579   0.484   2.250   5.605  0.1674  0.5708 -0.9919
 3373SOL     OW21580   0.466   0.003   9.750 -0.3846  0.0732  0.5266
 3373SOL    HW121581   0.395   4.700   9.690  0.1981  0.9883 -0.5170
 3373SOL    HW221582   0.516   0.073   9.708 -2.0622  1.1008  0.2204
 3374SOL     OW21583   1.778   4.682   2.697 -0.6391  0.4974  0.4598
 3374SOL    HW121584   1.853   4.663   2.641 -0.6762  1.1179  0.2030
 3374SOL    HW221585   1.731   0.020   2.637 -3.6545 -2.1066  0.2901
 3375SOL     OW21586   0.375   3.431   7.898  0.4441 -0.3875 -0.5467
 3375SOL    HW121587   0.395   3.390   7.814  0.0069  1.2255 -1.4254
 3375SOL    HW221588   0.347   3.517   7.867  0.3223 -0.1345  0.2485
 3376SOL     OW21589   1.219   4.620   5.877 -0.0353 -0.0096 -0.2004
 3376SOL    HW121590   1.192   4.700   5.922 -0.2674  0.2019 -0.7125
 3376SOL    HW221591   1.187   4.640   5.789  0.8123 -0.0590 -0.5267
 3377SOL     OW21592   1.105   2.829  10.194 -0.5479  0.4744  0.7374
 3377SOL    HW121593   1.026   2.831  10.248 -1.0139 -0.2369  0.0861
 3377SOL    HW221594   1.127   2.736  10.203 -1.4683  0.2937  1.1210
 3378SOL     OW21595   1.046   2.630   5.073  0.0324 -0.1594  0.6206
 3378SOL    HW121596   0.970   2.687   5.086 -0.3681 -0.1740 -1.7804
 3378SOL    HW221597   1.069   2.642   4.981 -0.7644 -1.2606  0.2739
 3379SOL     OW21598   0.947   1.755  15.121 -0.2385 -0.0511  0.7601
 3379SOL    HW121599   0.980   1.834  15.164  1.6176  0.1645 -1.0725
 3379SOL    HW221600   1.027   1.737  15.071 -0.5419  1.1249 -0.1235
 3380SOL     OW21601   4.325   1.529  12.502 -0.2857  0.7118 -0.0499
 3380SOL    HW121602   4.289   1.535  12.413  1.0941  0.7565 -0.6172
 3380SOL    HW221603   4.393   1.461  12.492 -0.3720  0.2651  2.3978
 3381SOL     OW21604   3.016   3.615   4.707 -0.8627  0.5410 -0.1904
 3381SOL    HW121605   2.966   3.533   4.704  1.6068 -0.9959  0.7031
 3381SOL    HW221606   3.037   3.626   4.799 -0.2964 -2.0588 -0.0097
 3382SOL     OW21607   3.059   4.087   7.697 -0.1810 -0.2164 -0.1875
 3382SOL    HW121608   3.110   4.052   7.769  1.3317 -0.1682 -1.2392
 3382SOL    HW221609   3.124   4.064   7.630  0.4496  1.0075 -0.0026
 3383SOL     OW21610   2.878   2.422   8.132 -0.0923 -0.1075  0.8925
 3383SOL    HW121611   2.912   2.338   8.101  0.4649 -0.1567  1.6505
 3383SOL    HW221612   2.806   2.446   8.073  1.5261  0.4538 -0.8347
 3384SOL     OW21613   2.137   3.337   3.617 -0.1823  0.5883 -0.3739
 3384SOL    HW121614   2.055   3.298   3.648 -0.7136  1.3239 -0.8750
 3384SOL    HW221615   2.164   3.402   3.682  1.1213 -0.2874 -0.0347
 3385SOL     OW21616   0.219   0.834   5.631 -0.9061  0.0145 -0.0695
 3385SOL    HW121617   0.183   0.749   5.607  0.0153  0.0159 -1.4488
 3385SOL    HW221618   0.153   0.868   5.692 -0.2603  2.7543 -0.9044
 3386SOL     OW21619   2.579   1.851   8.021 -0.1495  0.4492 -0.6352
 3386SOL    HW121620   2.535   1.935   8.026  2.1500  1.3227  4.0561
 3386SOL    HW221621   2.525   1.803   8.084  0.8024  1.9629  1.3060
 3387SOL     OW21622   0.196   3.606   5.870  0.0907 -0.4152  0.7043
 3387SOL    HW121623   0.291   3.605   5.879 -0.1474 -1.4165  3.3101
 3387SOL    HW221624   0.172   3.529   5.921 -1.2166 -0.7747 -0.4612
 3388SOL     OW21625   2.960   3.023   6.337  0.0209  0.0866  0.0571
 3388SOL    HW121626   3.051   3.054   6.341  0.6209 -1.7610  1.0979
 3388SOL    HW221627   2.975   2.929   6.343 -1.6269 -0.3139 -2.4559
 3389SOL     OW21628   3.308   2.517   4.150 -0.0222 -0.0572 -0.7397
 3389SOL    HW121629   3.275   2.521   4.060 -1.6671  0.0474 -0.1439
 3389SOL    HW221630   3.398   2.543   4.134  0.8214 -2.7846 -0.4920
 3390SOL     OW21631   4.011   2.716   8.166  0.3706 -0.1306  0.4572
 3390SOL    HW121632   3.983   2.707   8.258  0.4409 -1.3618  0.3593
 3390SOL    HW221633   3.995   2.632   8.124  0.6030 -0.1557  0.4230
 3391SOL     OW21634   0.103   3.815  16.447 -0.3157 -0.6190  0.1338
 3391SOL    HW121635   0.081   3.805  16.355  1.0443 -0.8954 -0.1712
 3391SOL    HW221636   0.193   3.846  16.434 -0.1301 -0.8261  0.9250
 3392SOL     OW21637   3.599   4.014   2.266 -0.1661 -0.8232  0.3692
 3392SOL    HW121638   3.519   3.985   2.310 -1.1812 -0.4503 -1.2422
 3392SOL    HW221639   3.657   3.947   2.304  1.6370 -0.2804 -1.4199
 3393SOL     OW21640   2.508   1.122   0.621  0.8465 -0.0719  0.2987
 3393SOL    HW121641   2.493   1.180   0.546  0.2798  0.4489  0.8225
 3393SOL    HW221642   2.576   1.062   0.589  0.3459 -0.3718 -0.2003
 3394SOL     OW21643   4.566   1.429   9.542  0.0086 -0.4001 -0.4042
 3394SOL    HW121644   4.636   1.393   9.488 -1.3811  1.8319 -3.7267
 3394SOL    HW221645   4.519   1.351   9.568 -2.8743  1.5217  0.1285
 3395SOL     OW21646   2.972   0.880  11.625 -0.4647 -0.2195 -0.7232
 3395SOL    HW121647   3.064   0.877  11.599 -0.5211 -1.1443 -0.8293
 3395SOL    HW221648   2.980   0.799  11.677  0.2876  0.0725 -0.3799
 3396SOL     OW21649   2.378   4.678   1.102  0.1861  0.1594  0.4374
 3396SOL    HW121650   2.371   4.595   1.150  1.2400 -0.1907 -0.0138
 3396SOL    HW221651   2.445   0.004   1.153  0.3312 -0.1503  0.5245
 3397SOL     OW21652   3.203   3.206  12.746  0.0316 -0.1206 -0.0247
 3397SOL    HW121653   3.180   3.286  12.793 -0.2446 -0.1559 -0.0997
 3397SOL    HW221654   3.255   3.162  12.813 -0.2641 -1.7514 -0.8671
 3398SOL     OW21655   2.064   2.452  16.848  0.6615 -0.4271  0.5735
 3398SOL    HW121656   2.074   2.422  16.938 -0.8158  0.4315  1.0204
 3398SOL    HW221657   2.000   2.520  16.871  1.0248 -0.1032  0.6334
 3399SOL     OW21658   3.485   3.930  15.924 -0.1339 -0.2422  0.2512
 3399SOL    HW121659   3.472   3.888  16.009 -0.2213 -0.6062  0.0533
 3399SOL    HW221660   3.506   4.018  15.957  0.9210 -0.3313 -0.2010
 3400SOL     OW21661   4.389   2.194   6.026 -0.1171  0.4937  0.2231
 3400SOL    HW121662   4.322   2.146   6.073  1.0835 -2.2798 -0.8944
 3400SOL    HW221663   4.343   2.259   5.973 -1.1425 -0.6488 -0.2787
 3401SOL     OW21664   3.830   2.320   6.623  0.3675  0.2809  0.0231
 3401SOL    HW121665   3.755   2.356   6.670 -0.4814 -1.9161  0.3287
 3401SOL    HW221666   3.802   2.342   6.534 -0.4600  1.1751  0.5100
 3402SOL     OW21667   1.706   1.999  10.010 -0.2020  0.0001  0.2810
 3402SOL    HW121668   1.693   1.923   9.953 -0.7348  0.3408 -0.0490
 3402SOL    HW221669   1.627   2.004  10.064 -0.2401 -0.0659  0.2311
 3403SOL     OW21670   1.433   0.355   1.164 -0.5573  0.2479  0.1347
 3403SOL    HW121671   1.484   0.430   1.137 -2.8421  0.9493 -2.2317
 3403SOL    HW221672   1.459   0.353   1.256 -0.5404  0.5492  0.1339
 3404SOL     OW21673   3.537   3.418   2.929  0.3572  0.5388 -0.5906
 3404SOL    HW121674   3.466   3.361   2.960 -0.0551  1.0318 -0.6175
 3404SOL    HW221675   3.585   3.369   2.863 -0.9808  1.3900 -2.1982
 3405SOL     OW21676   2.803   0.384   4.547  0.0194  0.2716  0.3114
 3405SOL    HW121677   2.893   0.397   4.515 -0.3780 -1.6618 -1.6399
 3405SOL    HW221678   2.787   0.478   4.557  0.3296  0.3676 -0.0689
 3406SOL     OW21679   2.395   1.275  11.786 -0.0820  0.2041  0.3386
 3406SOL    HW121680   2.318   1.311  11.741  0.3676  2.3073  1.2656
 3406SOL    HW221681   2.347   1.235  11.858 -1.7203 -2.1271 -2.0215
 3407SOL     OW21682   0.875   0.294  10.236 -0.1112 -0.0675  0.3801
 3407SOL    HW121683   0.824   0.374  10.220 -3.0970 -1.9140  0.6677
 3407SOL    HW221684   0.963   0.330  10.222 -0.4710  0.4047 -0.6613
 3408SOL     OW21685   0.484   3.916   0.613 -0.0110  0.1027  0.4510
 3408SOL    HW121686   0.527   3.975   0.675 -1.1063 -0.0193  1.3265
 3408SOL    HW221687   0.470   3.969   0.534  1.6697 -2.7049 -1.7550
 3409SOL     OW21688   4.377   3.044  13.827  0.1028 -0.0288  0.0188
 3409SOL    HW121689   4.392   3.122  13.774 -0.3906 -0.0921 -0.2052
 3409SOL    HW221690   4.284   3.039  13.805  0.0739 -2.0844  0.6269
 3410SOL     OW21691   3.722   3.799   2.369 -0.3160 -0.5106  0.2153
 3410SOL    HW121692   3.654   3.740   2.335 -1.6474  1.0060  0.2353
 3410SOL    HW221693   3.801   3.764   2.328 -1.2151 -1.1186 -0.9912
 3411SOL     OW21694   4.255   2.495   5.528 -0.8619 -0.0040 -0.2964
 3411SOL    HW121695   4.177   2.535   5.564 -0.1270 -0.0381  1.3333
 3411SOL    HW221696   4.224   2.469   5.441  0.0986  1.4851 -1.0837
 3412SOL     OW21697   1.991   3.775   5.599 -0.3355 -0.7442 -0.1604
 3412SOL    HW121698   1.907   3.821   5.602  1.1181  1.8464  0.8596
 3412SOL    HW221699   1.959   3.687   5.581 -0.8335 -1.0465  2.1794
 3413SOL     OW21700   1.891   1.430  16.086 -0.1827  0.0890 -0.1244
 3413SOL    HW121701   1.797   1.425  16.070 -0.3226 -0.2586  0.8123
 3413SOL    HW221702   1.901   1.505  16.144 -0.4943 -1.1146  1.4799
 3414SOL     OW21703   0.045   0.814   8.844  0.3763 -0.1771 -0.4813
 3414SOL    HW121704   0.026   0.724   8.870 -0.8360  0.5773  1.1660
 3414SOL    HW221705   4.681   0.854   8.863  1.4782  2.3310 -0.9026
 3415SOL     OW21706   1.999   2.019   9.317  0.1688 -0.0899 -0.0949
 3415SOL    HW121707   2.010   1.950   9.251 -0.1696 -0.6811  0.4611
 3415SOL    HW221708   1.911   1.998   9.350 -0.1243  1.6990  0.2933
 3416SOL     OW21709   1.260   3.044  10.239 -0.1343 -0.2289 -0.3598
 3416SOL    HW121710   1.216   2.961  10.258 -1.1424  0.4215  0.1154
 3416SOL    HW221711   1.211   3.074  10.162  0.2687  0.1317 -0.4770
 3417SOL     OW21712   2.658   4.670   6.562  0.2389  0.0928 -0.0118
 3417SOL    HW121713   2.671   0.045   6.569  2.3404 -0.2955  1.2038
 3417SOL    HW221714   2.639   4.661   6.468  1.1571 -0.9337 -0.0927
 3418SOL     OW21715   3.051   0.513   8.495 -0.4401 -0.2495  0.8423
 3418SOL    HW121716   2.992   0.576   8.537  0.9093  0.6673  1.3549
 3418SOL    HW221717   3.124   0.571   8.473  1.5074 -3.0674 -0.1870
 3419SOL     OW21718   4.264   1.195   2.161  0.5823 -0.2425 -0.6662
 3419SOL    HW121719   4.226   1.283   2.162  1.6330  0.2006 -0.1183
 3419SOL    HW221720   4.212   1.157   2.232 -1.4166 -0.3441 -2.1832
 3420SOL     OW21721   0.141   1.718  10.339  0.4938 -0.2090 -0.0969
 3420SOL    HW121722   0.198   1.687  10.269 -0.2852  0.3162 -0.9567
 3420SOL    HW221723   0.212   1.746  10.397  0.6768  0.1637 -0.5019
 3421SOL     OW21724   2.003   4.005   4.170  0.6888  0.2472  0.4621
 3421SOL    HW121725   1.995   3.910   4.176 -0.1150  0.3753  1.5165
 3421SOL    HW221726   1.937   4.050   4.223 -0.3141  0.8616 -1.2941
 3422SOL     OW21727   3.797   1.557   2.291  0.2022 -0.3533  0.1674
 3422SOL    HW121728   3.803   1.594   2.380  1.0172  1.1401 -0.4996
 3422SOL    HW221729   3.758   1.473   2.314  0.8332 -0.9389 -0.9256
 3423SOL     OW21730   4.600   4.360   2.470 -0.2675  0.4133  0.1119
 3423SOL    HW121731   4.598   4.325   2.381 -0.8936  0.6292  0.0435
 3423SOL    HW221732   4.524   4.417   2.461 -1.1690 -1.2281 -2.6779
 3424SOL     OW21733   1.348   2.982   7.396 -0.2272 -0.2138 -0.0403
 3424SOL    HW121734   1.369   2.889   7.403  1.6358  0.1767 -0.4452
 3424SOL    HW221735   1.422   3.010   7.343 -1.4086 -1.6939 -2.4876
 3425SOL     OW21736   2.633   2.288   4.951 -0.0846  0.3172 -0.5936
 3425SOL    HW121737   2.662   2.211   4.902 -1.8429  0.0462 -1.1751
 3425SOL    HW221738   2.606   2.256   5.037 -1.8552  2.6361 -0.3093
 3426SOL     OW21739   4.352   3.175  14.048  0.3142 -0.0937  0.3148
 3426SOL    HW121740   4.299   3.250  14.022 -1.5539 -1.7170 -0.5838
 3426SOL    HW221741   4.351   3.117  13.972  0.8154  1.5361 -0.9455
 3427SOL     OW21742   1.936   1.298   7.309 -0.2728 -0.1269  0.2609
 3427SOL    HW121743   1.846   1.327   7.295  0.4546  2.3373  0.5700
 3427SOL    HW221744   1.935   1.205   7.290 -2.3195  0.1071 -0.7971
 3428SOL     OW21745   4.154   1.290  13.405  0.0091 -0.1058  0.0743
 3428SOL    HW121746   4.171   1.249  13.490  1.2684 -4.1287 -2.1159
 3428SOL    HW221747   4.180   1.379  13.430  0.9829 -0.5315  0.5902
 3429SOL     OW21748   0.504   0.508   9.058  0.3892 -0.1501 -0.5177
 3429SOL    HW121749   0.505   0.489   8.964  2.4458  1.9269 -0.8952
 3429SOL    HW221750   0.457   0.432   9.094  2.1891 -1.1556 -0.3190
 3430SOL     OW21751   4.192   4.464   9.086  0.2219 -0.7595  0.3571
 3430SOL    HW121752   4.189   4.427   8.998 -1.8597  0.3275 -0.0203
 3430SOL    HW221753   4.172   4.384   9.135  0.5529 -1.6656 -0.9852
 3431SOL     OW21754   2.044   1.309   5.289 -0.2137 -0.5307  0.0332
 3431SOL    HW121755   2.106   1.360   5.342  1.2178 -3.8532  1.5739
 3431SOL    HW221756   2.102   1.245   5.247 -0.0484 -0.0723 -0.4340
 3432SOL     OW21757   2.379   2.986   7.243 -0.4843  1.1536  0.0073
 3432SOL    HW121758   2.392   2.893   7.223  1.1757  0.9055  2.2120
 3432SOL    HW221759   2.389   3.026   7.157 -4.5631  1.1985 -0.4247
 3433SOL     OW21760   0.781   2.732   7.484  0.2411 -0.2937 -0.7073
 3433SOL    HW121761   0.865   2.758   7.523 -0.2822  0.2143  0.0782
 3433SOL    HW221762   0.782   2.800   7.417 -0.4513  3.1668  2.8207
 3434SOL     OW21763   0.237   0.435  11.152  0.5480 -0.3238  0.4398
 3434SOL    HW121764   0.213   0.346  11.178 -0.0749 -0.1675  0.3967
 3434SOL    HW221765   0.169   0.457  11.088  1.7011  0.3527 -0.5600
 3435SOL     OW21766   0.601   2.180   6.063  0.8378 -0.1788 -0.2696
 3435SOL    HW121767   0.693   2.172   6.088  0.2565 -3.6145  0.7474
 3435SOL    HW221768   0.575   2.096   6.026 -0.1584 -0.7512  1.7742
 3436SOL     OW21769   4.514   1.191  16.557 -0.6557 -0.0447 -0.0270
 3436SOL    HW121770   4.442   1.174  16.617  0.4344 -0.4067  1.1869
 3436SOL    HW221771   4.478   1.248  16.490  0.9988 -0.8755 -1.6133
 3437SOL     OW21772   4.295   3.641  10.871 -0.7172  0.0610  0.4170
 3437SOL    HW121773   4.334   3.562  10.907 -0.6473  1.1773  2.8397
 3437SOL    HW221774   4.203   3.613  10.875 -0.2256 -1.4241  1.1805
 3438SOL     OW21775   1.918   2.812   5.247  0.0653  0.1219  0.2860
 3438SOL    HW121776   1.839   2.762   5.227  0.5452 -0.9281  1.0498
 3438SOL    HW221777   1.894   2.868   5.320 -1.3266 -0.4508  0.2668
 3439SOL     OW21778   1.333   2.585   9.533 -0.1808  0.0036 -0.0359
 3439SOL    HW121779   1.421   2.622   9.525  0.5906 -1.7154  0.4718
 3439SOL    HW221780   1.330   2.555   9.623  0.5283  0.6709  0.2135
 3440SOL     OW21781   0.424   3.696  14.613  0.2818  0.5631  0.1836
 3440SOL    HW121782   0.329   3.687  14.616  0.2611  0.2941 -1.3115
 3440SOL    HW221783   0.433   3.757  14.540 -0.0280  0.1601 -0.1892
 3441SOL     OW21784   1.456   3.104   2.966 -0.1879 -0.3442 -0.0289
 3441SOL    HW121785   1.482   3.167   3.033  3.3560  1.3161 -2.9557
 3441SOL    HW221786   1.431   3.035   3.027 -0.9889  0.2993  0.3713
 3442SOL     OW21787   3.485   3.020   7.872 -0.1782 -0.4088  0.6985
 3442SOL    HW121788   3.493   2.927   7.851 -0.5454 -0.6329  1.5652
 3442SOL    HW221789   3.393   3.038   7.890  0.0504 -0.7491  2.1929
 3443SOL     OW21790   2.153   3.728   4.803  0.1077  0.5951 -0.1096
 3443SOL    HW121791   2.060   3.723   4.825  0.3732 -3.4768  0.0645
 3443SOL    HW221792   2.162   3.817   4.769  0.6123  0.3212 -0.6923
 3444SOL     OW21793   4.277   0.605   7.646 -0.7762 -0.1318  0.1758
 3444SOL    HW121794   4.346   0.582   7.707  0.0313  0.5040 -0.5003
 3444SOL    HW221795   4.249   0.682   7.695  1.8488  1.0053 -0.1064
 3445SOL     OW21796   1.277   2.181   0.447 -0.1117 -0.5444 -0.2670
 3445SOL    HW121797   1.338   2.124   0.495 -1.2096 -1.5229 -0.0306
 3445SOL    HW221798   1.248   2.224   0.528  1.3678  0.8321 -0.4719
 3446SOL     OW21799   4.452   2.968   7.687  0.2900  0.2637  0.5410
 3446SOL    HW121800   4.526   3.015   7.727 -0.1348  0.1459  1.4635
 3446SOL    HW221801   4.413   2.930   7.765  0.2483 -1.3292 -0.2547
 3447SOL     OW21802   4.379   1.146   9.283 -0.0008  0.2569  0.3320
 3447SOL    HW121803   4.321   1.218   9.260 -0.7340 -0.9354 -1.5484
 3447SOL    HW221804   4.460   1.173   9.240  0.7016 -2.0189  0.2195
 3448SOL     OW21805   0.341   0.208   8.116  0.1660 -0.0375 -0.3975
 3448SOL    HW121806   0.317   0.241   8.202 -0.2905 -1.0310 -0.1435
 3448SOL    HW221807   0.255   0.192   8.077 -0.2548 -0.9442  0.9155
 3449SOL     OW21808   0.647   1.115   6.903 -0.5447  0.1742  0.6074
 3449SOL    HW121809   0.653   1.210   6.892 -0.6028 -0.1899 -2.6762
 3449SOL    HW221810   0.703   1.111   6.980 -0.1871  0.5558  0.3686
 3450SOL     OW21811   3.295   1.599   4.283 -0.4253  0.2979 -0.0523
 3450SOL    HW121812   3.251   1.558   4.209 -2.2507 -0.8626  1.6861
 3450SOL    HW221813   3.381   1.559   4.270 -1.0299 -1.3017  0.9857
 3451SOL     OW21814   0.274   4.010   7.815  0.3672 -0.4453  0.3168
 3451SOL    HW121815   0.195   3.969   7.779  0.3712 -0.7608  0.6650
 3451SOL    HW221816   0.308   4.073   7.751  0.4367 -1.7754 -0.9554
 3452SOL     OW21817   1.689   0.624   1.319  0.0037  0.4313 -0.6991
 3452SOL    HW121818   1.785   0.630   1.325 -0.2616  0.9413  2.6177
 3452SOL    HW221819   1.657   0.658   1.402  2.2446  1.3239 -0.1922
 3453SOL     OW21820   4.267   0.791   3.119 -0.6072  0.5101 -0.1551
 3453SOL    HW121821   4.307   0.708   3.092  0.3992  1.0915 -0.4650
 3453SOL    HW221822   4.351   0.836   3.130  0.0002 -0.3797 -1.1327
 3454SOL     OW21823   0.818   0.567   7.249  0.1293 -0.6831 -0.1590
 3454SOL    HW121824   0.869   0.608   7.319 -1.3266  1.5262 -0.4130
 3454SOL    HW221825   0.781   0.485   7.280 -0.3914 -0.4049 -0.0581
 3455SOL     OW21826   2.277   4.594   6.202  0.5070 -0.0002 -0.2552
 3455SOL    HW121827   2.192   4.609   6.161 -0.5849  0.4967  2.2213
 3455SOL    HW221828   2.341   4.623   6.137  1.8412 -1.4199  0.4025
 3456SOL     OW21829   0.229   2.093  12.776  0.5976  0.1937  0.4149
 3456SOL    HW121830   0.253   2.152  12.705 -0.3816  0.0735 -0.0087
 3456SOL    HW221831   0.306   2.099  12.833  1.0471  0.5542 -0.2326
 3457SOL     OW21832   0.721   2.351  14.016 -0.2872  0.1035  0.2567
 3457SOL    HW121833   0.655   2.407  14.056 -0.0970  0.9716 -0.6721
 3457SOL    HW221834   0.680   2.334  13.932  2.9503 -1.3573 -1.0520
 3458SOL     OW21835   4.341   2.953  14.538  0.4688  0.1987 -0.4984
 3458SOL    HW121836   4.303   3.036  14.566 -0.8901 -0.3109 -0.8497
 3458SOL    HW221837   4.345   2.968  14.444 -0.5151 -1.0139 -0.7334
 3459SOL     OW21838   3.190   0.768  10.764  0.4831  0.0685  0.0499
 3459SOL    HW121839   3.196   0.863  10.774  0.9949 -0.1519  1.8623
 3459SOL    HW221840   3.097   0.759  10.780  0.5124 -0.6578 -0.1842
 3460SOL     OW21841   4.187   0.529  15.816 -0.4439  0.0351  0.1222
 3460SOL    HW121842   4.212   0.621  15.825  1.5660 -0.2409 -2.5481
 3460SOL    HW221843   4.105   0.524  15.866 -1.7708  1.8318 -1.8860
 3461SOL     OW21844   2.403   1.787   4.456  0.3835  0.1866  0.5297
 3461SOL    HW121845   2.310   1.771   4.441  0.3768  1.4087 -0.7902
 3461SOL    HW221846   2.405   1.871   4.502  0.8569  0.3977  0.1182
 3462SOL     OW21847   0.355   4.403   7.937 -0.1892  0.1873 -0.1886
 3462SOL    HW121848   0.437   4.399   7.888  0.7424  0.2222  1.3577
 3462SOL    HW221849   0.358   4.477   7.997  1.1164 -0.0352  0.0301
 3463SOL     OW21850   0.921   0.979   6.180  0.2692 -0.1834  0.1919
 3463SOL    HW121851   0.846   0.920   6.167 -0.0919  0.1351  0.8492
 3463SOL    HW221852   0.893   1.058   6.133 -0.0827  0.3603  1.3246
 3464SOL     OW21853   0.312   2.418   5.791 -0.1321 -1.0154 -0.2600
 3464SOL    HW121854   0.237   2.376   5.747 -0.5847 -0.3512 -0.1278
 3464SOL    HW221855   0.339   2.480   5.723  1.3502  0.4991  1.7268
 3465SOL     OW21856   0.541   4.217   9.542 -0.2722 -0.1858 -0.5082
 3465SOL    HW121857   0.618   4.234   9.488  1.1761  1.3283  2.0595
 3465SOL    HW221858   0.509   4.307   9.548 -1.4295 -0.6966  1.0709
 3466SOL     OW21859   0.173   0.976   6.959  0.3611  0.2134  0.8460
 3466SOL    HW121860   0.218   0.901   6.920  0.7714  1.2901 -0.7582
 3466SOL    HW221861   0.224   1.050   6.926  1.2815 -1.0836 -0.6571
 3467SOL     OW21862   0.855   4.164   1.908 -0.1222  0.6236  0.2480
 3467SOL    HW121863   0.899   4.132   1.829 -0.7734  0.5440 -0.0787
 3467SOL    HW221864   0.892   4.105   1.975 -1.2132  0.3278  0.5813
 3468SOL     OW21865   2.821   2.345   6.091  0.2597  0.2625 -0.0246
 3468SOL    HW121866   2.848   2.424   6.044  0.1923 -0.4117 -1.2175
 3468SOL    HW221867   2.729   2.340   6.067 -0.8535 -1.5657  4.7830
 3469SOL     OW21868   0.079   0.237   4.736  0.0243 -0.2749 -0.1095
 3469SOL    HW121869   0.129   0.290   4.798  0.4013 -1.2390  0.4126
 3469SOL    HW221870   0.020   0.187   4.792  0.2625 -1.3130 -0.7814
 3470SOL     OW21871   4.211   4.183   9.222 -0.1540 -0.2742 -0.7704
 3470SOL    HW121872   4.144   4.117   9.244 -0.1688 -1.3040 -3.8820
 3470SOL    HW221873   4.264   4.179   9.302  1.2047 -4.2193 -1.8499
 3471SOL     OW21874   0.753   0.817   4.322 -0.1862  0.0547 -0.0909
 3471SOL    HW121875   0.711   0.742   4.280  1.2954 -0.9358  0.2177
 3471SOL    HW221876   0.744   0.788   4.413 -0.1365 -1.2442 -0.4951
 3472SOL     OW21877   2.724   0.720   4.134  0.8872  0.3226  0.2813
 3472SOL    HW121878   2.669   0.716   4.212  0.4108 -0.9911 -0.1219
 3472SOL    HW221879   2.698   0.805   4.098  0.5596 -0.3256 -1.0375
 3473SOL     OW21880   0.410   0.773   1.541  0.4780  0.0430 -0.0505
 3473SOL    HW121881   0.409   0.679   1.556 -1.1700 -0.1076 -1.1542
 3473SOL    HW221882   0.317   0.792   1.534  0.5814  1.2074  1.7118
 3474SOL     OW21883   0.663   0.432   8.575  0.5111  0.1179  0.1260
 3474SOL    HW121884   0.680   0.469   8.488  0.3699  0.7028  0.3536
 3474SOL    HW221885   0.740   0.376   8.580  0.5662  0.2074  0.2746
 3475SOL     OW21886   2.998   2.650   9.388 -0.0120 -0.0325 -0.4258
 3475SOL    HW121887   3.003   2.581   9.454  2.6475 -0.3225 -0.9679
 3475SOL    HW221888   2.906   2.653   9.360  0.0791  1.2502 -0.6039
 3476SOL     OW21889   1.473   1.067   3.082 -0.1990 -0.1665  0.8105
 3476SOL    HW121890   1.499   1.067   2.990  0.7926 -1.1037  1.0883
 3476SOL    HW221891   1.531   1.135   3.117  1.0539 -1.2282  0.7971
 3477SOL     OW21892   4.469   0.825   3.597 -0.6718 -0.2570 -0.3454
 3477SOL    HW121893   4.447   0.747   3.545 -1.4694 -0.9730  1.0758
 3477SOL    HW221894   4.545   0.859   3.550 -1.3733  0.2562 -1.0958
 3478SOL     OW21895   4.557   2.509   6.708 -0.1590 -0.8840  0.4115
 3478SOL    HW121896   4.476   2.460   6.719 -0.4707 -0.4825 -0.1197
 3478SOL    HW221897   4.528   2.566   6.637 -1.6618 -0.1323  1.6325
 3479SOL     OW21898   1.563   1.024   3.619 -0.6809  0.0333 -0.3200
 3479SOL    HW121899   1.641   1.065   3.581 -0.7416  0.4282 -0.0146
 3479SOL    HW221900   1.539   0.974   3.541  0.0975  0.0548 -0.5678
 3480SOL     OW21901   1.450   3.873   5.442  0.1762  0.0356 -0.0724
 3480SOL    HW121902   1.386   3.881   5.513  0.5845 -0.8813  0.3939
 3480SOL    HW221903   1.467   3.964   5.418 -1.1838 -0.0576 -1.4297
 3481SOL     OW21904   2.537   1.264   4.803 -0.5196 -0.4213 -0.2899
 3481SOL    HW121905   2.629   1.282   4.785 -0.6938 -0.5405 -1.2950
 3481SOL    HW221906   2.491   1.333   4.755 -0.5298  0.7167  1.3618
 3482SOL     OW21907   3.786   2.129   5.631  0.3352  0.2109 -0.1148
 3482SOL    HW121908   3.727   2.174   5.691 -0.5394 -0.3920 -0.5162
 3482SOL    HW221909   3.785   2.046   5.678  0.0076 -0.9665 -2.1834
 3483SOL     OW21910   0.672   4.603   0.550  0.0579 -0.7323  0.0018
 3483SOL    HW121911   0.671   4.514   0.515 -0.2119 -0.3291 -1.0142
 3483SOL    HW221912   0.587   4.637   0.522  0.7027  1.6011  0.8088
 3484SOL     OW21913   0.393   0.944  10.287  0.1418  0.3018 -0.0727
 3484SOL    HW121914   0.422   0.951  10.377 -0.9322 -3.2833  0.5489
 3484SOL    HW221915   0.467   0.961  10.228 -0.8710  0.6954 -1.2421
 3485SOL     OW21916   3.415   0.789   8.248  0.0581 -0.1446  0.2389
 3485SOL    HW121917   3.447   0.879   8.242 -2.0929  0.6447  0.8640
 3485SOL    HW221918   3.498   0.741   8.249 -0.0959 -0.4117  0.3952
 3486SOL     OW21919   2.657   1.120   7.597 -0.1637  0.1421  0.0813
 3486SOL    HW121920   2.605   1.089   7.523 -0.6963 -0.0182  0.5207
 3486SOL    HW221921   2.743   1.124   7.556 -0.5015 -0.3241 -0.6738
 3487SOL     OW21922   1.210   2.389   5.897 -0.1457 -0.4536  0.0872
 3487SOL    HW121923   1.154   2.433   5.833 -0.6882 -1.2000  0.0556
 3487SOL    HW221924   1.160   2.385   5.978 -1.0115 -0.7356 -0.4514
 3488SOL     OW21925   2.053   3.786   8.831 -0.4555  0.0494  0.1880
 3488SOL    HW121926   2.066   3.691   8.837  2.4846  0.5728  2.1943
 3488SOL    HW221927   1.994   3.795   8.756  0.6844  1.9105 -0.4853
 3489SOL     OW21928   0.231   1.230   3.814  1.1154 -0.4235  0.3775
 3489SOL    HW121929   0.306   1.242   3.756  0.7986 -1.9128 -0.3195
 3489SOL    HW221930   0.255   1.299   3.876 -0.2759 -2.6567  3.3679
 3490SOL     OW21931   2.881   3.382  11.965 -0.9600  0.4787  0.4343
 3490SOL    HW121932   2.873   3.413  12.055  0.9665  0.6477  0.5453
 3490SOL    HW221933   2.831   3.301  11.969 -0.0106 -0.1574 -0.5022
 3491SOL     OW21934   0.281   2.443  11.669  0.3370  0.7764 -0.5850
 3491SOL    HW121935   0.318   2.489  11.745 -0.3553 -0.6731  0.6356
 3491SOL    HW221936   0.250   2.366  11.717 -0.6781 -0.0362 -2.5283
 3492SOL     OW21937   3.292   1.767   3.655 -0.3511  0.2298  0.1607
 3492SOL    HW121938   3.253   1.690   3.612  2.4834 -0.5488 -1.0447
 3492SOL    HW221939   3.233   1.837   3.629  0.2659 -0.2204 -2.5145
 3493SOL     OW21940   2.854   3.900   0.196  0.1516 -0.3006  0.5124
 3493SOL    HW121941   2.779   3.910   0.137  1.8921 -2.2624 -2.0509
 3493SOL    HW221942   2.890   3.984   0.224 -0.3452  0.4646 -1.1195
 3494SOL     OW21943   1.385   2.134  11.708 -0.0494 -0.1049 -0.1738
 3494SOL    HW121944   1.384   2.218  11.663  0.4586  0.7273  1.3754
 3494SOL    HW221945   1.475   2.110  11.686  1.1285  1.8834  2.4846
 3495SOL     OW21946   1.016   3.892   8.554 -0.4480 -0.0766  0.4456
 3495SOL    HW121947   0.951   3.926   8.493 -0.5539 -1.2334 -0.0935
 3495SOL    HW221948   0.989   3.800   8.554  1.6053 -0.6854  1.5850
 3496SOL     OW21949   3.912   3.646   6.503  0.5964 -0.4444  0.3571
 3496SOL    HW121950   3.847   3.640   6.433  0.3141  0.4563  0.5506
 3496SOL    HW221951   3.915   3.550   6.512 -1.6464 -0.7928 -2.6827
 3497SOL     OW21952   3.808   2.559   4.757 -0.7429 -0.2848 -0.2081
 3497SOL    HW121953   3.782   2.651   4.754 -0.0564 -0.1527 -1.5565
 3497SOL    HW221954   3.833   2.548   4.666  0.2875  0.7398 -0.0443
 3498SOL     OW21955   4.654   1.161   1.737 -0.5358 -0.1169 -0.2899
 3498SOL    HW121956   4.614   1.248   1.732 -0.2230 -0.0574 -1.9202
 3498SOL    HW221957   4.660   1.136   1.645  0.0947  0.3217 -0.3753
 3499SOL     OW21958   3.456   2.532  13.857  0.0624 -0.4069 -0.1626
 3499SOL    HW121959   3.386   2.593  13.878  1.7429  1.5757 -0.2513
 3499SOL    HW221960   3.520   2.555  13.925 -0.4021 -1.3263  0.5775
 3500SOL     OW21961   0.288   3.205   2.339 -0.6259 -0.7719  0.3065
 3500SOL    HW121962   0.369   3.245   2.308 -2.5798  2.1050 -1.0506
 3500SOL    HW221963   0.320   3.117   2.359 -1.6530 -0.9408  1.2096
 3501SOL     OW21964   0.865   3.704  11.723  0.1409  0.1908  0.1273
 3501SOL    HW121965   0.799   3.634  11.718  0.2613  0.0009  1.2798
 3501SOL    HW221966   0.950   3.665  11.704  0.2903  1.1594 -1.1955
 3502SOL     OW21967   1.910   1.279   4.089 -0.0956 -0.2260  0.4204
 3502SOL    HW121968   1.845   1.233   4.034 -0.3307  2.0848 -1.2358
 3502SOL    HW221969   1.994   1.274   4.043 -0.2322 -0.9603  0.2349
 3503SOL     OW21970   3.647   3.922  11.482  0.0863  0.0744  0.0731
 3503SOL    HW121971   3.635   4.013  11.454 -0.3690  0.3224  1.0335
 3503SOL    HW221972   3.645   3.881  11.396  0.2534 -2.9690  1.5307
 3504SOL     OW21973   0.322   2.014   3.639  0.2735 -0.4782 -0.2997
 3504SOL    HW121974   0.379   2.078   3.682 -1.2468  0.1134  0.8296
 3504SOL    HW221975   0.388   1.949   3.616 -0.5594 -0.6571 -2.1714
 3505SOL     OW21976   1.305   0.283   1.528  0.4815  0.0177 -0.2173
 3505SOL    HW121977   1.322   0.284   1.623 -1.0451  0.9187  0.0660
 3505SOL    HW221978   1.238   0.216   1.514  1.6998 -1.1649 -0.2693
 3506SOL     OW21979   0.647   0.690   6.167  0.4371  0.0298  0.4728
 3506SOL    HW121980   0.696   0.720   6.090  2.0314 -0.8469  1.1435
 3506SOL    HW221981   0.657   0.764   6.226  0.7374  0.0863  0.3493
 3507SOL     OW21982   0.994   1.547   8.936  0.4587  0.1000 -0.1724
 3507SOL    HW121983   0.925   1.537   9.002  0.1344  0.0693 -0.5173
 3507SOL    HW221984   0.985   1.634   8.898 -0.1619  1.2675  2.7132
 3508SOL     OW21985   3.420   1.628   7.044 -0.3539  0.3613  0.4706
 3508SOL    HW121986   3.409   1.663   6.956  0.4616 -0.8103 -0.1058
 3508SOL    HW221987   3.455   1.709   7.081 -2.1136  0.6089  1.6012
 3509SOL     OW21988   3.200   1.588  13.637 -0.2664 -0.3923 -0.4028
 3509SOL    HW121989   3.152   1.505  13.642 -3.4372  1.4981  0.2098
 3509SOL    HW221990   3.231   1.591  13.547 -1.6758 -0.2593 -0.8755
 3510SOL     OW21991   0.500   1.497   7.915 -0.0424  0.4306 -0.1671
 3510SOL    HW121992   0.589   1.478   7.884 -0.2749 -1.3510  0.2628
 3510SOL    HW221993   0.477   1.420   7.966 -1.4713  2.3817  2.1832
 3511SOL     OW21994   3.548   3.391  15.851 -0.0859  0.6670  0.4555
 3511SOL    HW121995   3.629   3.436  15.827  0.2350  0.3143  0.8849
 3511SOL    HW221996   3.557   3.378  15.946  2.5117 -1.4926 -0.0971
 3512SOL     OW21997   2.595   0.707  14.750 -0.0063 -0.2032 -0.0626
 3512SOL    HW121998   2.563   0.629  14.796 -0.2685  1.5006  2.6604
 3512SOL    HW221999   2.528   0.727  14.685  1.3509  0.0580 -1.4002
 3513SOL     OW22000   1.135   2.684   3.752  0.8757 -0.2724 -0.3405
 3513SOL    HW122001   1.231   2.688   3.751  0.8713 -0.2028 -0.7153
 3513SOL    HW222002   1.111   2.771   3.782  2.8891  0.1855 -0.0404
 3514SOL     OW22003   1.258   4.090  17.263 -0.5347  0.4098 -0.4655
 3514SOL    HW122004   1.353   4.077  17.271 -0.2150  1.5125 -2.3588
 3514SOL    HW222005   1.242   4.000  17.235 -1.9526  0.5059  0.0465
 3515SOL     OW22006   1.679   4.203   3.379 -0.1807 -0.0934 -0.0316
 3515SOL    HW122007   1.661   4.110   3.390 -0.5110  0.2558  2.4297
 3515SOL    HW222008   1.743   4.220   3.448  0.4989 -0.0278 -0.6830
 3516SOL     OW22009   2.210   1.626   5.938  0.0382  0.2566  0.7368
 3516SOL    HW122010   2.289   1.609   5.990  0.2241  1.2705  0.7867
 3516SOL    HW222011   2.249   1.698   5.889  0.6382  0.3009  1.2780
 3517SOL     OW22012   1.424   1.889  10.051 -0.1446  0.2173 -0.5672
 3517SOL    HW122013   1.347   1.917  10.100  0.7725  1.1143  0.3721
 3517SOL    HW222014   1.383   1.820   9.999 -0.9183 -0.8270  1.4385
 3518SOL     OW22015   3.201   0.044   8.744 -0.3051 -0.4317  0.3878
 3518SOL    HW122016   3.207   4.694   8.808  3.0394 -0.2013  0.3079
 3518SOL    HW222017   3.115   0.085   8.755  0.8986  2.1679  0.0693
 3519SOL     OW22018   1.993   0.603   4.312 -0.9978  0.5849 -0.1102
 3519SOL    HW122019   2.056   0.542   4.274  1.3523  1.8514  1.7657
 3519SOL    HW222020   1.913   0.550   4.318 -1.6517  1.3488 -1.9280
 3520SOL     OW22021   1.021   2.161  11.537 -0.4853  0.2624 -0.5920
 3520SOL    HW122022   0.936   2.157  11.580 -0.4675  0.7035 -0.5091
 3520SOL    HW222023   1.011   2.239  11.482 -4.2812 -1.1121 -1.8148
 3521SOL     OW22024   2.266   2.964   4.100  1.0337 -0.3633 -0.1241
 3521SOL    HW122025   2.270   2.907   4.023  1.5055  0.5182 -0.7554
 3521SOL    HW222026   2.358   2.981   4.121  1.3767 -3.2294  0.7540
 3522SOL     OW22027   2.426   0.694  17.527 -0.3342 -0.5800 -0.0646
 3522SOL    HW122028   2.338   0.728  17.544 -0.3857 -0.0429 -1.4045
 3522SOL    HW222029   2.472   0.762  17.576  1.1077  0.5947 -3.0137
 3523SOL     OW22030   0.389   4.203   8.127  0.2753 -0.2356  0.2410
 3523SOL    HW122031   0.370   4.271   8.062  1.4765 -0.3273 -0.2183
 3523SOL    HW222032   0.405   4.129   8.069 -1.3968 -0.4828  0.1000
 3524SOL     OW22033   1.008   3.000   7.229  0.2529 -0.2768  0.3900
 3524SOL    HW122034   1.066   3.056   7.178  0.6794  0.1286  1.3129
 3524SOL    HW222035   1.035   3.031   7.316 -0.4701 -0.2287  0.6018
 3525SOL     OW22036   3.598   1.727   6.474 -0.2800 -0.2135  0.5465
 3525SOL    HW122037   3.587   1.794   6.406 -0.6572  1.0979  1.8930
 3525SOL    HW222038   3.608   1.776   6.556 -0.2521  1.1471 -0.2608
 3526SOL     OW22039   0.671   4.112  17.351 -0.8801  0.5238 -0.4600
 3526SOL    HW122040   0.757   4.076  17.372 -1.6327 -0.4364  0.9532
 3526SOL    HW222041   0.654   4.072  17.265 -0.5040  2.0928 -1.2640
 3527SOL     OW22042   3.389   3.230  11.283 -0.2599  0.2283 -0.0574
 3527SOL    HW122043   3.472   3.273  11.262  0.2548 -0.9395 -0.3549
 3527SOL    HW222044   3.358   3.275  11.362 -0.5213  0.8744 -0.5178
 3528SOL     OW22045   2.448   4.466   2.647  0.3699  0.3546  0.6483
 3528SOL    HW122046   2.523   4.516   2.679  0.9391  0.1191 -0.3139
 3528SOL    HW222047   2.421   4.513   2.569  0.0390 -0.8747  0.0208
 3529SOL     OW22048   4.624   2.717   2.999 -0.2616  0.2446  0.1659
 3529SOL    HW122049   4.551   2.771   3.028  0.2403  0.6685  0.6351
 3529SOL    HW222050   4.685   2.736   3.070 -0.7754 -2.1962  1.2547
 3530SOL     OW22051   2.708   2.774   7.665 -0.1670  0.0617 -0.1182
 3530SOL    HW122052   2.665   2.822   7.736  3.5883  0.5017  1.9003
 3530SOL    HW222053   2.664   2.813   7.590 -0.3440  2.5938  1.2943
 3531SOL     OW22054   1.257   1.755   2.167 -0.3545 -0.3421 -0.0619
 3531SOL    HW122055   1.237   1.709   2.085  0.7366 -0.0212 -0.4968
 3531SOL    HW222056   1.182   1.815   2.159  0.3882  0.6977  0.8189
 3532SOL     OW22057   2.619   2.551   4.909  0.0943  0.2170  0.0709
 3532SOL    HW122058   2.564   2.560   4.832  2.3691  1.4023 -1.4173
 3532SOL    HW222059   2.620   2.456   4.908 -1.1781  0.2173 -0.8718
 3533SOL     OW22060   3.572   4.024   0.951  0.3190  0.4597 -0.3448
 3533SOL    HW122061   3.481   4.049   0.966  0.8303  1.6482  0.7828
 3533SOL    HW222062   3.609   4.055   1.034 -1.4002  0.5612  0.3681
 3534SOL     OW22063   0.904   1.106   1.625 -0.0633 -0.5845  0.1596
 3534SOL    HW122064   0.836   1.142   1.568  0.4141  0.3548  0.1791
 3534SOL    HW222065   0.908   1.164   1.700  0.5534 -1.4654  0.8075
 3535SOL     OW22066   0.531   1.985   8.708 -0.2727 -0.1531 -0.8653
 3535SOL    HW122067   0.503   2.032   8.787 -0.2504 -0.6488 -0.5622
 3535SOL    HW222068   0.611   2.032   8.685 -0.8707  0.4297 -1.7529
 3536SOL     OW22069   4.104   3.861   8.007 -0.2409 -0.2934  0.0886
 3536SOL    HW122070   4.126   3.882   8.097 -0.9292 -1.0332  0.4218
 3536SOL    HW222071   4.009   3.846   8.010 -0.8005  3.1079  0.3093
 3537SOL     OW22072   0.456   0.893   7.102  0.1081  0.2793  0.8156
 3537SOL    HW122073   0.548   0.880   7.078 -0.6779 -0.7223 -1.6266
 3537SOL    HW222074   0.411   0.850   7.029  0.1808  0.1971  0.8189
 3538SOL     OW22075   2.426   3.756   2.976 -0.2639 -0.0977  0.2131
 3538SOL    HW122076   2.335   3.773   3.000 -0.1657 -2.1294  1.9554
 3538SOL    HW222077   2.444   3.819   2.906  0.5720 -0.4146  0.1465
 3539SOL     OW22078   2.596   3.489   6.805 -0.2004  0.2708  0.3333
 3539SOL    HW122079   2.626   3.544   6.878 -1.6548 -0.1880  1.2797
 3539SOL    HW222080   2.674   3.490   6.749 -1.0347 -1.0088 -0.8346
 3540SOL     OW22081   0.086   3.555  12.427 -0.1310  0.3000 -0.3317
 3540SOL    HW122082   0.005   3.563  12.478  0.1800  1.5192 -0.0199
 3540SOL    HW222083   0.109   3.647  12.414  0.4438  0.2313  0.1669
 3541SOL     OW22084   0.566   0.885   6.769 -0.0791 -0.4496  0.0281
 3541SOL    HW122085   0.573   0.971   6.811  1.1080 -0.1558 -0.7705
 3541SOL    HW222086   0.652   0.855   6.799 -0.3803 -2.4833 -1.1949
 3542SOL     OW22087   3.488   4.655   6.572  0.0893 -0.3356 -0.1037
 3542SOL    HW122088   3.436   4.687   6.646  1.1608  2.3914 -0.5337
 3542SOL    HW222089   3.514   4.571   6.610  1.4457 -0.6203 -1.6966
 3543SOL     OW22090   1.718   1.307   5.532 -0.1389  0.0091 -0.2242
 3543SOL    HW122091   1.790   1.249   5.508  1.5971  1.7057  0.9253
 3543SOL    HW222092   1.670   1.241   5.581 -1.0973  0.0782 -1.0712
 3544SOL     OW22093   2.352   1.271  12.502 -0.8827 -0.0043  0.0428
 3544SOL    HW122094   2.338   1.319  12.583 -1.8625 -0.2543  0.0135
 3544SOL    HW222095   2.414   1.202  12.526  1.6181  0.4935 -4.7528
 3545SOL     OW22096   0.985   1.618   3.080  0.0607 -0.1288 -0.4026
 3545SOL    HW122097   1.076   1.628   3.049  1.3574 -1.4503  2.9746
 3545SOL    HW222098   0.986   1.525   3.101 -1.7333 -0.3839 -1.5227
 3546SOL     OW22099   4.449   2.625   2.400  0.0727 -0.2233 -0.0852
 3546SOL    HW122100   4.541   2.611   2.377  0.6480  2.3570  0.7057
 3546SOL    HW222101   4.453   2.643   2.494 -0.5187 -1.7870  0.2545
 3547SOL     OW22102   2.707   3.547   2.293  0.4347 -0.3285 -0.0714
 3547SOL    HW122103   2.635   3.577   2.237 -0.1181 -1.5191  0.0140
 3547SOL    HW222104   2.752   3.483   2.239  1.1599 -0.9622  1.2943
 3548SOL     OW22105   0.010   2.513   0.894  0.6931 -0.1013 -0.1181
 3548SOL    HW122106   4.656   2.480   0.944  0.2906  1.0530  0.0384
 3548SOL    HW222107   4.685   2.583   0.847  3.0024  1.6198  0.2209
 3549SOL     OW22108   3.127   1.072   4.245 -0.0739  0.2896  0.7082
 3549SOL    HW122109   3.066   1.009   4.284  0.8720 -0.7083  0.6024
 3549SOL    HW222110   3.072   1.115   4.180  1.5822  0.5514 -0.5259
 3550SOL     OW22111   4.000   0.465   9.104  0.0023 -0.0302 -0.0292
 3550SOL    HW122112   3.975   0.494   9.016  0.2147  0.0311 -0.0712
 3550SOL    HW222113   3.994   0.370   9.094 -1.7747  0.0319  0.4601
 3551SOL     OW22114   2.669   2.138   2.098  0.3815 -0.4098 -0.2339
 3551SOL    HW122115   2.596   2.076   2.100 -0.8231  1.0847  1.8194
 3551SOL    HW222116   2.649   2.202   2.030  0.5166 -1.4059 -1.2138
 3552SOL     OW22117   2.737   3.719   9.645  0.0387 -0.1029  0.1813
 3552SOL    HW122118   2.711   3.640   9.692 -1.4073 -0.1658 -0.7316
 3552SOL    HW222119   2.668   3.783   9.666  0.2198 -0.2966  1.3432
 3553SOL     OW22120   1.375   1.524   9.521  0.2989  0.3634 -0.3277
 3553SOL    HW122121   1.332   1.463   9.582 -0.9990 -1.0011 -2.5764
 3553SOL    HW222122   1.338   1.608   9.549  0.5075  0.1866  0.4522
 3554SOL     OW22123   1.683   4.389  16.170  0.3286 -0.8800 -0.2333
 3554SOL    HW122124   1.736   4.467  16.188 -0.2588 -0.3573 -0.7720
 3554SOL    HW222125   1.749   4.333  16.130  0.3084 -0.6419 -0.5997
 3555SOL     OW22126   0.645   0.888   6.363 -0.6686  0.1464 -0.3334
 3555SOL    HW122127   0.586   0.905   6.436  1.9492 -0.1863  1.8647
 3555SOL    HW222128   0.680   0.977   6.367  0.5347 -0.2410 -2.0294
 3556SOL     OW22129   3.435   3.282   8.708  0.2294  0.3641 -0.1255
 3556SOL    HW122130   3.431   3.371   8.742 -2.4888  0.7530 -1.5215
 3556SOL    HW222131   3.392   3.228   8.774  0.2136  0.2350 -0.2417
 3557SOL     OW22132   3.608   0.935   9.846  0.6182 -0.0324 -0.4025
 3557SOL    HW122133   3.658   0.865   9.803  0.7969 -1.6812  2.4503
 3557SOL    HW222134   3.682   0.993   9.862  2.4323 -2.4468  0.0451
 3558SOL     OW22135   0.018   0.805  14.218  0.4552  0.0459  0.4179
 3558SOL    HW122136   4.711   0.883  14.268  2.4845  2.3640 -2.1348
 3558SOL    HW222137   0.071   0.855  14.156  0.8006  1.6514  1.9890
 3559SOL     OW22138   1.642   2.588   0.539 -0.0195  0.2206  0.9070
 3559SOL    HW122139   1.627   2.565   0.447 -0.4539  2.0729  0.5102
 3559SOL    HW222140   1.672   2.502   0.569 -0.7120 -0.6186 -0.7748
 3560SOL     OW22141   4.678   3.334  16.865 -0.3105 -0.2996  0.1435
 3560SOL    HW122142   4.640   3.251  16.838  1.2038 -2.4744  4.6488
 3560SOL    HW222143   0.044   3.319  16.826 -0.3755  1.3208 -0.6292
 3561SOL     OW22144   0.108   3.046   8.181 -0.6566 -0.2759  0.5559
 3561SOL    HW122145   0.101   3.035   8.275 -1.0411 -0.8849  0.4565
 3561SOL    HW222146   0.192   3.092   8.179  0.0820 -1.6542 -0.5932
 3562SOL     OW22147   2.823   2.881   7.276  0.3245  0.3296  0.2613
 3562SOL    HW122148   2.900   2.893   7.331  0.0641  0.5453  0.5830
 3562SOL    HW222149   2.762   2.839   7.337  0.4483  0.4409  0.4630
 3563SOL     OW22150   2.519   1.710  12.612  0.1222  0.1027  0.2553
 3563SOL    HW122151   2.546   1.682  12.700  3.0524  3.0031  0.3078
 3563SOL    HW222152   2.425   1.691  12.606  0.6529 -2.9964  1.6788
 3564SOL     OW22153   0.107   3.922   8.282  0.3935  0.1883  0.2637
 3564SOL    HW122154   0.049   3.914   8.358  1.3012 -1.6362  0.7460
 3564SOL    HW222155   0.119   4.017   8.285  2.4321  0.0033 -1.9305
 3565SOL     OW22156   2.190   1.632   3.309  0.5186 -0.2620  0.4369
 3565SOL    HW122157   2.257   1.649   3.244 -1.7134 -2.1623 -2.3206
 3565SOL    HW222158   2.131   1.706   3.296 -1.4892 -1.3634  3.3596
 3566SOL     OW22159   2.610   1.513   6.278 -0.0529 -0.1988 -0.2959
 3566SOL    HW122160   2.647   1.558   6.355  0.8280  0.1350 -0.9106
 3566SOL    HW222161   2.680   1.448   6.277 -0.4096 -0.6310  1.6462
 3567SOL     OW22162   3.394   0.638   0.579  0.0686 -0.6587 -0.1222
 3567SOL    HW122163   3.353   0.715   0.618  2.5562  0.5642  0.0580
 3567SOL    HW222164   3.317   0.583   0.592  0.6316 -1.4428 -0.1279
 3568SOL     OW22165   1.133   4.712  14.324  0.1935 -0.3745 -0.0538
 3568SOL    HW122166   1.141   4.704  14.229 -1.9457 -1.2769 -0.1603
 3568SOL    HW222167   1.051   4.662  14.330  1.8749 -3.0405  0.4615
 3569SOL     OW22168   4.654   4.023  10.736  0.3170  0.6862  0.0013
 3569SOL    HW122169   4.675   3.931  10.720 -0.2304  0.7140 -0.8704
 3569SOL    HW222170   4.577   4.007  10.791 -0.0967  1.5178 -0.3400
 3570SOL     OW22171   1.562   0.046   6.666  0.6374 -0.4065 -0.0022
 3570SOL    HW122172   1.641   0.052   6.613 -0.5236 -0.2578 -1.6924
 3570SOL    HW222173   1.594   0.013   6.750 -1.6159 -1.8302  0.3220
 3571SOL     OW22174   4.018   4.046   4.731 -0.0710  0.1797  0.9395
 3571SOL    HW122175   3.985   3.981   4.669 -0.2220  2.5968 -1.4757
 3571SOL    HW222176   3.951   4.113   4.719 -1.9337 -1.8674 -0.0198
 3572SOL     OW22177   1.473   3.656  11.548 -0.1659  0.4067  0.5380
 3572SOL    HW122178   1.412   3.632  11.618  0.5339 -0.2427  0.9134
 3572SOL    HW222179   1.551   3.679  11.598  1.5190 -1.5475 -1.1715
 3573SOL     OW22180   0.669   1.371   6.866  0.3877 -0.6323  0.2793
 3573SOL    HW122181   0.749   1.394   6.818 -0.6991  0.7172 -0.8897
 3573SOL    HW222182   0.615   1.356   6.789  0.9958  0.8039 -0.4242
 3574SOL     OW22183   1.538   4.505  13.718  0.7043  0.9135 -0.2000
 3574SOL    HW122184   1.540   4.475  13.809  0.1927 -2.9170 -1.4375
 3574SOL    HW222185   1.606   4.571  13.709  0.0878  1.8168  1.6951
 3575SOL     OW22186   1.558   4.705   8.524  0.3359  0.0283 -0.2445
 3575SOL    HW122187   1.613   4.678   8.597 -0.8893  2.1125  1.4504
 3575SOL    HW222188   1.574   0.073   8.488  0.9516  0.5100  1.2320
 3576SOL     OW22189   0.849   3.003  10.228 -0.4575 -0.7003 -0.4038
 3576SOL    HW122190   0.871   2.933  10.289  1.0096 -0.3148 -0.4936
 3576SOL    HW222191   0.796   3.060  10.283 -2.4841 -0.9673 -2.0463
 3577SOL     OW22192   4.536   4.411   1.888  0.4053  0.0234  0.5384
 3577SOL    HW122193   4.580   4.490   1.919 -1.9626  0.6230  2.3792
 3577SOL    HW222194   4.486   4.384   1.965 -0.0234  0.6205  0.4674
 3578SOL     OW22195   0.374   1.356   7.436  0.2708 -0.8375  0.1530
 3578SOL    HW122196   0.459   1.385   7.468 -0.4163  0.1680  1.0588
 3578SOL    HW222197   0.342   1.433   7.388  3.2678  1.7308  2.3016
 3579SOL     OW22198   1.966   0.955   7.395  0.1719  0.2576  0.0351
 3579SOL    HW122199   1.973   0.866   7.428 -0.2884  0.8089  1.6171
 3579SOL    HW222200   2.016   1.003   7.461 -0.8407  0.9800  0.2831
 3580SOL     OW22201   0.626   1.946  13.779  0.2330  0.1081  0.6734
 3580SOL    HW122202   0.700   1.892  13.753  1.7827  2.8967 -0.6345
 3580SOL    HW222203   0.578   1.890  13.841 -0.7027  0.0984 -0.0524
 3581SOL     OW22204   2.906   4.390   8.157  0.3991  0.4084 -0.2558
 3581SOL    HW122205   2.949   4.447   8.221  0.4817  0.6040 -0.4831
 3581SOL    HW222206   2.884   4.314   8.211  1.6425  0.1811 -0.0775
 3582SOL     OW22207   1.391   2.340   0.212  0.4303  0.0548 -0.4998
 3582SOL    HW122208   1.320   2.350   0.148 -0.0380  1.2403  0.2032
 3582SOL    HW222209   1.342   2.285   0.274  0.1154  0.5370 -0.3201
 3583SOL     OW22210   1.229   4.718   3.388  0.4845 -0.5503  0.3200
 3583SOL    HW122211   1.224   0.002   3.483  2.4160 -0.3234  0.4170
 3583SOL    HW222212   1.145   0.041   3.371  0.8143  0.0226  0.1421
 3584SOL     OW22213   2.926   2.819   3.954  0.0942 -0.1682 -0.9233
 3584SOL    HW122214   2.966   2.759   3.891 -0.1285 -2.6610  1.2977
 3584SOL    HW222215   2.992   2.824   4.024 -2.2914  1.7937  1.1891
 3585SOL     OW22216   4.693   0.093   4.313  0.0854 -0.4885  0.2678
 3585SOL    HW122217   0.052   0.119   4.266 -0.1441  1.6007  1.0242
 3585SOL    HW222218   0.022   0.061   4.389  0.7664  0.1951  0.1155
 3586SOL     OW22219   3.929   1.747   6.633  0.2209  0.5271 -0.1753
 3586SOL    HW122220   3.962   1.671   6.585  0.7676  0.9753 -0.5056
 3586SOL    HW222221   3.868   1.773   6.564  0.5052 -0.0193 -0.6341
 3587SOL     OW22222   2.293   0.872   5.053  0.1504  0.0454 -0.0778
 3587SOL    HW122223   2.359   0.931   5.017 -2.7985  2.7891 -1.0132
 3587SOL    HW222224   2.221   0.898   4.995  0.4992  0.5778 -0.2801
 3588SOL     OW22225   2.770   4.144  15.984  0.2712 -0.1993  0.2078
 3588SOL    HW122226   2.782   4.051  16.004  1.6807 -0.0923 -0.1053
 3588SOL    HW222227   2.718   4.166  16.061  3.2764 -0.4497  2.3303
 3589SOL     OW22228   2.604   1.086  12.976  0.4107 -0.2039  0.4557
 3589SOL    HW122229   2.648   1.140  12.911  3.0750 -3.9436 -0.8466
 3589SOL    HW222230   2.655   1.006  12.965 -1.2791 -1.4090  1.4527
 3590SOL     OW22231   1.380   1.157   5.123 -0.1520 -0.7013 -0.5453
 3590SOL    HW122232   1.443   1.168   5.194 -0.2729  0.3626 -0.6001
 3590SOL    HW222233   1.424   1.088   5.073 -0.6090 -0.3596 -1.4241
 3591SOL     OW22234   0.107   2.650   7.187  0.0985  0.2281  0.4618
 3591SOL    HW122235   0.024   2.660   7.233 -0.0857 -0.4959  0.2809
 3591SOL    HW222236   0.160   2.693   7.253 -0.1375 -1.5340  1.7934
 3592SOL     OW22237   2.438   1.573   6.073  0.2631  0.2197 -0.1840
 3592SOL    HW122238   2.488   1.515   6.132  2.1472  0.9089 -1.1055
 3592SOL    HW222239   2.464   1.548   5.985  1.0713  0.3818  0.0077
 3593SOL     OW22240   0.441   4.173   6.105 -0.0308  0.5560  0.2347
 3593SOL    HW122241   0.475   4.259   6.082  2.4937  0.1411  2.4099
 3593SOL    HW222242   0.369   4.160   6.043  0.7897  1.1846 -0.8647
 3594SOL     OW22243   0.507   3.167   7.019 -0.2304 -0.6200 -0.1749
 3594SOL    HW122244   0.412   3.183   7.023 -0.0665  0.6817 -1.5899
 3594SOL    HW222245   0.521   3.117   7.099  0.4426  0.5531  0.4473
 3595SOL     OW22246   1.352   0.858   8.718 -0.2230  0.3783 -0.4957
 3595SOL    HW122247   1.309   0.786   8.672 -0.1379  0.9598 -1.4826
 3595SOL    HW222248   1.447   0.853   8.710 -0.1248  1.8567 -0.2057
 3596SOL     OW22249   1.378   3.873   5.173  0.5473 -0.3081 -0.2272
 3596SOL    HW122250   1.405   3.963   5.155 -1.0192  0.1653 -0.2070
 3596SOL    HW222251   1.406   3.858   5.263  1.0144 -0.9559 -0.4766
 3597SOL     OW22252   1.404   0.096   7.235  0.3590 -0.4383  0.1268
 3597SOL    HW122253   1.416   0.062   7.146 -0.9657  1.4317 -0.7668
 3597SOL    HW222254   1.387   0.186   7.208  0.6921 -0.8427 -1.4520
 3598SOL     OW22255   1.068   0.325   5.749  0.3559  0.2363 -0.4095
 3598SOL    HW122256   1.051   0.254   5.811  0.4469  0.2422 -0.3777
 3598SOL    HW222257   1.012   0.309   5.673 -0.1985  1.6569 -0.3054
 3599SOL     OW22258   1.706   0.778   0.229  0.6717  0.0049 -0.1961
 3599SOL    HW122259   1.657   0.804   0.151  0.6380 -1.7821 -0.7828
 3599SOL    HW222260   1.796   0.785   0.197  0.4223  0.8767 -0.7040
 3600SOL     OW22261   0.171   4.405  15.947  0.1794  0.6288 -0.4777
 3600SOL    HW122262   0.141   4.431  16.033  3.0616 -0.9060  1.0002
 3600SOL    HW222263   0.219   4.485  15.926  0.0760  0.5573 -1.0102
 3601SOL     OW22264   1.694   3.455   1.662 -0.6627  0.4464 -0.5436
 3601SOL    HW122265   1.783   3.419   1.665 -0.7249  0.4388  1.3328
 3601SOL    HW222266   1.696   3.521   1.731  1.5797 -0.7208  0.5375
 3602SOL     OW22267   3.179   4.682   7.360 -0.1349 -0.5520  0.4055
 3602SOL    HW122268   3.092   4.651   7.384  0.3637 -1.2957  1.2659
 3602SOL    HW222269   3.214   4.699   7.448  0.4830 -1.4003  0.3241
 3603SOL     OW22270   1.679   4.457   3.217  0.6576  0.0026  0.2350
 3603SOL    HW122271   1.671   4.370   3.257 -0.6292  0.4086  0.8472
 3603SOL    HW222272   1.708   4.517   3.285 -2.1291 -0.1351  1.5321
 3604SOL     OW22273   0.268   3.657   7.070  0.2920  0.4689  0.0157
 3604SOL    HW122274   0.224   3.677   6.987 -0.0038 -0.4257 -0.0379
 3604SOL    HW222275   0.243   3.737   7.116  1.1256  0.9837 -0.4258
 3605SOL     OW22276   2.045   4.166  15.235  0.2816  0.3455  0.1122
 3605SOL    HW122277   2.015   4.199  15.319  0.0134 -1.9613  0.9178
 3605SOL    HW222278   1.963   4.135  15.198  0.1297 -0.2173  0.9291
 3606SOL     OW22279   1.131   4.612   1.340 -0.3902  0.3354 -0.1093
 3606SOL    HW122280   1.144   4.542   1.275 -1.9857 -0.3392  0.2865
 3606SOL    HW222281   1.211   4.600   1.390  0.3835 -0.6703 -1.5902
 3607SOL     OW22282   4.592   4.669   3.102  0.1704 -0.4721  0.1647
 3607SOL    HW122283   4.602   0.021   3.040 -0.1114 -1.2127 -0.7422
 3607SOL    HW222284   4.589   4.596   3.040  2.0655 -0.8733  0.5547
 3608SOL     OW22285   0.198   4.629   9.604  0.6425  0.0910  0.4098
 3608SOL    HW122286   0.178   4.680   9.526  1.6982  0.3940  0.3376
 3608SOL    HW222287   0.168   4.545   9.568  0.7943 -0.2637  1.1125
 3609SOL     OW22288   2.030   1.057   3.786  0.0646  0.1963  0.4062
 3609SOL    HW122289   2.114   1.022   3.756  0.5303  1.4741  0.2155
 3609SOL    HW222290   2.071   1.124   3.840 -0.5554  1.3011 -0.4755
 3610SOL     OW22291   2.322   4.234   7.010 -0.4192 -0.4413 -0.3824
 3610SOL    HW122292   2.325   4.307   6.949  3.6122 -2.1387 -2.2445
 3610SOL    HW222293   2.339   4.165   6.946 -0.1654  0.4815 -1.3161
 3611SOL     OW22294   2.076   1.592   1.629  0.1091  0.4664 -0.0130
 3611SOL    HW122295   2.134   1.629   1.696  1.0699 -0.7279 -0.1677
 3611SOL    HW222296   2.109   1.503   1.613  0.9484  1.2106 -2.4032
 3612SOL     OW22297   0.818   2.336  17.547  0.0655  0.2126  0.3131
 3612SOL    HW122298   0.729   2.303  17.557  1.3321 -3.3585 -0.0364
 3612SOL    HW222299   0.855   2.341  17.635  1.5850  2.7765 -0.4956
 3613SOL     OW22300   1.762   1.415   3.095  0.7360 -0.8097  0.7215
 3613SOL    HW122301   1.841   1.439   3.143 -0.9586  2.3441  1.9696
 3613SOL    HW222302   1.797   1.405   3.006 -0.6204 -2.1786  0.3360
 3614SOL     OW22303   2.160   0.058   7.709  0.4216 -0.0022  0.2743
 3614SOL    HW122304   2.161   4.701   7.653  2.0094  0.2657 -0.0665
 3614SOL    HW222305   2.202   0.017   7.785  0.7756  1.9235  1.1200
 3615SOL     OW22306   4.704   0.997   0.484 -0.0016  0.0074 -0.2368
 3615SOL    HW122307   4.702   0.994   0.580  5.0271 -1.0979 -0.1810
 3615SOL    HW222308   4.612   0.981   0.461 -0.2616 -2.0190  2.1500
 3616SOL     OW22309   1.194   3.156   3.114 -0.1089  0.1368 -0.0081
 3616SOL    HW122310   1.215   3.245   3.086  1.1323 -0.0438  0.3524
 3616SOL    HW222311   1.107   3.146   3.074 -0.4823  0.6002  0.6875
 3617SOL     OW22312   1.808   4.120  17.136  0.4176 -0.5730 -0.2949
 3617SOL    HW122313   1.828   4.207  17.169 -1.0579 -0.2878 -0.1460
 3617SOL    HW222314   1.895   4.086  17.115  0.3879 -0.6031 -0.3706
 3618SOL     OW22315   2.212   1.117   5.209  0.2474 -0.6274  0.2541
 3618SOL    HW122316   2.163   1.035   5.213  0.8715 -1.0974 -1.6569
 3618SOL    HW222317   2.252   1.110   5.122  0.1524 -0.1277  0.1699
 3619SOL     OW22318   2.764   1.659  17.255 -0.1411 -0.0480 -0.5678
 3619SOL    HW122319   2.807   1.688  17.175 -1.5465 -0.4111 -1.4448
 3619SOL    HW222320   2.763   1.742  17.304 -0.9764 -0.8599  0.8169
 3620SOL     OW22321   1.594   1.926   4.259  0.8056  0.3531  0.1213
 3620SOL    HW122322   1.565   2.011   4.295  2.4802  0.5995  0.8957
 3620SOL    HW222323   1.605   1.954   4.168 -1.3595 -1.3282 -0.6399
 3621SOL     OW22324   2.145   0.956  16.935  0.1786 -0.4626  0.3223
 3621SOL    HW122325   2.150   0.970  16.840  0.3694 -0.9704  0.2559
 3621SOL    HW222326   2.220   1.006  16.968 -1.8289  1.6096  1.7164
 3622SOL     OW22327   3.844   2.926   1.937  0.4279  0.2795  0.2115
 3622SOL    HW122328   3.849   2.912   1.842 -0.9066 -2.2396  0.4904
 3622SOL    HW222329   3.894   2.854   1.975 -2.8988 -2.4654 -0.6330
 3623SOL     OW22330   2.954   3.852   4.603 -0.3610 -0.1867  0.1038
 3623SOL    HW122331   3.041   3.886   4.624 -1.0680  1.9518 -0.4699
 3623SOL    HW222332   2.971   3.758   4.593  0.9254  0.1912 -1.1757
 3624SOL     OW22333   0.866   4.659   8.088 -0.3918  0.1962  0.5400
 3624SOL    HW122334   0.823   4.576   8.109  0.0499 -0.0568  0.4490
 3624SOL    HW222335   0.787   4.709   8.066 -0.7904  0.0493  1.6430
 3625SOL     OW22336   1.881   4.061   3.911  0.6130  0.1101  0.2632
 3625SOL    HW122337   1.870   4.156   3.919 -2.4014 -0.2380 -0.0653
 3625SOL    HW222338   1.964   4.054   3.959  1.1007  0.7842 -0.4783
 3626SOL     OW22339   3.550   1.434  16.062  0.1077 -0.1473 -0.0811
 3626SOL    HW122340   3.600   1.505  16.022  0.4746 -0.6405 -0.4998
 3626SOL    HW222341   3.571   1.449  16.154  0.3258  0.0789 -0.1700
 3627SOL     OW22342   2.200   4.052  15.778  0.3939 -0.0305 -0.1911
 3627SOL    HW122343   2.244   4.087  15.856  0.9818  1.3947 -1.1668
 3627SOL    HW222344   2.274   4.036  15.720 -0.5757 -1.1837 -1.1073
 3628SOL     OW22345   1.301   0.980  11.400 -0.0195  0.1336  0.1129
 3628SOL    HW122346   1.355   0.902  11.393  1.9385  1.4645  0.5214
 3628SOL    HW222347   1.291   0.971  11.495  3.1062  1.3956  0.5712
 3629SOL     OW22348   1.765   0.602   6.061  0.1551 -0.5207  0.7462
 3629SOL    HW122349   1.695   0.588   5.998  0.5771 -1.2176  0.4344
 3629SOL    HW222350   1.717   0.599   6.144  0.6691 -0.6208  1.0380
 3630SOL     OW22351   3.891   0.698   2.374  0.2382  0.0324 -0.3870
 3630SOL    HW122352   3.964   0.746   2.413 -0.1233  0.5121 -0.2921
 3630SOL    HW222353   3.895   0.745   2.290  2.8756 -1.3062 -1.0099
 3631SOL     OW22354   0.968   3.208   0.760  0.2939  0.7664 -0.9350
 3631SOL    HW122355   0.927   3.177   0.840 -0.9887  1.3858 -1.3487
 3631SOL    HW222356   1.016   3.134   0.722 -1.4393 -0.2052 -1.1991
 3632SOL     OW22357   1.312   0.921   4.060  0.4633 -0.2111 -0.8684
 3632SOL    HW122358   1.226   0.953   4.034  0.5906  0.3333 -0.6059
 3632SOL    HW222359   1.357   0.918   3.976 -1.6111 -0.1202 -1.9750
 3633SOL     OW22360   3.952   3.668   7.256 -0.3709 -0.2592 -0.1850
 3633SOL    HW122361   3.985   3.624   7.178  0.5429 -0.1436  0.1336
 3633SOL    HW222362   4.035   3.665   7.305 -0.2407  0.3902 -0.3601
 3634SOL     OW22363   4.325   4.549   6.071  0.3934 -0.6706 -0.2445
 3634SOL    HW122364   4.308   4.455   6.077  0.1849 -0.4198  3.0030
 3634SOL    HW222365   4.327   4.566   5.977  0.6045  1.3852  0.1174
 3635SOL     OW22366   4.262   3.838  11.809 -0.3953 -0.0422  0.5278
 3635SOL    HW122367   4.288   3.801  11.893 -0.7848 -0.3678  0.5066
 3635SOL    HW222368   4.171   3.811  11.798 -0.6582  1.4950 -1.0755
 3636SOL     OW22369   4.202   0.908   8.956 -0.1396 -0.3085 -0.3557
 3636SOL    HW122370   4.200   0.996   8.993 -0.8666 -0.3966 -0.1831
 3636SOL    HW222371   4.120   0.900   8.909 -1.1258  3.0088  0.8009
 3637SOL     OW22372   3.377   1.860  11.822 -0.0836 -0.4769 -0.3955
 3637SOL    HW122373   3.452   1.839  11.877  0.6640  0.3103 -1.1176
 3637SOL    HW222374   3.329   1.779  11.801  0.0203 -0.6966  0.2263
 3638SOL     OW22375   0.737   0.816   9.163  0.1296 -0.5231  0.1387
 3638SOL    HW122376   0.792   0.842   9.237  1.3005  0.5751 -1.1315
 3638SOL    HW222377   0.801   0.815   9.093  0.6492 -1.1976  0.6228
 3639SOL     OW22378   3.487   2.811   5.486 -0.1124  0.0691  0.2035
 3639SOL    HW122379   3.401   2.797   5.447  0.2455 -3.0198  0.5572
 3639SOL    HW222380   3.484   2.888   5.544  0.0753 -0.5952  1.0979
 3640SOL     OW22381   2.399   1.931   4.886 -0.2318  0.1511  0.0807
 3640SOL    HW122382   2.483   1.951   4.845  0.4381  1.6192  2.1831
 3640SOL    HW222383   2.422   1.855   4.940  2.9086  1.1855  0.1450
 3641SOL     OW22384   1.664   0.712  12.963 -0.3845 -0.2806 -0.1911
 3641SOL    HW122385   1.598   0.741  13.027 -0.9292  0.8684 -1.2757
 3641SOL    HW222386   1.622   0.747  12.884 -1.5636  0.6153  0.8275
 3642SOL     OW22387   0.778   3.089   5.749 -0.3078  0.4638  0.3121
 3642SOL    HW122388   0.810   3.110   5.837 -2.9072 -0.6500  1.5519
 3642SOL    HW222389   0.862   3.084   5.704 -2.0931 -2.1345 -2.7891
 3643SOL     OW22390   2.976   0.692   0.748  0.2995  0.0792 -0.1584
 3643SOL    HW122391   2.917   0.727   0.682 -2.0463  0.2544  2.0181
 3643SOL    HW222392   3.031   0.633   0.697 -1.2316 -1.5468  0.0652
 3644SOL     OW22393   4.353   4.162   6.219  0.3110  0.4379 -0.2025
 3644SOL    HW122394   4.333   4.198   6.132  0.4908  0.0505 -0.4065
 3644SOL    HW222395   4.295   4.217   6.271  0.6584  1.4716 -0.8999
 3645SOL     OW22396   3.643   2.629  14.057 -0.0218  0.0233  0.0662
 3645SOL    HW122397   3.694   2.555  14.088  1.3867  0.5973 -0.9161
 3645SOL    HW222398   3.699   2.669  13.991  0.9161  1.8509  1.9572
 3646SOL     OW22399   3.323   0.100   2.441  0.2829 -0.1220 -0.0957
 3646SOL    HW122400   3.234   0.135   2.434  0.3372 -0.1035 -0.7003
 3646SOL    HW222401   3.310   0.005   2.442 -1.2320  0.0835 -0.2861
 3647SOL     OW22402   2.213   2.614  15.949  0.1149  0.0074 -0.5738
 3647SOL    HW122403   2.223   2.543  16.013 -1.2927  0.6736  0.4142
 3647SOL    HW222404   2.154   2.661  16.008 -1.6412 -1.6579 -0.9607
 3648SOL     OW22405   2.777   4.075   9.698  0.0651 -0.5976  0.5875
 3648SOL    HW122406   2.828   4.145   9.739 -0.5838 -0.0715  0.4889
 3648SOL    HW222407   2.694   4.121   9.707  0.7248  1.1706 -2.3464
 3649SOL     OW22408   2.396   1.602  11.423  0.1383  0.6712 -0.4795
 3649SOL    HW122409   2.368   1.693  11.418  1.4211  0.9700 -2.1581
 3649SOL    HW222410   2.377   1.568  11.336  0.1888 -0.2301 -0.1414
 3650SOL     OW22411   2.946   4.259   6.216 -0.0415  0.8548  0.3843
 3650SOL    HW122412   3.003   4.323   6.258 -0.4343  1.5496 -0.1365
 3650SOL    HW222413   2.867   4.301   6.251 -1.2317 -0.8459 -0.2648
 3651SOL     OW22414   2.067   4.635   3.344  0.2616  0.0618 -0.0229
 3651SOL    HW122415   2.016   4.687   3.283 -1.4381  0.1332  1.4759
 3651SOL    HW222416   2.144   4.690   3.361 -0.9991  1.3482  1.5039
 3652SOL     OW22417   3.235   3.733   1.456  0.7039  0.4970  0.4913
 3652SOL    HW122418   3.263   3.760   1.368 -1.2745 -1.1800 -0.6464
 3652SOL    HW222419   3.213   3.643   1.435 -0.2566  0.5605  1.2531
 3653SOL     OW22420   2.319   0.141   4.478 -0.2840  0.0562  0.2690
 3653SOL    HW122421   2.390   0.204   4.466 -1.3678  1.3863  0.7634
 3653SOL    HW222422   2.356   0.081   4.542 -1.1510  0.4940  1.1773
 3654SOL     OW22423   0.710   1.180   9.137  0.3105  0.0329  0.3303
 3654SOL    HW122424   0.648   1.109   9.123  2.4036 -2.1196  1.8886
 3654SOL    HW222425   0.715   1.211   9.047  2.2036 -0.9161  0.1069
 3655SOL     OW22426   4.567   1.798   7.235  0.6801 -0.0659 -0.0085
 3655SOL    HW122427   4.520   1.715   7.226  0.9743 -0.3068  0.6443
 3655SOL    HW222428   4.530   1.854   7.167  0.5637 -0.6512 -0.4290
 3656SOL     OW22429   2.750   0.814  12.900 -0.0786 -0.4722  0.7938
 3656SOL    HW122430   2.814   0.828  12.970  0.0203 -1.7115  0.9401
 3656SOL    HW222431   2.804   0.794  12.823 -0.7112 -0.9379  0.4756
 3657SOL     OW22432   3.987   4.457  16.852  0.4039 -0.3686  0.3270
 3657SOL    HW122433   4.015   4.541  16.814 -0.1433 -0.3254  0.0294
 3657SOL    HW222434   4.025   4.399  16.786  0.5395  2.0157 -1.7027
 3658SOL     OW22435   1.193   3.871   7.364 -0.4002  0.1653  0.5114
 3658SOL    HW122436   1.246   3.915   7.429 -0.6000 -0.4352  1.0795
 3658SOL    HW222437   1.184   3.942   7.301 -0.9168 -0.9126 -0.6393
 3659SOL     OW22438   4.034   2.938   7.506  0.0684  0.1472 -0.3912
 3659SOL    HW122439   4.029   2.967   7.597 -0.3623 -1.2336  0.0246
 3659SOL    HW222440   4.002   3.015   7.459  0.3896 -0.0691 -0.9630
 3660SOL     OW22441   2.389   0.739  14.587 -0.2702  0.5627 -0.2699
 3660SOL    HW122442   2.360   0.830  14.583 -1.2051  0.2143 -1.2815
 3660SOL    HW222443   2.309   0.691  14.568  1.2424 -1.7288 -0.8838
 3661SOL     OW22444   1.783   3.343   7.260  0.2512 -0.0973  0.3690
 3661SOL    HW122445   1.727   3.373   7.332  0.3398  0.7962  0.0632
 3661SOL    HW222446   1.866   3.385   7.281 -0.1806  0.9994 -0.1039
 3662SOL     OW22447   1.258   0.012   0.952 -0.0724 -0.1617  0.7491
 3662SOL    HW122448   1.201   0.033   0.878  1.8761  0.5393 -0.5688
 3662SOL    HW222449   1.222   0.083   1.005  0.8689 -0.6166  2.0041
 3663SOL     OW22450   2.388   2.466   3.058  0.6714 -0.3627 -0.0880
 3663SOL    HW122451   2.417   2.557   3.048  1.0122 -0.3789  0.8091
 3663SOL    HW222452   2.306   2.476   3.107  0.2647 -1.0521 -0.6226
 3664SOL     OW22453   2.539   2.982   2.364 -0.1367 -0.0100  0.1584
 3664SOL    HW122454   2.618   2.927   2.364 -1.0190 -1.2763 -0.0751
 3664SOL    HW222455   2.522   2.979   2.270  1.7977  1.5999 -0.2636
 3665SOL     OW22456   4.369   2.888   9.720 -0.3408  0.5317  0.6267
 3665SOL    HW122457   4.313   2.927   9.653 -3.9557 -2.8439  1.6989
 3665SOL    HW222458   4.305   2.861   9.786 -0.8182  1.5384  0.5808
 3666SOL     OW22459   4.041   0.679   9.628  0.1622  0.6710  0.1034
 3666SOL    HW122460   4.082   0.686   9.714  1.6652  0.4220 -0.5945
 3666SOL    HW222461   4.112   0.627   9.590 -0.5845 -1.2023  1.2360
 3667SOL     OW22462   2.962   1.124   4.040 -0.1288  0.0803  0.0179
 3667SOL    HW122463   2.915   1.045   4.010  0.8335  0.0020 -1.3148
 3667SOL    HW222464   3.016   1.148   3.965 -1.0118 -0.4823 -0.8008
 3668SOL     OW22465   4.453   0.013  11.278  0.2121 -0.1156  0.4054
 3668SOL    HW122466   4.520   0.079  11.259 -1.9714  1.9958 -0.0195
 3668SOL    HW222467   4.472   4.660  11.221 -4.1039 -0.0963 -1.0383
 3669SOL     OW22468   3.193   1.546   8.376 -0.0335 -0.8361  0.3246
 3669SOL    HW122469   3.106   1.557   8.338 -0.8700 -4.0564  1.3249
 3669SOL    HW222470   3.168   1.577   8.463  0.3603  0.2038  0.0704
 3670SOL     OW22471   3.351   1.490  15.688  1.0379  0.0053 -0.3385
 3670SOL    HW122472   3.399   1.408  15.695  2.8028  0.9614 -1.2498
 3670SOL    HW222473   3.337   1.484  15.593 -1.0228 -0.3284 -0.0051
 3671SOL     OW22474   1.358   0.561   6.801  0.2743  0.5208 -0.0022
 3671SOL    HW122475   1.429   0.599   6.853 -0.0198 -0.3147  1.0003
 3671SOL    HW222476   1.370   0.467   6.805 -1.5977  0.2598 -0.3740
 3672SOL     OW22477   1.733   2.393   1.204  0.3204  0.4993  0.3338
 3672SOL    HW122478   1.790   2.466   1.229 -1.5647  2.4664 -1.0945
 3672SOL    HW222479   1.785   2.351   1.135  0.6076  0.9885  0.2525
 3673SOL     OW22480   4.208   1.737   9.046  0.1564  0.5670  0.5544
 3673SOL    HW122481   4.225   1.819   9.000  0.2831 -0.4558 -1.2180
 3673SOL    HW222482   4.274   1.745   9.115  2.2106 -0.8588 -1.2504
 3674SOL     OW22483   3.433   2.836   7.259  0.1137 -0.3616 -0.0032
 3674SOL    HW122484   3.481   2.825   7.342 -1.4811 -0.3871  0.9216
 3674SOL    HW222485   3.416   2.930   7.254 -0.5967 -0.4381  1.0633
 3675SOL     OW22486   0.373   4.070   3.044  0.0124  0.1210 -0.0969
 3675SOL    HW122487   0.467   4.053   3.044  0.1579  0.8970  0.8454
 3675SOL    HW222488   0.367   4.132   2.972  1.6568  0.9973  0.5146
 3676SOL     OW22489   4.206   3.151   3.614  0.4575 -0.2270  0.6808
 3676SOL    HW122490   4.290   3.119   3.581  0.9541  0.9418  0.7998
 3676SOL    HW222491   4.179   3.215   3.548  0.4105 -0.4712  0.4637
 3677SOL     OW22492   3.205   3.014  10.863  0.0134  0.0197  0.7114
 3677SOL    HW122493   3.216   3.069  10.785 -2.0620 -0.1511  0.3074
 3677SOL    HW222494   3.220   3.087  10.923 -1.4385  1.8192 -1.1176
 3678SOL     OW22495   0.661   0.311   5.362  0.0695  0.4646  0.1688
 3678SOL    HW122496   0.631   0.400   5.347 -0.7320  0.2986  0.7739
 3678SOL    HW222497   0.648   0.262   5.280  0.5622 -0.6157  0.7256
 3679SOL     OW22498   2.729   4.106  16.432  0.1655 -0.3875  0.0206
 3679SOL    HW122499   2.701   4.038  16.493  0.6502 -0.5880  0.0189
 3679SOL    HW222500   2.776   4.159  16.496 -0.2694 -0.3729  0.3301
 3680SOL     OW22501   1.190   0.012   8.197  0.6344 -0.6025  0.4319
 3680SOL    HW122502   1.254   4.683   8.146 -0.1230  1.8165 -2.8531
 3680SOL    HW222503   1.110   4.689   8.165  1.2895 -1.9851  0.6660
 3681SOL     OW22504   3.422   1.746   4.654 -0.3125 -0.2245 -0.0882
 3681SOL    HW122505   3.449   1.749   4.562  1.7848  0.3262  0.5402
 3681SOL    HW222506   3.494   1.688   4.681 -2.7883 -2.8029  0.9128
 3682SOL     OW22507   1.777   2.967  16.666  0.1924 -0.1937  0.3494
 3682SOL    HW122508   1.739   2.977  16.754 -0.1317 -0.7780  0.2794
 3682SOL    HW222509   1.858   2.917  16.679  0.7686  0.8054  0.6101
 3683SOL     OW22510   2.391   1.016   7.740 -0.4983 -0.0316  0.3088
 3683SOL    HW122511   2.473   1.062   7.721 -0.8462  0.9403  1.1568
 3683SOL    HW222512   2.418   0.973   7.821 -0.4713 -1.0234 -0.2338
 3684SOL     OW22513   1.307   1.026   2.757  0.2006  0.1117 -0.2408
 3684SOL    HW122514   1.322   1.121   2.758 -0.1192  0.1468  0.7244
 3684SOL    HW222515   1.214   1.020   2.780  0.2631 -0.3095 -0.1180
 3685SOL     OW22516   1.362   3.095   5.270  0.9709 -0.9093 -0.1667
 3685SOL    HW122517   1.327   3.006   5.262 -0.5299 -0.5429  2.5328
 3685SOL    HW222518   1.351   3.113   5.176 -3.2795  0.3179  0.5483
 3686SOL     OW22519   0.350   3.466  13.464  0.1440 -0.5505 -0.0754
 3686SOL    HW122520   0.294   3.393  13.490 -3.9651  2.4729 -0.4725
 3686SOL    HW222521   0.294   3.510  13.399  1.0643 -0.5109 -0.8513
 3687SOL     OW22522   3.737   2.572   7.144  0.4177 -0.1911  0.2489
 3687SOL    HW122523   3.767   2.503   7.085 -0.3906 -0.4348  0.1290
 3687SOL    HW222524   3.673   2.519   7.192  1.8782 -1.1191  1.1791
 3688SOL     OW22525   3.096   0.973   5.103 -0.3623  0.1424  0.8890
 3688SOL    HW122526   3.191   0.960   5.106  0.1003  3.2559  0.5865
 3688SOL    HW222527   3.095   1.029   5.025 -0.3770 -2.2848 -0.8422
 3689SOL     OW22528   4.208   1.326   8.505  0.3962  0.6482  0.4351
 3689SOL    HW122529   4.202   1.240   8.464  0.0298 -0.2144  2.2809
 3689SOL    HW222530   4.127   1.327   8.556 -0.3528 -2.3086 -0.6960
 3690SOL     OW22531   3.013   1.921   5.485  0.3516 -0.5310 -0.1797
 3690SOL    HW122532   3.063   1.848   5.446  0.0515 -1.2107  0.7200
 3690SOL    HW222533   2.929   1.919   5.439  1.0062  2.4792 -1.5400
 3691SOL     OW22534   2.634   1.689  11.527 -0.3738 -0.1124 -0.0237
 3691SOL    HW122535   2.676   1.637  11.595  0.3203  0.9508  0.3516
 3691SOL    HW222536   2.564   1.633  11.493  0.7083 -0.8246 -1.0523
 3692SOL     OW22537   1.263   0.512   5.753 -0.4554 -0.3479  0.7460
 3692SOL    HW122538   1.188   0.452   5.747 -0.3628 -0.2874 -1.2200
 3692SOL    HW222539   1.317   0.439   5.783  1.9118  1.3079  0.5023
 3693SOL     OW22540   4.311   3.428   0.423  0.0420 -0.0289 -0.1617
 3693SOL    HW122541   4.358   3.511   0.421  0.0323 -0.0102  0.4353
 3693SOL    HW222542   4.387   3.373   0.402 -0.1351 -0.9430  1.5851
 3694SOL     OW22543   3.885   0.427   8.845 -0.1901  0.0435  0.1526
 3694SOL    HW122544   3.922   0.364   8.784 -0.6987  0.1351 -0.2485
 3694SOL    HW222545   3.812   0.465   8.796  0.6202  1.4248 -0.0121
 3695SOL     OW22546   3.368   3.817   8.888  0.3551  0.6752  0.1323
 3695SOL    HW122547   3.387   3.792   8.978  2.2485  0.2260 -0.3836
 3695SOL    HW222548   3.415   3.749   8.840 -0.3234  0.3736 -0.1088
 3696SOL     OW22549   3.272   2.911   4.634  0.8943  0.1974  0.7143
 3696SOL    HW122550   3.200   2.882   4.691  1.1677 -1.6329  0.1558
 3696SOL    HW222551   3.347   2.860   4.665  0.9707 -0.8203 -1.1204
 3697SOL     OW22552   0.980   3.250   4.744  0.3520  0.0301 -0.6841
 3697SOL    HW122553   1.038   3.276   4.815 -2.2039  0.1536  1.3363
 3697SOL    HW222554   1.027   3.251   4.660  0.7169 -0.5945 -0.4919
 3698SOL     OW22555   4.093   0.493   9.853 -0.2179  0.3659 -0.2634
 3698SOL    HW122556   3.999   0.511   9.858 -0.2844  0.8076 -3.1457
 3698SOL    HW222557   4.101   0.464   9.762  2.3356 -4.7761  1.6634
 3699SOL     OW22558   0.816   3.435   2.988  0.3959 -0.0874  0.3552
 3699SOL    HW122559   0.868   3.515   2.988 -1.0067  0.8106  0.6716
 3699SOL    HW222560   0.816   3.402   3.078 -0.9125  1.2594  0.8450
 3700SOL     OW22561   4.035   2.118   8.517 -0.2565  0.0867 -0.0267
 3700SOL    HW122562   4.117   2.155   8.487  0.2485 -1.0897 -0.1079
 3700SOL    HW222563   3.990   2.194   8.553  0.7729  0.2758  0.8524
 3701SOL     OW22564   0.914   0.414   1.293 -0.2745  0.2441  0.0156
 3701SOL    HW122565   0.957   0.332   1.271 -1.8318 -0.4268 -0.5473
 3701SOL    HW222566   0.938   0.429   1.385 -2.1434 -1.2148  0.7410
 3702SOL     OW22567   0.075   3.145   5.005 -0.4934 -0.3958  0.0105
 3702SOL    HW122568   0.136   3.161   4.933 -1.9064 -0.3089 -1.1548
 3702SOL    HW222569   0.104   3.057   5.032  3.4214  0.4686 -1.4379
 3703SOL     OW22570   1.396   2.426  11.579  0.4874  0.0954  0.2084
 3703SOL    HW122571   1.397   2.452  11.671 -1.6655  1.2430 -0.1026
 3703SOL    HW222572   1.490   2.435  11.559 -0.1983  2.2037 -2.2006
 3704SOL     OW22573   4.580   1.847  15.716 -0.5082 -0.1958 -0.1167
 3704SOL    HW122574   4.581   1.878  15.807 -1.2348 -1.2819  0.2620
 3704SOL    HW222575   4.557   1.929  15.674  0.4346 -0.7792 -1.7811
 3705SOL     OW22576   2.309   4.072   6.799  0.1308 -0.0993  0.1796
 3705SOL    HW122577   2.325   3.992   6.749  3.3013  0.7760 -0.2223
 3705SOL    HW222578   2.230   4.103   6.756  1.3800 -0.5500 -2.4092
 3706SOL     OW22579   3.727   2.927   3.769 -0.1469  0.5509 -0.3914
 3706SOL    HW122580   3.719   2.836   3.798  1.1753  1.1600  1.9021
 3706SOL    HW222581   3.804   2.910   3.715  0.3770 -0.8854  0.7857
 3707SOL     OW22582   2.319   3.293   3.159  0.0382  0.2234  0.0196
 3707SOL    HW122583   2.393   3.259   3.108 -1.8874 -1.0728 -1.8741
 3707SOL    HW222584   2.363   3.321   3.240 -1.2072 -2.0384  1.4635
 3708SOL     OW22585   4.539   4.146   6.888 -0.6086  0.0644  0.2858
 3708SOL    HW122586   4.588   4.228   6.883 -1.9289  0.9023  0.8605
 3708SOL    HW222587   4.457   4.176   6.848 -1.2901 -0.6345  1.1499
 3709SOL     OW22588   1.575   4.475  10.756  0.4092 -0.0494  0.2097
 3709SOL    HW122589   1.595   4.545  10.694 -1.5962  0.3250 -0.0141
 3709SOL    HW222590   1.606   4.513  10.839 -1.2084 -0.5481  1.0511
 3710SOL     OW22591   3.925   3.814   4.339  0.3027  0.2818  0.1488
 3710SOL    HW122592   4.017   3.837   4.332  0.0416  0.8668 -1.3792
 3710SOL    HW222593   3.921   3.810   4.435  0.3667 -0.0275  0.1379
 3711SOL     OW22594   4.433   4.529   0.646  0.1650  0.0214  0.1332
 3711SOL    HW122595   4.505   4.499   0.702  1.0254  0.7993 -0.5592
 3711SOL    HW222596   4.364   4.486   0.697  1.4350  0.1286  1.9454
 3712SOL     OW22597   4.507   1.182  14.536  0.9784  0.3766  0.8623
 3712SOL    HW122598   4.572   1.135  14.588  1.4341  1.1888  1.0231
 3712SOL    HW222599   4.506   1.268  14.578  2.8038  0.6089  0.4133
 3713SOL     OW22600   2.094   4.118   0.230  0.1989 -0.3612 -0.2467
 3713SOL    HW122601   2.122   4.120   0.321 -1.4610  0.6027  0.2376
 3713SOL    HW222602   2.023   4.181   0.223 -0.0727 -0.5034  1.2729
 3714SOL     OW22603   3.683   4.083   5.857  0.8141  0.7064 -0.4158
 3714SOL    HW122604   3.751   4.094   5.924  0.6914  1.8355 -0.4796
 3714SOL    HW222605   3.608   4.097   5.915  1.0615 -1.7229  0.5102
 3715SOL     OW22606   2.693   2.998  10.480  0.2522  0.1103  0.3319
 3715SOL    HW122607   2.658   3.084  10.457  1.8033  1.6591  3.7668
 3715SOL    HW222608   2.787   3.012  10.480  0.4205 -1.0056  1.3293
 3716SOL     OW22609   1.875   0.566  12.321  0.1267  0.3691  0.3417
 3716SOL    HW122610   1.785   0.561  12.351  0.4267  0.1471  1.2047
 3716SOL    HW222611   1.911   0.495  12.375  4.0845  1.5196 -0.7390
 3717SOL     OW22612   1.975   3.288   8.449  0.5040  0.0052 -0.4300
 3717SOL    HW122613   1.924   3.280   8.369  1.5519 -1.5376 -0.9337
 3717SOL    HW222614   1.970   3.196   8.475  0.3456  0.6174  1.7664
 3718SOL     OW22615   0.444   3.186   3.320 -0.2947 -0.0145  0.3872
 3718SOL    HW122616   0.431   3.252   3.388 -0.2595 -0.6296  0.9912
 3718SOL    HW222617   0.531   3.155   3.346 -0.4636 -1.8180 -1.2194
 3719SOL     OW22618   1.521   0.596  17.568  0.2985 -0.1002 -0.2901
 3719SOL    HW122619   1.467   0.533  17.617 -0.9816 -0.4421 -2.1575
 3719SOL    HW222620   1.445   0.640  17.530  0.8892 -0.6778 -2.1298
 3720SOL     OW22621   2.971   0.158  16.081 -0.3978 -0.0565  0.1641
 3720SOL    HW122622   2.969   0.124  16.171 -2.6890  0.3894  0.2899
 3720SOL    HW222623   3.050   0.211  16.076  0.6396 -1.5579  0.8527
 3721SOL     OW22624   0.766   2.187  13.306  0.0531  0.0462  0.6356
 3721SOL    HW122625   0.750   2.117  13.243 -0.7963  1.0613 -0.2909
 3721SOL    HW222626   0.687   2.241  13.315 -0.8344 -1.1518  0.0401
 3722SOL     OW22627   0.343   1.499   8.546  0.1649 -0.1616  0.1220
 3722SOL    HW122628   0.378   1.429   8.491 -0.6707 -1.0132  0.6624
 3722SOL    HW222629   0.292   1.550   8.483  1.2455 -0.1177 -0.6986
 3723SOL     OW22630   2.399   2.882   1.187 -0.6409  0.0443  0.4447
 3723SOL    HW122631   2.362   2.934   1.259 -1.1080  2.3663 -1.4868
 3723SOL    HW222632   2.449   2.946   1.137  2.8887 -2.3863  0.9182
 3724SOL     OW22633   4.437   3.702  12.338 -0.1199  0.0464  0.3865
 3724SOL    HW122634   4.457   3.752  12.258  1.5323  0.6946  1.2109
 3724SOL    HW222635   4.358   3.746  12.371  0.4066  0.5977  0.9061
 3725SOL     OW22636   1.831   1.297   3.769  0.2918 -0.1373  0.1601
 3725SOL    HW122637   1.742   1.289   3.804  0.7306 -2.7425  0.6845
 3725SOL    HW222638   1.845   1.383   3.730  3.0266 -0.5636  0.1808
 3726SOL     OW22639   3.676   1.550   9.990  0.1047 -0.0909  0.3899
 3726SOL    HW122640   3.769   1.564  10.007 -0.2288  1.2128  1.1289
 3726SOL    HW222641   3.670   1.512   9.902 -0.8620 -1.0174  0.8458
 3727SOL     OW22642   4.229   0.038  13.712  0.3451 -0.4104  0.1792
 3727SOL    HW122643   4.323   0.039  13.697  0.2281  0.6487 -0.5494
 3727SOL    HW222644   4.207   4.718  13.628 -1.9794  0.7323  0.2286
 3728SOL     OW22645   3.902   0.306  10.428 -0.1543 -0.9213  0.0093
 3728SOL    HW122646   3.913   0.303  10.332  1.7894  0.1316  0.1846
 3728SOL    HW222647   3.812   0.339  10.428 -0.1922 -1.0431  0.7961
 3729SOL     OW22648   4.527   1.767   6.345 -0.3086 -0.0268  0.5341
 3729SOL    HW122649   4.529   1.731   6.257 -3.1658  4.4712 -1.3388
 3729SOL    HW222650   4.604   1.823   6.343 -0.0453 -0.4037  0.1716
 3730SOL     OW22651   2.610   3.894   6.236 -0.7559 -0.2252 -0.4191
 3730SOL    HW122652   2.648   3.969   6.283 -0.0176  0.0097 -1.3740
 3730SOL    HW222653   2.686   3.836   6.232 -2.4599 -2.5277  0.9561
 3731SOL     OW22654   2.032   4.485   8.833 -0.5115  0.1348 -0.1290
 3731SOL    HW122655   2.018   4.443   8.748  1.0661 -1.9522  0.6719
 3731SOL    HW222656   2.095   4.553   8.807 -0.6026  0.8317  1.4930
 3732SOL     OW22657   2.830   1.297   6.772 -0.0357 -0.2032 -0.1437
 3732SOL    HW122658   2.869   1.220   6.731  0.1931 -0.4667  0.5808
 3732SOL    HW222659   2.758   1.255   6.820  0.3649 -1.4249 -0.6114
 3733SOL     OW22660   2.639   4.084   8.275 -0.3214 -0.1256 -0.1202
 3733SOL    HW122661   2.561   4.097   8.328  0.7828 -1.1961  1.7970
 3733SOL    HW222662   2.602   4.075   8.188  0.3531  0.9079 -0.5169
 3734SOL     OW22663   4.197   1.386   5.111  0.1359 -0.1469  0.5569
 3734SOL    HW122664   4.290   1.386   5.136  0.6740 -2.2967 -1.4428
 3734SOL    HW222665   4.178   1.292   5.117 -0.9046  0.1347  1.7560
 3735SOL     OW22666   0.222   1.498   3.469 -0.3501 -0.0634  0.2420
 3735SOL    HW122667   0.230   1.528   3.560  0.0712 -1.0251  0.5167
 3735SOL    HW222668   0.281   1.559   3.425 -0.0788 -0.1154  0.5289
 3736SOL     OW22669   1.101   4.631   5.624 -0.1304 -0.0051 -0.0989
 3736SOL    HW122670   1.018   4.586   5.609 -0.6993  1.0139 -0.0311
 3736SOL    HW222671   1.063   4.716   5.600  1.5141 -0.1378 -3.0986
 3737SOL     OW22672   2.965   1.263   4.968  0.2434  0.3566 -0.0454
 3737SOL    HW122673   3.031   1.207   4.928  1.2880  0.1227  2.0155
 3737SOL    HW222674   2.993   1.346   4.930 -1.0841  0.9286  0.2412
 3738SOL     OW22675   2.011   4.017   6.855  0.0794 -0.1261  0.1635
 3738SOL    HW122676   1.932   3.997   6.905  1.1949 -0.9823  1.5703
 3738SOL    HW222677   1.994   3.966   6.776 -1.2527 -0.2876  0.5568
 3739SOL     OW22678   0.182   1.848   9.926 -0.6159  0.1252 -0.1587
 3739SOL    HW122679   0.198   1.773   9.984 -0.1120 -0.6964 -1.3666
 3739SOL    HW222680   0.088   1.862   9.942 -0.0643  0.2794  3.1145
 3740SOL     OW22681   0.699   0.582   5.658  1.0011 -0.1992  0.1123
 3740SOL    HW122682   0.613   0.624   5.656  0.0262 -2.2531 -0.9411
 3740SOL    HW222683   0.751   0.642   5.605 -0.3575  0.8350 -0.0486
 3741SOL     OW22684   0.705   3.924   5.983 -0.0234  0.0183  0.5493
 3741SOL    HW122685   0.782   3.981   5.982 -0.0844  0.1095  2.9295
 3741SOL    HW222686   0.680   3.909   6.074  1.4502  1.9960  1.2815
 3742SOL     OW22687   4.209   2.398   4.303  0.3450  0.1284  0.7879
 3742SOL    HW122688   4.171   2.485   4.297  0.7732  0.2801  0.2630
 3742SOL    HW222689   4.258   2.391   4.221 -2.2155 -0.5674 -0.6635
 3743SOL     OW22690   4.110   2.543  12.888  0.1571  0.3021  0.0115
 3743SOL    HW122691   4.135   2.635  12.892  1.1496 -0.0225  1.5525
 3743SOL    HW222692   4.017   2.557  12.871  0.1229  0.9925  0.8088
 3744SOL     OW22693   2.734   1.920   0.933  0.7375 -0.0807  0.0213
 3744SOL    HW122694   2.813   1.931   0.879 -0.2591  0.9421 -1.2438
 3744SOL    HW222695   2.702   2.010   0.928  1.5975  0.3365  1.8485
 3745SOL     OW22696   3.184   4.049   5.134 -0.0449  0.9229 -0.2040
 3745SOL    HW122697   3.172   3.959   5.102 -1.1076  1.1645 -0.5126
 3745SOL    HW222698   3.117   4.059   5.202  0.6461  0.8183  0.4830
 3746SOL     OW22699   0.757   4.399   4.389 -0.0865  0.1841  0.3615
 3746SOL    HW122700   0.786   4.315   4.426  0.8449  0.8171  1.0468
 3746SOL    HW222701   0.662   4.389   4.399  0.3859 -2.7815  1.9855
 3747SOL     OW22702   4.196   3.564   2.665 -0.2138  0.0772 -0.1631
 3747SOL    HW122703   4.260   3.558   2.594  0.3248  0.5106  0.2939
 3747SOL    HW222704   4.242   3.570   2.748 -2.2589  1.9686  0.8462
 3748SOL     OW22705   1.957   3.120   2.951  0.3318  0.3127 -0.1744
 3748SOL    HW122706   1.989   3.196   2.999  2.8999  0.7123 -2.5517
 3748SOL    HW222707   1.865   3.148   2.960  0.1952  0.6103 -2.5496
 3749SOL     OW22708   3.301   2.171   1.224  0.1321  0.2225 -0.8803
 3749SOL    HW122709   3.295   2.144   1.133  1.3546 -1.4724 -0.4514
 3749SOL    HW222710   3.349   2.098   1.263 -0.8961  1.4124  2.6662
 3750SOL     OW22711   2.329   2.202   6.451  0.1669 -0.1469  0.5791
 3750SOL    HW122712   2.331   2.203   6.355  1.1460 -0.2269  0.5945
 3750SOL    HW222713   2.273   2.125   6.459 -0.0721  0.3504  3.6638
 3751SOL     OW22714   3.220   1.077  14.228 -0.0511 -0.7528  0.1184
 3751SOL    HW122715   3.190   1.168  14.233 -1.1298 -1.1060 -0.0536
 3751SOL    HW222716   3.286   1.072  14.158  0.5043  0.9537  0.5160
 3752SOL     OW22717   3.524   3.850   6.806 -0.1772 -0.2627 -0.0426
 3752SOL    HW122718   3.509   3.790   6.879  0.3027 -1.1201 -0.6594
 3752SOL    HW222719   3.618   3.841   6.796  0.1151  0.9410  1.5796
 3753SOL     OW22720   4.320   2.805   4.506  0.3477  0.2558  0.6697
 3753SOL    HW122721   4.296   2.836   4.593 -0.4468 -0.9466  0.8822
 3753SOL    HW222722   4.373   2.878   4.474 -0.0855  1.4032  2.6022
 3754SOL     OW22723   3.605   3.047   6.940 -0.3421 -0.0918 -1.0732
 3754SOL    HW122724   3.600   2.953   6.954 -0.9917 -0.4643 -3.8679
 3754SOL    HW222725   3.672   3.072   7.003  0.4921 -1.6394 -1.3590
 3755SOL     OW22726   2.341   1.041   8.720  0.1783  0.1392 -0.0400
 3755SOL    HW122727   2.300   1.037   8.806  1.7251  0.5613  0.7004
 3755SOL    HW222728   2.431   1.058   8.747  0.5702  0.2779 -1.4274
 3756SOL     OW22729   4.473   3.829   2.182  0.0085 -0.4017  0.2692
 3756SOL    HW122730   4.451   3.746   2.139 -2.0551 -0.9148  2.3114
 3756SOL    HW222731   4.494   3.812   2.274 -0.9066 -1.3721  0.3012
 3757SOL     OW22732   4.311   3.637   8.319  0.1484  0.3769  0.9065
 3757SOL    HW122733   4.293   3.609   8.409  0.2125 -0.3176  0.6977
 3757SOL    HW222734   4.239   3.603   8.267  1.7979 -0.5218 -0.7952
 3758SOL     OW22735   3.635   0.224   3.231  0.0562  0.6486 -1.0800
 3758SOL    HW122736   3.555   0.210   3.180 -0.2805 -0.3865 -0.2677
 3758SOL    HW222737   3.634   0.144   3.284  0.8999  1.1268 -0.3417
 3759SOL     OW22738   0.325   1.810  17.391 -0.2108  0.1219  0.4762
 3759SOL    HW122739   0.308   1.903  17.405 -2.4011  0.1539 -2.2396
 3759SOL    HW222740   0.400   1.787  17.446 -0.3525 -1.1296  0.1531
 3760SOL     OW22741   1.799   0.170   8.575 -0.1652 -0.0583 -0.7014
 3760SOL    HW122742   1.893   0.162   8.591 -0.2075 -1.3409 -1.0831
 3760SOL    HW222743   1.776   0.078   8.581 -0.5489  0.0583 -0.4601
 3761SOL     OW22744   3.533   0.072   0.156  0.3528  0.3393 -0.0575
 3761SOL    HW122745   3.606   0.035   0.106  0.5854  1.2722 -0.4082
 3761SOL    HW222746   3.461   0.045   0.099  0.6177 -0.8741  0.1823
 3762SOL     OW22747   3.146   0.419   6.485  0.5757 -0.4974  0.1582
 3762SOL    HW122748   3.191   0.495   6.522 -0.2218 -0.2461  0.6239
 3762SOL    HW222749   3.094   0.458   6.415  1.0234  0.5694  0.4224
 3763SOL     OW22750   2.473   2.114  11.823  0.4407 -0.1800 -0.0967
 3763SOL    HW122751   2.542   2.180  11.829 -0.2938  0.3861  1.9098
 3763SOL    HW222752   2.498   2.058  11.896  3.2348  0.8286 -0.2897
 3764SOL     OW22753   1.596   0.134  16.344 -0.5452 -0.0656  0.0225
 3764SOL    HW122754   1.538   0.069  16.304  1.2164 -1.4270 -0.2809
 3764SOL    HW222755   1.669   0.127  16.283 -0.5672 -2.7344  0.3381
 3765SOL     OW22756   2.517   2.350  15.407 -0.1829 -0.4073 -0.2606
 3765SOL    HW122757   2.557   2.432  15.379 -1.2998  0.8258  1.7423
 3765SOL    HW222758   2.489   2.318  15.322 -0.5591 -0.4955 -0.1065
 3766SOL     OW22759   1.118   0.435   5.455 -0.0844  0.3307  0.4649
 3766SOL    HW122760   1.081   0.512   5.412  0.0252 -1.6001 -3.0959
 3766SOL    HW222761   1.037   0.408   5.498  0.1188  0.6224  1.0329
 3767SOL     OW22762   0.978   3.312   6.624 -0.4360 -0.2958 -0.5513
 3767SOL    HW122763   1.041   3.249   6.589  1.1266 -0.4144  2.5162
 3767SOL    HW222764   1.031   3.338   6.699  0.4467 -0.6203 -1.0779
 3768SOL     OW22765   2.721   1.252   5.483  0.3812 -0.2995 -0.5144
 3768SOL    HW122766   2.793   1.285   5.428  0.7048  1.7660  1.1769
 3768SOL    HW222767   2.677   1.192   5.422 -0.8552 -0.9004  0.9936
 3769SOL     OW22768   4.620   0.588  15.143 -0.1428 -0.2911  0.1822
 3769SOL    HW122769   4.661   0.602  15.229 -0.5051  1.4070  0.0802
 3769SOL    HW222770   4.682   0.639  15.091  0.4149  0.1546  1.2699
 3770SOL     OW22771   0.851   1.388   6.403  0.1885 -0.0671  0.1356
 3770SOL    HW122772   0.918   1.412   6.340  1.7987 -1.7854  1.1869
 3770SOL    HW222773   0.772   1.382   6.350  0.3356 -1.0024  0.0244
 3771SOL     OW22774   4.433   2.948   6.910 -0.1240  0.0121 -0.6297
 3771SOL    HW122775   4.490   2.872   6.905  0.2914  0.3970 -1.7648
 3771SOL    HW222776   4.370   2.923   6.977  0.4634 -2.1607 -0.8857
 3772SOL     OW22777   2.094   2.352   9.991  0.8647 -0.1167  0.0452
 3772SOL    HW122778   2.006   2.318  10.001  0.8597  0.2970  1.4372
 3772SOL    HW222779   2.089   2.438  10.034  0.8204  0.0539 -0.3035
 3773SOL     OW22780   3.586   0.703   9.213 -0.1533  0.3022  0.2448
 3773SOL    HW122781   3.597   0.662   9.127  0.7101  0.5192  0.2533
 3773SOL    HW222782   3.577   0.794   9.185 -0.4008 -0.6510 -2.8055
 3774SOL     OW22783   3.680   3.042   9.357 -0.4339  0.3712  0.1719
 3774SOL    HW122784   3.605   2.990   9.386 -0.1682 -0.8220 -1.2950
 3774SOL    HW222785   3.641   3.085   9.281 -1.9588 -0.6073  0.4045
 3775SOL     OW22786   4.718   1.275  15.774 -0.1707  0.5021 -0.2365
 3775SOL    HW122787   4.664   1.346  15.808 -0.2977 -0.1499  0.9165
 3775SOL    HW222788   4.663   1.255  15.698  0.8654 -3.4455  0.0400
 3776SOL     OW22789   1.252   0.522   7.632 -0.1772 -0.0859 -0.6657
 3776SOL    HW122790   1.236   0.535   7.725  0.6191 -0.3728 -0.4916
 3776SOL    HW222791   1.231   0.607   7.594 -2.4262 -0.8500 -1.1450
 3777SOL     OW22792   4.470   0.039  10.838  0.2034  0.3321  0.2691
 3777SOL    HW122793   4.409   0.111  10.822  0.3766  0.5487  0.5834
 3777SOL    HW222794   4.410   4.686  10.826 -1.8956  2.0355  0.3610
 3778SOL     OW22795   0.104   0.334   7.044 -0.2890 -0.4563 -0.2163
 3778SOL    HW122796   0.082   0.241   7.045  3.8120 -1.4028 -0.1816
 3778SOL    HW222797   0.061   0.355   7.127 -0.5211 -0.5531 -0.3116
 3779SOL     OW22798   1.964   0.863   6.466  0.3692 -0.5346  0.2522
 3779SOL    HW122799   1.935   0.906   6.547 -1.0104  0.9962 -1.0610
 3779SOL    HW222800   1.901   0.883   6.397 -0.7352 -0.1456  1.3805
 3780SOL     OW22801   2.738   0.867  10.285 -0.0464 -0.3189 -0.4604
 3780SOL    HW122802   2.736   0.866  10.380  0.2245  0.0681 -0.4548
 3780SOL    HW222803   2.712   0.775  10.276  2.0356 -1.0574  1.2790
 3781SOL     OW22804   2.523   2.493   4.504  0.0593 -0.5046  0.3271
 3781SOL    HW122805   2.611   2.460   4.525  0.8167 -0.0861 -2.1037
 3781SOL    HW222806   2.504   2.448   4.422 -0.1931 -0.0518  0.1349
 3782SOL     OW22807   0.129   4.680   3.302  0.1506  0.4807 -0.1750
 3782SOL    HW122808   0.098   0.023   3.367 -1.7747 -1.8269  1.1238
 3782SOL    HW222809   0.045   4.664   3.259  0.2338  2.9761 -1.2706
 3783SOL     OW22810   2.087   2.647   7.664  0.2175  0.1308  0.4420
 3783SOL    HW122811   2.159   2.599   7.624 -2.1107 -2.1010 -0.9992
 3783SOL    HW222812   2.102   2.638   7.758  0.1691  1.9461  0.6388
 3784SOL     OW22813   3.958   3.446   2.206  0.2112  0.2016 -0.4204
 3784SOL    HW122814   3.958   3.412   2.296  2.1967 -0.9746 -0.8676
 3784SOL    HW222815   4.047   3.426   2.179 -0.3634 -1.5329 -0.9747
 3785SOL     OW22816   0.419   3.185  15.790 -0.2573  0.2629 -0.4054
 3785SOL    HW122817   0.482   3.158  15.723  0.4049 -0.3282  0.4682
 3785SOL    HW222818   0.384   3.263  15.746 -0.0344 -0.5132 -1.9733
 3786SOL     OW22819   0.196   4.035   5.270 -0.3053 -0.1875  0.0443
 3786SOL    HW122820   0.267   4.099   5.266  0.4367 -1.0118  0.0073
 3786SOL    HW222821   0.183   4.011   5.362 -2.2499  0.8489  0.0346
 3787SOL     OW22822   0.693   2.726   0.432 -0.0707 -0.0792 -0.1982
 3787SOL    HW122823   0.702   2.782   0.355 -0.9875 -0.1307 -0.3439
 3787SOL    HW222824   0.667   2.799   0.488 -0.0574  0.5085 -0.9631
 3788SOL     OW22825   1.659   2.572   4.692  0.1411  0.3481  0.1175
 3788SOL    HW122826   1.614   2.569   4.776  1.6577  1.4706  0.9635
 3788SOL    HW222827   1.581   2.577   4.636  0.1698  2.9756  0.3187
 3789SOL     OW22828   1.601   1.584   5.337 -0.3776  0.3216  0.2991
 3789SOL    HW122829   1.521   1.616   5.296 -1.0331 -0.0539  1.3134
 3789SOL    HW222830   1.570   1.592   5.427 -0.8565  1.5152  0.0241
 3790SOL     OW22831   1.907   3.312   5.028  0.2324  0.1140 -0.5347
 3790SOL    HW122832   1.990   3.264   5.027  1.4181  2.1998 -1.9679
 3790SOL    HW222833   1.898   3.329   5.122  2.2435  0.0367 -0.3300
 3791SOL     OW22834   0.697   3.926   3.477  0.0386 -0.0117 -0.1277
 3791SOL    HW122835   0.607   3.909   3.504  0.1902  0.4234  0.6627
 3791SOL    HW222836   0.689   3.984   3.400  0.6383 -0.2019 -0.3368
 3792SOL     OW22837   4.542   1.238  15.562 -0.0996 -0.0853 -0.2952
 3792SOL    HW122838   4.602   1.270  15.495  0.6246 -2.3363 -0.7171
 3792SOL    HW222839   4.452   1.266  15.543 -0.0412  0.1869 -0.1827
 3793SOL     OW22840   4.532   3.853   0.199 -0.6728  0.2565 -0.3758
 3793SOL    HW122841   4.466   3.910   0.240 -0.9105 -0.9683  0.9265
 3793SOL    HW222842   4.610   3.901   0.227 -1.5046  1.4497 -0.0966
 3794SOL     OW22843   3.117   0.870   8.063 -0.2963 -0.2521 -0.2084
 3794SOL    HW122844   3.077   0.893   8.146  2.3370  2.0097  0.4313
 3794SOL    HW222845   3.150   0.781   8.081 -0.5492 -0.9287 -3.0193
 3795SOL     OW22846   2.287   2.108   6.777  0.1338 -0.1361  0.1757
 3795SOL    HW122847   2.205   2.116   6.728  0.2380  0.7787  0.1583
 3795SOL    HW222848   2.251   2.065   6.855  0.3545 -0.0037  0.3510
 3796SOL     OW22849   3.432   4.285   1.821 -0.2886  0.1648 -0.3540
 3796SOL    HW122850   3.398   4.332   1.897  0.5227 -3.9394  2.5694
 3796SOL    HW222851   3.360   4.225   1.804  1.2476 -2.2091  1.5007
 3797SOL     OW22852   1.307   2.723  12.313  0.2571  0.5705  0.0383
 3797SOL    HW122853   1.221   2.703  12.352  1.3433 -0.6212  1.8304
 3797SOL    HW222854   1.364   2.757  12.382  1.7311 -0.3523 -0.7133
 3798SOL     OW22855   2.576   4.616   3.903  0.5738 -0.1616 -0.2541
 3798SOL    HW122856   2.609   4.603   3.992 -0.5643 -0.6752  0.0928
 3798SOL    HW222857   2.509   4.683   3.907  1.3650  0.6557 -0.7517
 3799SOL     OW22858   1.612   1.657   4.341  0.3719  0.7069  0.8404
 3799SOL    HW122859   1.632   1.730   4.283  0.9449  0.5798  0.8797
 3799SOL    HW222860   1.645   1.579   4.298 -0.7137  1.4677 -1.3803
 3800SOL     OW22861   1.402   1.809   9.700  0.6173  0.0815  0.6409
 3800SOL    HW122862   1.334   1.836   9.637 -0.5900 -0.1751  1.8358
 3800SOL    HW222863   1.356   1.785   9.780  1.4386  1.0294  1.3913
 3801SOL     OW22864   1.145   4.447   4.505 -0.5850 -0.1145 -0.1169
 3801SOL    HW122865   1.129   4.430   4.598  1.7522  1.7659  0.6409
 3801SOL    HW222866   1.176   4.360   4.480 -3.7366 -0.6291 -2.2150
 3802SOL     OW22867   0.968   3.518   4.890 -0.6018  0.4014  0.0938
 3802SOL    HW122868   0.960   3.481   4.802  0.4823  0.6887 -0.1285
 3802SOL    HW222869   0.922   3.598   4.865  1.1416  0.8142 -1.7655
 3803SOL     OW22870   2.495   1.774   3.670 -0.0221 -0.0871 -0.6428
 3803SOL    HW122871   2.488   1.788   3.764 -0.8266 -2.5546 -0.3279
 3803SOL    HW222872   2.416   1.723   3.656 -0.6835  0.1149  2.4412
 3804SOL     OW22873   2.362   3.852   2.572  0.2258  0.2966 -0.1911
 3804SOL    HW122874   2.384   3.913   2.643  1.1917  0.4395 -0.6121
 3804SOL    HW222875   2.267   3.854   2.585  0.2925 -1.3944  0.5155
 3805SOL     OW22876   3.650   0.914   2.409 -0.3141 -0.6774 -0.0548
 3805SOL    HW122877   3.641   0.885   2.500  3.6515 -0.4306  0.4252
 3805SOL    HW222878   3.566   0.959   2.401  0.2143  0.1922 -0.6493
 3806SOL     OW22879   2.338   4.096   3.192 -0.8539 -0.6622 -0.3875
 3806SOL    HW122880   2.399   4.121   3.123 -1.4371 -1.9408 -1.3644
 3806SOL    HW222881   2.385   4.027   3.239  1.4672  0.7851 -0.6270
 3807SOL     OW22882   0.036   0.338   5.343  1.1640 -0.2459  0.2197
 3807SOL    HW122883   4.687   0.314   5.280 -1.1113  0.8008  2.3220
 3807SOL    HW222884   0.115   0.321   5.291  1.5079  0.3515  0.5561
 3808SOL     OW22885   4.403   0.229   3.484  0.3465 -0.3410 -0.2778
 3808SOL    HW122886   4.480   0.191   3.526 -0.7371  0.0045  2.0621
 3808SOL    HW222887   4.336   0.188   3.539  0.1568  2.8249  1.8570
 3809SOL     OW22888   3.217   0.913   5.724  0.0504 -0.4573 -0.9703
 3809SOL    HW122889   3.218   0.829   5.770 -0.1076  0.5134  0.7761
 3809SOL    HW222890   3.269   0.897   5.645 -0.4131 -0.8169 -1.2051
 3810SOL     OW22891   1.679   0.387  16.562  0.1993  0.5063  0.0678
 3810SOL    HW122892   1.738   0.426  16.627  1.7576  0.0413 -1.0548
 3810SOL    HW222893   1.626   0.326  16.613 -1.7295 -0.7021 -3.3597
 3811SOL     OW22894   2.489   3.439   7.352 -0.8290 -0.3676 -0.3715
 3811SOL    HW122895   2.553   3.464   7.418  0.0972 -1.9830 -0.6661
 3811SOL    HW222896   2.546   3.456   7.278  1.7598  1.2076  2.0113
 3812SOL     OW22897   4.334   3.149   7.511 -0.3624  0.2217  0.1743
 3812SOL    HW122898   4.265   3.177   7.571  1.0787 -0.7971  2.3098
 3812SOL    HW222899   4.378   3.085   7.568  0.2766  0.9291  0.4749
 3813SOL     OW22900   2.644   3.844   0.694  0.4127  0.1332  0.4697
 3813SOL    HW122901   2.714   3.802   0.743 -0.0497 -1.2289 -0.0449
 3813SOL    HW222902   2.690   3.861   0.611 -0.7870  2.7083  0.3346
 3814SOL     OW22903   4.353   1.540   2.689 -0.4667  0.2394  0.1919
 3814SOL    HW122904   4.297   1.469   2.721  1.1632 -1.9515 -1.8560
 3814SOL    HW222905   4.288   1.611   2.691  0.3813  0.9996  1.0331
 3815SOL     OW22906   3.133   2.197   4.659  0.5363 -0.2155  0.4756
 3815SOL    HW122907   3.197   2.216   4.590  1.9426 -5.0700  0.4229
 3815SOL    HW222908   3.150   2.260   4.729 -0.5268  1.0026 -0.3645
 3816SOL     OW22909   4.672   3.188   1.894  0.1195  0.2185 -0.1118
 3816SOL    HW122910   4.601   3.128   1.918 -0.9143  1.4404 -0.1078
 3816SOL    HW222911   0.029   3.167   1.946  0.3133  1.5781  0.1495
 3817SOL     OW22912   2.796   1.572   7.953 -0.4296 -0.1641 -0.9083
 3817SOL    HW122913   2.791   1.549   8.046  0.7411  2.2122 -0.2578
 3817SOL    HW222914   2.702   1.561   7.938 -1.0804  0.3688  2.7519
 3818SOL     OW22915   0.925   4.192   3.896  0.0867  0.5502  0.0622
 3818SOL    HW122916   0.841   4.197   3.942  0.3762 -1.1532  0.7558
 3818SOL    HW222917   0.896   4.128   3.831  0.2841 -0.7626  1.2747
 3819SOL     OW22918   3.416   0.107  12.236 -0.5852 -0.0195 -0.0525
 3819SOL    HW122919   3.327   0.112  12.271  0.5198  1.3174  2.6259
 3819SOL    HW222920   3.400   0.171  12.167  1.2702 -1.5645 -1.9231
 3820SOL     OW22921   0.985   2.514   8.974  0.3929  0.7637  0.1414
 3820SOL    HW122922   0.959   2.450   9.040  0.5912  1.9390  1.3687
 3820SOL    HW222923   0.934   2.586   9.011 -0.9013  1.6246 -3.3374
 3821SOL     OW22924   1.201   3.336   5.341 -0.3549 -0.4185  0.4868
 3821SOL    HW122925   1.270   3.274   5.318 -0.8985 -1.7245  2.3628
 3821SOL    HW222926   1.125   3.290   5.305  0.4538 -1.6358  0.3303
 3822SOL     OW22927   3.357   1.634   7.515  0.5851 -0.5586 -0.7928
 3822SOL    HW122928   3.279   1.682   7.489  1.6921  0.3606 -2.3754
 3822SOL    HW222929   3.422   1.702   7.502  0.9917 -0.5398  1.2429
 3823SOL     OW22930   0.898   0.651   4.009 -0.2989 -0.0257  0.1174
 3823SOL    HW122931   0.826   0.593   3.987 -2.1324  1.6899  1.6408
 3823SOL    HW222932   0.923   0.614   4.094 -2.3859 -0.4883  0.5154
 3824SOL     OW22933   0.324   2.844  17.631 -0.1163  0.0203 -0.1863
 3824SOL    HW122934   0.293   2.831   0.037  2.1608  1.6691  0.8522
 3824SOL    HW222935   0.389   2.774  17.632 -0.0708  0.0263 -2.2884
 3825SOL     OW22936   1.899   4.438   9.230  0.0025  1.0371  0.0825
 3825SOL    HW122937   1.877   4.419   9.321 -0.0262  0.1518 -0.1062
 3825SOL    HW222938   1.902   4.348   9.199 -0.3689  0.1923  2.5026
 3826SOL     OW22939   0.617   3.448   2.820 -0.4269 -0.1658  0.0732
 3826SOL    HW122940   0.602   3.375   2.761  1.4316  0.1886 -0.8500
 3826SOL    HW222941   0.703   3.428   2.859 -1.1289 -2.8133  0.2595
 3827SOL     OW22942   4.535   0.310  16.885 -0.1200  0.0676  0.0875
 3827SOL    HW122943   4.630   0.306  16.876 -0.1104  0.6882 -0.1098
 3827SOL    HW222944   4.522   0.305  16.979 -2.2042 -1.0158 -0.2571
 3828SOL     OW22945   2.640   0.855   5.774 -0.4778  0.2190 -0.2208
 3828SOL    HW122946   2.602   0.897   5.697  0.8165  2.2372  0.2338
 3828SOL    HW222947   2.587   0.777   5.790 -1.3659  0.7974 -0.3108
 3829SOL     OW22948   3.002   1.823  12.706  0.1026  0.5978 -0.5763
 3829SOL    HW122949   2.970   1.801  12.794  1.9334  0.2758  0.0305
 3829SOL    HW222950   2.954   1.905  12.698 -1.2715 -0.2496 -0.9336
 3830SOL     OW22951   4.328   0.864  11.306 -0.7278  0.2909  0.2304
 3830SOL    HW122952   4.349   0.937  11.365  0.7224 -0.0595  0.1531
 3830SOL    HW222953   4.380   0.794  11.348  1.8052  2.5255  0.8131
 3831SOL     OW22954   3.764   1.678   5.937 -0.0087  0.1651  0.0394
 3831SOL    HW122955   3.716   1.723   5.867  1.6146  0.0600 -1.1448
 3831SOL    HW222956   3.792   1.603   5.884  0.3971 -1.0913  2.0410
 3832SOL     OW22957   4.276   1.487   5.407 -0.0711 -0.4629 -0.1760
 3832SOL    HW122958   4.242   1.509   5.320 -1.5929  0.0874  0.5555
 3832SOL    HW222959   4.198   1.473   5.461  0.4084  0.0766  0.6659
 3833SOL     OW22960   2.129   0.767   2.942  0.2751 -0.3322  0.4830
 3833SOL    HW122961   2.143   0.777   2.847 -0.4152  0.0141  0.4221
 3833SOL    HW222962   2.110   0.674   2.946  0.3032 -0.3705 -0.1859
 3834SOL     OW22963   4.075   3.727  12.222  0.2080  0.3720 -0.9564
 3834SOL    HW122964   4.001   3.761  12.173 -0.1354 -0.0894 -0.7641
 3834SOL    HW222965   4.038   3.663  12.284 -1.1176  0.3380 -1.7802
 3835SOL     OW22966   2.078   0.319   3.576 -0.3178 -0.6032 -0.5804
 3835SOL    HW122967   2.035   0.290   3.496  0.2396  1.6176 -1.6788
 3835SOL    HW222968   2.018   0.389   3.601  0.7072  0.5667 -1.4331
 3836SOL     OW22969   1.444   1.656   1.186 -0.2436 -0.0634 -0.9592
 3836SOL    HW122970   1.529   1.661   1.230  0.7971  0.6716 -3.1056
 3836SOL    HW222971   1.457   1.591   1.117 -0.2931 -0.2487 -0.7940
 3837SOL     OW22972   1.554   1.481   8.272  0.1959  0.1470 -0.0780
 3837SOL    HW122973   1.591   1.410   8.324 -0.7233 -1.3896 -1.5465
 3837SOL    HW222974   1.595   1.562   8.303 -0.7615  0.6789 -0.2116
 3838SOL     OW22975   2.524   4.605  13.103  0.1918 -0.6162 -0.7544
 3838SOL    HW122976   2.566   4.537  13.156  2.9243  1.2274 -0.5635
 3838SOL    HW222977   2.605   4.650  13.080 -0.6026  1.5801  0.6522
 3839SOL     OW22978   1.163   4.344   2.198  0.1991 -0.0611  0.3370
 3839SOL    HW122979   1.171   4.320   2.105 -1.2806 -3.3125  1.0391
 3839SOL    HW222980   1.069   4.360   2.198  0.0148 -1.1796  0.0333
 3840SOL     OW22981   2.828   3.295  10.634 -0.4503 -0.1011  0.2586
 3840SOL    HW122982   2.869   3.242  10.565  0.6920  1.4752 -0.2709
 3840SOL    HW222983   2.796   3.359  10.570  0.4496 -0.6048 -0.7066
 3841SOL     OW22984   4.654   4.188   6.594 -0.2233  0.2918  0.8250
 3841SOL    HW122985   4.604   4.130   6.536  1.2773  0.1357 -0.3255
 3841SOL    HW222986   0.020   4.180   6.552  0.1845  0.2005  1.6877
 3842SOL     OW22987   2.696   1.634  15.647  0.4780 -0.0713  0.1627
 3842SOL    HW122988   2.619   1.616  15.592  0.2463  0.8943  0.1818
 3842SOL    HW222989   2.736   1.705  15.597 -1.7538  0.1762 -1.2813
 3843SOL     OW22990   1.513   1.126   8.340  0.3424  0.4041 -0.1274
 3843SOL    HW122991   1.439   1.169   8.383  1.1405 -0.3381  1.9888
 3843SOL    HW222992   1.565   1.107   8.418  1.0024  0.5017 -0.5446
 3844SOL     OW22993   3.148   4.680   1.569 -0.1277  0.1399 -0.6618
 3844SOL    HW122994   3.135   4.586   1.582 -2.0386  0.3634 -0.9420
 3844SOL    HW222995   3.242   4.676   1.553  0.3257 -1.6563  2.4422
 3845SOL     OW22996   0.863   4.508   6.046  0.1579 -0.0613 -0.2838
 3845SOL    HW122997   0.825   4.448   6.110 -0.4565 -0.4570 -1.0117
 3845SOL    HW222998   0.936   4.456   6.014 -0.1092 -1.0213  0.6559
 3846SOL     OW22999   4.027   3.751   8.455  0.0666  0.6600  0.2284
 3846SOL    HW123000   4.096   3.796   8.406  1.4311 -0.6676  0.9369
 3846SOL    HW223001   4.075   3.688   8.509  0.0006 -1.5735 -2.3739
 3847SOL     OW23002   3.752   3.964   7.405  0.6109 -0.5748  0.0465
 3847SOL    HW123003   3.778   4.025   7.336  2.5071 -1.7532 -0.3006
 3847SOL    HW223004   3.825   3.901   7.404  0.1462 -1.1115  0.1963
 3848SOL     OW23005   4.527   1.120   7.604  0.0596  0.4600  0.1705
 3848SOL    HW123006   4.603   1.135   7.660  0.7381 -2.2226 -0.0577
 3848SOL    HW223007   4.448   1.136   7.655 -0.3565 -0.5260 -0.1736
 3849SOL     OW23008   0.546   4.258  15.181 -0.2759  0.0098  0.1605
 3849SOL    HW123009   0.611   4.195  15.153 -0.3699  1.4390 -3.2640
 3849SOL    HW223010   0.476   4.193  15.189 -0.6856  0.5170  0.7874
 3850SOL     OW23011   0.914   3.424   0.585 -0.4605  0.4233  0.2322
 3850SOL    HW123012   0.991   3.406   0.532 -1.0864  1.5107 -1.0545
 3850SOL    HW223013   0.924   3.361   0.656 -0.1981  1.0111  0.7149
 3851SOL     OW23014   0.483   1.296   1.329  0.0664 -0.0542  0.0076
 3851SOL    HW123015   0.416   1.327   1.269 -0.0002 -0.9418 -0.3829
 3851SOL    HW223016   0.514   1.376   1.371 -0.7994 -0.3589  1.2487
 3852SOL     OW23017   3.128   3.370   8.279 -0.2540 -0.6967 -0.2972
 3852SOL    HW123018   3.048   3.415   8.306  0.7083  1.1572 -0.4999
 3852SOL    HW223019   3.191   3.378   8.350 -0.8938 -1.4353  0.3574
 3853SOL     OW23020   2.515   2.668   6.860  0.4271 -0.5294 -0.4077
 3853SOL    HW123021   2.565   2.654   6.940  0.0809 -0.3150 -0.1537
 3853SOL    HW223022   2.569   2.727   6.807 -1.7296  0.5826 -1.3631
 3854SOL     OW23023   3.984   4.317  11.515 -0.0501 -0.4599 -0.1830
 3854SOL    HW123024   3.995   4.235  11.467  1.1725 -0.6005  0.3614
 3854SOL    HW223025   4.013   4.291  11.602  2.3422  0.2358 -0.7836
 3855SOL     OW23026   3.566   2.707   9.074 -0.2865 -0.1100  0.2440
 3855SOL    HW123027   3.641   2.667   9.118 -0.2181  0.0479  0.2705
 3855SOL    HW223028   3.524   2.754   9.146 -1.2297 -0.7406  0.1147
 3856SOL     OW23029   0.464   3.589   5.866 -0.8384 -0.1580 -0.1508
 3856SOL    HW123030   0.526   3.585   5.938  0.5755 -0.4948 -1.3820
 3856SOL    HW223031   0.468   3.500   5.829 -1.0058  0.3174 -1.3212
 3857SOL     OW23032   4.358   1.825   3.825 -0.0202  0.0754 -0.0113
 3857SOL    HW123033   4.425   1.813   3.892  1.3281  0.8089 -1.2358
 3857SOL    HW223034   4.292   1.763   3.855 -0.5865 -0.3251 -2.0732
 3858SOL     OW23035   0.509   4.222   6.756  0.7891  0.6412 -0.8829
 3858SOL    HW123036   0.594   4.206   6.716 -0.3113 -2.2299 -2.0636
 3858SOL    HW223037   0.477   4.307   6.724  0.4246 -0.6345 -3.9147
 3859SOL     OW23038   2.655   2.490   9.860  0.1867  0.1839 -0.6007
 3859SOL    HW123039   2.750   2.501   9.855 -0.0071  2.1706 -0.0426
 3859SOL    HW223040   2.633   2.580   9.886 -1.2408 -0.2761 -0.2307
 3860SOL     OW23041   3.615   0.377   1.172  0.1236 -0.5949 -0.1677
 3860SOL    HW123042   3.673   0.447   1.200 -0.9375  0.6761 -1.1681
 3860SOL    HW223043   3.628   0.387   1.078 -0.2247 -3.5263 -0.5498
 3861SOL     OW23044   3.874   1.068   2.483  0.3300  0.2780 -0.3989
 3861SOL    HW123045   3.790   1.026   2.467  0.4072  0.0449 -0.1900
 3861SOL    HW223046   3.880   1.073   2.578 -0.2175  2.9867 -0.4977
 3862SOL     OW23047   1.380   0.251  16.064  0.4937  0.6476 -0.5736
 3862SOL    HW123048   1.426   0.214  16.139  1.1494  1.8303 -0.4041
 3862SOL    HW223049   1.389   0.345  16.077 -1.2718  0.8839 -0.9542
 3863SOL     OW23050   0.208   0.343  15.429  0.3575  0.2549  0.2549
 3863SOL    HW123051   0.225   0.417  15.370 -1.6962  1.1271  0.7434
 3863SOL    HW223052   0.118   0.313  15.412  0.3737  0.5662 -0.3806
 3864SOL     OW23053   0.013   0.120  10.807  0.7568  0.0552  0.3721
 3864SOL    HW123054   4.710   0.070  10.729 -0.9837 -0.0126  0.9281
 3864SOL    HW223055   4.645   0.124  10.845 -0.1746 -1.1946 -1.6412
 3865SOL     OW23056   3.904   4.323  14.799 -0.4600  0.6444  0.0253
 3865SOL    HW123057   3.828   4.329  14.857 -0.2735 -0.3007  0.3564
 3865SOL    HW223058   3.951   4.256  14.849  0.6648 -1.1513 -3.4213
 3866SOL     OW23059   0.121   4.156   7.321 -0.0517  0.4202 -0.5028
 3866SOL    HW123060   0.074   4.239   7.331 -2.1948 -0.6993 -1.1748
 3866SOL    HW223061   0.065   4.117   7.253  0.3717 -2.5874  0.8941
 3867SOL     OW23062   3.930   2.570  14.397 -0.2029 -0.3019 -0.2170
 3867SOL    HW123063   3.901   2.481  14.417 -0.6878  0.0970  0.8751
 3867SOL    HW223064   3.853   2.618  14.426 -1.0179 -1.6850 -0.0913
 3868SOL     OW23065   3.585   0.976   9.142 -0.2025  0.1825 -0.4924
 3868SOL    HW123066   3.660   1.032   9.122  1.6562 -1.5593  1.5829
 3868SOL    HW223067   3.513   1.008   9.087 -0.0387  0.1532 -0.7218
 3869SOL     OW23068   4.266   2.955   2.256 -0.4399  0.2770 -0.4095
 3869SOL    HW123069   4.322   2.924   2.185  1.6086 -2.4811  2.4146
 3869SOL    HW223070   4.198   2.996   2.203  0.4314  1.1987 -0.8000
 3870SOL     OW23071   0.897   0.059   0.516 -0.3708 -0.4242 -0.1729
 3870SOL    HW123072   0.811   0.023   0.540  0.4515 -1.0061  1.8948
 3870SOL    HW223073   0.928   4.718   0.450  0.6128 -1.4943  1.2649
 3871SOL     OW23074   0.056   3.361   3.315  0.5915 -0.2764 -0.3095
 3871SOL    HW123075   0.029   3.271   3.336 -0.0544  0.3080  1.3647
 3871SOL    HW223076   4.700   3.399   3.272  1.5217  1.0793 -0.7476
 3872SOL     OW23077   3.408   1.249   6.767 -0.3553  0.6771 -0.0061
 3872SOL    HW123078   3.473   1.180   6.754 -0.0267  1.6729 -3.6561
 3872SOL    HW223079   3.435   1.299   6.844  1.3004  1.6694 -1.2258
 3873SOL     OW23080   3.805   0.997  12.739  0.3905 -0.0184 -0.0180
 3873SOL    HW123081   3.773   0.909  12.721 -1.2049  0.8689 -1.4536
 3873SOL    HW223082   3.738   1.051  12.698 -0.9831 -0.9464  1.0007
 3874SOL     OW23083   1.956   3.894  12.324 -0.7541  0.4756 -0.0052
 3874SOL    HW123084   2.018   3.964  12.305  0.9092 -0.8916  0.3934
 3874SOL    HW223085   1.925   3.921  12.410  1.3659  0.0391  0.9008
 3875SOL     OW23086   2.246   0.752  11.685  0.2787 -0.0686 -0.4666
 3875SOL    HW123087   2.337   0.732  11.703 -0.0767  0.6148  2.0064
 3875SOL    HW223088   2.218   0.663  11.663  0.1785  0.1130 -1.0902
 3876SOL     OW23089   1.169   1.966  11.704  0.0388  0.1876 -0.1989
 3876SOL    HW123090   1.251   2.015  11.700  0.7469 -1.0458 -0.6232
 3876SOL    HW223091   1.115   2.011  11.638  1.9196 -0.8406 -2.4506
 3877SOL     OW23092   0.903   4.315   1.236  0.1168 -0.2281  0.0428
 3877SOL    HW123093   0.892   4.225   1.206 -0.5316  0.5208 -1.9406
 3877SOL    HW223094   0.843   4.355   1.174  0.0433 -2.2929 -1.2195
 3878SOL     OW23095   0.507   4.695   7.814 -0.6678 -0.1366 -0.3996
 3878SOL    HW123096   0.433   4.697   7.874  0.4465 -1.2458  1.0155
 3878SOL    HW223097   0.577   0.020   7.862 -2.4481 -0.4516  2.4818
 3879SOL     OW23098   2.801   1.481  13.293  0.5958 -0.2671  0.2213
 3879SOL    HW123099   2.764   1.425  13.360 -0.0069 -0.7147 -0.4881
 3879SOL    HW223100   2.718   1.521  13.267  0.1195 -3.8403 -3.8164
 3880SOL     OW23101   2.538   4.035   0.920 -0.0701 -0.0144 -0.3647
 3880SOL    HW123102   2.448   4.053   0.891 -1.0060 -0.2300  2.3989
 3880SOL    HW223103   2.557   3.958   0.867 -2.1640 -0.0338 -1.0780
 3881SOL     OW23104   0.045   4.414   6.331  0.6805 -0.0299  0.0874
 3881SOL    HW123105   0.109   4.405   6.261 -0.2349 -0.1289 -0.7311
 3881SOL    HW223106   4.705   4.342   6.313  1.3853 -0.4064 -0.7199
 3882SOL     OW23107   0.760   2.030   0.733 -0.1055  0.0259  0.3108
 3882SOL    HW123108   0.789   1.945   0.699 -1.3474 -0.2097 -0.1658
 3882SOL    HW223109   0.847   2.068   0.722 -0.1464 -0.2034 -0.7870
 3883SOL     OW23110   3.801   4.514   4.327  0.3430 -0.1953 -0.1469
 3883SOL    HW123111   3.714   4.549   4.304  0.6235  0.1497 -0.6916
 3883SOL    HW223112   3.846   4.584   4.375  3.0388 -1.7268 -0.4849
 3884SOL     OW23113   2.478   0.213   2.660  0.5762 -0.0943 -0.0560
 3884SOL    HW123114   2.533   0.147   2.618 -0.3031  0.2204 -1.7348
 3884SOL    HW223115   2.500   0.191   2.750  0.4892  0.5034  0.1154
 3885SOL     OW23116   0.623   3.159   7.982 -0.5121 -0.5101  0.3560
 3885SOL    HW123117   0.633   3.253   7.991  0.3139 -0.2814 -3.0056
 3885SOL    HW223118   0.633   3.141   7.888  0.0233  0.0966  0.2992
 3886SOL     OW23119   3.877   4.027  14.972 -0.2493  0.2082  0.0722
 3886SOL    HW123120   3.793   4.050  15.010 -0.6446  0.1696 -0.7600
 3886SOL    HW223121   3.864   3.933  14.958  0.5196  0.5680 -3.0704
 3887SOL     OW23122   3.960   0.968  13.190  0.4077  0.1694 -0.2587
 3887SOL    HW123123   4.047   1.003  13.206  1.2102 -1.8094 -0.3395
 3887SOL    HW223124   3.967   0.960  13.095 -0.6321  1.4515 -0.4514
 3888SOL     OW23125   2.678   3.123   9.039  0.7980  0.1535 -0.9548
 3888SOL    HW123126   2.682   3.218   9.029 -0.3498  0.3764  0.8774
 3888SOL    HW223127   2.584   3.114   9.050  1.3736 -2.1920  1.9186
 3889SOL     OW23128   2.593   2.877   7.457 -0.1604  0.2264  0.6579
 3889SOL    HW123129   2.511   2.830   7.439  0.9322 -1.6044  0.4528
 3889SOL    HW223130   2.569   2.969   7.469 -1.6580  0.1280 -1.6459
 3890SOL     OW23131   0.001   3.318  11.270 -0.1532  0.4422  0.2331
 3890SOL    HW123132   4.698   3.243  11.324 -1.9486  2.2214  1.9023
 3890SOL    HW223133   0.089   3.333  11.305  0.2742  0.3523 -0.7762
 3891SOL     OW23134   3.975   1.169   4.218 -0.5520 -0.5951 -0.0609
 3891SOL    HW123135   3.905   1.112   4.250 -0.1146 -0.5892  0.9093
 3891SOL    HW223136   3.942   1.191   4.131 -0.6759  2.4347  0.7395
 3892SOL     OW23137   0.899   4.392   5.673 -0.4358 -0.2459  0.2419
 3892SOL    HW123138   0.810   4.364   5.698 -1.5609  2.8098 -0.4027
 3892SOL    HW223139   0.946   4.338   5.736  1.5808 -0.6251 -1.5989
 3893SOL     OW23140   3.926   3.602   0.520 -0.6006  0.6628 -0.0345
 3893SOL    HW123141   3.969   3.588   0.605 -1.3572 -1.6997 -0.0449
 3893SOL    HW223142   3.897   3.513   0.504  4.0390 -0.8503  0.0319
 3894SOL     OW23143   0.312   4.500   3.427  0.0770  0.5807  0.2225
 3894SOL    HW123144   0.361   4.565   3.477  0.9316  0.2952 -0.2557
 3894SOL    HW223145   0.263   4.551   3.362  1.0317 -0.5147 -1.3464
 3895SOL     OW23146   3.875   1.539  12.426 -0.2610 -0.2264 -0.9489
 3895SOL    HW123147   3.780   1.540  12.437 -0.5134  2.0692 -3.1376
 3895SOL    HW223148   3.886   1.482  12.349  1.2955 -1.7873  0.4375
 3896SOL     OW23149   4.645   1.428   1.848 -0.3833  0.3512 -0.1077
 3896SOL    HW123150   4.680   1.429   1.938  1.3310  0.2345 -0.7663
 3896SOL    HW223151   4.555   1.397   1.858 -0.8365  2.2540  1.8708
 3897SOL     OW23152   3.222   0.312   5.727  0.1878  0.3409 -0.5570
 3897SOL    HW123153   3.308   0.286   5.762 -0.1198  0.1937  0.0928
 3897SOL    HW223154   3.225   0.403   5.757 -1.4402 -0.2417  1.4237
 3898SOL     OW23155   0.456   0.195   2.515  0.8816 -0.0922  0.0508
 3898SOL    HW123156   0.377   0.148   2.492 -1.1847  2.7247  1.3684
 3898SOL    HW223157   0.497   0.211   2.429 -2.3174  1.4948 -1.1600
 3899SOL     OW23158   4.506   2.066  16.488 -0.4902  0.0795  0.1512
 3899SOL    HW123159   4.483   2.093  16.399  1.6161 -2.4072 -1.1468
 3899SOL    HW223160   4.436   2.102  16.543 -2.0601 -0.5471 -1.4275
 3900SOL     OW23161   3.653   1.116  12.458  0.2209  0.2617 -0.1824
 3900SOL    HW123162   3.591   1.139  12.527 -1.2351  0.7864 -1.6923
 3900SOL    HW223163   3.727   1.165  12.494  1.4163  0.1532 -2.5089
 3901SOL     OW23164   1.724   0.630   6.639 -0.0050 -0.1605 -0.1160
 3901SOL    HW123165   1.703   0.669   6.724 -0.6844 -0.3919 -0.1817
 3901SOL    HW223166   1.784   0.560   6.665  1.0701  0.1184 -1.8130
 3902SOL     OW23167   1.341   0.987   7.069 -0.5063  0.1881  0.3013
 3902SOL    HW123168   1.348   1.002   6.974  0.7499 -1.2803  0.1437
 3902SOL    HW223169   1.289   1.062   7.095 -0.6026  0.2440 -0.0463
 3903SOL     OW23170   1.980   2.006   4.941 -0.8410  0.0718  0.2772
 3903SOL    HW123171   1.988   2.099   4.962  1.1414  0.3020 -1.4893
 3903SOL    HW223172   1.937   1.992   4.857 -0.2572 -1.2351  0.1845
 3904SOL     OW23173   1.492   3.131  17.628  0.5951  1.2158 -0.2598
 3904SOL    HW123174   1.415   3.117  17.573  0.1900 -0.4561  0.7158
 3904SOL    HW223175   1.519   3.040  17.641  0.6973  1.3550  0.5003
 3905SOL     OW23176   1.338   3.663  14.661  0.1197  0.1725  0.6131
 3905SOL    HW123177   1.312   3.696  14.575 -1.7203 -1.6082  0.5033
 3905SOL    HW223178   1.415   3.610  14.641 -1.0255 -1.3002  0.1731
 3906SOL     OW23179   3.669   3.949  10.567 -0.4320  0.7326 -0.2401
 3906SOL    HW123180   3.670   3.983  10.656 -0.3412  0.0957  0.0032
 3906SOL    HW223181   3.579   3.940  10.536 -0.4670  1.2144 -0.2729
 3907SOL     OW23182   1.745   2.858  10.751  0.1785  0.6325 -0.0438
 3907SOL    HW123183   1.720   2.861  10.843 -0.6005  1.6942 -0.2902
 3907SOL    HW223184   1.668   2.897  10.710  1.0066  1.6836 -0.6231
 3908SOL     OW23185   2.373   4.426   5.883 -0.1238  0.5578  0.4653
 3908SOL    HW123186   2.286   4.387   5.874  1.3117 -2.5498 -0.0469
 3908SOL    HW223187   2.349   4.518   5.893 -0.9232  0.2820  1.0492
 3909SOL     OW23188   1.831   4.026   6.253 -0.4529  0.0482  0.2877
 3909SOL    HW123189   1.830   4.121   6.240 -3.1509  0.0806  0.6819
 3909SOL    HW223190   1.747   4.003   6.214 -0.2059  0.6813 -0.6058
 3910SOL     OW23191   2.423   4.113  15.282 -0.0885  0.1278  0.9318
 3910SOL    HW123192   2.499   4.068  15.246 -0.8042  0.6571 -1.2281
 3910SOL    HW223193   2.363   4.115  15.208  0.3297  2.2061  0.6516
 3911SOL     OW23194   0.699   1.925   5.991  0.2050 -0.0908 -0.3052
 3911SOL    HW123195   0.768   1.988   6.012 -0.2957 -0.0694  1.2162
 3911SOL    HW223196   0.682   1.952   5.900  0.0781 -1.3232 -0.6536
 3912SOL     OW23197   3.089   2.028   1.445 -0.1264  0.1776  0.0975
 3912SOL    HW123198   3.135   2.108   1.468  0.4673 -0.6671  1.8360
 3912SOL    HW223199   3.021   2.068   1.391  0.5396  1.6757  0.3752
 3913SOL     OW23200   4.023   3.986   2.071 -0.2450 -0.0953 -0.4006
 3913SOL    HW123201   3.964   4.037   2.126  1.3263  1.4374 -0.1529
 3913SOL    HW223202   4.107   4.028   2.088  0.0981  0.1139 -2.6049
 3914SOL     OW23203   0.461   0.024   9.076  0.4406  0.1706  0.1589
 3914SOL    HW123204   0.541   0.009   9.127  0.1638  0.4777  0.6938
 3914SOL    HW223205   0.453   4.657   9.037  0.7334 -0.0673  0.6320
 3915SOL     OW23206   1.952   0.686   1.356 -0.6308  0.5157  0.6390
 3915SOL    HW123207   2.045   0.681   1.378 -0.3705  0.0894 -0.5739
 3915SOL    HW223208   1.927   0.748   1.425  0.2674 -0.5559  1.9324
 3916SOL     OW23209   4.437   1.654   9.894 -0.2645 -0.4042 -0.0566
 3916SOL    HW123210   4.463   1.562   9.895 -2.4829 -1.0362  0.2755
 3916SOL    HW223211   4.422   1.666   9.800  0.0884 -1.2722 -0.2228
 3917SOL     OW23212   4.198   3.518   7.601  0.0891 -1.0418  0.5887
 3917SOL    HW123213   4.132   3.449   7.608 -0.1997 -0.9488 -1.0784
 3917SOL    HW223214   4.277   3.496   7.650  0.3299 -0.1737  0.5788
 3918SOL     OW23215   1.672   0.782  16.751 -0.2220  0.1905 -0.1595
 3918SOL    HW123216   1.756   0.788  16.704 -0.8636  1.2645 -1.1764
 3918SOL    HW223217   1.705   0.756  16.837 -0.4818 -0.5088 -0.2769
 3919SOL     OW23218   3.666   0.359  17.118  0.3373  0.5470 -0.2831
 3919SOL    HW123219   3.658   0.278  17.068 -1.4608 -0.3988  1.5415
 3919SOL    HW223220   3.686   0.327  17.206 -1.0866  0.9766  0.2024
 3920SOL     OW23221   1.876   2.614   9.023 -0.5523 -0.2997 -0.1920
 3920SOL    HW123222   1.819   2.689   9.009  0.6807  0.8495  0.9138
 3920SOL    HW223223   1.961   2.658   9.030 -1.0054  0.1383  2.9056
 3921SOL     OW23224   3.300   0.027   6.048  0.2127  0.1310 -0.2900
 3921SOL    HW123225   3.233   0.057   6.110  0.0329 -1.0770  0.1098
 3921SOL    HW223226   3.364   4.703   6.104  0.9168 -2.4597 -3.1204
 3922SOL     OW23227   1.538   0.185  16.670 -0.0788  0.1107  0.3292
 3922SOL    HW123228   1.517   0.146  16.585 -0.0107  2.7533 -0.9191
 3922SOL    HW223229   1.456   0.169  16.716  0.7029 -3.0441  0.6026
 3923SOL     OW23230   3.750   3.727   8.397  0.0339 -0.1729 -0.3923
 3923SOL    HW123231   3.842   3.753   8.389 -0.6072  2.1427 -0.1682
 3923SOL    HW223232   3.751   3.645   8.348 -0.8623  0.0606 -0.8031
 3924SOL     OW23233   0.332   1.214   3.401  0.0393 -0.4246 -0.0267
 3924SOL    HW123234   0.369   1.283   3.346  2.4430 -1.0438  0.8179
 3924SOL    HW223235   0.311   1.266   3.479  2.4707  1.3093 -0.5180
 3925SOL     OW23236   0.170   3.969   3.529  0.0477 -0.8872  0.0736
 3925SOL    HW123237   0.151   3.926   3.613 -0.2734  0.7529  0.8565
 3925SOL    HW223238   0.158   4.061   3.554 -0.2006 -1.1729  1.0131
 3926SOL     OW23239   2.779   0.624   9.033  0.1253  0.1610  0.0253
 3926SOL    HW123240   2.835   0.691   9.073  3.0413 -0.4271 -3.1615
 3926SOL    HW223241   2.795   0.558   9.100 -0.8391  2.3510  2.4194
 3927SOL     OW23242   1.845   4.525   0.310 -0.3055  0.5626 -0.1646
 3927SOL    HW123243   1.854   4.445   0.258  0.3261 -0.4506  1.5031
 3927SOL    HW223244   1.800   4.577   0.243 -2.5836 -0.6834  0.3921
 3928SOL     OW23245   2.351   0.755  15.959  0.1743  0.2858 -0.4101
 3928SOL    HW123246   2.303   0.702  15.896  0.0664 -0.4370  0.2739
 3928SOL    HW223247   2.408   0.798  15.895  1.8907 -1.1081  0.1581
 3929SOL     OW23248   2.168   0.078   3.708 -0.2300  0.2381  0.6736
 3929SOL    HW123249   2.187   0.066   3.615 -2.5914  0.8382  0.0955
 3929SOL    HW223250   2.113   0.157   3.707  0.4931  0.7146 -2.2394
 3930SOL     OW23251   0.030   2.474  10.419  0.0705  0.1424 -0.2988
 3930SOL    HW123252   0.024   2.557  10.467  0.6135 -0.0201  0.0380
 3930SOL    HW223253   0.124   2.460  10.421 -0.1577 -1.3317  0.1920
 3931SOL     OW23254   2.003   1.168   3.266  0.0278  0.2474  0.2144
 3931SOL    HW123255   1.984   1.239   3.328  1.9300  1.0522 -0.1123
 3931SOL    HW223256   1.970   1.092   3.314 -1.4705  0.8328  0.0874
 3932SOL     OW23257   0.690   3.595   2.171  0.1620  0.6209  0.0164
 3932SOL    HW123258   0.634   3.574   2.246  0.4972  4.2923  1.2810
 3932SOL    HW223259   0.756   3.530   2.197 -2.3149 -2.0802 -0.3912
 3933SOL     OW23260   2.379   3.340   1.197  0.4306  0.4269  0.2406
 3933SOL    HW123261   2.305   3.397   1.221  0.4447  0.6290 -0.1890
 3933SOL    HW223262   2.391   3.279   1.269  0.2822  0.0452 -0.0586
 3934SOL     OW23263   1.164   2.212   4.237 -0.4191  0.1986  0.6007
 3934SOL    HW123264   1.163   2.306   4.257  0.2896  0.2732  0.2988
 3934SOL    HW223265   1.098   2.191   4.302 -0.1711  3.5261  1.9433
 3935SOL     OW23266   0.823   2.171   8.112  0.1326  0.1536 -0.1296
 3935SOL    HW123267   0.777   2.194   8.193  1.1102  0.2227  0.4049
 3935SOL    HW223268   0.908   2.142   8.145 -2.4649 -5.4271  1.6107
 3936SOL     OW23269   1.861   2.083   4.310  0.2256 -0.5467 -0.2048
 3936SOL    HW123270   1.838   2.173   4.286  0.7828 -0.1105  0.8752
 3936SOL    HW223271   1.877   2.061   4.219 -0.0138 -0.0558 -0.3666
 3937SOL     OW23272   4.353   2.804  17.061 -0.1505 -0.5260  0.3780
 3937SOL    HW123273   4.264   2.801  17.026  0.5654  0.5459 -1.5459
 3937SOL    HW223274   4.366   2.899  17.069 -0.3071 -0.5602  1.0987
 3938SOL     OW23275   1.202   3.184   2.118 -0.5023 -0.1944 -0.1102
 3938SOL    HW123276   1.196   3.262   2.174  0.8798  1.4928 -2.2987
 3938SOL    HW223277   1.295   3.163   2.122 -0.1480  0.9539 -2.0512
 3939SOL     OW23278   1.426   2.873   7.019 -0.1606 -0.1943  0.1497
 3939SOL    HW123279   1.334   2.891   6.999  0.7193  2.0559 -1.7603
 3939SOL    HW223280   1.431   2.777   7.023 -0.7509 -0.2634 -0.7709
 3940SOL     OW23281   2.184   0.722   1.509 -0.1893  0.3085  0.6870
 3940SOL    HW123282   2.198   0.809   1.545 -0.2403  1.4113 -1.9216
 3940SOL    HW223283   2.170   0.661   1.581  3.4969  1.6079  2.4864
 3941SOL     OW23284   0.581   0.277   2.286 -0.5437  0.1141  0.2285
 3941SOL    HW123285   0.579   0.203   2.225  2.3177  0.9767 -0.9438
 3941SOL    HW223286   0.594   0.342   2.218 -1.3787 -0.2526 -0.2744
 3942SOL     OW23287   4.320   1.903  16.825 -0.3388  0.6160 -0.2082
 3942SOL    HW123288   4.412   1.897  16.801 -0.3527  3.5033 -1.0731
 3942SOL    HW223289   4.330   1.953  16.906 -1.8238  1.3292 -0.4622
 3943SOL     OW23290   3.116   1.010   7.818 -0.5552  0.2087 -0.1058
 3943SOL    HW123291   3.118   0.957   7.897 -0.2631 -0.9781 -0.9062
 3943SOL    HW223292   3.151   1.092   7.851 -1.1961  1.2469 -1.9873
 3944SOL     OW23293   3.630   1.303  12.102 -0.6462  0.5641  0.0751
 3944SOL    HW123294   3.538   1.317  12.080 -0.8280 -1.4100 -0.4465
 3944SOL    HW223295   3.639   1.214  12.067 -0.9669  0.8383 -0.7029
 3945SOL     OW23296   2.539   4.085   0.351  0.6475 -0.2978 -0.1351
 3945SOL    HW123297   2.480   4.137   0.406  1.8561  0.0902  0.7770
 3945SOL    HW223298   2.482   4.042   0.287  1.6979  0.1021 -1.3368
 3946SOL     OW23299   4.041   3.242  17.367 -0.6497 -0.0422  0.2701
 3946SOL    HW123300   4.067   3.259  17.276  1.1577  1.1238  1.0009
 3946SOL    HW223301   4.091   3.311  17.410  0.4343 -0.4857 -0.2794
 3947SOL     OW23302   0.497   2.284   6.391  0.6998 -0.6280 -0.6498
 3947SOL    HW123303   0.588   2.254   6.387  0.1413 -2.4486 -0.0351
 3947SOL    HW223304   0.488   2.297   6.485  0.4863  1.1630 -0.9323
 3948SOL     OW23305   4.293   1.174   7.786  0.4318 -0.2594 -0.1922
 3948SOL    HW123306   4.218   1.199   7.731  0.7732  1.5603  0.1763
 3948SOL    HW223307   4.276   1.080   7.780  2.8890 -0.6128 -1.5687
 3949SOL     OW23308   2.831   4.195   5.102  0.2221  0.4060 -0.1120
 3949SOL    HW123309   2.882   4.274   5.086  1.3070  0.0758  1.7888
 3949SOL    HW223310   2.744   4.233   5.087 -0.3572 -0.9331 -0.1392
 3950SOL     OW23311   3.085   2.947   8.571  0.3878 -0.6455  0.0206
 3950SOL    HW123312   3.013   2.884   8.580 -0.2336  0.0441 -0.1048
 3950SOL    HW223313   3.147   2.894   8.521  0.5117  2.0578 -2.6856
 3951SOL     OW23314   1.970   0.169   8.137  0.2453 -0.5137 -0.3247
 3951SOL    HW123315   1.992   0.257   8.167 -1.3115  0.3688 -1.7799
 3951SOL    HW223316   2.059   0.134   8.142 -0.1308 -1.5699 -1.0525
 3952SOL     OW23317   4.091   3.051   9.166  0.9600 -0.2465 -0.0849
 3952SOL    HW123318   4.117   3.138   9.134  1.5952 -0.2319  0.4695
 3952SOL    HW223319   4.080   3.066   9.260  1.1378  0.4679 -0.1763
 3953SOL     OW23320   4.094   3.106   6.929 -0.7373  0.0616 -0.3155
 3953SOL    HW123321   4.162   3.166   6.899 -0.6654  0.9830  1.6658
 3953SOL    HW223322   4.088   3.153   7.013  1.3847  0.9658 -0.6738
 3954SOL     OW23323   3.187   4.680   4.223 -0.0061  0.4490  0.0923
 3954SOL    HW123324   3.103   4.633   4.227 -0.0121  0.6690  2.7083
 3954SOL    HW223325   3.168   0.018   4.149  3.5489 -0.1602 -1.2910
 3955SOL     OW23326   2.524   0.360  16.667 -0.1135  0.1346  0.0201
 3955SOL    HW123327   2.438   0.400  16.658  0.0468  0.5532  0.3903
 3955SOL    HW223328   2.539   0.318  16.582 -1.0890 -0.8692  0.3455
 3956SOL     OW23329   1.450   0.439  10.845  0.3407  0.3288 -0.1481
 3956SOL    HW123330   1.421   0.492  10.771 -0.2502  0.1892 -0.0140
 3956SOL    HW223331   1.517   0.497  10.881  1.1547 -0.1776 -0.8708
 3957SOL     OW23332   1.282   4.497   3.064  0.0406 -0.0074 -0.6059
 3957SOL    HW123333   1.358   4.555   3.070 -0.3506  0.4971 -0.5165
 3957SOL    HW223334   1.275   4.507   2.969 -0.9710  4.8442 -0.0357
 3958SOL     OW23335   4.416   1.485   8.167 -0.1767 -0.4804  0.5592
 3958SOL    HW123336   4.427   1.410   8.226 -0.7127 -0.8622  0.1855
 3958SOL    HW223337   4.419   1.431   8.087  1.5790  1.0734 -0.4271
 3959SOL     OW23338   2.497   3.101   7.037  0.7399 -0.0630 -0.4757
 3959SOL    HW123339   2.560   3.121   7.106  0.2192  0.3146 -0.1048
 3959SOL    HW223340   2.541   3.081   6.955 -1.4010  0.3935 -1.7295
 3960SOL     OW23341   2.828   4.650   4.056  0.3098  0.0314  0.6013
 3960SOL    HW123342   2.828   4.585   4.126 -1.9029 -2.6425 -1.8483
 3960SOL    HW223343   2.901   4.623   4.000 -0.2745 -0.2213 -0.0475
 3961SOL     OW23344   2.225   2.084   7.671  0.0791  0.0913  0.4877
 3961SOL    HW123345   2.188   2.162   7.714 -0.0042 -0.1937  0.9362
 3961SOL    HW223346   2.250   2.037   7.751 -2.2528  1.8825  2.2792
 3962SOL     OW23347   0.306   1.885   7.938 -0.0517 -0.1354  0.1583
 3962SOL    HW123348   0.242   1.899   7.868 -0.6089 -1.2052  0.4681
 3962SOL    HW223349   0.257   1.834   8.002  0.2426 -0.8482 -0.1823
 3963SOL     OW23350   3.131   1.704   6.919 -0.0328 -0.2521  0.2025
 3963SOL    HW123351   3.162   1.723   6.831 -0.0140 -0.2579  0.2079
 3963SOL    HW223352   3.056   1.646   6.908  1.3397 -2.0940  0.5826
 3964SOL     OW23353   0.247   4.298   6.491 -0.1819 -0.3673 -0.2666
 3964SOL    HW123354   0.240   4.351   6.570  0.5089  0.0023 -0.4555
 3964SOL    HW223355   0.184   4.336   6.429 -0.0908 -1.5113 -1.0630
 3965SOL     OW23356   0.140   0.954  10.964  0.2992  0.0027 -0.0195
 3965SOL    HW123357   0.056   0.994  10.945  1.7781  2.0492 -2.2818
 3965SOL    HW223358   0.200   1.027  10.947 -1.5077  1.4206 -0.2010
 3966SOL     OW23359   2.908   0.708   1.636 -0.0113 -0.2256 -0.1676
 3966SOL    HW123360   2.951   0.661   1.564  0.5711  1.4008 -0.8860
 3966SOL    HW223361   2.816   0.691   1.619  0.1989 -0.8882 -0.6364
 3967SOL     OW23362   3.459   0.854  10.866  0.2787 -0.6507 -1.0891
 3967SOL    HW123363   3.494   0.913  10.932 -1.3445 -1.5193  0.5561
 3967SOL    HW223364   3.364   0.858  10.878  0.3740 -1.5252  0.0328
 3968SOL     OW23365   0.534   1.296  11.752  0.5973  1.0092  0.4931
 3968SOL    HW123366   0.605   1.257  11.701 -0.7980 -0.1637 -0.5433
 3968SOL    HW223367   0.579   1.300  11.837  1.4275 -1.3330  0.1730
 3969SOL     OW23368   2.769   3.433  12.209 -0.2642  0.1182  0.7393
 3969SOL    HW123369   2.806   3.410  12.294 -0.6996 -2.8452  0.1555
 3969SOL    HW223370   2.690   3.379  12.204  1.2240 -1.8667 -1.5857
 3970SOL     OW23371   1.381   3.994  12.464  0.1568  0.2526  0.2873
 3970SOL    HW123372   1.455   4.048  12.437 -0.2166  0.2317 -0.7480
 3970SOL    HW223373   1.362   3.949  12.382  0.6505  1.7681 -0.6561
 3971SOL     OW23374   1.372   4.317   2.766  0.0284  0.7003 -0.3938
 3971SOL    HW123375   1.366   4.233   2.720 -0.2764  0.5453 -0.0621
 3971SOL    HW223376   1.467   4.326   2.754  0.5281 -0.9107  2.5650
 3972SOL     OW23377   3.259   4.714   2.084 -0.5867 -0.0231  0.0320
 3972SOL    HW123378   3.297   4.640   2.037 -0.7325 -0.1490  0.1127
 3972SOL    HW223379   3.239   4.689   2.174  1.3435  0.8606  0.7235
 3973SOL     OW23380   3.216   1.886   6.039 -0.3239 -0.4529 -0.2504
 3973SOL    HW123381   3.253   1.799   6.026  0.1352 -0.4322  0.9375
 3973SOL    HW223382   3.124   1.863   6.032  0.0817 -1.5317 -1.9968
 3974SOL     OW23383   4.138   1.696   1.874 -0.2581 -0.0994 -0.2646
 3974SOL    HW123384   4.189   1.753   1.932  0.1875 -0.5910 -0.1714
 3974SOL    HW223385   4.167   1.730   1.790 -0.6963  2.5599  0.6439
 3975SOL     OW23386   2.661   1.875   0.314  0.0413  0.4133  0.4085
 3975SOL    HW123387   2.655   1.823   0.394 -1.3536  1.6550  1.1225
 3975SOL    HW223388   2.751   1.908   0.315 -0.2780  1.3263 -0.6534
 3976SOL     OW23389   3.658   0.605  10.804  0.2940 -0.8128  0.6651
 3976SOL    HW123390   3.590   0.671  10.788  2.1802  0.3695 -2.5495
 3976SOL    HW223391   3.700   0.590  10.719 -1.1677 -1.7572  0.1013
 3977SOL     OW23392   3.633   2.112   6.502  0.1803 -0.3291 -0.1484
 3977SOL    HW123393   3.646   2.025   6.539  0.4402 -0.4539 -0.5373
 3977SOL    HW223394   3.613   2.156   6.585  1.9207 -1.2288  0.7549
 3978SOL     OW23395   3.024   1.054  16.938 -0.2466 -0.2782 -0.3375
 3978SOL    HW123396   2.967   1.066  17.015 -1.3690  0.8931 -1.3698
 3978SOL    HW223397   3.049   0.961  16.945  1.3209 -0.0127 -2.6985
 3979SOL     OW23398   1.865   2.771  13.964  0.2511 -0.6619 -0.9055
 3979SOL    HW123399   1.795   2.716  13.927 -0.4070 -0.8525  0.6104
 3979SOL    HW223400   1.937   2.754  13.905 -1.5108 -0.5794 -3.0800
 3980SOL     OW23401   1.955   0.130   3.134 -0.3375  0.4012  0.6483
 3980SOL    HW123402   2.015   0.125   3.060 -0.0045 -0.9159  0.9960
 3980SOL    HW223403   1.864   0.137   3.103 -0.8720 -0.2839  2.0594
 3981SOL     OW23404   0.038   3.983   0.277  0.1892 -0.0741  0.0994
 3981SOL    HW123405   0.110   3.998   0.216 -0.2214  0.0155 -0.3625
 3981SOL    HW223406   0.080   3.907   0.316  1.2856  0.5349  0.0932
 3982SOL     OW23407   3.190   1.223  16.821  0.1747 -0.5035  0.2568
 3982SOL    HW123408   3.119   1.273  16.779  2.4540  2.3950 -0.1681
 3982SOL    HW223409   3.145   1.144  16.852 -3.3240  0.7943 -1.4669
 3983SOL     OW23410   4.286   0.443  11.644 -0.6254  0.0079  0.5128
 3983SOL    HW123411   4.303   0.494  11.723  1.7211  1.0093 -0.6686
 3983SOL    HW223412   4.335   0.497  11.583  0.0970 -2.7564 -1.3539
 3984SOL     OW23413   0.774   4.394   8.880  0.6554  0.0639 -0.1212
 3984SOL    HW123414   0.792   4.347   8.962 -0.0562  0.2039  0.1149
 3984SOL    HW223415   0.849   4.364   8.829  0.4198  0.4460 -0.6864
 3985SOL     OW23416   3.130   0.580  13.446 -0.0613  0.4707  0.0163
 3985SOL    HW123417   3.082   0.517  13.391  1.4001 -0.0396 -0.6706
 3985SOL    HW223418   3.149   0.520  13.519  0.4059 -0.8427 -1.1700
 3986SOL     OW23419   0.765   2.406   4.118  0.0368 -0.3607  0.1611
 3986SOL    HW123420   0.835   2.427   4.056  0.3174 -1.4499  0.1079
 3986SOL    HW223421   0.742   2.319   4.085 -2.1817 -0.2022  1.2715
 3987SOL     OW23422   2.940   2.410  14.871 -0.0554  0.8832 -0.1328
 3987SOL    HW123423   2.923   2.440  14.781 -1.0501  1.4050  0.2273
 3987SOL    HW223424   2.946   2.315  14.860 -0.6681  0.6949  1.1118
 3988SOL     OW23425   2.486   2.379  15.134  0.2203  0.1754 -0.2218
 3988SOL    HW123426   2.471   2.443  15.064 -0.0611  1.7707  1.3030
 3988SOL    HW223427   2.580   2.367  15.144  0.1995 -2.4047 -2.8747
 3989SOL     OW23428   3.897   0.245   4.122  0.0559  0.8030  0.2244
 3989SOL    HW123429   3.962   0.211   4.060 -1.8034 -0.9768 -0.7418
 3989SOL    HW223430   3.822   0.205   4.079  0.8672 -1.6409  1.0530
 3990SOL     OW23431   0.388   4.032  15.262 -0.7583 -0.7198  0.2568
 3990SOL    HW123432   0.368   4.049  15.354 -1.3716  2.8289 -0.5547
 3990SOL    HW223433   0.469   3.980  15.268 -0.3814 -0.2075 -0.3502
 3991SOL     OW23434   0.942   0.582   5.283 -0.6683  0.2929 -0.4898
 3991SOL    HW123435   0.906   0.668   5.263  0.4491  0.4236 -1.9368
 3991SOL    HW223436   0.869   0.539   5.328 -0.3764  1.8050  1.4321
 3992SOL     OW23437   3.804   0.746  14.301 -0.0570 -0.0111 -0.0507
 3992SOL    HW123438   3.729   0.800  14.326  0.3558  1.6898 -2.5086
 3992SOL    HW223439   3.787   0.740  14.207 -2.1856  2.3821  0.1830
 3993SOL     OW23440   1.181   2.105   3.980 -0.0018  0.2733 -0.8282
 3993SOL    HW123441   1.160   2.132   4.070  0.5377 -1.3213 -0.2213
 3993SOL    HW223442   1.188   2.186   3.928  2.2665  0.5093 -0.1501
 3994SOL     OW23443   2.010   2.131   6.956  0.0013 -0.2807 -0.6024
 3994SOL    HW123444   1.979   2.135   7.047 -0.4384 -0.7710 -0.7300
 3994SOL    HW223445   2.037   2.223   6.948 -2.7180  0.2908 -3.2976
 3995SOL     OW23446   1.380   1.424   7.033  0.0496  0.2288  0.2474
 3995SOL    HW123447   1.358   1.368   6.958  0.0328  1.0865 -0.3967
 3995SOL    HW223448   1.474   1.437   7.017 -0.5081  2.1788 -1.5162
 3996SOL     OW23449   4.045   1.452   8.027  0.0724 -0.0471 -0.3388
 3996SOL    HW123450   3.966   1.480   7.981 -0.2299  1.3677  1.0352
 3996SOL    HW223451   4.104   1.476   7.956  0.7587 -2.1484 -0.4755
 3997SOL     OW23452   4.547   4.565   7.017  0.1727 -0.4461  0.3938
 3997SOL    HW123453   4.475   4.628   7.022 -0.5369 -1.2660  0.3412
 3997SOL    HW223454   4.512   4.499   7.076 -3.7528  1.0179 -0.3106
 3998SOL     OW23455   1.937   3.570   3.037  0.6790 -0.1540  0.0184
 3998SOL    HW123456   1.914   3.481   3.014  1.0345 -0.7151  1.8084
 3998SOL    HW223457   1.995   3.561   3.113  1.3300 -2.6593 -0.7984
 3999SOL     OW23458   3.068   4.415   5.799  0.0053 -0.3372 -0.0368
 3999SOL    HW123459   3.023   4.334   5.775 -0.3888 -0.3204  0.6212
 3999SOL    HW223460   3.153   4.394   5.838  0.7936  0.0685 -1.5659
 4000SOL     OW23461   2.323   4.620  17.241  0.3082  0.3422  0.4586
 4000SOL    HW123462   2.245   4.649  17.288  0.8204  0.7518  1.0668
 4000SOL    HW223463   2.343   4.702  17.196  2.3333  0.4685  1.5798
 4001SOL     OW23464   0.397   4.269   2.874  0.2635  0.5805 -0.0135
 4001SOL    HW123465   0.363   4.311   2.795  0.5333 -1.5304 -1.2486
 4001SOL    HW223466   0.401   4.343   2.934 -0.7663  0.3640  0.3328
 4002SOL     OW23467   0.140   1.169   0.101 -0.3102  0.6486  0.4313
 4002SOL    HW123468   0.130   1.094   0.159  0.6466  0.8295  0.8329
 4002SOL    HW223469   0.050   1.186   0.074  0.0368 -0.5039 -1.4260
 4003SOL     OW23470   1.005   2.686   6.059  0.0087  1.2362  0.2549
 4003SOL    HW123471   1.021   2.668   6.152 -0.6361 -0.3263  0.0783
 4003SOL    HW223472   1.082   2.733   6.028  0.2283 -0.4468 -1.7444
 4004SOL     OW23473   1.272   0.477   2.079 -0.3459  0.5897 -0.5993
 4004SOL    HW123474   1.207   0.544   2.100  0.0792 -0.0138  2.5339
 4004SOL    HW223475   1.350   0.529   2.061  1.5842 -2.0748  0.0662
 4005SOL     OW23476   2.750   1.990   8.179  0.6248  0.2649 -0.4576
 4005SOL    HW123477   2.685   1.924   8.155  1.4290 -0.3461 -0.9425
 4005SOL    HW223478   2.771   2.038   8.099  1.1361 -0.4433 -0.7429
 4006SOL     OW23479   4.705   2.464   4.751  0.4842 -0.7566  0.7998
 4006SOL    HW123480   4.612   2.484   4.741  0.9658  0.8935 -0.3718
 4006SOL    HW223481   0.008   2.401   4.683 -1.1683 -0.6630  0.1442
 4007SOL     OW23482   0.569   4.064  17.082 -0.4969  0.1262  0.2629
 4007SOL    HW123483   0.482   4.101  17.065 -1.2946 -1.4151  0.9955
 4007SOL    HW223484   0.576   3.997  17.015  0.9254 -0.3382  0.8663
 4008SOL     OW23485   4.702   3.732   0.455  0.0509  0.1838 -0.0765
 4008SOL    HW123486   4.686   3.800   0.521 -2.6344 -0.8745  0.3522
 4008SOL    HW223487   0.070   3.759   0.428  0.0982 -1.0035 -1.1086
 4009SOL     OW23488   1.924   0.393   1.829 -0.1563 -0.7362  0.0137
 4009SOL    HW123489   1.947   0.300   1.838  0.7753 -0.4449  0.4818
 4009SOL    HW223490   1.982   0.439   1.889  0.3142 -0.5152 -0.6100
 4010SOL     OW23491   0.392   4.462  13.844  0.0544 -0.2050  0.1079
 4010SOL    HW123492   0.405   4.505  13.929  0.4782  0.6040 -0.3611
 4010SOL    HW223493   0.418   4.375  13.876 -1.6309 -0.9824 -0.6352
 4011SOL     OW23494   0.342   0.902   8.649  0.3901  0.0908 -0.8501
 4011SOL    HW123495   0.381   0.827   8.604 -1.6758 -2.5330  1.7852
 4011SOL    HW223496   0.318   0.853   8.728 -1.1029  1.5812 -0.3904
 4012SOL     OW23497   2.237   2.014   4.345  0.6777  0.4985  0.0767
 4012SOL    HW123498   2.185   2.087   4.310 -0.9010  0.5071  2.3807
 4012SOL    HW223499   2.217   2.034   4.437  0.1863 -0.8451  0.2615
 4013SOL     OW23500   2.680   4.256  11.691  0.0379  0.1687  0.5860
 4013SOL    HW123501   2.706   4.274  11.782 -2.2918 -1.9099  1.6615
 4013SOL    HW223502   2.759   4.226  11.646  1.1053  1.2790  1.7242
 4014SOL     OW23503   2.903   2.264   1.751  0.4342  0.8834  0.1142
 4014SOL    HW123504   2.949   2.281   1.834  3.3305  1.8494 -1.7097
 4014SOL    HW223505   2.886   2.171   1.769 -1.2812  0.6460 -2.6432
 4015SOL     OW23506   2.387   0.741   6.811  0.4092  0.0362 -0.1689
 4015SOL    HW123507   2.358   0.755   6.901 -2.4364  0.2335 -1.1198
 4015SOL    HW223508   2.318   0.782   6.760  0.8252 -0.9619 -1.5349
 4016SOL     OW23509   3.190   1.558   8.668  0.1008 -0.1907 -0.5310
 4016SOL    HW123510   3.118   1.545   8.729  0.3497 -1.0537 -0.4249
 4016SOL    HW223511   3.252   1.606   8.724  1.8156 -2.2415 -0.6597
 4017SOL     OW23512   1.300   1.812   6.063 -0.4278 -0.3493  0.3217
 4017SOL    HW123513   1.351   1.732   6.076  0.9584  0.0443 -2.7430
 4017SOL    HW223514   1.256   1.828   6.147  0.0301 -1.1744  0.7161
 4018SOL     OW23515   3.301   0.271   4.199  0.3475  0.2065 -0.2995
 4018SOL    HW123516   3.259   0.322   4.130  0.9105  1.5677  0.3541
 4018SOL    HW223517   3.231   0.210   4.222 -0.0397  0.5590 -0.5313
 4019SOL     OW23518   4.230   1.221   1.005  0.3854  0.2079 -0.2617
 4019SOL    HW123519   4.150   1.265   0.977 -0.9940 -1.5943  0.8350
 4019SOL    HW223520   4.261   1.279   1.074 -2.2392  1.6591 -0.2797
 4020SOL     OW23521   0.990   0.007   9.434  0.0502  0.3306  0.1446
 4020SOL    HW123522   0.923   0.065   9.398  0.9564  1.1019 -0.3096
 4020SOL    HW223523   1.048   0.008   9.358 -3.1248  1.0312 -2.2762
 4021SOL     OW23524   4.187   4.328   9.574  0.0365 -0.9647 -0.4496
 4021SOL    HW123525   4.161   4.246   9.531  0.9994 -0.0509 -2.7751
 4021SOL    HW223526   4.280   4.311   9.590 -0.5982 -1.5363  2.5870
 4022SOL     OW23527   2.814   1.327   6.276 -0.4644  0.4653  0.1506
 4022SOL    HW123528   2.904   1.328   6.306 -0.2776  2.5013 -0.4630
 4022SOL    HW223529   2.822   1.293   6.187  0.1508  0.3363  0.2565
 4023SOL     OW23530   1.139   3.414   2.261 -0.0791  0.2225 -0.3187
 4023SOL    HW123531   1.126   3.441   2.352  0.6933  4.6729 -1.5382
 4023SOL    HW223532   1.234   3.417   2.271 -0.0115 -1.2333 -0.4385
 4024SOL     OW23533   1.733   1.681   4.691 -0.1045  0.1666  0.5296
 4024SOL    HW123534   1.652   1.727   4.669 -0.5948 -1.4335 -1.0052
 4024SOL    HW223535   1.798   1.724   4.636 -0.6410  0.3620  0.0460
 4025SOL     OW23536   0.253   2.772   0.384 -0.0952  0.1374  0.0840
 4025SOL    HW123537   0.316   2.716   0.429  0.8995  1.1585 -0.0271
 4025SOL    HW223538   0.270   2.744   0.294 -0.7390 -1.2331  0.3908
 4026SOL     OW23539   1.700   0.300   2.818  0.3305 -0.4622 -0.6431
 4026SOL    HW123540   1.757   0.319   2.743  0.5341 -1.5359 -0.7602
 4026SOL    HW223541   1.753   0.331   2.892 -1.4472  1.7987 -0.3003
 4027SOL     OW23542   0.203   1.787   8.857  0.5804 -0.2342  0.0414
 4027SOL    HW123543   0.226   1.695   8.849  0.4829 -0.3546  1.1662
 4027SOL    HW223544   0.281   1.833   8.889  0.3925 -0.1506  0.3789
 4028SOL     OW23545   1.802   0.837   8.940 -0.2094 -0.2053 -0.0873
 4028SOL    HW123546   1.775   0.751   8.974 -0.3236 -0.3744 -0.6085
 4028SOL    HW223547   1.744   0.896   8.989 -1.5417 -1.3529 -0.2647
 4029SOL     OW23548   4.177   1.871   7.708 -0.0318  0.6573 -0.0834
 4029SOL    HW123549   4.095   1.908   7.740 -1.4939 -2.0239 -0.7305
 4029SOL    HW223550   4.185   1.794   7.765  0.6335  0.5621 -0.3074
 4030SOL     OW23551   3.185   1.543   1.755  0.2302 -0.2547 -0.1203
 4030SOL    HW123552   3.258   1.524   1.813  0.7085  1.2270 -0.2450
 4030SOL    HW223553   3.221   1.626   1.722  1.5275 -0.0375  1.8439
 4031SOL     OW23554   2.318   2.462  10.129 -0.1777 -0.0159 -0.1984
 4031SOL    HW123555   2.299   2.382  10.080  3.2978 -1.2108  0.4217
 4031SOL    HW223556   2.412   2.453  10.144  0.0588 -0.1599 -1.7065
 4032SOL     OW23557   4.550   0.041   6.682 -0.3879  0.5021  0.1917
 4032SOL    HW123558   4.640   0.030   6.649 -0.2482 -0.0509  0.7638
 4032SOL    HW223559   4.534   4.667   6.688 -3.7784  0.9349 -2.0231
 4033SOL     OW23560   0.129   3.911   6.505 -0.5292  0.4646  0.2483
 4033SOL    HW123561   0.157   3.923   6.414  1.8851  0.9288  1.0426
 4033SOL    HW223562   0.197   3.949   6.561 -1.5759  1.7566  0.6421
 4034SOL     OW23563   2.987   2.891   7.962  0.1030 -0.3091  0.6390
 4034SOL    HW123564   2.988   2.810   8.012 -1.6329 -0.9560 -0.3735
 4034SOL    HW223565   3.008   2.863   7.873 -2.7747 -1.2159  0.2281
 4035SOL     OW23566   2.877   2.812   8.331 -0.2229  0.2600 -0.1571
 4035SOL    HW123567   2.788   2.843   8.320 -0.1162  1.3647  2.0640
 4035SOL    HW223568   2.884   2.810   8.427  2.4029 -0.3168 -0.3380
 4036SOL     OW23569   2.520   3.011  15.301 -0.0663 -0.1724 -0.2570
 4036SOL    HW123570   2.431   3.000  15.335 -0.1652  2.3118  0.2269
 4036SOL    HW223571   2.561   2.956  15.368  0.7560  0.9626  0.1748
 4037SOL     OW23572   2.839   4.361   9.566 -0.0996 -0.0457 -0.0752
 4037SOL    HW123573   2.864   4.449   9.541  0.2138 -0.2958 -0.6431
 4037SOL    HW223574   2.843   4.366   9.661  0.5455 -1.0248 -0.0476
 4038SOL     OW23575   0.224   0.911   8.253  0.0010  0.0405 -0.0470
 4038SOL    HW123576   0.182   0.853   8.189  2.1697 -1.4487 -0.0990
 4038SOL    HW223577   0.314   0.879   8.254  0.4083  1.3355  2.5885
 4039SOL     OW23578   4.301   3.555   6.786  0.1342 -0.5786  0.4857
 4039SOL    HW123579   4.317   3.605   6.706  3.0964 -1.1992  0.6803
 4039SOL    HW223580   4.373   3.580   6.844  0.4497  0.0959 -0.1976
 4040SOL     OW23581   0.128   3.900   4.090  0.5885  0.3789 -0.2317
 4040SOL    HW123582   0.089   3.871   4.173 -1.4407 -0.6811 -1.5512
 4040SOL    HW223583   0.091   3.988   4.089  1.9791  0.9741  1.3867
 4041SOL     OW23584   4.344   4.496   6.722 -0.2484  0.8052 -0.2244
 4041SOL    HW123585   4.345   4.473   6.815 -1.0391 -0.3660 -0.5057
 4041SOL    HW223586   4.262   4.546   6.718 -1.6079 -1.5402 -1.4864
 4042SOL     OW23587   3.559   2.775   7.828 -0.1859 -0.4734  0.3607
 4042SOL    HW123588   3.648   2.774   7.795 -0.7601  1.9759 -1.2500
 4042SOL    HW223589   3.575   2.757   7.921 -0.4980  0.8703  0.6833
 4043SOL     OW23590   4.533   3.228  10.561  0.3261 -0.0024  0.4824
 4043SOL    HW123591   4.483   3.146  10.570  0.8514 -0.2072  1.5246
 4043SOL    HW223592   4.495   3.264  10.481  4.2843 -0.9479 -1.8120
 4044SOL     OW23593   3.674   4.169   2.811  0.0605 -0.2547  0.3857
 4044SOL    HW123594   3.767   4.148   2.820 -0.6697 -2.8064  1.8606
 4044SOL    HW223595   3.636   4.102   2.753 -1.0429  1.3399 -0.7312
 4045SOL     OW23596   2.381   3.937   5.927 -0.2780  0.1570 -0.1679
 4045SOL    HW123597   2.287   3.932   5.910 -0.5232  0.4867  1.0721
 4045SOL    HW223598   2.402   4.010   5.869  1.8832 -1.3150 -1.2194
 4046SOL     OW23599   3.411   1.532  16.381 -0.1505 -0.3314 -0.5400
 4046SOL    HW123600   3.506   1.522  16.372 -0.3316 -3.7833  1.4094
 4046SOL    HW223601   3.390   1.583  16.303  2.0591  1.1115 -0.2011
 4047SOL     OW23602   1.915   0.227   0.975  0.6929  0.2035  0.3752
 4047SOL    HW123603   1.895   0.291   1.044 -1.4435 -0.7485  0.6443
 4047SOL    HW223604   1.841   0.167   0.984  1.7758 -1.3230 -1.1874
 4048SOL     OW23605   2.439   1.689   8.209 -0.3670 -0.3972  0.0678
 4048SOL    HW123606   2.523   1.652   8.239 -0.2378 -0.1746 -0.0159
 4048SOL    HW223607   2.378   1.629   8.252  2.3809 -3.1635  0.1442
 4049SOL     OW23608   4.518   1.841   9.524 -0.0158  0.3434  0.1768
 4049SOL    HW123609   4.485   1.915   9.575 -0.6522  0.6994 -0.7537
 4049SOL    HW223610   4.572   1.886   9.459 -0.2931 -0.5200 -0.6359
 4050SOL     OW23611   3.999   3.064   8.413 -0.3452  0.2191  0.0263
 4050SOL    HW123612   4.038   2.984   8.448 -0.3563  0.5908  0.8867
 4050SOL    HW223613   3.912   3.026   8.402  0.4853 -1.4749 -0.7058
 4051SOL     OW23614   1.230   4.004  11.977 -0.7372  1.4307 -0.1758
 4051SOL    HW123615   1.157   3.943  11.975  1.2047 -0.9429  1.6570
 4051SOL    HW223616   1.285   3.965  11.909 -1.6150  0.9087 -0.5762
 4052SOL     OW23617   2.921   0.800  13.315  0.2228  0.5953  0.2777
 4052SOL    HW123618   2.831   0.774  13.295  0.6719  0.5835 -1.7462
 4052SOL    HW223619   2.968   0.718  13.307 -0.7986 -0.0423  0.8770
 4053SOL     OW23620   3.763   2.269   4.915  0.5981 -0.2242  0.7548
 4053SOL    HW123621   3.731   2.194   4.865  0.2815  0.3574  0.0797
 4053SOL    HW223622   3.831   2.300   4.855 -0.5925 -2.3361 -1.6959
 4054SOL     OW23623   2.294   2.596  15.699  0.4199 -0.5688 -0.5295
 4054SOL    HW123624   2.260   2.593  15.788  1.5539  1.0539 -0.0506
 4054SOL    HW223625   2.272   2.683  15.665  0.2092  0.3882  2.0727
 4055SOL     OW23626   1.834   0.206   5.445 -0.4636 -0.0995 -0.7010
 4055SOL    HW123627   1.903   0.237   5.386 -0.7382  0.8685 -0.5157
 4055SOL    HW223628   1.872   0.248   5.523  0.7725  1.1604 -1.9872
 4056SOL     OW23629   2.556   0.308  15.481  0.0332  0.6854  0.1436
 4056SOL    HW123630   2.635   0.352  15.514  0.2110  1.7932 -1.7288
 4056SOL    HW223631   2.561   0.220  15.518 -0.9808 -0.0334 -1.4362
 4057SOL     OW23632   0.880   0.261   4.988  0.1456 -0.3323 -0.0722
 4057SOL    HW123633   0.873   0.258   4.893 -0.0597 -1.2221 -0.0299
 4057SOL    HW223634   0.898   0.355   4.999 -0.4902 -0.1341 -0.7727
 4058SOL     OW23635   1.385   0.715   6.052 -0.0800  0.1813  0.3651
 4058SOL    HW123636   1.349   0.717   6.141 -1.3207  2.5769 -0.1872
 4058SOL    HW223637   1.312   0.742   5.996  1.3079 -0.6174 -1.8219
 4059SOL     OW23638   0.499   4.026   5.106 -0.3493  0.2192  0.2917
 4059SOL    HW123639   0.513   3.953   5.167  2.4267 -0.1680 -0.8473
 4059SOL    HW223640   0.523   4.099   5.163  1.3213  0.5428 -0.8401
 4060SOL     OW23641   3.856   0.556   4.628 -0.1328  0.1655 -0.1889
 4060SOL    HW123642   3.832   0.500   4.554  1.2907 -0.4160 -0.2112
 4060SOL    HW223643   3.834   0.646   4.604 -1.9287 -0.3260 -0.3169
 4061SOL     OW23644   4.013   0.934   1.008  0.3421 -0.4210 -0.4442
 4061SOL    HW123645   3.940   0.985   1.041  1.3277  1.7551 -1.5877
 4061SOL    HW223646   4.061   0.908   1.087  0.3949  2.1696  0.3689
 4062SOL     OW23647   2.197   3.116  11.734  0.0302  0.0240  0.1381
 4062SOL    HW123648   2.289   3.118  11.708 -0.1457 -0.3900 -0.5234
 4062SOL    HW223649   2.202   3.161  11.818 -0.9379  1.7873 -0.7572
 4063SOL     OW23650   3.412   0.653  13.401 -0.2786 -0.2127 -0.0613
 4063SOL    HW123651   3.321   0.625  13.405 -0.8562  1.4802 -1.2279
 4063SOL    HW223652   3.397   0.748  13.399 -0.6991 -0.2276  2.4622
 4064SOL     OW23653   3.805   3.856   0.677  0.0397  0.0983  0.1934
 4064SOL    HW123654   3.862   3.782   0.697  1.2251  1.2406  0.9952
 4064SOL    HW223655   3.813   3.860   0.582 -1.9414 -0.0041  0.0052
 4065SOL     OW23656   4.517   2.613   2.129  0.5033  0.4085 -0.0964
 4065SOL    HW123657   4.501   2.648   2.216 -2.1423  1.3195 -0.9581
 4065SOL    HW223658   4.447   2.549   2.123  0.8876  0.1436 -2.0600
 4066SOL     OW23659   3.481   2.725   4.709  0.0563 -0.1599 -0.3464
 4066SOL    HW123660   3.506   2.640   4.745 -1.3585 -0.8802 -1.0328
 4066SOL    HW223661   3.547   2.734   4.641 -0.9599 -1.4074 -1.5037
 4067SOL     OW23662   0.739   2.003   6.685  0.0290  0.3809 -0.0616
 4067SOL    HW123663   0.660   2.041   6.722 -0.0422  0.7456 -0.5852
 4067SOL    HW223664   0.710   1.913   6.669  1.2789 -0.6793  3.7603
 4068SOL     OW23665   4.190   4.382   6.943  0.0916 -0.3327 -0.0086
 4068SOL    HW123666   4.098   4.408   6.948  0.8288  1.9564  1.5168
 4068SOL    HW223667   4.195   4.323   7.018  0.3315  1.7740  1.6175
 4069SOL     OW23668   0.560   4.618   8.255  0.2135 -0.1081 -0.2231
 4069SOL    HW123669   0.526   4.550   8.312  0.4640  0.4316  0.5626
 4069SOL    HW223670   0.635   4.648   8.306 -0.6792 -0.9594  1.5594
 4070SOL     OW23671   4.162   0.558   3.800  0.4038  0.3177  0.9201
 4070SOL    HW123672   4.150   0.498   3.874  0.9437 -1.4597 -0.4478
 4070SOL    HW223673   4.083   0.547   3.748  2.3178 -1.6863 -1.5153
 4071SOL     OW23674   0.847   4.008   3.729 -0.2244 -0.2037 -0.1873
 4071SOL    HW123675   0.854   4.019   3.634  0.0236 -0.2331 -0.1727
 4071SOL    HW223676   0.848   3.912   3.739  1.3407 -0.3770 -1.9186
 4072SOL     OW23677   4.082   3.960   6.449  0.2904 -0.1286 -0.4792
 4072SOL    HW123678   4.080   3.925   6.538  1.2892 -3.9114 -1.9329
 4072SOL    HW223679   4.127   3.886   6.407  0.8635 -0.4146  0.6321
 4073SOL     OW23680   1.535   3.049   8.940  0.2647  0.2431 -0.2045
 4073SOL    HW123681   1.463   3.058   8.878 -0.8778  1.2113  1.2697
 4073SOL    HW223682   1.509   2.973   8.992  1.1799 -0.1451 -0.3064
 4074SOL     OW23683   1.981   2.393   5.260 -0.1842  0.6071  0.2996
 4074SOL    HW123684   1.997   2.459   5.328 -0.2279  1.9664 -1.0121
 4074SOL    HW223685   2.043   2.323   5.280  0.2599 -0.0907 -3.4479
 4075SOL     OW23686   3.530   2.920   2.008 -0.1786  0.2599 -0.1138
 4075SOL    HW123687   3.487   2.881   1.931 -0.2280  1.0690 -0.4944
 4075SOL    HW223688   3.621   2.904   1.983 -0.1970  1.4240 -0.9206
 4076SOL     OW23689   0.263   1.253   1.693  0.4705 -0.0188 -0.1230
 4076SOL    HW123690   0.321   1.192   1.646 -0.4164 -1.4163  0.6064
 4076SOL    HW223691   0.291   1.245   1.784  0.5583  1.5184 -0.0195
 4077SOL     OW23692   4.066   3.943   7.434 -0.1476 -0.4283  0.6948
 4077SOL    HW123693   4.081   3.863   7.484  1.0050 -0.6802 -0.0584
 4077SOL    HW223694   4.128   4.004   7.475  1.4100 -0.4252 -1.6532
 4078SOL     OW23695   4.448   0.132   5.972  0.8111 -0.5701  0.0409
 4078SOL    HW123696   4.493   0.087   6.044 -0.8497 -0.6683  1.0407
 4078SOL    HW223697   4.509   0.203   5.956  0.9068 -0.7153 -0.2433
 4079SOL     OW23698   4.257   3.505   3.148 -0.1527  0.3627  0.6584
 4079SOL    HW123699   4.316   3.500   3.073  0.3947 -1.8568  1.2323
 4079SOL    HW223700   4.183   3.448   3.131  0.4237 -0.4231  0.7865
 4080SOL     OW23701   0.685   0.446   9.238 -0.2670  0.3653 -0.4939
 4080SOL    HW123702   0.750   0.512   9.262 -0.7428  0.2003  1.1984
 4080SOL    HW223703   0.646   0.479   9.157 -1.7390  1.1016  0.5221
 4081SOL     OW23704   3.386   0.971  12.654 -0.4682 -0.0668 -0.2734
 4081SOL    HW123705   3.426   0.993  12.738  1.0219 -0.2101 -0.9591
 4081SOL    HW223706   3.346   0.891  12.688  1.2137 -0.8893 -0.2267
 4082SOL     OW23707   3.471   4.545  14.266  0.2122 -0.0243  0.3269
 4082SOL    HW123708   3.432   4.488  14.199 -0.5042 -0.1759  0.8708
 4082SOL    HW223709   3.484   4.626  14.217  0.9113  0.9940  2.2220
 4083SOL     OW23710   2.700   2.508   8.757  0.0883  0.6091 -0.1865
 4083SOL    HW123711   2.706   2.441   8.689 -1.9312 -1.5465  1.7436
 4083SOL    HW223712   2.610   2.490   8.786  0.9218 -0.8235  1.5299
 4084SOL     OW23713   1.631   1.444  16.035 -0.4276 -0.5765  0.8834
 4084SOL    HW123714   1.581   1.524  16.050  1.5211  0.8369 -0.1648
 4084SOL    HW223715   1.555   1.387  16.051 -1.1990  0.6069  1.5004
 4085SOL     OW23716   3.724   2.843  12.701  0.0677  0.1790  0.8734
 4085SOL    HW123717   3.666   2.919  12.707 -2.4926 -1.5372 -1.6044
 4085SOL    HW223718   3.663   2.777  12.667  0.4653  0.1683  0.1684
 4086SOL     OW23719   3.143   4.148   2.840  0.1815 -0.1819  0.3311
 4086SOL    HW123720   3.193   4.107   2.769  0.0635  1.9525 -0.9864
 4086SOL    HW223721   3.146   4.081   2.908 -0.0426 -1.2111 -0.6672
 4087SOL     OW23722   3.206   3.811   7.320 -0.0813 -0.0067  0.0569
 4087SOL    HW123723   3.203   3.763   7.237  1.3199  0.5074 -0.2882
 4087SOL    HW223724   3.237   3.896   7.291 -1.2035  0.2151 -0.5085
 4088SOL     OW23725   1.813   3.322   7.588  0.4520  0.4692 -0.6117
 4088SOL    HW123726   1.908   3.316   7.603  0.3925  1.1628  0.0770
 4088SOL    HW223727   1.794   3.398   7.644 -1.6503 -0.3387 -0.2375
 4089SOL     OW23728   2.196   4.401  14.010  0.3860  0.0732  0.4569
 4089SOL    HW123729   2.238   4.382  14.094 -0.0848  0.2022  0.7177
 4089SOL    HW223730   2.219   4.492  13.988 -0.5423  0.1719 -0.0994
 4090SOL     OW23731   3.997   3.146  10.734  0.6955 -0.5096 -0.0372
 4090SOL    HW123732   3.977   3.138  10.641 -0.7130 -1.6680  0.3542
 4090SOL    HW223733   4.049   3.226  10.737 -1.2575  0.7588 -0.4069
 4091SOL     OW23734   0.643   0.566   5.291 -0.5447 -0.2877 -0.1847
 4091SOL    HW123735   0.637   0.580   5.196 -0.4629 -1.4686 -0.3594
 4091SOL    HW223736   0.585   0.631   5.331 -0.0158 -0.7662  1.3394
 4092SOL     OW23737   4.670   3.244   3.659 -0.3594  0.5428 -0.1251
 4092SOL    HW123738   0.019   3.306   3.681  1.1549 -0.1434 -2.9156
 4092SOL    HW223739   4.615   3.308   3.613  0.7122  1.1843 -0.5174
 4093SOL     OW23740   2.071   3.015  13.935  0.2108 -0.8031 -0.2458
 4093SOL    HW123741   1.982   2.983  13.947 -0.7922  1.6336 -1.1940
 4093SOL    HW223742   2.085   3.056  14.020  1.7919  1.4312 -1.5651
 4094SOL     OW23743   0.463   1.277   3.670  0.1911 -0.0922  0.1717
 4094SOL    HW123744   0.491   1.185   3.666  0.3089  0.0161 -1.2539
 4094SOL    HW223745   0.544   1.329   3.674 -1.0652  1.9587 -1.6923
 4095SOL     OW23746   1.552   2.138   3.250 -0.7119  0.0019  0.1907
 4095SOL    HW123747   1.519   2.170   3.166  0.3468 -0.7770 -0.5142
 4095SOL    HW223748   1.508   2.054   3.262 -0.3072 -0.3246 -0.7193
 4096SOL     OW23749   2.938   1.495   6.931 -0.0159  0.0239  0.6742
 4096SOL    HW123750   2.904   1.424   6.876  0.2764  0.6354 -0.2813
 4096SOL    HW223751   2.874   1.495   7.003 -3.4607  1.3693 -2.3682
 4097SOL     OW23752   2.349   2.328   8.475 -0.4301  0.2902  0.1490
 4097SOL    HW123753   2.374   2.408   8.428 -0.7090 -0.6769 -1.6418
 4097SOL    HW223754   2.374   2.357   8.563 -0.9636  0.8031  0.1311
 4098SOL     OW23755   1.917   3.639   2.752 -0.9639 -0.6292 -0.1468
 4098SOL    HW123756   1.949   3.620   2.840 -2.9259 -3.5404 -0.0537
 4098SOL    HW223757   1.835   3.687   2.760 -0.7994 -0.0748 -1.7712
 4099SOL     OW23758   2.355   1.944   8.882 -0.0661  0.2921 -0.0680
 4099SOL    HW123759   2.348   1.898   8.965 -1.3060  1.1480  0.2866
 4099SOL    HW223760   2.441   1.915   8.850  1.4733  1.2670  3.2770
 4100SOL     OW23761   1.598   0.310  16.935  0.4290  0.3393 -0.7058
 4100SOL    HW123762   1.586   0.381  16.872 -0.9370 -0.3977 -1.2639
 4100SOL    HW223763   1.622   0.237  16.878 -1.9192 -0.5054 -0.5978
 4101SOL     OW23764   0.422   2.703   5.486 -0.3532 -0.6424  0.1143
 4101SOL    HW123765   0.436   2.639   5.416 -0.4882  0.8695 -1.2942
 4101SOL    HW223766   0.357   2.762   5.447 -1.1994 -1.5303  0.1694
 4102SOL     OW23767   4.336   1.435   1.426 -0.2913 -0.1488 -0.3881
 4102SOL    HW123768   4.384   1.513   1.398 -3.2311  1.7298 -0.2288
 4102SOL    HW223769   4.405   1.370   1.418 -2.1294 -2.1783  0.2965
 4103SOL     OW23770   4.480   3.656   7.426  0.0342 -0.4951 -0.4988
 4103SOL    HW123771   4.459   3.571   7.388 -2.4829 -1.2262  2.5460
 4103SOL    HW223772   4.523   3.632   7.509  0.7163 -0.3040 -0.7924
 4104SOL     OW23773   4.257   4.113  10.815  0.1533 -0.7998  0.0623
 4104SOL    HW123774   4.322   4.048  10.844 -0.1040 -0.8918  0.4373
 4104SOL    HW223775   4.184   4.053  10.803  0.8887 -1.8921  1.0174
 4105SOL     OW23776   1.669   1.391  17.531 -0.0615  0.4387 -0.9061
 4105SOL    HW123777   1.598   1.434  17.482 -2.1555 -1.1204  0.7920
 4105SOL    HW223778   1.666   1.433  17.617  1.6443 -0.0439 -0.6205
 4106SOL     OW23779   3.459   0.632   4.315 -0.5390  0.1632 -0.2143
 4106SOL    HW123780   3.483   0.712   4.362 -0.4909  1.3382 -2.2598
 4106SOL    HW223781   3.370   0.644   4.281 -1.3995 -2.6853  1.0378
 4107SOL     OW23782   1.260   3.066   5.887  0.3909  0.1782 -0.4398
 4107SOL    HW123783   1.320   3.024   5.826 -0.1092 -2.9316  1.2146
 4107SOL    HW223784   1.311   3.059   5.968 -0.7231  0.9852  0.3323
 4108SOL     OW23785   2.911   2.930   5.187 -0.2265  0.1038 -0.5244
 4108SOL    HW123786   2.869   3.012   5.162 -0.4018  0.6389  1.5976
 4108SOL    HW223787   2.882   2.924   5.278 -1.0122 -0.0369 -0.7822
 4109SOL     OW23788   3.122   2.683  13.571 -0.2836 -0.1839 -0.1951
 4109SOL    HW123789   3.158   2.645  13.651 -0.7200  1.0071  0.5595
 4109SOL    HW223790   3.127   2.777  13.585  0.8849 -0.3556  0.5846
 4110SOL     OW23791   1.636   0.969   2.559  0.1756 -0.8242 -0.4479
 4110SOL    HW123792   1.698   0.966   2.485  0.8603  1.6559  0.0351
 4110SOL    HW223793   1.567   0.922   2.513 -2.1782  0.5263  1.7192
 4111SOL     OW23794   3.426   3.125   8.409  0.0880  0.2062 -0.6170
 4111SOL    HW123795   3.484   3.079   8.347  1.7304 -0.8462  1.7065
 4111SOL    HW223796   3.442   3.082   8.493 -3.0668 -0.2586 -0.2407
 4112SOL     OW23797   3.733   4.382  16.955 -0.1373 -0.3105  0.0441
 4112SOL    HW123798   3.798   4.451  16.965  2.2490 -2.2610 -2.2728
 4112SOL    HW223799   3.753   4.356  16.865 -1.5338  1.4000 -0.7613
 4113SOL     OW23800   1.791   3.595   4.106 -0.3923  0.3917  0.1419
 4113SOL    HW123801   1.713   3.614   4.158  0.3432  0.4395  1.2112
 4113SOL    HW223802   1.781   3.652   4.029  0.8280  0.6458  0.1721
 4114SOL     OW23803   3.804   3.570   6.846 -0.2194  0.0667 -0.0267
 4114SOL    HW123804   3.724   3.544   6.800 -1.1652 -0.4706  1.9398
 4114SOL    HW223805   3.840   3.482   6.856  2.5456  1.5544  3.1542
 4115SOL     OW23806   1.864   4.184   3.591  0.2088  0.3479  0.5256
 4115SOL    HW123807   1.930   4.221   3.650  0.9826  1.6098 -1.1219
 4115SOL    HW223808   1.921   4.150   3.522 -0.8395  0.8123 -0.5780
 4116SOL     OW23809   1.364   2.017  15.646 -0.4785 -1.1988  0.4403
 4116SOL    HW123810   1.284   2.066  15.665  0.4030  1.1572 -1.8897
 4116SOL    HW223811   1.339   1.978  15.562  0.0485  0.2469 -0.3962
 4117SOL     OW23812   1.635   3.186  13.130  0.0718  0.8025 -0.0337
 4117SOL    HW123813   1.706   3.210  13.191  1.5447  3.7988 -2.9498
 4117SOL    HW223814   1.678   3.114  13.084 -0.0905  1.1285 -0.6898
 4118SOL     OW23815   3.075   3.709  11.335  0.0383 -0.0742  0.1061
 4118SOL    HW123816   3.038   3.787  11.294  0.2353  0.2529  0.5534
 4118SOL    HW223817   3.149   3.686  11.280  0.5798 -0.9091  1.1778
 4119SOL     OW23818   2.243   2.196   8.807  0.1733  0.2126  0.5697
 4119SOL    HW123819   2.277   2.110   8.831  0.7562  0.7290  1.5938
 4119SOL    HW223820   2.174   2.199   8.873  2.2699 -1.1236  2.7870
 4120SOL     OW23821   0.380   0.449   7.023 -0.1652  0.6716  0.0154
 4120SOL    HW123822   0.306   0.399   7.056  1.6014 -1.3855  0.8994
 4120SOL    HW223823   0.450   0.385   7.040  0.4113  0.6961 -2.1272
 4121SOL     OW23824   3.288   4.613  10.628 -0.0909  0.2367 -0.2536
 4121SOL    HW123825   3.345   4.572  10.693  0.6407 -1.2124 -1.8404
 4121SOL    HW223826   3.300   4.560  10.550  1.6870  1.7483 -1.0139
 4122SOL     OW23827   2.922   0.860   3.230  0.3775 -0.0308  0.0827
 4122SOL    HW123828   2.932   0.772   3.195 -1.1135  0.0119 -0.4284
 4122SOL    HW223829   2.838   0.869   3.276  0.9977 -1.4707  1.4747
 4123SOL     OW23830   0.681   4.669   9.246  0.1815 -0.0288 -0.3028
 4123SOL    HW123831   0.669   4.589   9.298  2.1210 -0.0847  0.0283
 4123SOL    HW223832   0.774   4.673   9.225  0.5115  0.6765  1.2475
 4124SOL     OW23833   3.477   4.193   3.851  0.0568 -0.2125 -0.1300
 4124SOL    HW123834   3.441   4.200   3.940 -0.2387  2.1712 -0.4429
 4124SOL    HW223835   3.446   4.278   3.821  2.5887 -0.3078 -3.0240
 4125SOL     OW23836   1.924   2.034   5.556  0.2635  0.1696 -0.2183
 4125SOL    HW123837   1.878   2.116   5.542  0.6640 -0.0788 -3.0615
 4125SOL    HW223838   1.855   1.967   5.558  0.7911 -0.4478 -1.8804
 4126SOL     OW23839   1.080   4.349   4.765 -0.0833  0.0031  0.2854
 4126SOL    HW123840   1.043   4.263   4.786  0.7883 -0.9115 -1.9503
 4126SOL    HW223841   1.004   4.402   4.790 -2.0523 -3.1530  1.0355
 4127SOL     OW23842   3.860   4.132   2.543  1.1338  0.0366  0.0520
 4127SOL    HW123843   3.924   4.064   2.564  0.6352 -0.1090  1.0812
 4127SOL    HW223844   3.891   4.208   2.592  0.0897 -0.0898  0.9211
 4128SOL     OW23845   0.065   3.329   2.291  0.2739 -0.4136  0.5394
 4128SOL    HW123846   0.038   3.239   2.274 -0.2305 -0.2394  0.4300
 4128SOL    HW223847   0.159   3.313   2.296  0.3106 -0.4394 -0.2036
 4129SOL     OW23848   1.841   1.180  17.466  0.1363 -1.0991 -0.2092
 4129SOL    HW123849   1.790   1.256  17.495  0.6456 -0.9830  0.3780
 4129SOL    HW223850   1.890   1.154  17.544  1.2445  0.3350 -0.4329
 4130SOL     OW23851   4.115   0.638  17.489 -0.0496  0.5214 -0.5257
 4130SOL    HW123852   4.097   0.640  17.395  1.4636  1.6246 -0.8003
 4130SOL    HW223853   4.168   0.559  17.499 -0.4231  0.0271 -2.4022
 4131SOL     OW23854   1.551   2.232   4.052 -0.1366 -0.3387  0.0188
 4131SOL    HW123855   1.613   2.223   3.980  1.3561 -2.1123  1.5140
 4131SOL    HW223856   1.525   2.323   4.035 -0.9948 -0.8532 -1.3340
 4132SOL     OW23857   3.190   4.127   6.062 -0.4001  0.0475 -0.3917
 4132SOL    HW123858   3.120   4.137   6.127 -1.4034 -0.7373 -1.3474
 4132SOL    HW223859   3.199   4.216   6.030  1.4133  0.2398  0.6451
 4133SOL     OW23860   0.856   2.141   7.354 -0.3002  0.1183  0.3427
 4133SOL    HW123861   0.887   2.073   7.294 -0.4854  0.6355 -0.3393
 4133SOL    HW223862   0.910   2.213   7.322 -0.4517  0.3184  0.5387
 4134SOL     OW23863   3.799   1.844   1.951  0.2906  0.5649  0.5353
 4134SOL    HW123864   3.751   1.837   2.033  1.2552 -0.2627  1.0291
 4134SOL    HW223865   3.831   1.755   1.947 -2.3829 -0.3549 -0.4158
 4135SOL     OW23866   2.380   0.848   9.151  0.0527 -0.0664 -0.6351
 4135SOL    HW123867   2.377   0.752   9.161  2.1135 -0.2374 -1.8288
 4135SOL    HW223868   2.386   0.869   9.244  2.6629 -0.2095 -0.7727
 4136SOL     OW23869   2.283   4.139   8.137  0.0177 -0.2461  0.7421
 4136SOL    HW123870   2.359   4.168   8.087 -2.9013  1.8455 -2.4901
 4136SOL    HW223871   2.324   4.097   8.213  1.4182 -0.2504 -0.0151
 4137SOL     OW23872   3.982   0.140   6.169 -0.7549  0.3651 -0.3090
 4137SOL    HW123873   4.052   0.126   6.105  0.0079 -0.1205  0.6335
 4137SOL    HW223874   3.996   0.235   6.169  1.5973 -0.0010  1.1454
 4138SOL     OW23875   0.596   2.457   5.891 -0.0734  0.2879 -0.4390
 4138SOL    HW123876   0.575   2.531   5.834  1.8159  1.0209 -0.1788
 4138SOL    HW223877   0.687   2.474   5.914 -0.6271  2.2150  0.2944
 4139SOL     OW23878   2.177   3.177   1.072  0.0164 -0.1995  0.4536
 4139SOL    HW123879   2.090   3.217   1.067  1.0058  1.7006 -1.5559
 4139SOL    HW223880   2.166   3.133   1.156 -0.7324 -1.0951 -0.1160
 4140SOL     OW23881   3.785   4.158  11.154  0.5583 -0.0188 -0.4125
 4140SOL    HW123882   3.868   4.112  11.142 -0.0231 -0.9344 -0.9702
 4140SOL    HW223883   3.730   4.095  11.201  0.1464  0.0987 -0.7353
 4141SOL     OW23884   1.208   3.764   8.695 -0.2987 -0.2260  0.4533
 4141SOL    HW123885   1.129   3.788   8.646 -0.8925  0.4340  1.7132
 4141SOL    HW223886   1.271   3.825   8.658 -0.5066  0.7113  1.6131
 4142SOL     OW23887   2.326   0.681   2.086 -0.7238 -0.6479 -0.3726
 4142SOL    HW123888   2.303   0.734   2.010 -1.9915 -0.5560  0.0765
 4142SOL    HW223889   2.383   0.614   2.048  0.4238 -1.0122  1.9589
 4143SOL     OW23890   1.948   2.697   8.164  0.4042  0.1765  0.0188
 4143SOL    HW123891   1.899   2.616   8.175 -1.3928  1.1475 -0.8251
 4143SOL    HW223892   2.002   2.686   8.243  0.0581  0.4059  0.2912
 4144SOL     OW23893   4.476   1.403   5.093  0.6285 -0.0403 -0.7173
 4144SOL    HW123894   4.538   1.427   5.024  0.2218 -0.7065 -1.3206
 4144SOL    HW223895   4.523   1.451   5.161  1.3880 -2.7236  0.6491
 4145SOL     OW23896   1.258   4.368  15.605  0.8083 -0.1733 -0.3401
 4145SOL    HW123897   1.267   4.272  15.608  1.9558 -0.0023  1.1330
 4145SOL    HW223898   1.262   4.374  15.509 -0.9770 -2.5081 -0.5749
 4146SOL     OW23899   0.849   3.982  17.659 -0.2801 -0.2163 -0.0467
 4146SOL    HW123900   0.883   3.957  17.573  1.9414  1.8819  0.2220
 4146SOL    HW223901   0.817   4.068  17.634 -0.7080 -0.3402  0.0570
 4147SOL     OW23902   1.690   0.353   4.057  0.3594  0.1514 -0.1069
 4147SOL    HW123903   1.703   0.421   4.124 -1.8016  1.1044 -0.6580
 4147SOL    HW223904   1.646   0.283   4.106  0.1637  1.1988  1.2328
 4148SOL     OW23905   4.596   4.244  10.984  0.4430  0.0586  0.4752
 4148SOL    HW123906   4.649   4.323  10.975 -1.2679  0.9161 -2.1467
 4148SOL    HW223907   4.671   4.185  10.976  1.1565  1.2897 -1.9060
 4149SOL     OW23908   4.004   2.119   3.441  0.3467  0.3956 -0.5668
 4149SOL    HW123909   3.962   2.046   3.395 -0.6903 -0.1045  1.2085
 4149SOL    HW223910   4.052   2.070   3.508 -2.9884  0.5291  1.9185
 4150SOL     OW23911   4.460   4.387   6.503 -0.3226  0.0983 -0.1732
 4150SOL    HW123912   4.409   4.407   6.581 -1.3950 -3.1049 -0.0393
 4150SOL    HW223913   4.511   4.309   6.525  2.1932  1.5139 -0.9275
 4151SOL     OW23914   3.356   4.201   6.659 -0.0930 -0.0417 -0.2235
 4151SOL    HW123915   3.446   4.222   6.680 -0.1215  1.5760 -1.7250
 4151SOL    HW223916   3.336   4.271   6.597  1.1086  0.3535 -0.1488
 4152SOL     OW23917   1.915   3.244   8.193 -0.1824 -0.0901 -0.2489
 4152SOL    HW123918   1.825   3.217   8.174 -0.4820  0.0172  1.0438
 4152SOL    HW223919   1.960   3.169   8.154 -1.8290 -1.4555  0.4861
 4153SOL     OW23920   1.372   4.289   7.758 -0.0270  0.0752  0.1426
 4153SOL    HW123921   1.350   4.307   7.850  3.5385 -0.8058  1.2042
 4153SOL    HW223922   1.431   4.363   7.741 -3.3024  2.6869  0.1440
 4154SOL     OW23923   3.378   4.351   4.351 -0.0343  0.1894  0.2563
 4154SOL    HW123924   3.401   4.324   4.440  2.6627 -0.1535 -0.5288
 4154SOL    HW223925   3.283   4.346   4.352 -0.2295  3.4459 -1.0853
 4155SOL     OW23926   0.713   3.791   7.891 -0.0418 -0.2510 -0.3394
 4155SOL    HW123927   0.697   3.698   7.875 -3.0493  0.3195 -0.5095
 4155SOL    HW223928   0.658   3.803   7.968 -0.2908 -0.7253 -0.4459
 4156SOL     OW23929   4.717   0.878   3.803  0.1580  0.3241 -0.0986
 4156SOL    HW123930   0.088   0.906   3.814  0.9311 -2.0488 -0.4371
 4156SOL    HW223931   0.008   0.836   3.718  1.0044 -1.0935  0.7223
 4157SOL     OW23932   3.324   4.480  16.423 -0.3746  0.7312 -0.6717
 4157SOL    HW123933   3.408   4.435  16.422 -0.6052  0.2652  1.1163
 4157SOL    HW223934   3.272   4.428  16.361  0.1189  0.2599 -0.6940
 4158SOL     OW23935   3.241   0.863   5.373 -0.1341 -1.2295 -0.2263
 4158SOL    HW123936   3.174   0.851   5.441  0.7792  0.9943  1.0728
 4158SOL    HW223937   3.189   0.908   5.307 -2.1597 -1.8699  0.9553
 4159SOL     OW23938   3.611   1.721   4.417 -0.2178  0.2707 -0.1815
 4159SOL    HW123939   3.635   1.756   4.332  2.2230  0.7076  0.6934
 4159SOL    HW223940   3.678   1.750   4.479 -1.2944  1.0689  0.6039
 4160SOL     OW23941   0.387   0.037  14.443  0.6884 -0.8186 -0.7033
 4160SOL    HW123942   0.470   0.086  14.446 -0.7824  1.5018  2.2106
 4160SOL    HW223943   0.343   0.061  14.362 -0.4769 -0.9411 -0.0947
 4161SOL     OW23944   1.356   3.760  13.994 -0.3690 -0.1247  0.3127
 4161SOL    HW123945   1.287   3.825  13.981 -1.7243 -1.3947  1.1307
 4161SOL    HW223946   1.340   3.721  14.080 -1.0896 -0.1005  0.1881
 4162SOL     OW23947   0.462   0.889  14.461 -0.0017 -0.1649 -0.4061
 4162SOL    HW123948   0.486   0.832  14.534  1.8540 -1.4379 -2.0229
 4162SOL    HW223949   0.537   0.949  14.467 -1.5397  1.8706 -1.3381
 4163SOL     OW23950   0.154   4.298  10.497  0.1115  0.7762  0.2223
 4163SOL    HW123951   0.188   4.249  10.572 -0.3959 -2.4201 -1.6133
 4163SOL    HW223952   0.228   4.348  10.461  0.6339  1.2045  1.9110
 4164SOL     OW23953   0.633   3.755  13.047  0.2659 -0.4983 -0.2793
 4164SOL    HW123954   0.603   3.796  12.966 -4.4033 -1.6739  0.8506
 4164SOL    HW223955   0.547   3.728  13.081 -0.1913 -0.0426 -1.0751
 4165SOL     OW23956   1.170   1.535  13.441  0.6194 -0.5533 -0.0497
 4165SOL    HW123957   1.096   1.498  13.490 -0.0719 -1.4552 -1.7806
 4165SOL    HW223958   1.170   1.623  13.479 -1.0918 -0.9701  0.9168
 4166SOL     OW23959   3.219   3.805   7.851 -0.3923 -0.1779 -0.1823
 4166SOL    HW123960   3.240   3.797   7.758  0.7699  0.1818  0.0446
 4166SOL    HW223961   3.270   3.731   7.884  1.2949  0.9554 -0.2170
 4167SOL     OW23962   2.001   0.435   8.169 -0.0111 -0.0126  0.3338
 4167SOL    HW123963   1.919   0.466   8.131 -0.0727 -0.3779  0.1649
 4167SOL    HW223964   2.059   0.491   8.117  0.5606 -0.9136 -0.0126
 4168SOL     OW23965   1.900   0.560   2.181 -0.2339 -0.7780  0.0179
 4168SOL    HW123966   1.922   0.470   2.206 -1.0023 -0.4134  1.9548
 4168SOL    HW223967   1.942   0.540   2.097  1.3085 -1.7228  1.0011
 4169SOL     OW23968   0.500   0.442   7.541  0.0180 -0.0698  0.3425
 4169SOL    HW123969   0.522   0.531   7.511  1.2233 -0.0149  1.3824
 4169SOL    HW223970   0.522   0.397   7.460 -1.5928  0.5892 -0.4637
 4170SOL     OW23971   4.614   2.097   5.131  0.0036  0.0186  0.6967
 4170SOL    HW123972   4.545   2.150   5.090 -0.1631 -0.3889  0.4429
 4170SOL    HW223973   4.567   2.062   5.207  0.7708  0.7596  1.5096
 4171SOL     OW23974   0.552   3.801   1.814  0.2066  0.0783 -0.8254
 4171SOL    HW123975   0.575   3.874   1.872 -0.1958  0.0346 -0.6110
 4171SOL    HW223976   0.627   3.745   1.832 -0.2269 -0.2245  0.0297
 4172SOL     OW23977   4.070   4.671   7.293 -0.2129 -0.6610  0.1415
 4172SOL    HW123978   4.166   4.672   7.284 -0.1582 -0.9500  0.6851
 4172SOL    HW223979   4.049   0.034   7.335 -0.5686 -1.1132  0.8425
 4173SOL     OW23980   4.128   3.461   4.707 -0.5546  0.0965 -0.0431
 4173SOL    HW123981   4.043   3.476   4.747 -1.6845 -0.0019 -2.4353
 4173SOL    HW223982   4.187   3.451   4.782 -0.4206 -1.8710 -0.4009
 4174SOL     OW23983   4.013   2.254  16.662 -0.1533 -0.3851  0.4707
 4174SOL    HW123984   3.981   2.319  16.600  1.1602 -1.0515 -0.9112
 4174SOL    HW223985   4.075   2.316  16.702 -0.0663  0.4335 -0.9543
 4175SOL     OW23986   3.593   2.874   4.037 -0.2460 -0.2159 -0.8477
 4175SOL    HW123987   3.552   2.959   4.048 -1.8357 -0.8083 -2.0726
 4175SOL    HW223988   3.686   2.889   4.052 -0.1618  1.2269 -2.8365
 4176SOL     OW23989   3.954   2.307   3.739 -0.2564  0.1254 -0.4116
 4176SOL    HW123990   3.880   2.269   3.692  1.1308 -1.9430 -0.9524
 4176SOL    HW223991   3.964   2.388   3.687 -0.9330 -0.0474 -0.8051
 4177SOL     OW23992   1.777   0.904   7.202  0.3750 -0.0034  1.0200
 4177SOL    HW123993   1.815   0.953   7.275 -1.3893  0.9242  1.3115
 4177SOL    HW223994   1.687   0.934   7.211  0.5726  0.9775 -0.1991
 4178SOL     OW23995   3.781   4.144   1.448  0.0069  0.4336 -0.0413
 4178SOL    HW123996   3.723   4.096   1.506 -0.1179  0.5972 -0.0312
 4178SOL    HW223997   3.798   4.218   1.506 -1.7195  0.4047  0.4865
 4179SOL     OW23998   4.374   3.753   3.788 -0.1853 -0.7110 -0.0848
 4179SOL    HW123999   4.402   3.831   3.742  0.7794  0.2033  2.0364
 4179SOL    HW224000   4.384   3.681   3.725  0.6291  1.3150 -2.2315
 4180SOL     OW24001   0.255   2.243  16.116 -0.2001 -0.5987  0.4925
 4180SOL    HW124002   0.212   2.286  16.190  0.9032  1.4298 -0.0458
 4180SOL    HW224003   0.253   2.150  16.139  1.3436 -0.5877  0.6565
 4181SOL     OW24004   0.619   1.298  12.005 -0.0015 -0.3927 -0.6206
 4181SOL    HW124005   0.713   1.307  12.024 -0.0596 -1.2920  0.1033
 4181SOL    HW224006   0.573   1.339  12.077  0.0377  1.3183 -1.5725
 4182SOL     OW24007   0.926   1.730   8.315 -0.4125 -0.2957  0.1528
 4182SOL    HW124008   0.947   1.804   8.258  1.8451 -1.2046 -0.1775
 4182SOL    HW224009   0.858   1.764   8.374  1.1514  3.2430 -0.0902
 4183SOL     OW24010   1.152   2.728   7.182 -0.7266  0.1463  0.3686
 4183SOL    HW124011   1.088   2.799   7.178 -0.8860 -0.0395 -0.4388
 4183SOL    HW224012   1.179   2.725   7.273  2.3481  2.1115 -0.4651
 4184SOL     OW24013   4.220   0.782   5.858  0.0257 -0.2659 -0.7422
 4184SOL    HW124014   4.230   0.730   5.937  1.2520  0.2816 -0.5415
 4184SOL    HW224015   4.250   0.870   5.879 -0.5930 -0.6661  1.8197
 4185SOL     OW24016   0.607   0.104   7.483 -0.7225  0.3097 -0.6562
 4185SOL    HW124017   0.522   0.102   7.527  0.3390 -1.6783  1.3184
 4185SOL    HW224018   0.665   0.104   7.559 -0.6543  1.0020 -0.7075
 4186SOL     OW24019   3.146   0.231   8.504  0.0398  0.4116 -0.2493
 4186SOL    HW124020   3.122   0.318   8.473 -0.7809 -0.1697 -1.2660
 4186SOL    HW224021   3.114   0.242   8.594  3.2298  0.0425  0.9137
 4187SOL     OW24022   0.844   0.107   9.876  0.5925 -0.0691  0.0083
 4187SOL    HW124023   0.870   0.018   9.898  0.3152 -0.8406 -2.8063
 4187SOL    HW224024   0.821   0.089   9.785  0.0191  1.8815 -0.2522
 4188SOL     OW24025   3.998   3.321   2.449 -0.4914 -0.3155  0.2634
 4188SOL    HW124026   4.091   3.338   2.460 -0.3777 -0.9863  0.3746
 4188SOL    HW224027   3.980   3.240   2.497  0.0511 -0.8523 -0.4233
 4189SOL     OW24028   1.167   0.785   0.243 -0.5761  0.0262  0.3396
 4189SOL    HW124029   1.245   0.746   0.282 -1.1845  0.0864  1.5949
 4189SOL    HW224030   1.204   0.869   0.216  0.1963 -0.0858  1.0835
 4190SOL     OW24031   0.604   0.165   4.926  0.0161  0.3575  0.0319
 4190SOL    HW124032   0.675   0.212   4.969 -0.7210 -0.6344  2.3256
 4190SOL    HW224033   0.620   0.193   4.836 -0.6875 -0.7321 -0.4443
 4191SOL     OW24034   1.596   3.919  15.215  0.4819 -1.0390 -0.6715
 4191SOL    HW124035   1.530   3.924  15.146  2.7878 -1.0594 -2.8813
 4191SOL    HW224036   1.623   4.011  15.215  0.8194 -1.1366 -1.8306
 4192SOL     OW24037   2.220   2.940  13.017  0.2640  0.2197  0.3550
 4192SOL    HW124038   2.275   2.870  13.053  0.0759 -0.9400 -1.6647
 4192SOL    HW224039   2.178   2.910  12.937  1.1482 -2.2654  0.8295
 4193SOL     OW24040   3.563   3.496   7.367  0.0800  0.4790  1.2590
 4193SOL    HW124041   3.474   3.484   7.333  0.2802  3.4476 -0.2771
 4193SOL    HW224042   3.552   3.582   7.408 -1.6023  0.7883  0.1694
 4194SOL     OW24043   3.482   2.158   0.346  0.4042  0.1171  0.1063
 4194SOL    HW124044   3.537   2.177   0.422  1.8179  0.0885 -0.9030
 4194SOL    HW224045   3.435   2.241   0.343  1.2127  0.6106  1.3483
 4195SOL     OW24046   0.368   0.509  11.827  0.3845 -0.7169  0.1061
 4195SOL    HW124047   0.462   0.498  11.816  0.7865  1.6767  1.2288
 4195SOL    HW224048   0.357   0.603  11.840  0.9858 -0.7810  1.1116
 4196SOL     OW24049   2.704   2.738  14.683 -0.0745  0.4387 -0.2728
 4196SOL    HW124050   2.655   2.658  14.701 -0.9181  1.5696  2.3504
 4196SOL    HW224051   2.775   2.700  14.630 -0.0836 -1.6795  1.2426
 4197SOL     OW24052   3.872   1.642  12.947  0.1406 -0.1084 -0.2135
 4197SOL    HW124053   3.961   1.609  12.957  0.8197  1.4960 -0.8926
 4197SOL    HW224054   3.860   1.689  13.029 -0.1399  2.6020 -1.7878
 4198SOL     OW24055   4.312   1.878   1.696 -0.1881 -0.3935 -0.2721
 4198SOL    HW124056   4.334   1.842   1.610  1.0333  1.1014 -0.5908
 4198SOL    HW224057   4.245   1.945   1.686  0.9739  0.9164  0.7403
 4199SOL     OW24058   1.465   0.060  15.768  0.1634  0.4664 -0.1021
 4199SOL    HW124059   1.529   4.710  15.763 -1.5280 -1.0438 -0.6391
 4199SOL    HW224060   1.388   0.007  15.788 -0.1688  1.2740  0.7426
 4200SOL     OW24061   3.436   1.220   3.546 -0.4205 -0.1069 -0.4768
 4200SOL    HW124062   3.450   1.136   3.589 -0.2830 -0.7205 -1.7216
 4200SOL    HW224063   3.372   1.198   3.478 -0.3534  1.7347 -1.1602
 4201SOL     OW24064   0.005   1.054  11.917  0.1845  0.1249  0.0005
 4201SOL    HW124065   4.676   0.987  11.965 -1.9325  2.2823  0.8421
 4201SOL    HW224066   0.094   1.039  11.950  0.0926  0.5977  0.4711
 4202SOL     OW24067   2.885   2.248   7.289  0.2913 -0.3160  0.2885
 4202SOL    HW124068   2.889   2.278   7.198 -0.5699  3.4379  1.4818
 4202SOL    HW224069   2.818   2.180   7.295  1.0919 -1.2475 -1.5992
 4203SOL     OW24070   1.573   2.050  10.672  0.4475 -0.3687 -0.0255
 4203SOL    HW124071   1.586   2.133  10.719  0.3137 -1.7132  2.3894
 4203SOL    HW224072   1.486   2.027  10.705  0.3866  0.5974  0.5006
 4204SOL     OW24073   1.802   3.058   1.774  0.0693  0.2236  0.0022
 4204SOL    HW124074   1.896   3.052   1.755 -0.2849 -2.7431 -0.7006
 4204SOL    HW224075   1.773   3.115   1.703 -0.8258 -1.3976 -0.9159
 4205SOL     OW24076   2.990   0.977   1.562  1.0116 -0.0444 -0.0619
 4205SOL    HW124077   2.926   0.912   1.533 -0.5094  0.4141  2.2174
 4205SOL    HW224078   3.005   1.025   1.481  0.5704  0.8447  0.3801
 4206SOL     OW24079   2.593   0.398   4.198 -0.2075 -0.1513  0.2537
 4206SOL    HW124080   2.626   0.320   4.154 -2.3977 -0.4171 -0.9194
 4206SOL    HW224081   2.601   0.455   4.122  0.3874 -1.1853 -0.4649
 4207SOL     OW24082   3.431   1.288  10.697  0.2415 -0.2859 -0.1278
 4207SOL    HW124083   3.336   1.289  10.686  0.4762  0.0393 -2.0385
 4207SOL    HW224084   3.448   1.195  10.682  0.7456  0.1008 -1.9162
 4208SOL     OW24085   1.545   3.688   4.205  0.7552 -0.0872 -0.4929
 4208SOL    HW124086   1.458   3.669   4.172 -0.0348  0.3299  1.3299
 4208SOL    HW224087   1.530   3.725   4.292 -0.7643  0.6060 -1.0522
 4209SOL     OW24088   4.004   3.135   6.662 -0.1861  0.1851 -0.4637
 4209SOL    HW124089   4.029   3.093   6.744 -2.0288 -0.8965 -0.4499
 4209SOL    HW224090   4.090   3.174   6.645 -0.6016  1.1479 -0.3527
 4210SOL     OW24091   4.036   4.353   2.630 -0.5684  0.4349  0.1016
 4210SOL    HW124092   4.064   4.351   2.538 -2.2632 -1.2374 -0.3671
 4210SOL    HW224093   4.005   4.443   2.637 -1.2501  0.2937 -1.0717
 4211SOL     OW24094   0.739   2.171   6.478  0.2345  0.1307  0.0380
 4211SOL    HW124095   0.761   2.251   6.525 -0.6484  0.5286 -0.2202
 4211SOL    HW224096   0.751   2.114   6.554 -0.5251  1.0774  0.8690
 4212SOL     OW24097   2.235   0.560   8.966 -0.2992  0.5507 -0.1966
 4212SOL    HW124098   2.309   0.573   9.025 -2.7565  1.1212  2.7872
 4212SOL    HW224099   2.221   0.466   8.970  2.8420  0.0796 -0.9423
 4213SOL     OW24100   0.133   3.009   6.854  0.2666 -0.1309 -0.6377
 4213SOL    HW124101   0.069   2.997   6.924  0.0401 -3.1223 -1.3301
 4213SOL    HW224102   0.149   3.103   6.864 -2.6712  0.2616  0.5102
 4214SOL     OW24103   4.141   4.706   4.142  0.1034 -0.1189 -0.0034
 4214SOL    HW124104   4.062   4.670   4.103 -0.2370  0.7812 -0.1410
 4214SOL    HW224105   4.212   4.668   4.091  0.3973 -1.5103  1.4533
 4215SOL     OW24106   0.661   4.095  15.562 -0.3242  0.0293 -0.2866
 4215SOL    HW124107   0.650   4.189  15.544 -0.3420  0.3074  1.1075
 4215SOL    HW224108   0.662   4.096  15.658 -1.3091 -0.6991 -0.2624
 4216SOL     OW24109   0.739   2.195  15.044  0.5592 -0.0060 -0.0446
 4216SOL    HW124110   0.671   2.220  14.982  0.8347  1.0328  0.0722
 4216SOL    HW224111   0.755   2.272  15.099  3.0101 -0.1068 -0.6263
 4217SOL     OW24112   3.940   2.543  10.390 -0.0431 -0.1555 -0.3498
 4217SOL    HW124113   3.988   2.618  10.424  0.4479 -0.3224 -0.6671
 4217SOL    HW224114   4.006   2.473  10.387  0.4182  0.4004 -3.2768
 4218SOL     OW24115   3.853   2.340  15.291 -0.1419 -0.2066  0.1112
 4218SOL    HW124116   3.842   2.352  15.385  0.4390  1.2926 -0.0118
 4218SOL    HW224117   3.893   2.253  15.293 -1.2033 -0.7146 -1.1648
 4219SOL     OW24118   2.926   4.144   9.419 -0.0038  0.0049 -0.2219
 4219SOL    HW124119   3.002   4.164   9.365 -0.5880  2.6964 -0.0499
 4219SOL    HW224120   2.905   4.223   9.469  0.2222 -0.4984  0.6577
 4220SOL     OW24121   0.431   3.290   5.972  0.1657 -0.4000 -0.0951
 4220SOL    HW124122   0.381   3.316   6.050 -0.7091  0.5975 -0.9870
 4220SOL    HW224123   0.483   3.225   6.018  0.4905  0.3377  0.5904
 4221SOL     OW24124   1.451   1.554   7.307 -0.4264 -0.3029 -0.3152
 4221SOL    HW124125   1.367   1.527   7.271 -1.4501  1.0705  1.0698
 4221SOL    HW224126   1.419   1.626   7.361 -0.7127  0.7255 -1.8507
 4222SOL     OW24127   4.183   1.158  13.179 -0.2632  0.1611  0.0696
 4222SOL    HW124128   4.170   1.228  13.242  2.4704  0.3740  0.4199
 4222SOL    HW224129   4.279   1.164  13.173 -0.5483  2.9800 -1.5795
 4223SOL     OW24130   3.324   0.802   1.066 -0.0360  0.1540  0.3288
 4223SOL    HW124131   3.344   0.713   1.036  1.8166  0.4920  0.5889
 4223SOL    HW224132   3.311   0.788   1.159 -1.5040 -3.2780 -0.3678
 4224SOL     OW24133   3.552   4.440   7.198  0.0470  0.1521  0.2549
 4224SOL    HW124134   3.523   4.398   7.117 -0.7386  0.0317  0.5992
 4224SOL    HW224135   3.477   4.434   7.256 -1.3693  0.3348 -1.5524
 4225SOL     OW24136   3.964   3.409   4.423  0.1717  0.0865  0.3451
 4225SOL    HW124137   3.971   3.332   4.480 -3.1891  0.3285  1.0689
 4225SOL    HW224138   4.034   3.379   4.366 -0.1194 -1.0028  0.5475
 4226SOL     OW24139   2.296   4.711   1.406 -0.4254  0.2977 -0.4635
 4226SOL    HW124140   2.322   4.630   1.362 -3.4381 -1.5568  1.2080
 4226SOL    HW224141   2.387   0.009   1.431 -0.3034 -0.6835 -0.1860
 4227SOL     OW24142   2.429   1.520  11.032 -0.8874 -0.0149 -0.5427
 4227SOL    HW124143   2.505   1.490  11.082 -2.6095 -1.2544  1.3057
 4227SOL    HW224144   2.448   1.470  10.953  1.9168  0.7440 -0.3584
 4228SOL     OW24145   0.363   1.804   4.192  0.4823 -0.0909  0.0225
 4228SOL    HW124146   0.308   1.762   4.258 -2.0407 -0.2369 -2.2152
 4228SOL    HW224147   0.425   1.734   4.168  0.6606 -0.2964  1.0964
 4229SOL     OW24148   1.671   0.148   0.030 -0.2959  0.5728  0.1736
 4229SOL    HW124149   1.665   0.186   0.117 -1.5398 -0.7225  0.6424
 4229SOL    HW224150   1.732   0.203  17.663 -0.4029 -0.7792 -1.4556
 4230SOL     OW24151   3.661   0.301  16.033  0.4426  0.5089  0.2473
 4230SOL    HW124152   3.579   0.295  16.081  0.8964 -1.5114  0.7698
 4230SOL    HW224153   3.654   0.386  15.991 -0.9703 -0.1481 -0.8658
 4231SOL     OW24154   1.321   2.218  10.190 -0.3286  0.1762  0.0623
 4231SOL    HW124155   1.395   2.279  10.191 -0.7630  0.6765  1.3327
 4231SOL    HW224156   1.254   2.275  10.228  0.0488  2.9698 -3.4108
 4232SOL     OW24157   1.445   3.705  17.068  0.3319 -0.3240 -0.1038
 4232SOL    HW124158   1.505   3.779  17.075  0.2079 -0.3889  1.6537
 4232SOL    HW224159   1.359   3.743  17.087  0.5475  0.8521 -1.4287
 4233SOL     OW24160   0.824   0.591   2.277 -0.9457  0.1009 -0.2372
 4233SOL    HW124161   0.765   0.539   2.332 -1.4442 -1.6350 -2.4362
 4233SOL    HW224162   0.900   0.599   2.336 -3.2129  0.4649  2.6358
 4234SOL     OW24163   2.752   1.342   9.925 -0.0699  0.5969 -0.0940
 4234SOL    HW124164   2.742   1.404   9.997 -0.3434 -0.3524  0.7016
 4234SOL    HW224165   2.835   1.302   9.953 -0.4018 -0.0036  0.0455
 4235SOL     OW24166   1.396   1.954   6.558 -0.1123  0.0358 -0.6968
 4235SOL    HW124167   1.403   1.916   6.646 -0.1298  0.6949 -0.4073
 4235SOL    HW224168   1.489   1.961   6.537 -0.1366  1.6287 -0.3073
 4236SOL     OW24169   1.646   3.763   2.797  0.5378 -0.0114  0.5426
 4236SOL    HW124170   1.558   3.767   2.835  0.3477  0.8922  0.0085
 4236SOL    HW224171   1.627   3.784   2.705  0.4887  0.1750  0.5958
 4237SOL     OW24172   2.727   3.220   7.474 -0.5356  0.0017 -0.1721
 4237SOL    HW124173   2.785   3.199   7.547 -0.3641  2.1551  0.3263
 4237SOL    HW224174   2.679   3.299   7.501 -1.4638  0.0711 -2.0061
 4238SOL     OW24175   1.774   3.099   3.939  0.1289 -0.5946  0.3388
 4238SOL    HW124176   1.725   3.173   3.904 -1.4102 -1.5181  0.5285
 4238SOL    HW224177   1.865   3.130   3.944 -0.5292  1.5227 -1.1081
 4239SOL     OW24178   3.939   0.742   0.826 -0.2309 -0.3790  0.0150
 4239SOL    HW124179   3.983   0.803   0.886  0.7517 -1.9631  0.9082
 4239SOL    HW224180   3.854   0.785   0.819  0.9710  1.8412 -0.8618
 4240SOL     OW24181   0.428   4.681   4.833  0.2074  0.4714 -0.5361
 4240SOL    HW124182   0.472   4.647   4.755  0.4013 -3.1816  1.1173
 4240SOL    HW224183   0.503   4.706   4.887 -0.6280  1.5030  0.1167
 4241SOL     OW24184   0.344   0.467  15.057 -0.0407 -1.0192  0.5881
 4241SOL    HW124185   0.360   0.374  15.068  1.9296 -1.0554 -2.5271
 4241SOL    HW224186   0.281   0.467  14.986 -1.5942  0.1537  1.9650
 4242SOL     OW24187   2.174   3.330   9.110  0.1486  0.1438 -0.1047
 4242SOL    HW124188   2.095   3.379   9.089 -0.4238 -1.0931 -0.8036
 4242SOL    HW224189   2.158   3.333   9.205  1.6599  1.0694  0.1224
 4243SOL     OW24190   0.876   1.750   5.431 -0.1420 -0.1670 -0.1757
 4243SOL    HW124191   0.870   1.798   5.513  0.8219 -2.2351  1.1032
 4243SOL    HW224192   0.939   1.808   5.389  1.2076 -0.8757  0.9037
 4244SOL     OW24193   1.575   2.494   4.015 -0.1022  0.1640  0.0100
 4244SOL    HW124194   1.539   2.572   3.974 -0.8586 -0.2733 -0.1663
 4244SOL    HW224195   1.664   2.524   4.000 -0.1338  1.8031  3.1765
 4245SOL     OW24196   3.050   2.310   1.965  0.4438  1.1914  0.3258
 4245SOL    HW124197   3.062   2.264   2.048 -1.4463  0.1036 -0.0145
 4245SOL    HW224198   3.017   2.395   1.992  0.9902  2.4905 -3.0635
 4246SOL     OW24199   1.094   1.539   8.278 -0.3052 -0.6142 -0.3438
 4246SOL    HW124200   1.034   1.612   8.288  1.6280  0.5222  2.8575
 4246SOL    HW224201   1.038   1.466   8.252 -0.7725  0.8820 -3.5482
 4247SOL     OW24202   3.374   0.963   8.762  0.1106  0.2824  0.5496
 4247SOL    HW124203   3.315   1.031   8.731 -2.1367 -2.1004 -0.4570
 4247SOL    HW224204   3.405   1.009   8.840  1.6382 -2.2084  1.4252
 4248SOL     OW24205   3.700   4.493   0.852 -0.0112  0.1608  0.0187
 4248SOL    HW124206   3.695   4.454   0.765 -0.9011  0.4692 -0.0612
 4248SOL    HW224207   3.622   4.547   0.843  0.2822  0.7736  1.1702
 4249SOL     OW24208   3.227   4.400   1.623 -0.3903 -0.2494  0.0772
 4249SOL    HW124209   3.276   4.378   1.702  0.7823 -0.6789 -0.7596
 4249SOL    HW224210   3.270   4.340   1.561 -2.4112 -0.6620 -0.9226
 4250SOL     OW24211   2.493   0.868   9.647  0.1538  0.1634 -0.3498
 4250SOL    HW124212   2.493   0.902   9.737 -0.7751  0.5844 -0.5077
 4250SOL    HW224213   2.405   0.830   9.646  0.5948 -0.9428  1.5669
 4251SOL     OW24214   3.297   0.519   9.507  0.0376  0.7315 -0.6758
 4251SOL    HW124215   3.305   0.501   9.413  0.7002 -1.5767 -0.1717
 4251SOL    HW224216   3.382   0.488   9.538 -0.8951 -3.0560 -1.9616
 4252SOL     OW24217   2.787   1.405   9.255  0.4029 -0.2841 -1.0133
 4252SOL    HW124218   2.780   1.330   9.314 -2.0052 -0.0439 -0.9735
 4252SOL    HW224219   2.814   1.375   9.168 -0.3988  0.9469 -1.6892
 4253SOL     OW24220   0.064   1.902   3.564 -0.6365 -0.5439 -0.1781
 4253SOL    HW124221   0.055   1.951   3.645  2.7814  0.5901 -0.5174
 4253SOL    HW224222   0.159   1.907   3.563 -0.5922 -0.9848  1.8475
 4254SOL     OW24223   1.207   4.630   9.950  0.3229  0.1122 -0.5204
 4254SOL    HW124224   1.235   4.540   9.936  0.4517 -0.2749  2.2498
 4254SOL    HW224225   1.283   4.663   9.997  0.8537 -4.8195  2.1200
 4255SOL     OW24226   0.453   2.524   3.607 -0.4342 -0.0361 -0.4943
 4255SOL    HW124227   0.389   2.455   3.588 -1.3276  0.2812  1.3313
 4255SOL    HW224228   0.533   2.474   3.629 -1.1092 -0.1734  1.6502
 4256SOL     OW24229   1.752   4.242   4.626  0.7343  0.4014 -0.5388
 4256SOL    HW124230   1.691   4.312   4.607  0.4427 -0.0968 -1.4112
 4256SOL    HW224231   1.692   4.193   4.682 -3.1351  1.7470 -3.5630
 4257SOL     OW24232   3.776   4.422   3.031 -0.2009 -0.3246  0.2400
 4257SOL    HW124233   3.721   4.493   2.999  0.9815  0.2306 -0.5430
 4257SOL    HW224234   3.865   4.454   3.018 -1.0713  2.3118  0.7534
 4258SOL     OW24235   4.163   1.739   2.667  0.3073 -0.1365  0.0582
 4258SOL    HW124236   4.068   1.732   2.678  0.4302  0.2558  1.3587
 4258SOL    HW224237   4.179   1.829   2.637  0.4436  0.7126  2.6657
 4259SOL     OW24238   4.691   1.181   8.505  0.4047 -0.3993  0.1146
 4259SOL    HW124239   4.655   1.098   8.473  0.2253 -0.8115  1.3826
 4259SOL    HW224240   0.064   1.170   8.486  0.5950 -1.3800  1.6326
 4260SOL     OW24241   4.435   3.694   2.459 -0.1639 -0.3677  0.3691
 4260SOL    HW124242   4.518   3.739   2.475 -0.8954  0.2899  2.2683
 4260SOL    HW224243   4.479   3.609   2.447 -0.7684 -0.7045  0.5372
 4261SOL     OW24244   4.585   4.575   8.489 -0.0155  0.8800 -0.0605
 4261SOL    HW124245   4.648   4.647   8.494  1.8893 -0.8430  0.7764
 4261SOL    HW224246   4.560   4.584   8.397  0.9229 -2.5910 -0.6577
 4262SOL     OW24247   1.642   0.215   3.548  0.3664  0.0737  0.4091
 4262SOL    HW124248   1.647   0.272   3.624  1.7685  0.8049 -0.2311
 4262SOL    HW224249   1.716   0.156   3.566  0.1778  0.1562  1.4400
 4263SOL     OW24250   1.282   0.626   4.053  0.1077 -0.2973 -0.5329
 4263SOL    HW124251   1.284   0.715   4.090 -0.5828  0.2567 -1.8199
 4263SOL    HW224252   1.199   0.598   4.092  2.2256 -1.5685  3.0316
 4264SOL     OW24253   0.166   1.182   4.600 -0.4503  0.6519  0.1810
 4264SOL    HW124254   0.170   1.260   4.656  0.1280 -1.6004  3.2760
 4264SOL    HW224255   0.157   1.216   4.511  0.8099 -0.6138 -0.4316
 4265SOL     OW24256   1.723   1.947   7.020  0.2344  0.5095  0.2261
 4265SOL    HW124257   1.739   1.866   6.972 -0.1967 -0.1194  1.1366
 4265SOL    HW224258   1.631   1.960   6.999 -0.3998 -3.0448  0.7607
 4266SOL     OW24259   0.047   0.370  13.696 -0.4104  0.1574 -0.2797
 4266SOL    HW124260   0.058   0.460  13.726  0.5737 -1.6816  5.0294
 4266SOL    HW224261   0.068   0.333  13.782  1.3940 -1.3566 -1.3814
 4267SOL     OW24262   3.085   1.029  15.502  0.0557 -0.3840  0.0869
 4267SOL    HW124263   3.078   0.970  15.577  1.5004  1.4890  1.7071
 4267SOL    HW224264   3.103   1.109  15.551 -1.2330  0.0719 -0.1816
 4268SOL     OW24265   0.075   1.940   4.664  0.0429  0.5533 -0.0974
 4268SOL    HW124266   0.161   1.956   4.626 -0.5501 -0.0025 -1.6772
 4268SOL    HW224267   0.078   1.975   4.753  2.6025  0.4762 -0.1606
 4269SOL     OW24268   0.082   0.797  15.118 -0.3100 -0.1416 -0.2061
 4269SOL    HW124269   0.165   0.772  15.158 -1.6338 -2.4983  1.0809
 4269SOL    HW224270   0.031   0.808  15.198 -1.9652 -0.2309 -1.2316
 4270SOL     OW24271   2.853   3.277   1.808 -0.5063  0.3757  0.1620
 4270SOL    HW124272   2.878   3.331   1.883  0.2115  0.8335 -0.4082
 4270SOL    HW224273   2.765   3.250   1.834  0.7552 -1.8789  2.1379
 4271SOL     OW24274   1.598   2.769  10.283 -0.2718 -0.2471  0.8599
 4271SOL    HW124275   1.518   2.772  10.231 -0.3351  2.0658  1.0981
 4271SOL    HW224276   1.643   2.702  10.231 -3.5020 -1.6803 -0.1022
 4272SOL     OW24277   3.680   2.583  13.255 -0.1342  0.4688  0.8401
 4272SOL    HW124278   3.696   2.489  13.264 -0.8362  0.0681 -2.2697
 4272SOL    HW224279   3.594   2.589  13.297 -1.1630 -0.1117 -1.1788
 4273SOL     OW24280   0.830   4.048   7.511 -1.3700 -0.2065 -0.2259
 4273SOL    HW124281   0.880   4.066   7.431  0.7521 -2.5374  0.6135
 4273SOL    HW224282   0.775   4.127   7.505 -1.8595 -0.6712 -1.8481
 4274SOL     OW24283   2.902   4.642   6.247  0.2491  0.2950 -0.5240
 4274SOL    HW124284   2.940   4.664   6.162  0.3738 -0.5406 -0.6778
 4274SOL    HW224285   2.810   4.661   6.230  0.1197 -0.6185 -0.8631
 4275SOL     OW24286   4.084   1.965   3.204  0.4812  0.6267 -0.0636
 4275SOL    HW124287   4.177   1.944   3.197  0.4850 -0.5397  3.3606
 4275SOL    HW224288   4.054   1.928   3.121 -2.3824  2.2704  0.2218
 4276SOL     OW24289   2.707   0.597   2.980  0.3293 -0.2866  0.4359
 4276SOL    HW124290   2.735   0.597   3.072  2.5490 -2.4896 -0.2441
 4276SOL    HW224291   2.662   0.681   2.974 -2.0019 -1.6925 -1.6971
 4277SOL     OW24292   3.283   0.209   1.714  0.1359  0.4270  0.3543
 4277SOL    HW124293   3.328   0.128   1.691 -0.6373  0.0942  0.0421
 4277SOL    HW224294   3.308   0.253   1.796 -0.0126  0.1018  0.5763
 4278SOL     OW24295   2.702   4.264   9.073 -0.2326  0.0633 -0.1090
 4278SOL    HW124296   2.781   4.211   9.060 -1.1494 -1.4617  0.6411
 4278SOL    HW224297   2.635   4.196   9.062 -0.3329  0.2030 -0.3569
 4279SOL     OW24298   3.954   2.911   3.610 -0.0916 -0.2792 -0.1648
 4279SOL    HW124299   4.041   2.934   3.643 -0.7833  1.6960  0.2501
 4279SOL    HW224300   3.979   2.877   3.524  1.5389 -0.2674  0.2976
 4280SOL     OW24301   0.978   0.177   0.985 -0.6450 -0.1626 -0.7745
 4280SOL    HW124302   1.060   0.227   0.977 -0.7056  0.1645  0.7327
 4280SOL    HW224303   0.907   0.235   0.957 -1.2098 -0.7212 -0.5000
 4281SOL     OW24304   3.544   0.730   1.430 -0.0386 -0.1259 -0.0542
 4281SOL    HW124305   3.601   0.771   1.366 -1.0051 -0.8707 -1.4029
 4281SOL    HW224306   3.520   0.654   1.376 -2.8822  1.3037 -0.7854
 4282SOL     OW24307   3.671   1.005  13.671 -0.0794 -0.3565  0.0698
 4282SOL    HW124308   3.668   1.100  13.655  1.9381 -0.3959 -0.5965
 4282SOL    HW224309   3.728   0.973  13.601  0.5089 -0.7602  0.7284
 4283SOL     OW24310   1.403   2.250   7.810  0.3620 -0.1352 -0.2425
 4283SOL    HW124311   1.310   2.249   7.832  0.1211  0.5385 -1.2511
 4283SOL    HW224312   1.438   2.274   7.896 -0.9697  0.5206  0.1133
 4284SOL     OW24313   1.831   3.821   4.443 -0.0812 -0.6553  0.1608
 4284SOL    HW124314   1.897   3.772   4.394 -1.0556 -0.4740 -1.3205
 4284SOL    HW224315   1.753   3.783   4.404 -0.9275  0.8709  0.3660
 4285SOL     OW24316   3.374   1.726   1.678 -0.0840 -0.1739  0.1125
 4285SOL    HW124317   3.432   1.734   1.754 -0.4590  1.2833  0.2422
 4285SOL    HW224318   3.388   1.812   1.638 -1.4991 -1.5105 -3.2797
 4286SOL     OW24319   3.268   2.414   8.093  0.3074 -0.4690  0.7882
 4286SOL    HW124320   3.296   2.492   8.045  0.3872 -0.7976  0.2995
 4286SOL    HW224321   3.330   2.398   8.164 -0.1600 -1.2326  1.0227
 4287SOL     OW24322   0.522   3.744   1.470  0.1606  0.6254 -0.1836
 4287SOL    HW124323   0.587   3.692   1.517 -0.5983 -1.9527 -1.9362
 4287SOL    HW224324   0.541   3.724   1.378 -0.5749 -0.3200 -0.1332
 4288SOL     OW24325   3.044   4.671  12.968 -0.4085 -0.1077  0.3932
 4288SOL    HW124326   3.120   4.692  12.913 -0.6264 -1.7909 -0.5610
 4288SOL    HW224327   3.071   4.589  13.011 -0.4482 -0.3681 -0.0841
 4289SOL     OW24328   0.730   1.983  16.832  0.1211 -0.0679  0.3730
 4289SOL    HW124329   0.691   1.949  16.913  0.5122 -0.1350  0.5337
 4289SOL    HW224330   0.650   2.018  16.794  0.3249 -0.4074 -0.3772
 4290SOL     OW24331   2.055   4.406   1.369  0.1244  0.1817  0.1658
 4290SOL    HW124332   2.126   4.438   1.424 -0.2704  0.7516  0.3495
 4290SOL    HW224333   2.079   4.314   1.358  1.3578  0.6193 -0.7718
 4291SOL     OW24334   2.296   2.899  15.388 -0.0553  0.0904  0.2870
 4291SOL    HW124335   2.224   2.849  15.350  0.8479 -0.1721 -1.0699
 4291SOL    HW224336   2.269   2.899  15.480 -1.9775 -2.2370 -0.2721
 4292SOL     OW24337   1.484   3.804   4.469  0.6998  0.1087 -0.2776
 4292SOL    HW124338   1.487   3.899   4.458 -1.6558  0.2817  0.5846
 4292SOL    HW224339   1.491   3.804   4.565 -0.2586 -1.2826 -0.2236
 4293SOL     OW24340   2.031   3.783   0.890 -0.0876  0.0237 -0.4465
 4293SOL    HW124341   2.110   3.837   0.886  0.6373 -1.1364 -2.0351
 4293SOL    HW224342   2.078   3.700   0.876  2.1859  1.2677 -0.2093
 4294SOL     OW24343   0.305   1.433   1.941 -0.2740  0.2252  0.5454
 4294SOL    HW124344   0.269   1.475   2.019 -0.8877 -0.5763  0.7038
 4294SOL    HW224345   0.340   1.509   1.895  1.5296 -1.6692 -1.1978
 4295SOL     OW24346   3.311   3.379   5.806 -0.0862 -0.4928 -0.4523
 4295SOL    HW124347   3.221   3.412   5.798 -0.0125  0.3721  2.0756
 4295SOL    HW224348   3.353   3.431   5.737  1.4683  0.1442  0.9721
 4296SOL     OW24349   2.514   4.486   0.418 -0.0383  0.6752 -0.1125
 4296SOL    HW124350   2.488   4.551   0.483 -0.5310  2.1873 -1.8360
 4296SOL    HW224351   2.458   4.420   0.458  1.6817 -0.1133  1.0369
 4297SOL     OW24352   0.837   1.813   9.799  0.1757  0.1427 -0.1244
 4297SOL    HW124353   0.755   1.855   9.824 -0.3909 -0.5962 -0.7075
 4297SOL    HW224354   0.868   1.789   9.886 -0.4916 -0.6874 -0.1132
 4298SOL     OW24355   3.404   1.039   4.495  0.4156 -0.0359 -0.3582
 4298SOL    HW124356   3.394   1.026   4.400 -2.4911 -1.0559  0.0912
 4298SOL    HW224357   3.467   0.967   4.506  0.6204  0.0271 -1.0548
 4299SOL     OW24358   4.129   3.024  13.403  0.0808 -0.0819  0.3758
 4299SOL    HW124359   4.218   3.026  13.440  0.2994 -0.2234 -0.1443
 4299SOL    HW224360   4.146   3.004  13.311 -3.8122  0.0691 -0.3705
 4300SOL     OW24361   3.712   4.620   1.250 -0.1699 -0.7543 -0.3105
 4300SOL    HW124362   3.673   4.565   1.318 -2.1639 -1.2885 -1.9048
 4300SOL    HW224363   3.657   4.698   1.243  0.8039  0.0359  0.7670
 4301SOL     OW24364   0.638   4.213   8.577  0.6721  0.1183 -0.7087
 4301SOL    HW124365   0.627   4.121   8.552 -0.8645  0.3275 -0.8273
 4301SOL    HW224366   0.589   4.211   8.659  0.7556  1.1101 -0.6404
 4302SOL     OW24367   3.893   1.133   7.843 -0.1168  0.1774 -0.2072
 4302SOL    HW124368   3.812   1.134   7.893  0.2969  2.2658  0.4528
 4302SOL    HW224369   3.896   1.219   7.800  0.0766  0.3556  0.1576
 4303SOL     OW24370   0.718   4.569   0.896 -0.5461 -0.1598 -0.0159
 4303SOL    HW124371   0.662   4.520   0.836  0.7237 -0.0178 -1.3120
 4303SOL    HW224372   0.703   4.659   0.867  0.6741  0.3879  1.0724
 4304SOL     OW24373   2.756   0.195   7.120 -0.4781  0.5768  0.4355
 4304SOL    HW124374   2.668   0.220   7.093 -0.3470 -1.5662 -1.9588
 4304SOL    HW224375   2.775   0.136   7.047 -2.0376 -2.1037  2.2362
 4305SOL     OW24376   4.366   4.117   5.788 -0.3012  1.1850 -0.5663
 4305SOL    HW124377   4.412   4.191   5.749 -0.5101  0.5071 -2.0685
 4305SOL    HW224378   4.444   4.064   5.805 -1.4414 -0.5542 -0.7960
 4306SOL     OW24379   1.345   3.962   2.198  0.2347 -0.2987 -0.0731
 4306SOL    HW124380   1.276   3.913   2.153  0.4657 -0.4082 -0.3077
 4306SOL    HW224381   1.416   3.948   2.136 -0.0723 -1.0146 -0.2693
 4307SOL     OW24382   3.122   4.259   3.208 -0.4006  0.8563 -0.0372
 4307SOL    HW124383   3.100   4.267   3.301  1.0695 -4.4622  0.7860
 4307SOL    HW224384   3.194   4.197   3.223  0.1356  0.8406 -2.6454
 4308SOL     OW24385   3.088   2.140   4.203 -0.3941 -0.4152  0.5802
 4308SOL    HW124386   3.175   2.111   4.175  0.3201 -0.5572  2.9790
 4308SOL    HW224387   3.043   2.148   4.118 -1.0181 -0.5198  0.8992
 4309SOL     OW24388   1.182   4.511  14.517 -0.1466  0.2526 -0.7703
 4309SOL    HW124389   1.179   4.432  14.463  4.6834 -1.0483  0.8471
 4309SOL    HW224390   1.143   4.571  14.453  2.7263  1.7358 -1.1137
 4310SOL     OW24391   4.107   0.002  14.999 -0.1748 -0.4456  0.1319
 4310SOL    HW124392   4.086   4.660  14.928 -0.9740  0.9298 -0.8436
 4310SOL    HW224393   4.132   0.074  14.942 -2.4779 -1.2351 -1.8810
 4311SOL     OW24394   2.915   1.979   4.637 -0.1372  0.1556  0.0845
 4311SOL    HW124395   2.980   1.910   4.626 -0.3956  0.0719 -0.8854
 4311SOL    HW224396   2.963   2.060   4.621 -0.1962 -0.3598 -2.7200
 4312SOL     OW24397   3.291   0.515   8.177 -0.0937  0.1405 -0.3493
 4312SOL    HW124398   3.224   0.510   8.109 -1.7708  2.4925  1.1120
 4312SOL    HW224399   3.325   0.604   8.171 -4.5213  1.8827  0.4352
 4313SOL     OW24400   0.076   1.320   8.989 -0.0225 -0.0080 -0.1546
 4313SOL    HW124401   0.125   1.289   8.913  1.3963 -0.4075  0.9350
 4313SOL    HW224402   0.107   1.411   8.994 -2.8787  0.8617  1.8964
 4314SOL     OW24403   4.217   3.195  14.591  0.0765  0.2462  0.5336
 4314SOL    HW124404   4.232   3.237  14.676  3.2135 -0.5375  0.3517
 4314SOL    HW224405   4.189   3.266  14.533 -0.4969  0.3455  0.9316
 4315SOL     OW24406   2.931   1.800   0.334  0.2059 -0.2251 -0.7522
 4315SOL    HW124407   2.922   1.758   0.248 -0.8447 -0.3495 -0.5824
 4315SOL    HW224408   3.026   1.809   0.341  0.1812 -2.0460  1.7059
 4316SOL     OW24409   3.990   2.713  10.687  0.2783  0.2094 -0.0170
 4316SOL    HW124410   3.946   2.628  10.697 -0.7057  0.4746 -2.0983
 4316SOL    HW224411   4.005   2.754  10.773 -0.6080 -0.4001  0.4292
 4317SOL     OW24412   2.741   0.598   2.303  0.4788 -0.5597  0.0134
 4317SOL    HW124413   2.812   0.534   2.295  1.0661  0.3876 -2.4158
 4317SOL    HW224414   2.769   0.632   2.387  0.4900  0.4441 -0.4019
 4318SOL     OW24415   0.799   0.929   3.072  0.5517 -0.4111 -0.2191
 4318SOL    HW124416   0.852   0.850   3.083  0.0409 -0.7623 -0.2354
 4318SOL    HW224417   0.775   0.939   3.164  0.1378  1.1206 -0.4997
 4319SOL     OW24418   2.672   3.586   4.679  0.1013  0.7432  0.3259
 4319SOL    HW124419   2.696   3.654   4.742 -1.3758  0.9771  0.6554
 4319SOL    HW224420   2.759   3.546   4.682  0.0771  0.8514  2.8752
 4320SOL     OW24421   0.951   4.707   5.057 -0.0653 -0.5018 -0.0184
 4320SOL    HW124422   0.982   0.006   5.146 -1.2379  0.8592  0.1023
 4320SOL    HW224423   0.912   0.072   5.040 -0.4086 -0.6342  0.1065
 4321SOL     OW24424   0.819   3.694   3.448  0.9256 -0.5432  0.7409
 4321SOL    HW124425   0.772   3.672   3.367 -0.2107  1.0092  0.9719
 4321SOL    HW224426   0.774   3.775   3.474 -0.0024 -1.0251  0.6283
 4322SOL     OW24427   4.564   4.599   2.265 -0.1545 -0.4865  0.0950
 4322SOL    HW124428   4.567   4.611   2.170  1.4373 -0.2817  0.1753
 4322SOL    HW224429   4.492   4.536   2.267  0.8005 -1.5654  0.8286
 4323SOL     OW24430   4.375   2.967  13.555  0.3644  0.1513  0.2388
 4323SOL    HW124431   4.395   2.941  13.645  0.2744  0.8114  0.4529
 4323SOL    HW224432   4.359   3.061  13.564  0.5886  0.3477 -1.5475
 4324SOL     OW24433   4.355   1.682   8.360 -0.1885  0.2438  0.4010
 4324SOL    HW124434   4.263   1.666   8.341  0.0501 -2.6658  1.7361
 4324SOL    HW224435   4.389   1.622   8.294 -2.2520 -0.8880  0.3760
 4325SOL     OW24436   0.550   0.084   2.077 -0.2468 -0.2248 -0.5320
 4325SOL    HW124437   0.526   4.711   2.075 -0.0980 -0.2913  0.7626
 4325SOL    HW224438   0.590   0.094   1.991 -1.2585 -0.6727 -1.0655
 4326SOL     OW24439   3.084   1.676   4.422 -0.0929 -0.1125 -0.3468
 4326SOL    HW124440   3.063   1.757   4.376 -0.7633 -0.1355 -0.0778
 4326SOL    HW224441   3.165   1.645   4.381 -1.2293  0.5181 -3.0425
 4327SOL     OW24442   0.462   2.833   7.503  0.0293  0.2958  0.0489
 4327SOL    HW124443   0.486   2.899   7.438  0.4192  1.1010  1.0046
 4327SOL    HW224444   0.371   2.811   7.482 -0.2485  0.3931  1.1434
 4328SOL     OW24445   2.721   1.773   0.666 -0.2727 -0.4378  0.1294
 4328SOL    HW124446   2.680   1.860   0.674 -1.9298 -1.3981  2.2358
 4328SOL    HW224447   2.798   1.772   0.722  0.0832  0.0161 -0.3575
 4329SOL     OW24448   4.055   2.623   5.743 -0.5279  0.0228 -0.5457
 4329SOL    HW124449   3.993   2.613   5.671  0.0502  0.1449 -1.0546
 4329SOL    HW224450   4.063   2.718   5.748 -1.1789  0.0597 -0.2316
 4330SOL     OW24451   0.355   4.692   6.623 -0.4675 -0.6060  1.0613
 4330SOL    HW124452   0.429   4.700   6.684  0.8562 -1.1205 -0.5003
 4330SOL    HW224453   0.379   0.050   6.575 -1.7737 -0.4523  0.6573
 4331SOL     OW24454   0.189   0.608   6.400 -0.5126  0.1632  0.6365
 4331SOL    HW124455   0.261   0.660   6.364  0.2454 -1.4581 -0.1821
 4331SOL    HW224456   0.126   0.678   6.383 -0.2029  0.5114  0.9060
 4332SOL     OW24457   1.834   1.755  17.237  0.7737  0.1540  0.2063
 4332SOL    HW124458   1.868   1.753  17.148 -0.9041  1.9651 -0.4607
 4332SOL    HW224459   1.776   1.831  17.240 -1.1211 -1.3222  1.1201
 4333SOL     OW24460   0.079   3.258   4.525  0.0533  0.5473 -0.7202
 4333SOL    HW124461   0.018   3.212   4.582  1.1419  1.2526  0.9970
 4333SOL    HW224462   0.110   3.205   4.452  2.7864 -0.5214  1.2042
 4334SOL     OW24463   4.217   1.848  10.419  0.3305  0.4035 -0.7127
 4334SOL    HW124464   4.229   1.922  10.360  2.2020  0.8205  0.1997
 4334SOL    HW224465   4.127   1.818  10.408  0.3525 -0.2250  0.7926
 4335SOL     OW24466   0.844   2.846   2.182 -0.8491 -0.6444 -0.2544
 4335SOL    HW124467   0.839   2.752   2.166 -0.3588 -0.7869  0.4200
 4335SOL    HW224468   0.900   2.856   2.259 -0.3805  0.2025 -0.6964
 4336SOL     OW24469   2.285   3.216   7.398  0.5212 -0.0557 -0.0885
 4336SOL    HW124470   2.285   3.147   7.331  1.4954  1.2476 -1.4417
 4336SOL    HW224471   2.341   3.282   7.357 -0.3246  0.9370  0.3483
 4337SOL     OW24472   2.269   3.819   3.737 -0.0844 -0.0048  0.1900
 4337SOL    HW124473   2.351   3.772   3.751  1.3864  2.6020  0.3568
 4337SOL    HW224474   2.294   3.866   3.658  0.0737 -0.7532 -0.2067
 4338SOL     OW24475   0.906   2.512   7.816 -0.1190  0.1984 -0.2172
 4338SOL    HW124476   0.859   2.500   7.899 -0.1922 -1.2848 -0.4729
 4338SOL    HW224477   0.831   2.519   7.758  0.3344  0.3997 -0.7752
 4339SOL     OW24478   2.060   1.772  16.616  0.3363 -0.0647 -0.0685
 4339SOL    HW124479   2.038   1.681  16.599 -0.2088 -0.1695  1.2206
 4339SOL    HW224480   2.134   1.750  16.672 -0.1182 -0.0646  0.5308
 4340SOL     OW24481   3.115   3.434   3.230  0.1651  0.2009 -0.2704
 4340SOL    HW124482   3.209   3.442   3.248  0.4150 -1.1172 -0.9965
 4340SOL    HW224483   3.080   3.384   3.305 -0.8064  0.8451 -0.2956
 4341SOL     OW24484   0.916   2.064   4.691 -0.0147 -0.2912 -0.1516
 4341SOL    HW124485   1.008   2.058   4.716 -0.2305 -0.6865  0.5601
 4341SOL    HW224486   0.915   2.139   4.631 -0.4895  1.2225  1.7393
 4342SOL     OW24487   0.299   2.895   0.998 -0.3331  0.2025  0.1266
 4342SOL    HW124488   0.219   2.902   1.050 -1.5756 -3.4954 -1.2654
 4342SOL    HW224489   0.358   2.897   1.073 -1.7637  2.6978  1.1732
 4343SOL     OW24490   1.634   3.628   8.579  0.6557  0.2451  0.1421
 4343SOL    HW124491   1.621   3.660   8.489 -0.0320 -0.2064  0.0821
 4343SOL    HW224492   1.705   3.568   8.557 -0.4013 -1.2413  0.7825
 4344SOL     OW24493   0.278   3.419   3.858 -0.4972 -0.0145  0.1889
 4344SOL    HW124494   0.370   3.446   3.850  0.0631 -1.8218  0.5072
 4344SOL    HW224495   0.289   3.347   3.797 -0.4637  0.8484 -0.8171
 4345SOL     OW24496   0.230   3.104   7.132  0.2101 -0.3778  0.5537
 4345SOL    HW124497   0.205   3.186   7.175  1.4899  1.0522 -1.4131
 4345SOL    HW224498   0.145   3.067   7.111  0.5661  0.8826 -3.1610
 4346SOL     OW24499   1.830   2.416   6.747 -0.2815 -0.1582 -0.1251
 4346SOL    HW124500   1.802   2.324   6.752  1.6508 -0.6950  1.0438
 4346SOL    HW224501   1.925   2.406   6.741 -0.0252  1.5920  1.1098
 4347SOL     OW24502   0.953   0.746   3.449  0.3846 -0.6807 -0.0193
 4347SOL    HW124503   1.037   0.718   3.484 -0.0056  0.6768  2.0564
 4347SOL    HW224504   0.965   0.764   3.356  0.4536 -1.3887 -0.1416
 4348SOL     OW24505   3.416   2.923  11.870 -0.5183  0.1020 -0.1547
 4348SOL    HW124506   3.363   2.908  11.791 -0.5397  1.7362 -0.4358
 4348SOL    HW224507   3.469   2.844  11.859 -1.0145 -0.4287  1.2480
 4349SOL     OW24508   4.662   0.085   4.928  0.2504 -0.4989 -0.6819
 4349SOL    HW124509   0.017   0.031   4.953  0.0270 -0.1916  0.6518
 4349SOL    HW224510   4.618   0.115   5.007 -1.9924 -1.1732 -1.6756
 4350SOL     OW24511   0.174   2.639  16.181 -0.8620  0.2935  0.2399
 4350SOL    HW124512   0.209   2.728  16.190 -1.1317  0.5391 -1.1959
 4350SOL    HW224513   0.095   2.639  16.235 -0.3000  2.3948  1.0750
 4351SOL     OW24514   2.560   0.698   2.623 -0.6290 -1.1542  0.0020
 4351SOL    HW124515   2.510   0.625   2.588 -1.0924 -1.1807  0.7171
 4351SOL    HW224516   2.492   0.764   2.638  0.8315  0.2582  0.4606
 4352SOL     OW24517   3.977   1.897   2.922 -0.0897  0.1380  0.5937
 4352SOL    HW124518   3.990   1.861   2.834  1.0566  0.8883  0.4529
 4352SOL    HW224519   3.886   1.925   2.925  0.1564  0.9122  0.9675
 4353SOL     OW24520   2.898   0.847   5.892  0.1765 -0.0592 -0.4119
 4353SOL    HW124521   2.952   0.773   5.864  0.2855 -0.7521  1.6786
 4353SOL    HW224522   2.813   0.824   5.854 -0.0356 -1.6178  1.0116
 4354SOL     OW24523   2.726   2.459   2.282 -0.6882  0.1802  0.6181
 4354SOL    HW124524   2.633   2.451   2.304 -0.7938  2.6789  1.0019
 4354SOL    HW224525   2.715   2.545   2.242  0.4719 -1.2682 -2.8376
 4355SOL     OW24526   0.338   1.679   7.768  0.7234  0.1361  0.5717
 4355SOL    HW124527   0.390   1.747   7.810 -0.7797  2.6935 -1.7502
 4355SOL    HW224528   0.370   1.599   7.811  2.6067 -0.1791 -1.3723
 4356SOL     OW24529   2.555   2.259  12.627  0.3374 -0.5730 -0.1528
 4356SOL    HW124530   2.492   2.318  12.669 -0.2928 -1.9259  0.7792
 4356SOL    HW224531   2.504   2.228  12.553  1.3549  1.4301 -1.7083
 4357SOL     OW24532   1.065   4.350   0.250  0.1306  0.2905  0.1898
 4357SOL    HW124533   0.976   4.328   0.276  0.2592  0.2386  0.5779
 4357SOL    HW224534   1.073   4.323   0.159  1.9399 -2.8168  1.2852
 4358SOL     OW24535   3.418   2.871   1.749 -0.4544 -0.1108 -0.2483
 4358SOL    HW124536   3.346   2.917   1.706 -1.0742 -1.8258 -1.0363
 4358SOL    HW224537   3.471   2.843   1.674 -0.8442 -0.2710 -0.4627
 4359SOL     OW24538   4.149   1.012   6.668 -0.1695 -0.5662  0.0239
 4359SOL    HW124539   4.205   0.977   6.737  1.7321  0.3765 -1.0610
 4359SOL    HW224540   4.061   1.002   6.704  0.0480  0.8948  0.9575
 4360SOL     OW24541   4.648   4.215   2.240  0.0199 -0.0919  0.0076
 4360SOL    HW124542   4.692   4.138   2.204  1.2454  0.5727  0.0974
 4360SOL    HW224543   4.564   4.214   2.193 -0.0853 -0.2773  0.1997
 4361SOL     OW24544   1.786   3.184  15.177  0.0775 -0.3642  0.6337
 4361SOL    HW124545   1.832   3.191  15.261 -0.4037  1.4072  0.7522
 4361SOL    HW224546   1.792   3.276  15.151 -3.8383 -0.9833 -2.5574
 4362SOL     OW24547   3.143   0.546   7.978  0.8743 -0.4284  0.3873
 4362SOL    HW124548   3.170   0.614   7.916 -3.5020 -1.9202 -3.1360
 4362SOL    HW224549   3.118   0.481   7.912  3.3779  0.5303 -1.4917
 4363SOL     OW24550   2.611   3.614  12.015  0.0697  0.4704  0.8461
 4363SOL    HW124551   2.674   3.545  12.034 -0.0616  1.1097  3.5742
 4363SOL    HW224552   2.612   3.624  11.920  0.3336 -0.6727  0.7341
 4364SOL     OW24553   4.140   4.108   9.748  0.5803 -0.0810  0.8158
 4364SOL    HW124554   4.162   4.022   9.782 -1.5186 -1.1640 -0.5391
 4364SOL    HW224555   4.123   4.099   9.654  0.8953  2.4996  0.5123
 4365SOL     OW24556   3.874   4.435   8.773  0.3980  0.3826 -0.4604
 4365SOL    HW124557   3.814   4.480   8.833 -1.0065 -3.8616  1.2893
 4365SOL    HW224558   3.839   4.347   8.786  1.0121  0.1320 -0.5096
 4366SOL     OW24559   3.918   0.950   6.810 -0.2081  0.1157  0.1331
 4366SOL    HW124560   3.844   1.009   6.793  0.1193  1.1394  2.2690
 4366SOL    HW224561   3.879   0.900   6.881  0.8678  0.1681  0.7619
 4367SOL     OW24562   0.540   1.838   5.477  0.0427  0.2985 -0.7411
 4367SOL    HW124563   0.450   1.870   5.464 -0.3034  0.0145  1.0129
 4367SOL    HW224564   0.588   1.861   5.397  0.1225  1.6361 -0.3049
 4368SOL     OW24565   3.261   2.671   3.415  0.6027 -0.3919 -0.2062
 4368SOL    HW124566   3.204   2.607   3.374  1.2495 -2.0201  1.4624
 4368SOL    HW224567   3.347   2.628   3.417  0.4452 -0.6553  0.9687
 4369SOL     OW24568   2.087   1.286   2.802 -0.2301  0.0798  0.3788
 4369SOL    HW124569   2.001   1.322   2.823  0.5092  1.8932  0.2376
 4369SOL    HW224570   2.062   1.194   2.809  0.5641 -0.3776 -2.9972
 4370SOL     OW24571   1.638   1.852  17.534 -0.1333  0.0942  0.1623
 4370SOL    HW124572   1.707   1.790  17.556 -0.2496  0.1683  0.7325
 4370SOL    HW224573   1.563   1.795  17.552  0.4618 -0.6391  0.2896
 4371SOL     OW24574   1.745   0.099   1.753 -0.7039 -0.4409 -0.5276
 4371SOL    HW124575   1.830   0.139   1.735  0.4186 -3.2725 -1.4775
 4371SOL    HW224576   1.758   0.004   1.750 -1.3318 -0.5683  0.7196
 4372SOL     OW24577   4.297   2.334   7.730  0.2873 -0.5603  0.1892
 4372SOL    HW124578   4.328   2.424   7.732  1.1191 -0.8221 -0.8131
 4372SOL    HW224579   4.359   2.292   7.791 -0.1202 -0.3744  0.7339
 4373SOL     OW24580   2.195   2.578  12.924 -0.8612  0.0035 -0.2864
 4373SOL    HW124581   2.224   2.589  12.834  0.9402  3.6646  0.7433
 4373SOL    HW224582   2.149   2.494  12.920 -2.3313  0.7876  0.1808
 4374SOL     OW24583   3.333   0.912   2.713  0.6357 -0.0077  0.2081
 4374SOL    HW124584   3.312   0.948   2.627  1.6910  1.2748  0.4721
 4374SOL    HW224585   3.246   0.876   2.730  0.7541 -1.0630 -1.4688
 4375SOL     OW24586   2.140   2.908  16.388  0.3549  0.5058  0.1115
 4375SOL    HW124587   2.076   2.980  16.388 -1.2800 -0.9475  0.0174
 4375SOL    HW224588   2.207   2.962  16.346  0.1681  0.4027 -0.3220
 4376SOL     OW24589   1.347   3.048   8.001 -0.1315  0.1134  0.0800
 4376SOL    HW124590   1.393   3.132   8.007  0.4830 -0.2632  0.6963
 4376SOL    HW224591   1.402   3.015   7.930 -1.2313  1.7626 -1.5402
 4377SOL     OW24592   0.405   2.595   7.699  0.1287  0.6934 -0.1809
 4377SOL    HW124593   0.411   2.511   7.744  1.1863  2.7902  3.6567
 4377SOL    HW224594   0.314   2.597   7.672 -0.1285 -1.7472  0.5214
 4378SOL     OW24595   3.151   3.515   9.191 -0.2909 -0.0591 -0.2227
 4378SOL    HW124596   3.172   3.461   9.115  1.0048  0.1072  0.0246
 4378SOL    HW224597   3.109   3.589   9.146  1.1241  0.4705 -0.6663
 4379SOL     OW24598   1.575   3.900   2.063  0.4269  0.1121 -0.7294
 4379SOL    HW124599   1.637   3.973   2.064  1.5979 -0.8827 -1.4599
 4379SOL    HW224600   1.603   3.847   2.138 -1.3217 -0.6079 -0.5835
 4380SOL     OW24601   4.581   4.391   0.807  0.3347 -0.1490  0.1293
 4380SOL    HW124602   4.614   4.439   0.883  0.3794 -2.3139  1.4863
 4380SOL    HW224603   4.658   4.339   0.785  0.1917 -0.3500  0.1082
 4381SOL     OW24604   2.833   3.613  11.368 -0.2567  0.1596 -0.2980
 4381SOL    HW124605   2.909   3.660  11.334  0.8143 -2.1146 -1.0428
 4381SOL    HW224606   2.766   3.647  11.308 -1.3240 -3.0089 -0.8799
 4382SOL     OW24607   3.816   0.781   5.957  0.2296  0.2911 -0.1783
 4382SOL    HW124608   3.829   0.824   5.872  1.5933  1.4064  0.5922
 4382SOL    HW224609   3.818   0.852   6.021  1.0231  0.0366  0.0707
 4383SOL     OW24610   2.043   2.703   0.169 -0.2879  0.8290  0.7603
 4383SOL    HW124611   2.097   2.779   0.191  1.0375  0.6797 -1.9004
 4383SOL    HW224612   2.107   2.638   0.140 -0.8209  0.3483  0.6526
 4384SOL     OW24613   4.079   1.220   2.353 -0.3852  1.1039 -0.2421
 4384SOL    HW124614   4.003   1.174   2.388  1.4778 -0.7492  1.3860
 4384SOL    HW224615   4.084   1.283   2.425  0.4968 -1.4181  1.8932
 4385SOL     OW24616   3.895   2.363   3.408  0.4190  0.2699 -0.6462
 4385SOL    HW124617   3.949   2.285   3.424 -1.2812 -1.1356 -1.7100
 4385SOL    HW224618   3.893   2.362   3.312 -0.1374  2.1829 -0.6398
 4386SOL     OW24619   3.003   2.746   3.510  0.0842  0.1406  0.1564
 4386SOL    HW124620   3.084   2.741   3.458  1.0272 -0.7160  1.6939
 4386SOL    HW224621   3.020   2.828   3.557 -0.7810 -0.4481  1.5016
 4387SOL     OW24622   3.157   2.888  12.905  0.5142 -0.0948 -0.5043
 4387SOL    HW124623   3.159   2.820  12.972  1.1599 -0.7807 -1.2146
 4387SOL    HW224624   3.071   2.864  12.870  0.0449  0.4964  0.2397
 4388SOL     OW24625   0.279   3.285   6.685  0.6179 -0.0230  0.1800
 4388SOL    HW124626   0.210   3.274   6.751 -0.4522  0.3109 -0.8773
 4388SOL    HW224627   0.300   3.200   6.646  1.4450 -0.1355  0.8621
 4389SOL     OW24628   4.710   2.491   4.182 -0.3662  0.1822  0.2382
 4389SOL    HW124629   4.622   2.512   4.150  0.0216  0.8877 -0.3391
 4389SOL    HW224630   4.705   2.397   4.204  0.7396 -0.1362 -0.9095
 4390SOL     OW24631   3.640   1.391   9.764 -0.1731  0.6951  0.1191
 4390SOL    HW124632   3.568   1.329   9.755  0.9870 -0.3212 -1.9839
 4390SOL    HW224633   3.632   1.437   9.680 -0.3775 -0.1451 -0.3157
 4391SOL     OW24634   1.009   2.144   2.273 -0.4509 -0.0449  0.3449
 4391SOL    HW124635   0.998   2.051   2.294 -2.1134 -0.1788 -1.1007
 4391SOL    HW224636   0.922   2.183   2.284 -0.9295 -1.0183 -0.0037
 4392SOL     OW24637   3.396   1.900  16.445  0.5191  0.5366 -0.0447
 4392SOL    HW124638   3.380   1.972  16.383  1.9549  0.8930 -0.0060
 4392SOL    HW224639   3.325   1.840  16.422  1.1049 -1.6441  3.8714
 4393SOL     OW24640   0.697   0.770   4.602 -0.6053  0.3485  0.5018
 4393SOL    HW124641   0.611   0.742   4.570  0.0199 -1.9295  0.7977
 4393SOL    HW224642   0.684   0.776   4.696  1.7628  0.9978  0.7898
 4394SOL     OW24643   0.110   2.150   0.984  0.0754  0.1510  0.0888
 4394SOL    HW124644   0.032   2.197   1.014  1.0780 -0.0109  2.9277
 4394SOL    HW224645   0.144   2.208   0.916  0.9277  0.8577  1.1223
 4395SOL     OW24646   0.149   3.922   3.163  0.1471  0.3002 -0.4977
 4395SOL    HW124647   0.239   3.955   3.169 -0.4626  1.6403  1.4408
 4395SOL    HW224648   0.120   3.980   3.093 -1.2778  3.3084  2.5482
 4396SOL     OW24649   0.699   0.086   0.803 -0.2638 -0.2497 -0.1456
 4396SOL    HW124650   0.618   0.090   0.754 -0.0923 -1.4369 -0.5292
 4396SOL    HW224651   0.737   0.168   0.771 -1.4130  1.3690  2.6285
 4397SOL     OW24652   1.065   4.372   5.915 -0.3753 -0.0462  0.0272
 4397SOL    HW124653   1.128   4.310   5.951 -0.0561  0.4108  0.2580
 4397SOL    HW224654   1.113   4.454   5.906  0.8785 -0.6205  1.4458
 4398SOL     OW24655   2.017   4.606   6.101  0.0297 -0.0431  0.6210
 4398SOL    HW124656   2.033   4.606   6.007 -3.5606 -2.0635  0.0248
 4398SOL    HW224657   1.986   4.694   6.124 -2.7398 -0.6986 -0.7199
 4399SOL     OW24658   0.879   1.843   8.770  0.5555 -0.7028 -0.0898
 4399SOL    HW124659   0.819   1.828   8.843  1.2084 -0.6698  0.4512
 4399SOL    HW224660   0.820   1.817   8.699  1.6116 -0.6452 -0.9842
 4400SOL     OW24661   4.713   2.160   6.803 -0.4695  0.5324  0.1194
 4400SOL    HW124662   4.631   2.132   6.761  0.1853 -4.0320  1.8704
 4400SOL    HW224663   4.693   2.234   6.861 -0.1662 -0.5257  1.5941
 4401SOL     OW24664   1.766   2.043   2.749  0.4219 -0.0336 -0.0753
 4401SOL    HW124665   1.777   2.130   2.710  2.4950 -0.7003 -1.0344
 4401SOL    HW224666   1.855   2.011   2.732  0.5524 -0.7650  2.0298
 4402SOL     OW24667   1.588   0.106   7.500  0.0179 -0.4671 -0.0440
 4402SOL    HW124668   1.612   0.177   7.440 -1.1740 -0.2384 -0.2648
 4402SOL    HW224669   1.672   0.096   7.543  0.1060  1.7359  0.2782
 4403SOL     OW24670   0.321   2.030   1.586 -0.3850 -0.2839  0.0131
 4403SOL    HW124671   0.232   2.005   1.562 -1.1269  2.7603 -0.4590
 4403SOL    HW224672   0.355   1.945   1.612  0.0125  0.6078  2.4263
 4404SOL     OW24673   3.530   0.694   4.730  0.3424  0.3353  0.3438
 4404SOL    HW124674   3.498   0.608   4.705 -3.3725  1.5256  1.0083
 4404SOL    HW224675   3.597   0.676   4.796  2.1519  0.6309 -1.4132
 4405SOL     OW24676   3.344   0.269   2.034 -0.3644 -0.2237  0.2641
 4405SOL    HW124677   3.341   0.173   2.033 -1.5626 -0.1930  0.6963
 4405SOL    HW224678   3.435   0.285   2.059 -0.2432  1.9515 -1.5652
 4406SOL     OW24679   1.837   0.272   7.181 -0.6107  0.1758  0.0747
 4406SOL    HW124680   1.932   0.261   7.176 -0.5553 -0.3900  2.3079
 4406SOL    HW224681   1.824   0.315   7.265  0.7059 -0.6887  0.7225
 4407SOL     OW24682   2.128   3.134   7.729 -0.4024 -0.3197  0.2937
 4407SOL    HW124683   2.101   3.220   7.698 -1.3683 -0.7514 -0.0785
 4407SOL    HW224684   2.137   3.082   7.649  0.6916  0.3525 -0.0189
 4408SOL     OW24685   0.319   0.060   1.098 -0.0858 -0.1662 -0.2646
 4408SOL    HW124686   0.300   0.012   1.179 -0.3323  2.0733  0.9833
 4408SOL    HW224687   0.413   0.073   1.114 -0.5729 -1.1335  3.4699
 4409SOL     OW24688   2.591   0.619   8.566 -0.5353 -0.1328 -0.3694
 4409SOL    HW124689   2.613   0.605   8.658 -1.9159 -0.0342 -0.0338
 4409SOL    HW224690   2.499   0.644   8.571 -0.9250 -1.6774  0.0698
 4410SOL     OW24691   3.811   1.447   4.841  0.0587 -0.0223  0.1774
 4410SOL    HW124692   3.801   1.353   4.857  0.2899 -0.0203  0.3387
 4410SOL    HW224693   3.904   1.447   4.818  0.5943 -1.2032  2.2757
 4411SOL     OW24694   3.287   2.986   3.757  0.0820 -0.8322 -0.1027
 4411SOL    HW124695   3.304   3.054   3.821 -2.4194 -0.9800  0.7377
 4411SOL    HW224696   3.338   2.908   3.780 -0.5581 -1.4221 -0.6662
 4412SOL     OW24697   1.678   3.964   6.524 -0.2588 -0.0927 -0.2221
 4412SOL    HW124698   1.664   4.057   6.507  1.4260  0.1191 -0.4964
 4412SOL    HW224699   1.587   3.935   6.519 -0.2965 -0.8620  4.6816
 4413SOL     OW24700   0.262   4.481   0.915 -0.6043  0.3977 -0.2404
 4413SOL    HW124701   0.208   4.407   0.945  0.5097  0.3834  1.7671
 4413SOL    HW224702   0.195   4.539   0.879 -0.2661  1.1838  0.4004
 4414SOL     OW24703   4.645   2.841   4.295  0.1025 -0.0569 -0.3393
 4414SOL    HW124704   4.575   2.905   4.308  1.2204  1.5888 -2.4568
 4414SOL    HW224705   4.627   2.831   4.201  0.4470 -1.4159 -0.2637
 4415SOL     OW24706   0.136   4.400   2.960 -0.3549 -0.5596  0.3406
 4415SOL    HW124707   0.185   4.480   2.978  1.9409 -1.8883  0.1005
 4415SOL    HW224708   0.053   4.431   2.926 -2.0803 -1.6765  3.5119
 4416SOL     OW24709   3.875   0.940   9.655  0.4916 -0.1410 -0.2842
 4416SOL    HW124710   3.867   1.034   9.672 -1.0432 -0.6148  1.6121
 4416SOL    HW224711   3.928   0.946   9.576  0.2496 -1.6615 -0.5636
 4417SOL     OW24712   3.505   2.578   5.917  0.2893  0.7979  0.4758
 4417SOL    HW124713   3.470   2.549   6.002 -0.2705 -1.4696 -0.5346
 4417SOL    HW224714   3.493   2.673   5.925  0.9093  1.0405 -1.5652
 4418SOL     OW24715   1.048   3.930   1.556 -0.2590 -0.2647 -0.4675
 4418SOL    HW124716   0.975   3.992   1.551 -0.4772 -0.6105 -1.5143
 4418SOL    HW224717   1.033   3.879   1.635 -1.0905  1.7555  0.6815
 4419SOL     OW24718   3.869   1.137   5.208  0.2572  0.2394 -0.4395
 4419SOL    HW124719   3.965   1.139   5.211  0.3400 -1.0054 -2.5291
 4419SOL    HW224720   3.861   1.110   5.300 -0.5819  0.2126 -0.5194
 4420SOL     OW24721   0.951   0.941   0.711  0.2195  0.3903 -0.0766
 4420SOL    HW124722   0.858   0.963   0.711 -0.0266 -0.6523 -0.2169
 4420SOL    HW224723   0.960   0.947   0.806 -1.3011 -1.9572  0.2210
 4421SOL     OW24724   1.130   3.508   8.757  0.0395 -0.1566  0.2640
 4421SOL    HW124725   1.180   3.439   8.714  1.3692 -1.6644  4.2249
 4421SOL    HW224726   1.173   3.591   8.734  1.6339 -1.7839 -2.6151
 4422SOL     OW24727   1.684   0.197   0.287 -0.0571 -0.5231  0.0083
 4422SOL    HW124728   1.720   0.155   0.365 -2.5024 -0.8623  0.9791
 4422SOL    HW224729   1.632   0.266   0.329 -0.2927 -0.5989 -0.1551
 4423SOL     OW24730   0.282   3.151   4.778  0.2043  0.0340 -0.2326
 4423SOL    HW124731   0.219   3.191   4.718 -0.0750 -0.7084 -0.4306
 4423SOL    HW224732   0.253   3.060   4.785  1.5731 -0.4720 -1.0246
 4424SOL     OW24733   3.569   0.998  11.084  0.3978  0.4047 -0.4697
 4424SOL    HW124734   3.619   1.068  11.126 -0.1954 -0.7951  2.2202
 4424SOL    HW224735   3.487   1.047  11.087  0.6919  0.8855 -0.3118
 4425SOL     OW24736   0.105   2.455  15.985  0.3425  0.0160 -0.3796
 4425SOL    HW124737   0.133   2.525  16.045 -0.4849 -1.2810  1.5294
 4425SOL    HW224738   0.178   2.395  15.992  0.2804  0.0874  1.0156
 4426SOL     OW24739   3.767   0.400   4.400  0.8576 -0.2348  0.0427
 4426SOL    HW124740   3.689   0.374   4.450  0.1306 -1.6177 -1.8284
 4426SOL    HW224741   3.731   0.421   4.314  1.0040  0.1998  0.0882
 4427SOL     OW24742   0.508   3.683   3.786 -0.0483  0.4364  0.5742
 4427SOL    HW124743   0.432   3.675   3.843 -0.7365  1.4614 -0.1959
 4427SOL    HW224744   0.542   3.763   3.826  0.7763  1.3504 -1.9285
 4428SOL     OW24745   1.267   3.775   6.004  0.3730 -0.3325 -0.2422
 4428SOL    HW124746   1.267   3.740   5.915 -1.1209  1.4090 -0.9051
 4428SOL    HW224747   1.358   3.752   6.023  0.5633  0.3781 -0.3124
 4429SOL     OW24748   3.091   0.699  14.099 -0.0048  0.1493 -0.2151
 4429SOL    HW124749   3.015   0.736  14.054 -2.4844 -2.2187  2.0869
 4429SOL    HW224750   3.062   0.608  14.101 -0.5696  0.3435  0.4951
 4430SOL     OW24751   3.977   0.983   8.548 -0.0064  0.1918 -0.1732
 4430SOL    HW124752   4.063   1.011   8.517 -0.4046  0.9254 -0.6028
 4430SOL    HW224753   3.984   1.031   8.630 -0.1896 -0.1301  0.0322
 4431SOL     OW24754   2.501   1.324   3.086  0.1962 -0.1357  0.2860
 4431SOL    HW124755   2.486   1.282   3.170 -1.4466 -0.3416 -0.0994
 4431SOL    HW224756   2.416   1.353   3.053  0.5861 -0.0543 -0.6493
 4432SOL     OW24757   1.271   3.343  10.909 -0.6845 -0.1044 -0.1636
 4432SOL    HW124758   1.281   3.311  10.819 -2.4557 -0.8757 -0.1018
 4432SOL    HW224759   1.222   3.425  10.899  0.1203  0.4657  0.5853
 4433SOL     OW24760   2.728   0.030   6.010  0.1471  0.0942 -0.6871
 4433SOL    HW124761   2.684   0.095   5.954 -1.0431 -1.5270 -1.6268
 4433SOL    HW224762   2.694   4.666   5.979 -0.4006 -0.9492  2.7229
 4434SOL     OW24763   3.069   0.378  13.272 -0.5849 -0.6000  0.0589
 4434SOL    HW124764   2.980   0.383  13.239 -0.2918 -0.2984 -0.6888
 4434SOL    HW224765   3.062   0.321  13.348 -0.5465  0.3950  0.8048
 4435SOL     OW24766   1.932   1.359   4.607 -0.1186  0.4795  0.3261
 4435SOL    HW124767   2.014   1.311   4.592  0.5395  1.6948 -0.0098
 4435SOL    HW224768   1.960   1.428   4.668 -0.6595  2.4786 -1.6772
 4436SOL     OW24769   4.217   1.109  16.555  0.1903  0.2964  0.8852
 4436SOL    HW124770   4.144   1.066  16.512  2.6020  0.7073 -3.5733
 4436SOL    HW224771   4.198   1.202  16.541  0.0084  0.1406  0.1296
 4437SOL     OW24772   1.775   1.554   0.284 -0.2165 -0.5746  0.0223
 4437SOL    HW124773   1.785   1.459   0.281 -0.5611 -0.5755 -0.9255
 4437SOL    HW224774   1.713   1.562   0.212 -1.8384  1.1789  1.6354
 4438SOL     OW24775   2.466   4.431   1.545  0.4311  0.4083 -0.2662
 4438SOL    HW124776   2.460   4.465   1.455  1.7056  0.1779 -0.4453
 4438SOL    HW224777   2.558   4.404   1.548  0.1553 -0.5823 -0.5147
 4439SOL     OW24778   0.218   1.588  10.114  0.5374 -0.5169  0.2468
 4439SOL    HW124779   0.282   1.586  10.042  0.2614 -1.4703  0.0233
 4439SOL    HW224780   0.160   1.514  10.096 -0.2645  0.0614  0.4707
 4440SOL     OW24781   1.282   2.025   4.426 -0.7568 -0.2187  0.5582
 4440SOL    HW124782   1.357   2.074   4.460 -1.6056  1.5060 -0.0157
 4440SOL    HW224783   1.263   2.083   4.352  1.0088  0.3509  0.5576
 4441SOL     OW24784   3.202   3.743   1.136  0.4872  0.4210  0.2771
 4441SOL    HW124785   3.196   3.824   1.187 -3.0338  1.2615 -1.4672
 4441SOL    HW224786   3.212   3.772   1.045 -0.9562  0.0679 -0.0060
 4442SOL     OW24787   0.186   2.611  11.473  0.2140  0.0050  0.6288
 4442SOL    HW124788   0.171   2.681  11.537 -0.3031 -0.5670  1.1384
 4442SOL    HW224789   0.215   2.545  11.537  2.3820  1.2969  0.9618
 4443SOL     OW24790   3.710   4.371   0.614 -0.1173 -0.3007 -0.2905
 4443SOL    HW124791   3.710   4.279   0.641  4.2965 -0.5387 -1.1291
 4443SOL    HW224792   3.794   4.380   0.571 -0.1796  0.1055 -0.3271
 4444SOL     OW24793   2.256   4.043   5.254  0.7909 -0.4427 -0.3376
 4444SOL    HW124794   2.334   3.996   5.225  1.3942  1.0595 -1.1850
 4444SOL    HW224795   2.263   4.021   5.347 -0.5956  2.1078  0.3733
 4445SOL     OW24796   1.793   3.231   9.544  0.6022  0.5170  0.0575
 4445SOL    HW124797   1.879   3.194   9.522 -0.2581 -1.5132  0.0720
 4445SOL    HW224798   1.740   3.178   9.484 -0.2513  2.5374 -0.9737
 4446SOL     OW24799   3.733   4.576   5.122 -0.0250  0.0803 -0.5644
 4446SOL    HW124800   3.670   4.614   5.183  0.8024  1.1994 -0.4098
 4446SOL    HW224801   3.807   4.563   5.182 -0.7963 -2.6941 -0.2319
 4447SOL     OW24802   4.209   0.106   1.245 -0.6909 -0.0057 -0.6255
 4447SOL    HW124803   4.133   0.050   1.229 -1.6722  0.9037  0.8698
 4447SOL    HW224804   4.257   0.075   1.168  3.3194 -3.1951  3.1509
 4448SOL     OW24805   4.315   1.922  12.783  0.1405  0.1032 -0.1396
 4448SOL    HW124806   4.282   2.002  12.824 -2.4578 -1.4614  0.8067
 4448SOL    HW224807   4.390   1.956  12.734 -0.6243  3.6979  1.1506
 4449SOL     OW24808   3.649   4.481  16.187  0.1454  0.1773 -0.4372
 4449SOL    HW124809   3.593   4.430  16.128 -0.3036  0.9654 -0.6830
 4449SOL    HW224810   3.596   4.560  16.196 -0.3991 -0.3674  1.2485
 4450SOL     OW24811   3.008   0.548   3.759 -0.1875 -0.3793 -0.6137
 4450SOL    HW124812   3.103   0.552   3.748 -0.0264 -1.9672  0.1702
 4450SOL    HW224813   2.981   0.639   3.753  0.3238 -0.0728  1.8124
 4451SOL     OW24814   4.092   3.984   3.867 -0.0279  0.2147 -0.1367
 4451SOL    HW124815   4.000   3.961   3.855 -0.0010  0.7175 -1.2846
 4451SOL    HW224816   4.107   4.074   3.839  0.1034 -0.4374 -2.1770
 4452SOL     OW24817   1.457   2.717   9.854  0.1152  0.0693  0.4196
 4452SOL    HW124818   1.469   2.804   9.815 -0.8538  0.1143  0.2252
 4452SOL    HW224819   1.437   2.741   9.945 -1.9422 -1.4325  0.3535
 4453SOL     OW24820   3.131   0.204   1.454  0.2214  0.5056 -0.0463
 4453SOL    HW124821   3.145   0.127   1.508  0.7437  1.9799  1.9319
 4453SOL    HW224822   3.158   0.274   1.514  3.1400 -0.3382 -0.4009
 4454SOL     OW24823   3.155   1.119   4.845 -0.6998  0.8061  0.4626
 4454SOL    HW124824   3.157   1.154   4.756 -0.2361  0.3678  0.3009
 4454SOL    HW224825   3.240   1.077   4.854 -0.6288  0.9437  0.4453
 4455SOL     OW24826   4.396   2.509   8.881  0.1675  0.4402 -0.0922
 4455SOL    HW124827   4.442   2.588   8.851 -3.5790  1.7919 -2.3607
 4455SOL    HW224828   4.465   2.477   8.939  0.4379  1.3764  0.1009
 4456SOL     OW24829   2.502   4.370   3.784  0.1454  0.0780 -0.2242
 4456SOL    HW124830   2.587   4.413   3.791 -0.2607  0.7926  0.3773
 4456SOL    HW224831   2.438   4.440   3.799 -0.1560 -0.0641 -0.8340
 4457SOL     OW24832   1.190   3.443   3.093  0.3132  0.2233 -0.1041
 4457SOL    HW124833   1.156   3.532   3.092  0.0185  0.1314  1.6267
 4457SOL    HW224834   1.259   3.445   3.027 -1.6165  0.1079 -2.1200
 4458SOL     OW24835   3.358   2.066   8.279 -0.1836 -0.2432  0.1142
 4458SOL    HW124836   3.361   2.052   8.374 -1.1092 -0.6736  0.0910
 4458SOL    HW224837   3.281   2.123   8.285 -1.3049 -1.8220  1.0546
 4459SOL     OW24838   2.768   0.730   8.354 -0.7523  0.2765  0.0251
 4459SOL    HW124839   2.807   0.647   8.329 -0.6541  0.0961  0.7624
 4459SOL    HW224840   2.713   0.710   8.430 -2.4217  2.7021 -0.5424
 4460SOL     OW24841   1.006   2.545  14.652  0.0855 -0.1853  0.1063
 4460SOL    HW124842   1.088   2.594  14.658  1.5803 -2.5994 -1.1306
 4460SOL    HW224843   0.968   2.546  14.740  1.0749  1.3465  0.5171
 4461SOL     OW24844   1.353   1.859  10.440  0.5098  0.0370  0.0334
 4461SOL    HW124845   1.336   1.822  10.527  0.2767 -1.3708 -0.6184
 4461SOL    HW224846   1.448   1.860  10.435  0.6014  0.3636  2.0245
 4462SOL     OW24847   0.376   0.104   6.339 -0.6520 -0.3928  0.3252
 4462SOL    HW124848   0.302   0.044   6.348 -1.7807  1.2640  2.2885
 4462SOL    HW224849   0.315   0.171   6.308 -0.8965 -0.7613  0.0159
 4463SOL     OW24850   0.171   1.590   5.041  0.1378  0.1310  1.1651
 4463SOL    HW124851   0.136   1.565   4.955 -1.1083  0.5747  1.5386
 4463SOL    HW224852   0.256   1.547   5.046 -0.2157 -0.9274 -1.9722
 4464SOL     OW24853   4.061   1.868  16.628 -0.1358  0.2199  0.2497
 4464SOL    HW124854   4.137   1.835  16.676  0.0522  0.4261  0.0948
 4464SOL    HW224855   4.089   1.858  16.537  2.0716 -0.1216  0.9616
 4465SOL     OW24856   3.465   0.582  14.274 -0.0341 -0.3792 -0.2453
 4465SOL    HW124857   3.458   0.600  14.368  0.0451 -1.3082 -0.0646
 4465SOL    HW224858   3.398   0.644  14.246  2.1504  1.6656 -0.9974
 4466SOL     OW24859   0.004   1.802   2.349  0.4687 -0.1287 -0.5027
 4466SOL    HW124860   0.067   1.793   2.278 -1.9955 -1.5211 -2.5635
 4466SOL    HW224861   4.651   1.751   2.313 -0.1909  0.8007 -0.4827
 4467SOL     OW24862   1.864   2.325   2.647 -0.0813 -0.3584  0.2435
 4467SOL    HW124863   1.780   2.371   2.655 -1.0110 -2.0491  0.0730
 4467SOL    HW224864   1.883   2.337   2.553 -1.3864  1.3536  0.2031
 4468SOL     OW24865   2.953   0.117   6.722 -0.7114  0.2636 -0.2612
 4468SOL    HW124866   3.009   0.190   6.749 -0.4124 -1.4361  3.6262
 4468SOL    HW224867   2.964   0.114   6.627  1.3670 -0.3183  0.0075
 4469SOL     OW24868   3.519   4.277  16.449  0.1037  0.3728 -0.4794
 4469SOL    HW124869   3.457   4.214  16.486  2.9018 -1.9818  0.2807
 4469SOL    HW224870   3.557   4.225  16.378 -0.0934 -1.4272  0.7264
 4470SOL     OW24871   0.923   4.477  15.219  0.0952 -0.5584  0.0467
 4470SOL    HW124872   0.901   4.407  15.280 -0.8371 -0.8451 -0.6188
 4470SOL    HW224873   0.862   4.547  15.242  0.5049  0.6568 -2.5135
 4471SOL     OW24874   0.417   2.415  14.665 -0.2147  0.3230 -0.4415
 4471SOL    HW124875   0.460   2.472  14.602  0.5438 -0.4230 -0.5947
 4471SOL    HW224876   0.332   2.459  14.669 -0.3845  0.0797 -1.4004
 4472SOL     OW24877   1.897   4.223   5.500  0.4314  0.5258 -0.6537
 4472SOL    HW124878   1.983   4.195   5.531 -0.8937 -1.1858  1.4733
 4472SOL    HW224879   1.929   4.273   5.424 -2.2841  0.6283 -1.7497
 4473SOL     OW24880   3.795   0.607   3.402  0.1460 -0.1808  0.4750
 4473SOL    HW124881   3.730   0.676   3.410  1.6665  1.2298  0.7685
 4473SOL    HW224882   3.750   0.555   3.336  0.4332  0.0557  0.0867
 4474SOL     OW24883   1.082   3.832   2.680  0.0219  0.0879 -0.2269
 4474SOL    HW124884   1.093   3.843   2.775  0.0130  0.0084 -0.2166
 4474SOL    HW224885   1.017   3.901   2.671 -0.9872 -0.8652 -0.2482
 4475SOL     OW24886   3.702   2.705  13.613 -0.7091  0.6107 -0.5685
 4475SOL    HW124887   3.657   2.760  13.677  2.1226  1.1062  1.0035
 4475SOL    HW224888   3.744   2.643  13.672 -3.3015  0.5830  1.2195
 4476SOL     OW24889   1.915   3.861   6.675  0.1023  0.0261  0.5285
 4476SOL    HW124890   1.940   3.786   6.621  1.7083  2.2707 -1.8397
 4476SOL    HW224891   1.829   3.884   6.641 -0.7346 -2.2044  1.1587
 4477SOL     OW24892   3.711   1.285  13.544 -0.2867  0.4745  0.3241
 4477SOL    HW124893   3.760   1.283  13.462  0.0011 -0.0107  0.5054
 4477SOL    HW224894   3.776   1.320  13.605 -0.2917  1.1063 -0.0338
 4478SOL     OW24895   0.147   1.299   7.554 -0.1637  0.1878  0.1379
 4478SOL    HW124896   0.232   1.301   7.511 -1.1255 -1.2420 -1.8458
 4478SOL    HW224897   0.109   1.378   7.515  1.4604  0.3368 -1.1494
 4479SOL     OW24898   0.042   0.186   8.116 -0.3297  0.2781 -0.3360
 4479SOL    HW124899   4.709   0.221   8.187  0.3900  1.7454 -0.5256
 4479SOL    HW224900   4.702   0.131   8.066 -0.5322 -1.1464  1.4306
 4480SOL     OW24901   4.586   0.325   1.041 -0.0430 -0.5705  0.3674
 4480SOL    HW124902   4.519   0.331   0.973 -1.5622 -0.7561  1.8519
 4480SOL    HW224903   4.539   0.342   1.123  0.6794  0.7876  0.5014
 4481SOL     OW24904   4.558   1.011   1.125  0.1347 -0.7106  0.2214
 4481SOL    HW124905   4.648   1.043   1.127  0.4469 -1.4094 -1.9885
 4481SOL    HW224906   4.505   1.087   1.149 -0.8682 -2.5423  3.7827
 4482SOL     OW24907   4.410   4.212   4.346 -0.0946 -0.9328 -0.2620
 4482SOL    HW124908   4.471   4.147   4.379  1.6583  0.2386 -1.1786
 4482SOL    HW224909   4.334   4.198   4.402 -0.5117  3.1759  0.1864
 4483SOL     OW24910   2.484   2.537   9.498  0.1388  0.0923  0.1660
 4483SOL    HW124911   2.445   2.480   9.565  0.5309 -0.5058 -0.1175
 4483SOL    HW224912   2.508   2.476   9.428  0.9162  0.4146  0.1537
 4484SOL     OW24913   0.829   0.108  10.771  0.3250  0.9367 -0.4199
 4484SOL    HW124914   0.824   0.150  10.857 -0.7627  1.1605 -0.5906
 4484SOL    HW224915   0.751   0.145  10.729 -0.3782  2.0948  1.8893
 4485SOL     OW24916   1.803   2.653   1.323 -0.8880  0.1775 -0.6523
 4485SOL    HW124917   1.891   2.692   1.326  0.0200 -2.0244  0.7793
 4485SOL    HW224918   1.785   2.682   1.413 -2.7330 -1.7585 -0.4045
 4486SOL     OW24919   3.992   0.503   5.801  0.3613  0.5351 -0.3441
 4486SOL    HW124920   3.984   0.563   5.728 -2.5789 -1.2498 -1.4554
 4486SOL    HW224921   3.903   0.468   5.808  1.0801 -1.2526  0.1092
 4487SOL     OW24922   2.501   2.424  15.672  0.7013 -0.1813  0.0002
 4487SOL    HW124923   2.426   2.482  15.659 -0.2900 -0.9937  2.1384
 4487SOL    HW224924   2.507   2.384  15.585  2.1424 -1.0738  0.5228
 4488SOL     OW24925   2.027   3.108   2.055  0.0689 -0.4390  0.4331
 4488SOL    HW124926   1.947   3.065   2.025  0.3102 -0.6332  0.0603
 4488SOL    HW224927   2.065   3.135   1.971 -4.2872  6.1294  0.5909
 4489SOL     OW24928   2.084   4.280   4.356  0.3798  0.0151  0.4766
 4489SOL    HW124929   2.159   4.222   4.345  0.9054  0.7471  0.2036
 4489SOL    HW224930   2.017   4.220   4.388  0.3861 -1.0875 -1.5711
 4490SOL     OW24931   3.383   3.797   5.165 -0.4846 -0.8276 -0.0087
 4490SOL    HW124932   3.385   3.708   5.199 -2.7432 -1.1713 -0.7655
 4490SOL    HW224933   3.444   3.846   5.221 -0.8226 -0.3865 -0.0248
 4491SOL     OW24934   1.169   1.904   1.759 -0.2201  0.3483  0.0092
 4491SOL    HW124935   1.096   1.925   1.700  1.0800  1.4591 -1.1901
 4491SOL    HW224936   1.246   1.948   1.722 -1.6229  2.5679 -0.2439
 4492SOL     OW24937   4.275   3.626   9.853 -0.0510 -0.2509  0.3130
 4492SOL    HW124938   4.309   3.596   9.938 -0.7817  0.1188  0.7375
 4492SOL    HW224939   4.261   3.538   9.819 -2.5564 -0.8166  2.8108
 4493SOL     OW24940   2.936   0.837   9.125 -0.0836 -0.7014 -0.6502
 4493SOL    HW124941   2.953   0.842   9.219 -1.2302 -3.0721 -0.3153
 4493SOL    HW224942   3.020   0.879   9.102 -0.5047 -0.6040 -2.0056
 4494SOL     OW24943   0.825   2.454  14.453 -0.4124 -0.6117  0.6252
 4494SOL    HW124944   0.877   2.405  14.389  1.2661  2.1739 -0.1174
 4494SOL    HW224945   0.883   2.495  14.517  0.5042 -0.0414 -0.5725
 4495SOL     OW24946   2.491   3.594   5.361 -0.0816 -0.3479 -0.0354
 4495SOL    HW124947   2.412   3.630   5.401  0.8393 -1.5572  2.9258
 4495SOL    HW224948   2.557   3.649   5.404 -0.1029 -0.8478  0.6446
 4496SOL     OW24949   1.693   2.410  14.803  0.4942 -0.3148 -0.5292
 4496SOL    HW124950   1.774   2.368  14.773  2.6249  2.3986  1.3878
 4496SOL    HW224951   1.641   2.403  14.723 -0.9937 -1.5720  0.5377
 4497SOL     OW24952   0.991   2.729   6.908  0.0881 -0.3157  0.5139
 4497SOL    HW124953   0.988   2.644   6.953 -0.1219 -0.3321  0.4699
 4497SOL    HW224954   1.074   2.761   6.941  0.4577  0.6396 -1.3144
 4498SOL     OW24955   0.589   1.890  17.063 -0.3534  0.9741  0.5562
 4498SOL    HW124956   0.497   1.908  17.080 -0.9189 -1.7218  0.3738
 4498SOL    HW224957   0.607   1.830  17.136  0.5120 -0.7646 -1.0770
 4499SOL     OW24958   4.714   3.272  12.098  0.0419 -0.0756  0.5084
 4499SOL    HW124959   4.633   3.241  12.138 -0.7549  4.1484  2.2392
 4499SOL    HW224960   4.707   3.364  12.123  0.2377  0.7664 -2.5240
 4500SOL     OW24961   2.935   1.921   2.955  1.1483  0.3310 -0.1122
 4500SOL    HW124962   2.923   1.826   2.961 -1.1271  0.6710  0.7751
 4500SOL    HW224963   2.910   1.946   2.866  1.6459  1.3168  0.0233
 4501SOL     OW24964   0.455   3.669  11.297 -0.1672  0.0070 -0.1439
 4501SOL    HW124965   0.447   3.616  11.376 -0.5512  1.5016  0.8252
 4501SOL    HW224966   0.383   3.643  11.240  1.1017 -2.3329 -0.6767
 4502SOL     OW24967   4.577   1.327   1.338 -0.0931 -0.0733  0.2542
 4502SOL    HW124968   4.668   1.306   1.358  0.3180  0.2391 -1.3317
 4502SOL    HW224969   4.571   1.301   1.246 -0.4160 -2.4784  0.9277
 4503SOL     OW24970   0.447   4.088   4.222 -0.0897 -0.1433 -0.0195
 4503SOL    HW124971   0.456   4.071   4.128  1.0603  0.6837 -0.0526
 4503SOL    HW224972   0.497   4.169   4.229  0.0918 -0.2975  0.4143
 4504SOL     OW24973   1.557   4.066   3.983  0.2216  0.0201 -0.4975
 4504SOL    HW124974   1.595   4.113   3.909  0.1266  2.7062  1.1609
 4504SOL    HW224975   1.588   4.120   4.056  0.4507 -0.5464 -0.1735
 4505SOL     OW24976   3.934   1.085  10.924  0.2228  0.1023 -0.4705
 4505SOL    HW124977   3.878   1.117  10.853  0.6616 -1.4201 -1.5092
 4505SOL    HW224978   3.883   1.007  10.947  0.9190 -0.7340 -1.7509
 4506SOL     OW24979   1.723   1.587  13.264 -0.2922  0.2489 -0.2071
 4506SOL    HW124980   1.815   1.562  13.275 -0.7922 -1.1380  0.7222
 4506SOL    HW224981   1.707   1.606  13.356 -0.7241  0.5727 -0.3533
 4507SOL     OW24982   0.231   1.053  14.505  0.2217  0.2156  0.0230
 4507SOL    HW124983   0.265   1.140  14.525  0.7025 -0.1711  0.8750
 4507SOL    HW224984   0.310   0.998  14.502 -0.5516 -0.9859  1.5530
 4508SOL     OW24985   3.971   1.324  10.323  0.1928  0.3633  0.0198
 4508SOL    HW124986   4.015   1.345  10.405 -0.2036 -1.4354  0.6743
 4508SOL    HW224987   3.897   1.383  10.340 -0.6152 -0.6125 -0.1563
 4509SOL     OW24988   1.280   2.133   2.240  0.3836  0.3082  0.2595
 4509SOL    HW124989   1.190   2.142   2.271 -0.3042 -2.2989 -0.9758
 4509SOL    HW224990   1.269   2.088   2.156  2.0088  0.6973 -0.1653
 4510SOL     OW24991   1.126   1.473   6.558  0.0395 -0.0115  0.3834
 4510SOL    HW124992   1.178   1.541   6.515 -0.3612 -0.4684 -0.8057
 4510SOL    HW224993   1.140   1.397   6.502 -0.4891  0.2253 -0.0676
 4511SOL     OW24994   3.171   1.176  13.144 -0.1631  0.5100 -0.0491
 4511SOL    HW124995   3.172   1.117  13.220 -1.4956  1.1543  0.4625
 4511SOL    HW224996   3.260   1.211  13.141  0.4830 -1.1776 -0.5505
 4512SOL     OW24997   4.073   3.787   6.680  0.2204  0.3080 -0.3784
 4512SOL    HW124998   4.151   3.775   6.627  1.8600  2.3374  1.5812
 4512SOL    HW224999   4.019   3.717   6.641  2.2177 -2.0398  1.0426
 4513SOL     OW25000   4.126   0.605   6.758  0.2172  0.1459 -0.4868
 4513SOL    HW125001   4.125   0.516   6.723  1.2709  0.6651 -1.8239
 4513SOL    HW225002   4.157   0.604   6.849  0.3113 -0.4987 -0.5248
 4514SOL     OW25003   2.996   4.431   5.074 -0.3057  0.4062 -0.4624
 4514SOL    HW125004   3.083   4.397   5.099  0.5607 -0.1085 -4.1594
 4514SOL    HW225005   3.019   4.497   5.009 -0.5090  0.9308  0.0004
 4515SOL     OW25006   2.302   0.283   1.552 -0.0798 -0.2625 -0.0587
 4515SOL    HW125007   2.221   0.233   1.563  0.7160 -1.7732 -1.0543
 4515SOL    HW225008   2.363   0.214   1.528  1.7848  1.2589  0.3334
 4516SOL     OW25009   3.259   1.551   7.769  0.3524  0.8802  0.1125
 4516SOL    HW125010   3.312   1.611   7.822  0.3894  0.9698 -0.0271
 4516SOL    HW225011   3.262   1.594   7.684 -1.5062 -0.1016 -0.4521
 4517SOL     OW25012   2.021   1.819   3.510  0.3350  0.5170  0.5589
 4517SOL    HW125013   1.945   1.815   3.453 -0.5440 -0.8003  1.8364
 4517SOL    HW225014   1.974   1.824   3.593 -1.3967 -1.2086 -0.3178
 4518SOL     OW25015   3.416   1.024   4.226  0.2596  0.1655  0.2540
 4518SOL    HW125016   3.443   1.111   4.195 -0.5482  0.5453  0.6037
 4518SOL    HW225017   3.323   1.040   4.208  0.4655  0.7759 -0.2706
 4519SOL     OW25018   0.153   0.011   3.954 -0.3178  0.6715  0.3208
 4519SOL    HW125019   0.168   0.021   3.860 -1.0580  1.0100  0.2438
 4519SOL    HW225020   0.245   0.027   3.977  0.1162 -0.4499 -0.6347
 4520SOL     OW25021   1.630   1.723  14.223  0.3736  0.1699  0.5718
 4520SOL    HW125022   1.654   1.668  14.298 -1.8553 -1.4029  0.1266
 4520SOL    HW225023   1.676   1.665  14.162  2.0604 -0.9476  2.8874
 4521SOL     OW25024   4.276   4.185   0.393 -0.5332 -0.0413  0.0531
 4521SOL    HW125025   4.308   4.097   0.371  0.1003  0.8558 -2.5578
 4521SOL    HW225026   4.249   4.187   0.485  1.8687 -1.5217  0.7817
 4522SOL     OW25027   0.677   1.179   1.499 -0.1336  0.0902 -0.6437
 4522SOL    HW125028   0.634   1.198   1.415 -1.7622  0.4695  0.2895
 4522SOL    HW225029   0.666   1.262   1.545  2.3053 -0.1458  0.3797
 4523SOL     OW25030   0.250   2.227  10.285 -0.0144 -0.4357  0.2084
 4523SOL    HW125031   0.219   2.185  10.205  1.0401  1.1265 -1.0328
 4523SOL    HW225032   0.197   2.186  10.353  0.2602 -1.7159 -0.3592
 4524SOL     OW25033   3.480   2.710  11.490  0.3308  0.0527 -0.4290
 4524SOL    HW125034   3.387   2.703  11.516  0.6185 -1.6232  0.1728
 4524SOL    HW225035   3.481   2.745  11.401  1.2023 -3.1534 -1.6795
 4525SOL     OW25036   1.557   1.747   2.227  0.0331 -0.3096  0.2741
 4525SOL    HW125037   1.482   1.767   2.283 -0.4848  1.9675 -1.2218
 4525SOL    HW225038   1.518   1.722   2.143  0.2586  1.5238 -0.3714
 4526SOL     OW25039   4.642   3.656   4.555  0.7720 -0.5110  0.7731
 4526SOL    HW125040   4.653   3.652   4.650 -0.9800  0.8450  1.0187
 4526SOL    HW225041   4.550   3.630   4.548  0.6333  0.0974  0.3852
 4527SOL     OW25042   1.209   2.001   0.939  0.0190  0.7241 -0.1684
 4527SOL    HW125043   1.188   1.909   0.952  0.8046  0.5531 -0.1338
 4527SOL    HW225044   1.303   2.011   0.952 -0.0527 -0.3351  1.1397
 4528SOL     OW25045   4.347   1.526   2.406 -0.0018 -0.4266  0.0374
 4528SOL    HW125046   4.349   1.531   2.502  1.6389  0.3792 -0.0437
 4528SOL    HW225047   4.278   1.462   2.387 -0.0163 -0.4426  0.1422
 4529SOL     OW25048   1.203   3.897  16.921  0.1127  0.6371 -0.0413
 4529SOL    HW125049   1.285   3.871  16.879  1.0207  3.0929  0.1639
 4529SOL    HW225050   1.147   3.820  16.917 -2.2155  2.3239 -0.4948
 4530SOL     OW25051   1.330   1.622   5.277  0.2549 -1.1027  0.4385
 4530SOL    HW125052   1.282   1.694   5.319  2.3512  0.2302  0.5491
 4530SOL    HW225053   1.308   1.552   5.339  2.5343 -3.1872 -1.1121
 4531SOL     OW25054   3.254   0.621   5.770  0.4840 -0.0918  0.0098
 4531SOL    HW125055   3.159   0.608   5.759  0.2131  2.7330 -0.9688
 4531SOL    HW225056   3.255   0.636   5.864  0.8218  0.8087 -0.1450
 4532SOL     OW25057   1.762   2.636  14.983  0.5199  0.0430 -0.0631
 4532SOL    HW125058   1.723   2.578  14.917 -0.5443  1.1995 -0.4490
 4532SOL    HW225059   1.829   2.677  14.928 -0.1456 -1.3333 -1.8969
 4533SOL     OW25060   3.393   1.063  12.907 -0.4245 -0.0251  0.3181
 4533SOL    HW125061   3.434   1.129  12.964  0.3389  0.9778 -1.4111
 4533SOL    HW225062   3.346   1.000  12.961  0.0400  0.1848  0.9758
 4534SOL     OW25063   3.649   1.854  16.563 -0.6115 -0.1039  0.3626
 4534SOL    HW125064   3.659   1.948  16.555 -0.4168 -0.1898 -0.3884
 4534SOL    HW225065   3.564   1.857  16.518 -1.0653  0.5334  1.2680
 4535SOL     OW25066   4.214   4.585   7.784  0.5822  0.4840  0.2604
 4535SOL    HW125067   4.140   4.533   7.815  1.0055  0.0014  0.4509
 4535SOL    HW225068   4.171   4.656   7.735 -0.0198 -0.7280 -0.9372
 4536SOL     OW25069   0.136   0.567  12.235  0.1267  0.2480  0.1478
 4536SOL    HW125070   0.069   0.570  12.303  1.6259  1.1977  1.5820
 4536SOL    HW225071   0.160   0.474  12.235 -0.7631  0.0137 -1.0759
 4537SOL     OW25072   0.199   1.531  10.563 -0.0213  0.0979  0.2155
 4537SOL    HW125073   0.221   1.465  10.628  0.1891 -0.6392 -0.6104
 4537SOL    HW225074   0.286   1.572  10.554  1.1971 -2.8317 -1.1119
 4538SOL     OW25075   3.184   2.236   7.595 -0.4217  0.0885 -0.2697
 4538SOL    HW125076   3.248   2.224   7.665  1.6428  2.2630 -1.7709
 4538SOL    HW225077   3.138   2.153   7.580 -2.2204  1.2809 -1.2451
 4539SOL     OW25078   1.748   3.795   3.929 -0.3085 -0.3037  0.0281
 4539SOL    HW125079   1.695   3.862   3.974 -1.8773 -2.3434  1.2113
 4539SOL    HW225080   1.805   3.842   3.868 -0.9487 -0.9182 -1.0370
 4540SOL     OW25081   4.652   2.808  11.548  0.0140 -0.3208  0.3421
 4540SOL    HW125082   4.693   2.827  11.464  0.2935 -0.7230  0.3882
 4540SOL    HW225083   0.008   2.806  11.606  1.3033  0.0476 -1.3430
 4541SOL     OW25084   2.190   0.003   8.831 -0.1215 -0.0859 -0.3090
 4541SOL    HW125085   2.198   0.016   8.736  1.0713 -0.7396 -0.2951
 4541SOL    HW225086   2.118   0.064   8.843  0.5851 -0.0084  3.4217
 4542SOL     OW25087   3.490   4.665   9.980  0.1114  0.3695  0.0943
 4542SOL    HW125088   3.487   0.003   9.903  1.4138 -0.7458 -0.8015
 4542SOL    HW225089   3.577   4.689  10.012  0.0069 -0.2227  0.8130
 4543SOL     OW25090   2.582   3.957   6.862  0.5803  0.1791  0.0703
 4543SOL    HW125091   2.632   3.922   6.788 -1.8467  0.0702 -1.5273
 4543SOL    HW225092   2.547   4.042   6.833 -0.1330  0.3523  1.4441
 4544SOL     OW25093   2.570   0.318   8.888 -0.1829  0.3294  0.5077
 4544SOL    HW125094   2.589   0.269   8.968  0.5667 -1.4635 -0.7773
 4544SOL    HW225095   2.476   0.332   8.896 -0.1196  0.1818  1.5711
 4545SOL     OW25096   3.966   1.758  10.325 -0.3617 -0.1556  0.2205
 4545SOL    HW125097   3.891   1.815  10.338  0.4086  0.4941  1.8827
 4545SOL    HW225098   3.920   1.674  10.327 -1.6201  0.5209 -0.7869
 4546SOL     OW25099   2.307   2.680   9.348  0.2399 -0.0299 -0.2402
 4546SOL    HW125100   2.355   2.609   9.390 -1.4703 -0.6062  0.7325
 4546SOL    HW225101   2.251   2.724   9.412 -0.7666 -3.1336  0.9990
 4547SOL     OW25102   2.175   1.239   4.509  0.6509 -0.0327  0.9466
 4547SOL    HW125103   2.104   1.219   4.448  1.4434  2.0025 -0.6497
 4547SOL    HW225104   2.245   1.184   4.474  0.0081  0.3489 -0.9827
 4548SOL     OW25105   2.398   2.098  12.441 -0.1388 -0.7927  0.2544
 4548SOL    HW125106   2.327   2.045  12.479  0.0912  1.0945  3.3459
 4548SOL    HW225107   2.350   2.128  12.364  3.9319 -0.6603 -2.1585
 4549SOL     OW25108   1.405   1.767   8.281 -0.3053  0.1943 -0.1793
 4549SOL    HW125109   1.441   1.711   8.350 -1.5669 -0.5698 -0.1369
 4549SOL    HW225110   1.353   1.829   8.332 -1.2113  0.3053 -1.2307
 4550SOL     OW25111   1.578   1.104   5.662  0.1689 -0.2142  0.5147
 4550SOL    HW125112   1.579   1.025   5.608  2.3407  1.2299 -1.5551
 4550SOL    HW225113   1.609   1.076   5.749  1.9951 -0.9859 -0.3767
 4551SOL     OW25114   3.495   0.091  11.312 -0.2984 -0.6563  0.1484
 4551SOL    HW125115   3.491   4.720  11.286 -1.2764 -0.7270  0.5362
 4551SOL    HW225116   3.401   0.106  11.314 -0.2569 -0.4156  0.4402
 4552SOL     OW25117   0.456   0.195  13.278 -0.5084 -0.0985 -0.0806
 4552SOL    HW125118   0.526   0.252  13.311  0.9985 -1.2548 -1.3056
 4552SOL    HW225119   0.414   0.165  13.359 -0.8720 -0.9601 -0.5952
 4553SOL     OW25120   0.275   3.502   4.223 -0.1437 -0.4893  0.0182
 4553SOL    HW125121   0.215   3.509   4.298  1.5005 -0.1499  1.3139
 4553SOL    HW225122   0.352   3.507   4.280 -0.7373  0.8496  0.7005
 4554SOL     OW25123   4.488   2.485   9.422 -0.4113 -0.2140 -0.1802
 4554SOL    HW125124   4.452   2.426   9.356  0.2262 -1.9806  1.0489
 4554SOL    HW225125   4.447   2.452   9.502 -0.3552  0.2551  0.0439
 4555SOL     OW25126   0.921   1.994   4.018 -0.6843  0.0472 -0.2779
 4555SOL    HW125127   0.965   2.042   3.948 -2.2658 -0.2099 -1.4475
 4555SOL    HW225128   0.990   1.929   4.031  0.8027  1.3116 -1.9686
 4556SOL     OW25129   1.626   1.216   6.594 -0.5525  0.0513  0.1109
 4556SOL    HW125130   1.574   1.264   6.529 -2.5145  0.6289  2.1097
 4556SOL    HW225131   1.707   1.214   6.543 -0.8974  2.1666 -0.5200
 4557SOL     OW25132   1.772   2.408   9.250  0.4467  0.1774 -0.0661
 4557SOL    HW125133   1.690   2.369   9.279 -0.1412  0.4360 -1.3942
 4557SOL    HW225134   1.743   2.483   9.199 -0.3125 -0.7760 -1.0359
 4558SOL     OW25135   0.972   1.358   3.275 -0.1671 -0.0079 -0.6404
 4558SOL    HW125136   0.992   1.272   3.237  1.0919 -0.4721  1.0796
 4558SOL    HW225137   1.058   1.366   3.316 -1.8579  1.3036  2.6628
 4559SOL     OW25138   2.774   1.091  11.086 -0.9014 -0.0851  0.2377
 4559SOL    HW125139   2.689   1.127  11.058 -1.0560  0.3682  1.2931
 4559SOL    HW225140   2.823   1.171  11.105  0.1014 -0.8483  0.8228
 4560SOL     OW25141   4.106   4.432  13.005  0.0830 -0.5471  0.0553
 4560SOL    HW125142   4.130   4.398  12.919 -1.5361  1.9625 -1.3799
 4560SOL    HW225143   4.045   4.495  12.967  0.4022 -1.6986 -2.3846
 4561SOL     OW25144   3.556   3.489   4.523 -0.0560  0.0554 -0.1077
 4561SOL    HW125145   3.463   3.473   4.539 -0.0026 -1.2514 -1.0058
 4561SOL    HW225146   3.553   3.522   4.433  0.6634  0.1675 -0.0865
 4562SOL     OW25147   2.294   3.108   6.081 -0.6968  0.3446  0.1132
 4562SOL    HW125148   2.361   3.158   6.127 -1.5930  2.6231 -1.0770
 4562SOL    HW225149   2.281   3.168   6.008  0.0015  1.1378  0.6398
 4563SOL     OW25150   2.923   0.982   7.633  0.3140 -0.1555 -0.0595
 4563SOL    HW125151   2.921   0.887   7.622 -2.0408  0.0257 -1.3076
 4563SOL    HW225152   2.994   0.995   7.695  0.5878  1.5727 -0.7110
 4564SOL     OW25153   2.728   0.997   8.508  0.4425  0.5260  0.1288
 4564SOL    HW125154   2.804   1.054   8.494 -0.3495  1.4812 -0.2196
 4564SOL    HW225155   2.692   1.002   8.420 -1.3751  0.6004  0.8745
 4565SOL     OW25156   2.641   3.842  14.918  0.1047  0.3368  0.0013
 4565SOL    HW125157   2.633   3.934  14.892 -2.1118 -0.2564 -1.4092
 4565SOL    HW225158   2.562   3.820  14.968  0.2384 -1.5923 -0.6724
 4566SOL     OW25159   3.411   0.214  16.045  0.4176  0.4261 -0.2615
 4566SOL    HW125160   3.333   0.269  16.034  1.7875  2.3980 -0.2025
 4566SOL    HW225161   3.428   0.199  15.952 -0.0847 -2.0253  0.0395
 4567SOL     OW25162   1.999   1.693   3.871 -0.6558 -0.6726  0.2942
 4567SOL    HW125163   2.027   1.602   3.881  3.0595  0.6976  2.5302
 4567SOL    HW225164   1.927   1.679   3.810  1.0347  1.6379 -2.2158
 4568SOL     OW25165   2.827   3.092   8.496 -0.0568 -0.0719  0.0923
 4568SOL    HW125166   2.896   3.032   8.525 -0.4035 -0.2932  0.4591
 4568SOL    HW225167   2.765   3.062   8.562  0.0061 -0.0674  0.1543
 4569SOL     OW25168   1.083   0.292   4.572 -0.2418  0.3340  0.0585
 4569SOL    HW125169   1.035   0.374   4.556  0.4715  0.4386 -1.5777
 4569SOL    HW225170   1.089   0.301   4.667 -3.4298  0.0036  0.2876
 4570SOL     OW25171   0.004   2.647   2.762  0.0522  0.4142 -0.3193
 4570SOL    HW125172   4.682   2.682   2.840 -1.6689 -1.7666 -0.2697
 4570SOL    HW225173   0.091   2.632   2.798  0.1572 -1.7017 -1.4360
 4571SOL     OW25174   2.864   3.713   7.658 -0.1678  0.0347 -0.5484
 4571SOL    HW125175   2.952   3.687   7.628  0.7562  0.8819  1.4287
 4571SOL    HW225176   2.889   3.785   7.716  0.1508 -1.3376  1.0469
 4572SOL     OW25177   1.152   3.310   4.543 -0.8319 -0.0328  0.1882
 4572SOL    HW125178   1.142   3.382   4.480 -1.3037 -1.0631 -0.9240
 4572SOL    HW225179   1.184   3.240   4.485 -1.5868 -1.2352  1.2429
 4573SOL     OW25180   0.600   3.547   6.098  0.1046  0.2308  0.0955
 4573SOL    HW125181   0.515   3.534   6.141  1.2692 -2.3373  1.5759
 4573SOL    HW225182   0.654   3.564   6.175 -0.1178 -0.5525  0.4246
 4574SOL     OW25183   0.707   3.167   1.267  0.0317  0.4281 -0.7022
 4574SOL    HW125184   0.686   3.078   1.241  0.7337  0.1843 -0.4291
 4574SOL    HW225185   0.803   3.173   1.267  0.0700 -0.0837  3.1211
 4575SOL     OW25186   1.128   0.132   2.432 -0.0291  0.5650  0.0618
 4575SOL    HW125187   1.099   0.205   2.487  2.5414  3.1052 -2.0427
 4575SOL    HW225188   1.126   0.181   2.351 -0.9586 -0.7035 -0.6879
 4576SOL     OW25189   3.801   1.363   2.986  0.4888  0.1900  0.2479
 4576SOL    HW125190   3.792   1.426   3.058 -4.1589 -0.4433  0.2237
 4576SOL    HW225191   3.731   1.299   2.997  1.6893 -1.1970 -0.2359
 4577SOL     OW25192   0.114   2.643  15.768 -0.3022  0.3124  0.5129
 4577SOL    HW125193   0.109   2.587  15.845  0.6576  1.2567  1.2564
 4577SOL    HW225194   0.167   2.720  15.788 -0.9279  0.9865 -0.4271
 4578SOL     OW25195   2.005   4.318  13.846  0.0782 -0.1309  0.1151
 4578SOL    HW125196   2.032   4.378  13.777 -4.1254  2.9713  1.1461
 4578SOL    HW225197   2.062   4.334  13.921 -0.0672 -1.9364  0.6281
 4579SOL     OW25198   2.690   4.397  13.174  0.2987 -0.2796  0.1380
 4579SOL    HW125199   2.780   4.368  13.192  0.5231 -0.5668 -1.4052
 4579SOL    HW225200   2.648   4.322  13.132 -0.2411 -0.1472  0.4441
 4580SOL     OW25201   4.224   3.200   6.539  0.1528  0.8350 -0.2806
 4580SOL    HW125202   4.231   3.105   6.531  2.6566  1.0601 -0.8106
 4580SOL    HW225203   4.219   3.216   6.444  1.1157 -2.7971 -0.9499
 4581SOL     OW25204   3.267   3.756   4.148  0.3072 -0.3441 -0.5299
 4581SOL    HW125205   3.200   3.796   4.202 -0.8535  1.5801 -3.3871
 4581SOL    HW225206   3.241   3.666   4.168  1.1576 -0.3130  0.6939
 4582SOL     OW25207   4.012   2.940   6.049 -0.0383  0.1132  0.3818
 4582SOL    HW125208   3.980   3.017   6.002  0.7745 -0.0577 -0.4457
 4582SOL    HW225209   3.929   2.914   6.088  0.1680  1.4470  1.7365
 4583SOL     OW25210   4.266   4.457   0.341  0.2903  0.1303 -0.4382
 4583SOL    HW125211   4.360   4.470   0.324  0.5866 -0.4673  0.7963
 4583SOL    HW225212   4.270   4.364   0.361 -0.2884 -0.1533 -1.6088
 4584SOL     OW25213   4.046   4.494   3.044  0.2639 -0.1312 -0.4208
 4584SOL    HW125214   4.133   4.479   3.082  0.1186 -0.2247 -0.1261
 4584SOL    HW225215   4.052   4.582   3.008 -1.6380  1.0855  2.2620
 4585SOL     OW25216   2.841   4.095   7.026 -0.0116  0.1916 -0.2156
 4585SOL    HW125217   2.855   4.045   6.946  0.3669 -0.7233  0.4158
 4585SOL    HW225218   2.926   4.101   7.071  0.2046 -0.5190 -0.5329
 4586SOL     OW25219   0.217   1.215   5.474 -0.9164 -0.1948 -0.0739
 4586SOL    HW125220   0.261   1.131   5.460  3.2888  2.2611 -1.3458
 4586SOL    HW225221   0.232   1.234   5.567 -1.5539  1.0672 -0.2327
 4587SOL     OW25222   2.570   2.660   3.178  0.3165  0.4122  0.2146
 4587SOL    HW125223   2.611   2.650   3.092  0.1812 -1.9619  0.4004
 4587SOL    HW225224   2.648   2.680   3.230  1.5466 -2.1506 -0.5967
 4588SOL     OW25225   2.580   2.873   0.174 -0.2213  0.0644 -0.6677
 4588SOL    HW125226   2.627   2.815   0.113  0.3612  2.2508 -2.2707
 4588SOL    HW225227   2.597   2.814   0.248 -2.0784 -1.8319 -1.7443
 4589SOL     OW25228   3.628   4.671  17.331  0.0915  0.1615 -0.2507
 4589SOL    HW125229   3.635   4.718  17.248 -0.6769  0.9751  0.1264
 4589SOL    HW225230   3.611   4.584  17.295 -0.6140  0.4163 -0.5421
 4590SOL     OW25231   0.118   1.488   7.055 -0.3905  0.3306 -0.4701
 4590SOL    HW125232   0.192   1.472   6.996  1.0985  1.1440  1.1659
 4590SOL    HW225233   0.142   1.571   7.096  0.1412 -0.1114  0.1256
 4591SOL     OW25234   1.831   3.673  13.472 -0.1165 -0.4712  0.4304
 4591SOL    HW125235   1.778   3.647  13.396  1.1178  2.9416 -1.6371
 4591SOL    HW225236   1.782   3.635  13.545 -2.2281 -0.2943 -0.8760
 4592SOL     OW25237   2.103   1.946  14.871 -0.0713 -0.0944 -0.4414
 4592SOL    HW125238   2.165   1.876  14.851  0.5822  0.1947  0.5627
 4592SOL    HW225239   2.128   1.998  14.795 -0.2135  1.6339  0.7042
 4593SOL     OW25240   1.293   1.214   8.454 -0.2206 -0.6765  0.3636
 4593SOL    HW125241   1.253   1.296   8.483 -2.1187 -1.4260 -0.0911
 4593SOL    HW225242   1.242   1.145   8.496 -1.7654  0.1238 -0.1987
 4594SOL     OW25243   0.513   1.287   8.493 -0.4014  0.6985  0.0003
 4594SOL    HW125244   0.528   1.256   8.582 -3.1422 -0.4562  0.0556
 4594SOL    HW225245   0.525   1.208   8.441  0.3718  1.8166 -1.4984
 4595SOL     OW25246   2.742   1.978   3.864  0.2429 -0.1524 -0.8427
 4595SOL    HW125247   2.758   1.928   3.784 -0.4369 -0.7081 -0.6264
 4595SOL    HW225248   2.647   1.973   3.866  0.1745  1.0196 -1.1797
 4596SOL     OW25249   2.912   2.947   2.608  0.3288 -0.1652  0.5008
 4596SOL    HW125250   2.860   2.936   2.529  0.0973  1.4784  0.4090
 4596SOL    HW225251   2.846   2.930   2.675 -1.5922  2.0705 -0.8321
 4597SOL     OW25252   1.551   3.682   8.306 -0.5919  0.3739 -0.3848
 4597SOL    HW125253   1.580   3.766   8.268 -0.8955  0.1941 -1.0099
 4597SOL    HW225254   1.459   3.679   8.281 -0.2758  2.5901 -1.8695
 4598SOL     OW25255   4.479   0.260   9.401  0.4385 -0.2495  0.3860
 4598SOL    HW125256   4.478   0.175   9.445  0.5334 -0.2957  0.3000
 4598SOL    HW225257   4.402   0.253   9.345  0.3733 -0.7100  0.5297
 4599SOL     OW25258   3.187   1.230  15.679  0.1043  0.5973  0.1943
 4599SOL    HW125259   3.198   1.319  15.644 -1.7483  0.4675 -0.7340
 4599SOL    HW225260   3.246   1.225  15.754  1.3938  0.5696 -0.8189
 4600SOL     OW25261   2.760   1.684   4.332  0.2388 -0.2886 -0.8105
 4600SOL    HW125262   2.790   1.662   4.244  0.9410 -2.9177  0.0882
 4600SOL    HW225263   2.740   1.775   4.312 -0.5642 -0.1978  0.3798
 4601SOL     OW25264   0.062   1.495   9.740 -0.3123 -0.4181 -0.2620
 4601SOL    HW125265   0.082   1.557   9.671  0.0802  1.6216  1.6759
 4601SOL    HW225266   4.714   1.442   9.698  0.6675 -1.2992 -0.7361
 4602SOL     OW25267   1.484   3.833   4.733 -0.5580  0.0292  0.5189
 4602SOL    HW125268   1.540   3.780   4.789 -1.7643 -2.6434 -0.7733
 4602SOL    HW225269   1.397   3.822   4.770 -1.4776  1.9951 -1.0703
 4603SOL     OW25270   3.043   3.107   4.656 -0.5045 -0.0497 -0.3102
 4603SOL    HW125271   3.051   3.025   4.704 -0.5703 -0.4800 -1.0334
 4603SOL    HW225272   3.008   3.078   4.572  1.8903  1.4979 -1.8724
 4604SOL     OW25273   4.231   3.893   2.890  0.4448 -0.1594 -0.5845
 4604SOL    HW125274   4.148   3.857   2.858  0.6340 -2.2781  1.3407
 4604SOL    HW225275   4.276   3.896   2.805  1.1966 -0.2045 -0.1958
 4605SOL     OW25276   2.286   0.237   5.322  0.3331  0.1710 -0.2336
 4605SOL    HW125277   2.351   0.307   5.335  0.4908  0.4422 -2.4455
 4605SOL    HW225278   2.332   0.188   5.254  0.7347 -0.5041  0.5345
 4606SOL     OW25279   0.480   2.155   4.378  0.3173  0.2518 -0.0952
 4606SOL    HW125280   0.452   2.135   4.289 -0.7155  2.9166 -0.3690
 4606SOL    HW225281   0.486   2.250   4.388 -1.6430  0.2765  0.8431
 4607SOL     OW25282   4.435   3.368  10.781 -0.5128 -0.2711 -0.0213
 4607SOL    HW125283   4.485   3.371  10.862 -1.9050  0.6597  0.8051
 4607SOL    HW225284   4.488   3.326  10.713 -2.5863 -0.9390 -1.2136
 4608SOL     OW25285   1.133   3.383   3.795  0.0626 -0.0274  0.4197
 4608SOL    HW125286   1.169   3.319   3.733  0.4929 -0.4377  1.0863
 4608SOL    HW225287   1.085   3.438   3.734  1.0838  0.3580 -0.0393
 4609SOL     OW25288   3.623   4.232  13.694 -0.4975 -0.2750  0.1620
 4609SOL    HW125289   3.625   4.301  13.628  0.3850 -0.2604  0.2000
 4609SOL    HW225290   3.601   4.153  13.644  0.1566  1.5485 -3.0418
 4610SOL     OW25291   4.102   1.014  15.527 -0.1806  0.6502 -0.2508
 4610SOL    HW125292   4.026   1.008  15.584  0.9339  1.5262  1.3109
 4610SOL    HW225293   4.163   1.074  15.569  0.0277  0.4740 -0.2991
 4611SOL     OW25294   3.490   3.409   1.393 -0.3243  0.1788  0.2214
 4611SOL    HW125295   3.450   3.461   1.323  1.4164 -1.6298 -2.0879
 4611SOL    HW225296   3.458   3.444   1.476  0.1748  1.1056  0.0318
 4612SOL     OW25297   3.475   4.510   6.114  0.3217  0.7709 -0.5056
 4612SOL    HW125298   3.490   4.574   6.183  3.0961 -1.5529  1.0142
 4612SOL    HW225299   3.563   4.471   6.114  0.7247  1.6387 -2.4972
 4613SOL     OW25300   0.777   3.421   0.937  0.5690  0.4047  0.2562
 4613SOL    HW125301   0.721   3.438   0.862  0.8871 -2.8506 -0.7042
 4613SOL    HW225302   0.713   3.373   0.989  0.0545 -1.4647 -2.1337
 4614SOL     OW25303   2.256   4.386   3.569  0.0855 -0.4730 -0.3408
 4614SOL    HW125304   2.292   4.310   3.615 -2.2956 -1.4130 -0.0284
 4614SOL    HW225305   2.256   4.440   3.648 -0.8893 -0.7225 -0.1651
 4615SOL     OW25306   0.882   2.198   9.002 -0.1917 -0.6107 -0.1312
 4615SOL    HW125307   0.829   2.126   9.036 -0.2161 -1.4058 -1.8303
 4615SOL    HW225308   0.893   2.252   9.080  1.4987  0.6519 -1.2203
 4616SOL     OW25309   1.003   3.199   5.263  0.4795 -0.2492  0.0977
 4616SOL    HW125310   0.941   3.252   5.213 -0.2900 -1.1390  0.1123
 4616SOL    HW225311   1.043   3.141   5.197 -2.1943 -1.0257 -0.8505
 4617SOL     OW25312   0.035   0.643  15.383  0.2982 -0.3903 -0.3628
 4617SOL    HW125313   4.713   0.618  15.465 -0.9507 -2.4521 -1.6645
 4617SOL    HW225314   0.117   0.593  15.380 -0.4714 -1.5306 -2.2100
 4618SOL     OW25315   1.099   3.710   3.098  0.3627 -0.6535  0.0446
 4618SOL    HW125316   1.127   3.794   3.134 -1.1805  0.1191 -0.5531
 4618SOL    HW225317   1.033   3.743   3.037 -0.2584 -1.2432  0.3931
 4619SOL     OW25318   1.030   0.151   1.286 -0.1459  0.3930  0.0507
 4619SOL    HW125319   1.048   0.059   1.304  2.1955  0.7830 -0.2662
 4619SOL    HW225320   0.978   0.146   1.206  1.6166 -1.7157 -0.9621
 4620SOL     OW25321   0.717   4.241   7.200  0.4679 -0.4532  0.3294
 4620SOL    HW125322   0.798   4.195   7.219  0.6465 -1.1763 -2.1211
 4620SOL    HW225323   0.687   4.269   7.286  0.0003 -0.2859  0.1122
 4621SOL     OW25324   1.650   3.096   5.250  0.2032 -0.4720 -0.0841
 4621SOL    HW125325   1.561   3.113   5.283  0.9493  1.2070  1.0738
 4621SOL    HW225326   1.707   3.052   5.313  0.4034 -0.1609 -0.0450
 4622SOL     OW25327   2.343   3.575   6.738  0.0835  0.6122  0.1390
 4622SOL    HW125328   2.309   3.510   6.799  0.4850  0.1539 -0.1212
 4622SOL    HW225329   2.427   3.530   6.724 -0.0785  0.5610 -0.6888
 4623SOL     OW25330   1.120   3.808   2.180 -0.0357  0.1917  0.1729
 4623SOL    HW125331   1.050   3.776   2.237 -1.2904  1.1477 -0.8074
 4623SOL    HW225332   1.123   3.729   2.127  2.1187  0.0834  0.4943
 4624SOL     OW25333   1.113   0.384   0.353  0.3418 -1.0181 -0.5225
 4624SOL    HW125334   1.055   0.373   0.428 -0.2461  0.2503 -0.7874
 4624SOL    HW225335   1.188   0.331   0.381  1.8383  1.5634  0.3114
 4625SOL     OW25336   2.400   0.049   5.168  0.4313 -0.3774 -0.1021
 4625SOL    HW125337   2.313   0.013   5.182 -0.5290  1.6660 -0.8385
 4625SOL    HW225338   2.411   0.055   5.073  1.4848 -0.7749 -0.0138
 4626SOL     OW25339   3.946   0.275   6.935  0.5166 -0.2557  0.0009
 4626SOL    HW125340   4.041   0.264   6.931  0.5674  0.0102  0.5715
 4626SOL    HW225341   3.916   0.212   7.001  2.2984 -0.5387  0.5373
 4627SOL     OW25342   2.033   0.426   7.373 -0.1835  0.7686 -0.1341
 4627SOL    HW125343   2.034   0.344   7.423 -0.8823  1.5882  1.2507
 4627SOL    HW225344   1.941   0.449   7.388 -0.0013 -0.7633  3.6177
 4628SOL     OW25345   3.568   3.228  13.501 -0.3597  0.4915  0.6111
 4628SOL    HW125346   3.661   3.244  13.513  0.0060 -1.0328 -0.1240
 4628SOL    HW225347   3.541   3.319  13.507  0.5524  0.9056 -1.8669
 4629SOL     OW25348   4.014   3.254   3.430 -0.0403  0.0726 -0.2896
 4629SOL    HW125349   3.973   3.167   3.436  1.9424 -0.7322  1.4828
 4629SOL    HW225350   3.950   3.314   3.468  0.9622  0.4274  0.8210
 4630SOL     OW25351   2.094   2.787   3.642 -0.4454  0.3870 -0.0154
 4630SOL    HW125352   2.027   2.749   3.698  0.0312 -1.8500 -0.9808
 4630SOL    HW225353   2.145   2.836   3.707  1.8432 -2.0523  0.0272
 4631SOL     OW25354   3.953   1.981   5.308 -0.3402 -0.1689 -0.2004
 4631SOL    HW125355   3.892   1.935   5.251 -0.2087 -0.1504 -0.3591
 4631SOL    HW225356   4.033   1.985   5.254  0.4906  0.1253  1.0483
 4632SOL     OW25357   1.866   3.993   5.815 -0.1895  0.1080 -0.3425
 4632SOL    HW125358   1.948   3.949   5.841 -1.4033 -1.4249  0.9133
 4632SOL    HW225359   1.801   3.939   5.859  0.7642  0.9811  2.1601
 4633SOL     OW25360   2.456   1.018   2.942 -0.0337 -0.4199  0.2343
 4633SOL    HW125361   2.467   1.106   2.906  0.4627 -1.0592 -1.1608
 4633SOL    HW225362   2.391   1.026   3.012  0.7338  0.0516  0.8879
 4634SOL     OW25363   2.451   2.975  11.213 -0.0709 -0.4904  0.0526
 4634SOL    HW125364   2.531   3.027  11.224  1.1757 -2.3305 -0.3960
 4634SOL    HW225365   2.475   2.921  11.138  0.9475  2.7299 -1.9240
 4635SOL     OW25366   3.283   3.552   2.942  0.1539  0.1824  0.4506
 4635SOL    HW125367   3.372   3.576   2.917  1.0324 -0.6575  2.7622
 4635SOL    HW225368   3.230   3.613   2.891 -1.3104 -1.0067  0.5455
 4636SOL     OW25369   1.327   3.666   3.547  0.2320 -0.4128 -0.3469
 4636SOL    HW125370   1.395   3.732   3.532 -2.1839  2.1640 -0.0106
 4636SOL    HW225371   1.243   3.712   3.553 -0.2749 -1.2529 -1.0194
 4637SOL     OW25372   3.657   3.012   4.581  0.7136 -0.3082 -0.1859
 4637SOL    HW125373   3.700   3.065   4.514 -0.1629  0.6689  0.0232
 4637SOL    HW225374   3.572   3.054   4.589  1.0641 -0.0576  2.3339
 4638SOL     OW25375   2.175   0.604  12.305 -0.1570 -0.4812 -0.3501
 4638SOL    HW125376   2.083   0.629  12.304  0.1534  0.7406  2.1163
 4638SOL    HW225377   2.220   0.678  12.265  1.0274 -0.8591  0.2683
 4639SOL     OW25378   3.399   1.362  13.089 -0.2395 -0.7808 -0.2790
 4639SOL    HW125379   3.475   1.331  13.138 -1.8017 -0.2697  2.4956
 4639SOL    HW225380   3.408   1.455  13.108  0.1262 -0.6317 -1.1919
 4640SOL     OW25381   2.070   4.014   3.538 -0.3333  0.0755  0.2824
 4640SOL    HW125382   2.152   4.053   3.567  0.4343 -0.1957 -1.5735
 4640SOL    HW225383   2.099   3.964   3.462 -2.1027 -0.2456 -0.1879
 4641SOL     OW25384   2.608   4.075   4.091  0.3600 -0.2160 -0.0102
 4641SOL    HW125385   2.545   4.147   4.098  0.9021  0.2910 -0.3952
 4641SOL    HW225386   2.654   4.094   4.010  0.2505 -0.9292 -0.2433
 4642SOL     OW25387   0.851   0.379   8.096 -0.9698  0.1895  0.4956
 4642SOL    HW125388   0.943   0.386   8.123 -1.1228  0.1204  1.0339
 4642SOL    HW225389   0.835   0.285   8.096  0.5417 -0.0657 -1.2802
 4643SOL     OW25390   4.542   3.755   7.999  0.0914 -0.6630 -0.2546
 4643SOL    HW125391   4.575   3.736   8.087 -0.6430 -2.0925 -0.2897
 4643SOL    HW225392   4.479   3.683   7.994 -1.5547  0.7590 -0.0366
 4644SOL     OW25393   2.136   1.314  12.160  0.0384  0.4460  0.2164
 4644SOL    HW125394   2.080   1.316  12.237 -0.9645  1.2681 -0.5299
 4644SOL    HW225395   2.096   1.378  12.100 -1.0019  3.5283  4.2480
 4645SOL     OW25396   3.180   0.813   3.343 -0.1054 -0.0590  0.1005
 4645SOL    HW125397   3.110   0.853   3.292  1.4523  1.5851 -0.7446
 4645SOL    HW225398   3.239   0.770   3.281 -0.4500 -2.3394  1.3579
 4646SOL     OW25399   3.548   4.100   3.506 -0.5790  0.4164  0.1494
 4646SOL    HW125400   3.585   4.095   3.594 -1.5901 -1.6215  0.4623
 4646SOL    HW225401   3.620   4.066   3.453  0.5338  0.7548  1.4506
 4647SOL     OW25402   4.591   2.270   4.303 -0.2383 -0.0622 -0.0311
 4647SOL    HW125403   4.659   2.243   4.365 -0.1712  2.0865  0.8206
 4647SOL    HW225404   4.562   2.191   4.258 -1.1903  1.1355 -1.5368
 4648SOL     OW25405   2.436   4.677   6.732 -0.1080 -0.2534 -0.6775
 4648SOL    HW125406   2.493   4.681   6.656 -1.1055  0.2580 -1.3985
 4648SOL    HW225407   2.394   0.042   6.725 -3.6107 -1.8876  0.3619
 4649SOL     OW25408   1.675   1.307   8.959 -0.0241  0.7823  0.0255
 4649SOL    HW125409   1.596   1.354   8.932  0.6406  1.1326 -1.3375
 4649SOL    HW225410   1.654   1.312   9.052  1.2685  0.7152  0.3226
 4650SOL     OW25411   3.592   3.945   5.369  0.1545 -0.5239 -0.1484
 4650SOL    HW125412   3.512   3.906   5.405  1.2746 -1.3182  1.4617
 4650SOL    HW225413   3.631   3.992   5.442 -2.6438 -1.0104  1.6591
 4651SOL     OW25414   0.243   0.550   2.633 -0.2046  0.1832 -0.0512
 4651SOL    HW125415   0.174   0.567   2.698  1.1369 -1.2338  1.7659
 4651SOL    HW225416   0.306   0.614   2.665  1.2100 -1.2103 -0.0544
 4652SOL     OW25417   3.159   2.108   6.357 -0.1683  0.0487 -0.3471
 4652SOL    HW125418   3.074   2.110   6.313 -0.8922 -1.0675  1.0051
 4652SOL    HW225419   3.217   2.139   6.287  0.9793  0.2560  0.7065
 4653SOL     OW25420   2.933   2.281   3.131  0.7661  0.7103 -0.0272
 4653SOL    HW125421   2.842   2.289   3.102  0.0210  0.7386  2.3779
 4653SOL    HW225422   2.979   2.325   3.059 -0.9578  0.3642 -1.3306
 4654SOL     OW25423   0.731   2.484   8.042  0.2340  0.3255  0.1448
 4654SOL    HW125424   0.646   2.524   8.061 -0.3199 -0.6805 -0.2399
 4654SOL    HW225425   0.734   2.409   8.101 -0.7881  0.3902  0.2791
 4655SOL     OW25426   2.865   0.431   7.569 -0.0677  0.0688 -0.4225
 4655SOL    HW125427   2.955   0.399   7.572  0.1123  0.6256  0.1802
 4655SOL    HW225428   2.813   0.358   7.604  1.2394 -1.4206 -1.6245
 4656SOL     OW25429   1.086   4.375  10.374 -0.2654 -0.2880  0.1247
 4656SOL    HW125430   1.102   4.337  10.288  1.5783 -0.8249  0.7100
 4656SOL    HW225431   1.087   4.468  10.354 -0.6564 -0.1745  0.6242
 4657SOL     OW25432   4.212   3.587   8.576  0.0639 -0.9422 -0.5730
 4657SOL    HW125433   4.295   3.628   8.603 -0.3618 -0.3012 -0.2545
 4657SOL    HW225434   4.185   3.511   8.627 -0.3494 -0.3117  0.1521
 4658SOL     OW25435   0.182   3.072   2.008  0.6979 -0.1574  0.0704
 4658SOL    HW125436   0.265   3.108   1.976  0.7786 -0.2917  0.1258
 4658SOL    HW225437   0.209   2.980   2.011 -2.5620 -1.0965 -0.0310
 4659SOL     OW25438   3.864   0.326  16.873 -0.6115  0.0000  0.5822
 4659SOL    HW125439   3.864   0.230  16.871 -1.9798 -0.0348  1.6458
 4659SOL    HW225440   3.787   0.342  16.819  0.0098 -0.2370 -0.3700
 4660SOL     OW25441   2.179   0.551   0.306 -0.1306 -0.2880 -0.4739
 4660SOL    HW125442   2.130   0.615   0.357  1.4952 -0.0820  0.7906
 4660SOL    HW225443   2.109   0.511   0.253  2.1526  1.0482 -4.4608
 4661SOL     OW25444   0.784   2.317  11.175 -0.0843  0.3056  0.2093
 4661SOL    HW125445   0.702   2.348  11.136 -0.8597 -2.2242 -0.2225
 4661SOL    HW225446   0.768   2.222  11.173  1.1143  0.0955  0.4523
 4662SOL     OW25447   3.197   2.459   3.255 -0.1220 -0.0304 -0.5866
 4662SOL    HW125448   3.233   2.370   3.248  0.4797  0.2794 -1.4452
 4662SOL    HW225449   3.103   2.439   3.253  0.2774 -1.8925 -1.5927
 4663SOL     OW25450   3.410   4.038  12.499  0.7938 -0.6110  0.2076
 4663SOL    HW125451   3.423   4.055  12.592  4.1795 -1.1610 -0.1728
 4663SOL    HW225452   3.317   4.058  12.499  0.7472 -0.8339 -0.5971
 4664SOL     OW25453   1.963   0.343  14.731 -0.2474 -0.2532 -0.0941
 4664SOL    HW125454   1.941   0.276  14.796 -3.1254  1.9228  1.2275
 4664SOL    HW225455   2.017   0.299  14.666  0.6625 -0.2778  0.6762
 4665SOL     OW25456   1.740   2.444   2.392  0.2962  0.2462 -0.2149
 4665SOL    HW125457   1.725   2.352   2.413 -0.2965  0.7002  1.3325
 4665SOL    HW225458   1.699   2.434   2.306 -1.0080  1.2738  0.2951
 4666SOL     OW25459   0.611   3.296  13.321 -0.5219  0.0815 -0.0407
 4666SOL    HW125460   0.585   3.309  13.413 -0.6476  0.3706 -0.1183
 4666SOL    HW225461   0.559   3.357  13.268 -1.0128 -0.0410  0.2986
 4667SOL     OW25462   3.266   0.762  10.120  0.0468 -0.2645 -0.0450
 4667SOL    HW125463   3.216   0.720  10.050  1.5839  0.0482 -1.3406
 4667SOL    HW225464   3.357   0.753  10.090 -0.5672 -0.4027 -1.8988
 4668SOL     OW25465   3.981   4.372  16.574  0.4013  0.3277  0.1910
 4668SOL    HW125466   3.963   4.460  16.608  3.7133  0.4058  1.7314
 4668SOL    HW225467   3.943   4.371  16.486 -0.1310 -1.5605  0.4532
 4669SOL     OW25468   3.134   3.117   5.937  0.2980  0.3124  0.6372
 4669SOL    HW125469   3.219   3.149   5.968  0.8946  0.3524 -1.0326
 4669SOL    HW225470   3.159   3.034   5.896 -1.6332  0.1460 -0.2098
 4670SOL     OW25471   0.434   2.108   9.473 -0.2449  0.0635  0.0541
 4670SOL    HW125472   0.385   2.190   9.480 -0.3244 -0.0798  1.2774
 4670SOL    HW225473   0.394   2.055   9.542  0.0237  0.3592  0.4360
 4671SOL     OW25474   0.111   0.112   6.277 -0.3959  0.1936 -0.4220
 4671SOL    HW125475   0.095   0.187   6.334 -0.8029 -0.7300  0.6751
 4671SOL    HW225476   0.046   0.050   6.311  2.2453 -3.2064 -1.5198
 4672SOL     OW25477   2.675   1.214   7.106 -0.1735 -0.2420  0.1551
 4672SOL    HW125478   2.668   1.193   7.013 -2.3831 -1.3592  0.5612
 4672SOL    HW225479   2.769   1.226   7.116  0.0125 -1.7950  0.2432
 4673SOL     OW25480   3.534   2.913   8.607  0.0695 -0.4092 -0.3611
 4673SOL    HW125481   3.494   2.904   8.693  2.0243 -0.4401  0.5600
 4673SOL    HW225482   3.499   2.840   8.555 -1.4394  0.8063 -1.0183
 4674SOL     OW25483   1.509   1.905   1.044  0.2771 -0.1037 -0.5129
 4674SOL    HW125484   1.446   1.836   1.068  1.6958 -0.8676  0.9999
 4674SOL    HW225485   1.531   1.961   1.118 -1.9667 -0.1919  0.2327
 4675SOL     OW25486   0.359   4.457   7.534 -0.1917 -0.1470 -0.2351
 4675SOL    HW125487   0.372   4.384   7.474  2.0613  0.8794 -1.0031
 4675SOL    HW225488   0.427   4.507   7.490  1.0107 -1.4820  0.1330
 4676SOL     OW25489   2.957   0.919  13.066 -0.4498  0.0023  0.2638
 4676SOL    HW125490   2.943   1.014  13.059 -0.6984 -0.0876 -0.4814
 4676SOL    HW225491   2.936   0.914  13.159  1.4587  0.0700  0.6906
 4677SOL     OW25492   1.664   2.035   2.988 -0.1654  0.2731 -0.2115
 4677SOL    HW125493   1.660   2.025   2.893 -3.1793  0.7983 -0.1098
 4677SOL    HW225494   1.672   2.128   3.010  0.1853  0.0458  0.6686
 4678SOL     OW25495   3.215   3.890   5.934 -0.1950 -0.7152 -0.4062
 4678SOL    HW125496   3.191   3.963   5.991  1.4662 -0.8874  0.5035
 4678SOL    HW225497   3.309   3.883   5.949 -0.4425 -3.3397 -0.1739
 4679SOL     OW25498   3.097   4.555  16.031 -0.6843  0.3140  0.3260
 4679SOL    HW125499   3.178   4.594  15.998 -0.6769  1.5895  1.8852
 4679SOL    HW225500   3.039   4.610  15.978 -2.5702 -0.0915  1.9586
 4680SOL     OW25501   0.366   2.787  11.012  0.3815  0.4473  0.0893
 4680SOL    HW125502   0.436   2.723  11.007 -0.8414 -0.8194 -0.7080
 4680SOL    HW225503   0.311   2.753  11.082  0.0350 -1.7175 -1.2611
 4681SOL     OW25504   4.700   2.966  17.541 -0.1847  0.0602  0.5479
 4681SOL    HW125505   4.633   2.902  17.563  1.0939 -1.2879  0.4829
 4681SOL    HW225506   0.043   2.916  17.489 -0.1371 -1.8676  2.4915
 4682SOL     OW25507   4.063   0.531   5.379 -0.1652 -0.3633  0.0216
 4682SOL    HW125508   4.058   0.566   5.291 -0.4511 -0.3484  0.0424
 4682SOL    HW225509   3.969   0.512   5.378 -0.4833  1.2191  0.2891
 4683SOL     OW25510   3.685   1.470  17.244 -0.4572 -0.2668 -0.6384
 4683SOL    HW125511   3.718   1.556  17.219 -1.0647 -0.0568 -0.7248
 4683SOL    HW225512   3.691   1.477  17.340  2.2372 -0.6429 -0.7839
 4684SOL     OW25513   2.624   1.473   2.770  0.5080 -0.2486 -0.4214
 4684SOL    HW125514   2.607   1.536   2.700  0.5746 -0.6719 -0.8224
 4684SOL    HW225515   2.542   1.453   2.815 -0.1099  0.4787 -1.2253
 4685SOL     OW25516   1.872   1.564   5.329  0.3525 -0.6991 -0.4738
 4685SOL    HW125517   1.777   1.578   5.325  0.5102  0.5853  0.1416
 4685SOL    HW225518   1.867   1.474   5.360  0.6194 -0.6239 -0.2139
 4686SOL     OW25519   4.506   4.029   2.839 -0.1116  0.1997 -0.3497
 4686SOL    HW125520   4.469   4.099   2.892 -0.1339 -1.8995  2.4155
 4686SOL    HW225521   4.553   4.082   2.775  1.1872  0.5131  0.8657
 4687SOL     OW25522   0.626   0.085   8.037  0.1773 -0.0967  0.7220
 4687SOL    HW125523   0.604   0.030   8.112  1.9246 -0.2939  1.0953
 4687SOL    HW225524   0.549   0.141   8.028 -0.4603 -1.3894 -2.0199
 4688SOL     OW25525   2.381   2.057   4.580 -0.6078  0.4978  0.1654
 4688SOL    HW125526   2.461   2.061   4.632 -0.0004 -1.9686 -0.5580
 4688SOL    HW225527   2.421   2.103   4.506 -1.8233 -0.2004 -0.9280
 4689SOL     OW25528   4.706   0.816   7.771  0.4991 -0.0525  0.2248
 4689SOL    HW125529   4.718   0.866   7.690 -2.6672  0.5015  0.1008
 4689SOL    HW225530   0.075   0.790   7.794  1.7250  2.1324 -2.0493
 4690SOL     OW25531   3.137   0.172  15.700 -0.1312  0.1844 -0.1052
 4690SOL    HW125532   3.074   0.158  15.629 -0.9425  0.9754  0.4528
 4690SOL    HW225533   3.077   0.210  15.764 -0.7087 -0.2978 -0.3629
 4691SOL     OW25534   4.066   0.417   1.196 -0.4358 -0.0318  0.7379
 4691SOL    HW125535   4.134   0.359   1.163 -0.0586 -0.1554  1.7323
 4691SOL    HW225536   4.117   0.486   1.239 -0.4581 -0.1606  0.9697
 4692SOL     OW25537   1.893   0.666   7.175 -0.2875 -0.5742  0.7802
 4692SOL    HW125538   1.950   0.641   7.248  1.0518  0.9826  0.2597
 4692SOL    HW225539   1.866   0.757   7.188 -3.5689 -1.3035 -1.1393
 4693SOL     OW25540   3.483   4.080   6.065 -0.3653  0.1733 -0.2333
 4693SOL    HW125541   3.505   4.133   6.142 -1.5734 -1.0471  0.9357
 4693SOL    HW225542   3.388   4.091   6.064 -0.1799  1.8283 -0.4402
 4694SOL     OW25543   1.608   4.610  12.261  0.8459 -0.3496  0.2122
 4694SOL    HW125544   1.661   4.535  12.289  0.5477 -0.1595  1.3066
 4694SOL    HW225545   1.549   4.572  12.196 -0.4892 -1.2179  1.9195
 4695SOL     OW25546   1.874   0.854  10.631  0.1264 -0.2492 -0.6186
 4695SOL    HW125547   1.907   0.839  10.543  2.7288 -0.8542  0.4549
 4695SOL    HW225548   1.836   0.772  10.663 -1.1612  0.4866 -0.2443
 4696SOL     OW25549   4.018   4.596   8.506  0.2647 -0.8587 -0.2550
 4696SOL    HW125550   4.045   4.505   8.501  0.7977 -0.6742 -0.7343
 4696SOL    HW225551   3.958   4.600   8.432 -0.7488 -2.4378  0.4773
 4697SOL     OW25552   1.570   2.922   0.946  0.1387 -0.3007  0.3807
 4697SOL    HW125553   1.591   2.830   0.932  1.5590 -0.2068  1.9994
 4697SOL    HW225554   1.575   2.916   1.041  0.7809 -1.0839  0.2867
 4698SOL     OW25555   1.664   4.247   7.935 -0.0275 -0.2018 -0.1445
 4698SOL    HW125556   1.689   4.265   8.026  1.8888 -0.2386 -0.6758
 4698SOL    HW225557   1.606   4.171   7.936  0.9675 -0.9588  0.5382
 4699SOL     OW25558   4.091   2.536  11.190 -0.1514  0.4213  0.3353
 4699SOL    HW125559   4.181   2.548  11.221  0.1548  1.0441 -0.7834
 4699SOL    HW225560   4.065   2.627  11.176 -3.5897 -0.7254 -0.8209
 4700SOL     OW25561   2.572   3.585   2.016 -0.1294 -0.5555  0.6310
 4700SOL    HW125562   2.486   3.582   2.057 -0.0088  1.4135  1.0195
 4700SOL    HW225563   2.588   3.677   1.995  0.5082 -0.7607  0.2133
 4701SOL     OW25564   2.014   4.573  17.525  0.6973 -0.5586  0.6796
 4701SOL    HW125565   2.043   4.652  17.479  0.3100 -0.6119  0.3508
 4701SOL    HW225566   2.102   4.535  17.535  1.8609  2.2484  1.1339
 4702SOL     OW25567   0.629   2.862   5.834 -0.2559  0.2007 -0.2413
 4702SOL    HW125568   0.684   2.936   5.807  0.2419 -0.0758  0.0183
 4702SOL    HW225569   0.675   2.834   5.913  0.1343 -0.4637 -0.7098
 4703SOL     OW25570   0.648   0.483   2.101  0.2344 -0.1129 -0.6092
 4703SOL    HW125571   0.725   0.506   2.152  0.1672 -1.5534  0.1342
 4703SOL    HW225572   0.587   0.552   2.126  0.7635 -0.7394  2.3189
 4704SOL     OW25573   1.730   4.286  14.925 -0.0571 -0.2551 -0.1776
 4704SOL    HW125574   1.693   4.298  14.837 -3.1808 -3.4149  0.7216
 4704SOL    HW225575   1.693   4.364  14.965 -1.9640 -0.9094 -0.6551
 4705SOL     OW25576   1.321   3.356   7.788  0.7155 -0.2093 -0.0677
 4705SOL    HW125577   1.374   3.393   7.858 -1.7138 -1.5437  2.4596
 4705SOL    HW225578   1.289   3.270   7.814  2.2357 -0.2670  1.5368
 4706SOL     OW25579   1.456   0.116   7.989  0.0845  0.3050  0.5229
 4706SOL    HW125580   1.438   0.025   8.011  1.7590 -0.1063  0.2144
 4706SOL    HW225581   1.385   0.138   7.929  0.9239  0.9499 -0.2367
 4707SOL     OW25582   1.113   2.305   6.170  0.3091 -0.0811  0.2422
 4707SOL    HW125583   1.192   2.350   6.199 -0.5074  2.2475 -1.1437
 4707SOL    HW225584   1.087   2.284   6.260  0.8049  1.4378  0.7337
 4708SOL     OW25585   1.675   2.176   8.688 -0.5143 -0.3511 -0.1784
 4708SOL    HW125586   1.672   2.271   8.673 -0.9487 -0.0095  2.1699
 4708SOL    HW225587   1.662   2.173   8.782  1.6865 -0.5672  0.1162
 4709SOL     OW25588   3.206   0.647   2.591  0.2960  0.1729 -0.3095
 4709SOL    HW125589   3.164   0.667   2.675  0.1936 -1.4444  0.0384
 4709SOL    HW225590   3.258   0.568   2.609 -1.7558 -1.1810 -0.2634
 4710SOL     OW25591   4.066   0.733   2.644  0.4834  0.3710  0.1854
 4710SOL    HW125592   4.160   0.727   2.632  0.5582 -0.1129  0.9419
 4710SOL    HW225593   4.061   0.827   2.662 -0.3484  0.7639 -2.1779
 4711SOL     OW25594   0.859   4.062   0.373  0.5359  0.1663 -0.9435
 4711SOL    HW125595   0.822   3.985   0.330  2.1813 -0.4954 -1.2014
 4711SOL    HW225596   0.923   4.021   0.430  1.2828  2.3980 -0.1488
 4712SOL     OW25597   1.976   1.437  10.393 -0.0616  0.1081 -0.2381
 4712SOL    HW125598   1.881   1.430  10.407 -0.0529 -0.9452 -0.7088
 4712SOL    HW225599   1.997   1.344  10.401  2.2280  0.8142  2.0176
 4713SOL     OW25600   2.839   1.995   5.941  0.3309 -0.0838  0.1705
 4713SOL    HW125601   2.794   1.936   6.001  0.4060 -0.3280 -0.0129
 4713SOL    HW225602   2.883   1.940   5.876 -0.2568  1.2749 -1.3874
 4714SOL     OW25603   4.550   3.617   5.400  0.4254  0.2366  0.1236
 4714SOL    HW125604   4.612   3.656   5.339 -0.3314  0.4833 -0.4832
 4714SOL    HW225605   4.538   3.672   5.477  0.4290  0.7186 -0.2238
 4715SOL     OW25606   0.095   1.014   3.267  0.2061 -0.0238 -0.1743
 4715SOL    HW125607   0.168   1.058   3.311 -0.6415  0.6219  0.5901
 4715SOL    HW225608   0.110   1.046   3.178  0.8857 -1.1944 -0.4762
 4716SOL     OW25609   3.215   2.684  13.312 -0.3990  0.1023  0.5141
 4716SOL    HW125610   3.159   2.678  13.389  1.1653  0.1902  1.6591
 4716SOL    HW225611   3.302   2.699  13.350  0.5643 -0.3433 -1.4867
 4717SOL     OW25612   4.196   1.484   7.813 -0.1913  0.4988 -0.6513
 4717SOL    HW125613   4.158   1.504   7.727 -0.5827 -1.2015 -0.8838
 4717SOL    HW225614   4.277   1.444   7.779 -0.0281 -0.3749  0.7481
 4718SOL     OW25615   4.167   2.213   8.736  0.7566  0.5410  0.7055
 4718SOL    HW125616   4.213   2.296   8.751  0.6411  0.3545  2.0557
 4718SOL    HW225617   4.075   2.240   8.739  0.6523  0.3771 -0.8023
 4719SOL     OW25618   3.219   2.052   9.368 -0.1003  0.3084 -0.3732
 4719SOL    HW125619   3.295   2.107   9.353  0.4484 -0.3850 -0.1291
 4719SOL    HW225620   3.151   2.119   9.371  0.8690  1.2772 -0.1483
 4720SOL     OW25621   3.505   4.259   2.243  0.1540  0.4726  0.0238
 4720SOL    HW125622   3.425   4.232   2.287 -0.9028 -0.4046 -2.4235
 4720SOL    HW225623   3.541   4.171   2.236  1.3184  0.7682  2.1204
 4721SOL     OW25624   1.600   1.679   6.050 -0.2055  0.1758  0.2979
 4721SOL    HW125625   1.596   1.745   5.981  1.9668 -1.0762 -1.0162
 4721SOL    HW225626   1.686   1.643   6.027 -1.3785 -2.3121 -0.2537
 4722SOL     OW25627   2.826   3.958   7.907 -0.3051  0.1506  0.2944
 4722SOL    HW125628   2.808   3.893   7.976  0.5007 -0.9515 -0.5331
 4722SOL    HW225629   2.913   3.991   7.930  0.1161  0.5914 -1.9727
 4723SOL     OW25630   0.930   3.652   8.552 -0.1810  0.3151 -0.6379
 4723SOL    HW125631   0.972   3.570   8.526  0.9132 -0.5017  3.6513
 4723SOL    HW225632   0.853   3.630   8.604  2.1090 -3.6819  1.0652
 4724SOL     OW25633   1.976   2.710  16.572  0.4250  0.2981 -0.2482
 4724SOL    HW125634   2.012   2.759  16.497  2.2848  0.1786  0.5777
 4724SOL    HW225635   1.991   2.621  16.540  0.9044  0.2922 -0.0070
 4725SOL     OW25636   0.850   0.364   5.530  0.2127  0.7166  0.2431
 4725SOL    HW125637   0.793   0.418   5.585 -1.0667 -0.0486 -0.3352
 4725SOL    HW225638   0.784   0.346   5.464  0.9518 -1.5522  0.1123
 4726SOL     OW25639   3.964   4.385   4.142  0.0188 -0.3382  0.4114
 4726SOL    HW125640   4.047   4.351   4.175 -0.4287 -1.5875  0.2400
 4726SOL    HW225641   3.923   4.408   4.226  1.2441  1.1387  0.5988
 4727SOL     OW25642   1.823   2.522   5.571  0.0748  0.0479  0.3013
 4727SOL    HW125643   1.807   2.438   5.527 -0.3244  0.8620 -1.0950
 4727SOL    HW225644   1.903   2.547   5.525 -0.4797  0.3364 -0.5177
 4728SOL     OW25645   1.539   0.900  14.161 -0.4223 -0.0772  0.0845
 4728SOL    HW125646   1.584   0.862  14.236  0.6594 -2.3792 -1.7009
 4728SOL    HW225647   1.608   0.924  14.099  0.8547 -0.9658  1.1595
 4729SOL     OW25648   2.297   1.124   1.455  0.1346 -0.5309 -0.1176
 4729SOL    HW125649   2.312   1.214   1.426 -0.4545 -1.3614 -3.0019
 4729SOL    HW225650   2.240   1.092   1.385 -0.7682  0.3922  0.1933
 4730SOL     OW25651   3.932   3.906   8.674 -0.0672 -0.2084 -0.0142
 4730SOL    HW125652   3.952   3.837   8.610 -1.9900 -1.4739  0.7314
 4730SOL    HW225653   4.009   3.953   8.704 -0.8069 -0.3714  2.0876
 4731SOL     OW25654   1.493   3.169   2.149  0.0384 -0.3376 -0.2579
 4731SOL    HW125655   1.553   3.099   2.174  0.1021 -0.3074 -0.3239
 4731SOL    HW225656   1.531   3.182   2.062  0.0279 -1.4521 -0.4310
 4732SOL     OW25657   1.664   2.609   7.245 -0.6069 -0.1922  0.4963
 4732SOL    HW125658   1.717   2.531   7.262  1.3824  0.6870 -1.7733
 4732SOL    HW225659   1.653   2.598   7.151 -2.3200  0.7785  0.5891
 4733SOL     OW25660   0.111   0.937   0.734 -0.0123  0.4820 -0.8535
 4733SOL    HW125661   0.037   0.986   0.770 -0.5354 -0.5773 -0.5032
 4733SOL    HW225662   0.181   0.979   0.785  1.9081 -2.7727 -0.8173
 4734SOL     OW25663   2.287   0.475   3.442 -0.5363 -0.2290  0.3563
 4734SOL    HW125664   2.255   0.414   3.509  0.9343 -0.5015  0.8097
 4734SOL    HW225665   2.321   0.422   3.370  0.6362 -0.7819  1.3178
 4735SOL     OW25666   0.423   4.518   8.913  0.0694  0.1609 -0.2058
 4735SOL    HW125667   0.496   4.514   8.851  0.3395 -0.1404  0.1289
 4735SOL    HW225668   0.356   4.484   8.854  0.7710  0.2392 -1.0347
 4736SOL     OW25669   0.947   1.504   5.708  0.2530  0.0272  0.0033
 4736SOL    HW125670   1.011   1.453   5.758 -0.0810 -0.2519  0.1523
 4736SOL    HW225671   1.001   1.551   5.645 -0.0357 -1.3340 -1.2725
 4737SOL     OW25672   2.120   1.302   8.053 -0.7188  0.3276  0.1581
 4737SOL    HW125673   2.177   1.371   8.019 -1.0146  0.4651 -0.0613
 4737SOL    HW225674   2.071   1.356   8.116  0.6814  0.0489  1.5048
 4738SOL     OW25675   0.272   3.913   6.264  0.2299 -0.3857 -0.4732
 4738SOL    HW125676   0.235   3.883   6.181 -3.1294  0.9656  0.5231
 4738SOL    HW225677   0.357   3.945   6.235  0.3179 -1.5445 -1.4602
 4739SOL     OW25678   0.695   0.124   9.635  0.4137 -0.0067  0.4543
 4739SOL    HW125679   0.716   0.217   9.640 -1.3219  0.5094 -1.7759
 4739SOL    HW225680   0.738   0.096   9.554 -0.8953  0.8468 -0.5371
 4740SOL     OW25681   1.223   4.411   8.388  0.0345  0.3117  0.0524
 4740SOL    HW125682   1.310   4.426   8.349 -0.5592 -0.4198 -1.5189
 4740SOL    HW225683   1.217   4.488   8.445  1.4204  1.7224 -1.6964
 4741SOL     OW25684   0.947   3.670   2.348 -0.2919  0.0036 -0.0632
 4741SOL    HW125685   0.878   3.680   2.413  0.5541 -0.4720  0.9024
 4741SOL    HW225686   1.018   3.623   2.392  1.4020  2.0329 -0.6409
 4742SOL     OW25687   3.770   1.181  10.747 -0.1320 -0.6804  0.8002
 4742SOL    HW125688   3.774   1.184  10.652  1.0349 -2.2712  0.7994
 4742SOL    HW225689   3.693   1.125  10.748 -0.6954  0.0733 -0.4409
 4743SOL     OW25690   3.303   3.191   3.135  0.1384 -0.0862 -0.0658
 4743SOL    HW125691   3.323   3.101   3.163 -0.1223 -0.2399 -0.3697
 4743SOL    HW225692   3.309   3.234   3.220 -1.4579  0.0001  0.0059
 4744SOL     OW25693   0.479   0.372   8.283  0.0477 -0.6080 -0.3856
 4744SOL    HW125694   0.563   0.371   8.328 -1.6059 -2.9674  2.6699
 4744SOL    HW225695   0.444   0.284   8.302 -0.2486 -0.6632 -1.1962
 4745SOL     OW25696   0.779   2.208   2.411  0.2208  0.4733 -0.1499
 4745SOL    HW125697   0.751   2.140   2.473 -0.7090  1.3623  0.4106
 4745SOL    HW225698   0.702   2.264   2.405  1.5319  2.1176 -1.3977
 4746SOL     OW25699   0.544   3.262   7.339  0.2654 -0.5300  0.0992
 4746SOL    HW125700   0.615   3.296   7.393 -0.5260 -0.4764  1.0978
 4746SOL    HW225701   0.498   3.340   7.307  1.0578  0.6591  1.8417
 4747SOL     OW25702   0.439   4.631   5.993  0.0458  0.1028 -0.7436
 4747SOL    HW125703   0.439   4.648   5.899 -0.8706 -0.9615 -0.9306
 4747SOL    HW225704   0.497   4.696   6.032 -0.9916 -0.0601  1.0604
 4748SOL     OW25705   3.497   2.090   4.505  0.2246  0.0705 -0.1646
 4748SOL    HW125706   3.540   2.046   4.579 -0.7991 -0.7089 -0.0385
 4748SOL    HW225707   3.462   2.021   4.450 -1.8337  1.5704 -0.7108
 4749SOL     OW25708   2.568   4.254   2.782  0.0205 -0.0215 -0.6714
 4749SOL    HW125709   2.510   4.327   2.761 -0.0383  0.7825  2.2241
 4749SOL    HW225710   2.629   4.264   2.709  1.2360 -2.2846  0.0461
 4750SOL     OW25711   0.847   3.397   7.536  0.2917  0.3532  0.4299
 4750SOL    HW125712   0.839   3.328   7.601  0.9690  0.8477  1.0366
 4750SOL    HW225713   0.883   3.354   7.459 -0.7506 -3.1347  1.8979
 4751SOL     OW25714   4.024   2.937  10.895 -0.3409 -0.2444  0.1709
 4751SOL    HW125715   4.104   2.974  10.857 -0.2803  1.6380  2.1046
 4751SOL    HW225716   3.958   2.993  10.854 -0.3879 -0.3311  0.1286
 4752SOL     OW25717   0.923   3.828   5.151  0.4491 -0.0742  0.1158
 4752SOL    HW125718   0.857   3.793   5.091  1.4395 -0.5290 -0.7164
 4752SOL    HW225719   0.961   3.754   5.198  1.1110  0.1461 -0.0799
 4753SOL     OW25720   1.716   4.393   0.528 -0.8011 -0.4082 -0.0752
 4753SOL    HW125721   1.781   4.422   0.463 -0.2698 -0.3013  0.5036
 4753SOL    HW225722   1.731   4.457   0.597  0.9855 -1.3680  0.4122
 4754SOL     OW25723   4.031   2.188   5.533 -0.1754 -0.3027  0.2274
 4754SOL    HW125724   4.052   2.119   5.470 -0.5690 -0.3797  0.1784
 4754SOL    HW225725   3.954   2.149   5.574 -0.3732 -1.5577 -1.3256
 4755SOL     OW25726   3.935   0.659   1.537 -0.4979 -0.1062  0.7579
 4755SOL    HW125727   3.860   0.624   1.584 -0.1114  1.1337  2.3032
 4755SOL    HW225728   3.968   0.579   1.497  0.9579  1.0756 -0.4302
 4756SOL     OW25729   2.416   1.727   6.550 -0.6147  0.3117  0.4460
 4756SOL    HW125730   2.321   1.739   6.548 -0.5204  0.8845 -0.6689
 4756SOL    HW225731   2.445   1.804   6.598  0.4166  0.9274 -1.1636
 4757SOL     OW25732   2.826   3.736   6.224  0.0960 -0.0569 -0.5245
 4757SOL    HW125733   2.906   3.789   6.233  1.5806 -1.7335 -4.2992
 4757SOL    HW225734   2.850   3.659   6.275 -1.6824  0.7313  1.4899
 4758SOL     OW25735   1.979   1.733   4.960  0.3322  0.2510  0.5244
 4758SOL    HW125736   1.887   1.758   4.952  0.4641  1.1719  1.9145
 4758SOL    HW225737   2.018   1.820   4.954 -2.3146  1.0991 -3.9799
 4759SOL     OW25738   3.515   1.232   5.771  0.2266 -0.9650 -0.2308
 4759SOL    HW125739   3.498   1.139   5.754 -0.8606 -1.1694  2.0534
 4759SOL    HW225740   3.606   1.241   5.743  0.1750  0.5258  0.0724
 4760SOL     OW25741   0.917   2.321   2.041 -0.2295 -0.1258 -0.1602
 4760SOL    HW125742   1.011   2.318   2.028  0.1466 -0.3191  2.5977
 4760SOL    HW225743   0.880   2.269   1.970  0.1819 -0.5628 -0.0552
 4761SOL     OW25744   3.652   4.535   8.971  0.2292 -0.2562  0.2548
 4761SOL    HW125745   3.591   4.573   9.033 -0.9690 -0.8835 -0.5366
 4761SOL    HW225746   3.652   4.445   9.003  0.7157 -1.3170 -2.7360
 4762SOL     OW25747   2.152   1.842   4.693  0.3185 -0.2119  0.5786
 4762SOL    HW125748   2.143   1.915   4.632 -0.7891 -1.4751 -0.7851
 4762SOL    HW225749   2.225   1.875   4.745  0.4329  1.9786 -0.9467
 4763SOL     OW25750   3.509   1.177   7.324  0.2915  0.1795  0.1718
 4763SOL    HW125751   3.525   1.222   7.407 -0.6898  0.0647  0.4335
 4763SOL    HW225752   3.597   1.142   7.314  0.0827 -0.9006  2.1467
 4764SOL     OW25753   3.555   2.167   8.089 -0.5803  0.0634  0.3029
 4764SOL    HW125754   3.510   2.091   8.127 -1.7396 -0.2848 -1.7808
 4764SOL    HW225755   3.549   2.227   8.163  0.0985 -0.6752  0.9544
 4765SOL     OW25756   1.801   2.677   4.491 -0.4368 -0.0675  0.4574
 4765SOL    HW125757   1.791   2.625   4.571  0.3041 -0.2037  0.4657
 4765SOL    HW225758   1.734   2.743   4.505 -0.2952  0.0282  0.6823
 4766SOL     OW25759   3.647   0.174   6.719  0.1704  0.1855 -0.1686
 4766SOL    HW125760   3.619   0.213   6.802  2.1619  2.2034 -0.4437
 4766SOL    HW225761   3.701   0.249   6.694  0.9330 -0.2512  0.1632
 4767SOL     OW25762   2.405   0.051   9.132  0.3274  0.7345 -0.4345
 4767SOL    HW125763   2.430   0.003   9.211  0.2956  2.9050  0.9060
 4767SOL    HW225764   2.336   4.711   9.105  1.0792  0.3037 -1.3972
 4768SOL     OW25765   4.420   1.485   0.006 -0.5817 -0.2147 -0.3590
 4768SOL    HW125766   4.336   1.441   0.019 -0.6143  0.9468  3.3104
 4768SOL    HW225767   4.457   1.429  17.620  0.7742 -0.0286  0.2146
 4769SOL     OW25768   2.783   2.758  15.945 -0.6216 -0.3357  0.1359
 4769SOL    HW125769   2.789   2.822  15.874  2.7509 -0.6588  0.1381
 4769SOL    HW225770   2.769   2.818  16.018 -0.7333 -0.3395  0.1184
 4770SOL     OW25771   0.676   2.274   6.934  0.2548 -0.2496 -0.0390
 4770SOL    HW125772   0.638   2.196   6.974 -1.0478  1.0519  1.2530
 4770SOL    HW225773   0.598   2.328   6.946  0.5981  1.0071 -3.3317
 4771SOL     OW25774   4.362   1.878   3.198 -0.0031  0.2293  0.5087
 4771SOL    HW125775   4.371   1.789   3.234  1.4632  0.7902  1.5030
 4771SOL    HW225776   4.427   1.875   3.128 -1.0675 -1.1281 -0.4149
 4772SOL     OW25777   4.675   4.386   7.300 -0.1279 -0.0951  0.2776
 4772SOL    HW125778   0.008   4.457   7.263 -1.5972  0.3669 -0.9297
 4772SOL    HW225779   4.585   4.414   7.283 -0.9536 -2.7057  0.4480
 4773SOL     OW25780   4.420   1.669   4.425 -0.2868 -0.3770  0.4840
 4773SOL    HW125781   4.473   1.601   4.384 -0.6492  0.0857 -0.7803
 4773SOL    HW225782   4.488   1.722   4.467 -0.8435  1.5851 -1.0495
 4774SOL     OW25783   2.207   1.312   3.992 -0.2000 -0.3929 -0.0006
 4774SOL    HW125784   2.172   1.372   3.925  2.4308  0.3533 -0.7339
 4774SOL    HW225785   2.261   1.381   4.032 -2.3553  0.9138  0.6577
 4775SOL     OW25786   4.242   0.703   6.537  0.3845  0.3316  1.1845
 4775SOL    HW125787   4.276   0.791   6.557 -0.8022  1.1452 -0.3041
 4775SOL    HW225788   4.188   0.684   6.613 -1.4031 -1.5626 -0.5456
 4776SOL     OW25789   3.450   0.851   5.535  0.0092  0.4755 -0.3085
 4776SOL    HW125790   3.530   0.895   5.505  0.7072 -1.1152 -0.7821
 4776SOL    HW225791   3.383   0.883   5.474  1.8974  0.9816 -2.1378
 4777SOL     OW25792   3.866   0.228   9.085  0.5391 -0.5921 -0.3124
 4777SOL    HW125793   3.774   0.200   9.080  0.0719  0.9297 -0.1475
 4777SOL    HW225794   3.880   0.285   9.009 -2.7781  1.0047  0.2780
 4778SOL     OW25795   2.866   3.848   8.451  0.8891 -0.7239  0.2605
 4778SOL    HW125796   2.885   3.835   8.544  2.0077 -0.4576  0.0611
 4778SOL    HW225797   2.808   3.924   8.455  2.6044  0.6564 -1.5392
 4779SOL     OW25798   2.717   1.941   3.385 -0.0629 -0.4789 -0.1890
 4779SOL    HW125799   2.695   1.852   3.357  3.9243 -2.7387  3.7821
 4779SOL    HW225800   2.751   1.974   3.303  0.0468 -0.1599 -0.0141
 4780SOL     OW25801   2.362   1.660  15.259  0.3019  0.4723 -0.2257
 4780SOL    HW125802   2.437   1.669  15.199 -1.5608 -1.6735 -2.8579
 4780SOL    HW225803   2.311   1.741  15.254 -1.9356 -0.8519  1.2017
 4781SOL     OW25804   0.599   1.922  13.189 -0.2520  0.1060 -0.0663
 4781SOL    HW125805   0.612   1.850  13.127  0.1033 -0.8349  1.1015
 4781SOL    HW225806   0.634   1.875  13.265 -1.4226 -0.3849  0.1753
 4782SOL     OW25807   2.255   1.804   1.913  0.2811 -0.1410 -0.0579
 4782SOL    HW125808   2.314   1.800   1.838  2.0629  0.5938  1.3228
 4782SOL    HW225809   2.172   1.828   1.871  0.8655  3.2846  0.7625
 4783SOL     OW25810   1.518   3.605   6.102  0.4110  0.0914  0.1538
 4783SOL    HW125811   1.592   3.603   6.163 -0.0564  3.1430  0.7931
 4783SOL    HW225812   1.486   3.515   6.105  1.6441 -0.3277  0.7063
 4784SOL     OW25813   3.753   1.852   3.380  0.0648  0.0729 -0.4463
 4784SOL    HW125814   3.667   1.817   3.405  0.9367 -0.3885  1.8785
 4784SOL    HW225815   3.742   1.947   3.378  0.2469  0.0541 -2.3540
 4785SOL     OW25816   1.740   4.665  17.245  0.5736 -0.2312 -0.1608
 4785SOL    HW125817   1.771   0.034  17.228  0.4263 -0.5656 -2.2350
 4785SOL    HW225818   1.820   4.615  17.229  0.8243  0.0874  0.0885
 4786SOL     OW25819   2.242   2.144  16.756  0.1496 -0.2231 -0.0168
 4786SOL    HW125820   2.321   2.163  16.807 -0.3796  0.2772  0.6169
 4786SOL    HW225821   2.290   2.106  16.682  1.3462  0.4194  0.4242
 4787SOL     OW25822   0.770   4.016   9.846 -0.3105  0.2723  0.4199
 4787SOL    HW125823   0.771   3.925   9.875  1.7241  0.5951  1.2986
 4787SOL    HW225824   0.815   4.013   9.762  0.3875 -1.3438  0.8554
 4788SOL     OW25825   3.626   0.009   4.245  0.6344  0.3861  0.2034
 4788SOL    HW125826   3.686   0.061   4.299  2.7295 -0.8029 -0.9869
 4788SOL    HW225827   3.562   4.699   4.309  0.1755  1.1787  0.1221
 4789SOL     OW25828   3.826   0.302   1.954 -0.1659  0.4528 -0.5771
 4789SOL    HW125829   3.906   0.322   1.906  0.4761 -0.6221  0.0290
 4789SOL    HW225830   3.777   0.271   1.878 -1.2946 -0.0697  0.3472
 4790SOL     OW25831   3.882   1.593   4.228  0.0711 -0.1191  0.0715
 4790SOL    HW125832   3.929   1.666   4.187  0.0210 -0.8417 -1.2633
 4790SOL    HW225833   3.878   1.531   4.155  1.5674 -1.6730  1.3162
 4791SOL     OW25834   4.654   0.307  11.809 -0.2666 -0.1707  0.0873
 4791SOL    HW125835   4.720   0.317  11.877 -1.0749  3.3374  0.3269
 4791SOL    HW225836   4.586   0.256  11.854 -2.4064  2.0995 -0.5628
 4792SOL     OW25837   2.064   4.085   3.261 -0.2340 -0.3457  0.0674
 4792SOL    HW125838   2.155   4.054   3.258  0.1502  1.1008 -3.4957
 4792SOL    HW225839   2.077   4.180   3.268  1.1895 -0.6007  0.9425
 4793SOL     OW25840   0.044   1.896   8.440  0.3583  0.1541 -0.3146
 4793SOL    HW125841   0.082   1.882   8.527  0.2774 -0.2152 -0.3403
 4793SOL    HW225842   0.080   1.985   8.432  0.9078 -0.0520 -0.1197
 4794SOL     OW25843   1.711   4.194  15.270 -0.6843 -0.6612 -0.1648
 4794SOL    HW125844   1.655   4.268  15.247  0.1790  0.7996  2.4267
 4794SOL    HW225845   1.733   4.215  15.361 -1.5738  0.3233 -0.1722
 4795SOL     OW25846   0.602   2.816  11.805 -0.1900 -0.0090  0.3000
 4795SOL    HW125847   0.621   2.725  11.781 -0.4800 -0.6419  2.4442
 4795SOL    HW225848   0.661   2.813  11.880  1.2709 -0.7314 -0.8794
 4796SOL     OW25849   0.990   4.637   9.726 -0.3385 -0.6180  0.0155
 4796SOL    HW125850   1.046   4.648   9.649  0.3585  1.4405  0.8363
 4796SOL    HW225851   1.056   4.604   9.786  1.3059  0.7694 -1.0384
 4797SOL     OW25852   4.026   2.753   4.815  0.0968 -0.1012 -0.0318
 4797SOL    HW125853   3.942   2.753   4.770 -0.2678  1.1213  0.6432
 4797SOL    HW225854   4.066   2.833   4.782  0.6668 -0.5818 -0.5012
 4798SOL     OW25855   2.268   2.500   2.537 -0.0863  0.1157  0.1582
 4798SOL    HW125856   2.196   2.547   2.580  0.6594 -1.1532  2.7832
 4798SOL    HW225857   2.235   2.410   2.538  1.1435 -0.3136  1.0639
 4799SOL     OW25858   0.293   4.712   6.911  0.3943  0.2308  0.0256
 4799SOL    HW125859   0.212   4.661   6.910  0.4478  0.1141  1.5901
 4799SOL    HW225860   0.255   0.066   6.863 -1.4345 -0.5025  0.3452
 4800SOL     OW25861   2.147   3.056   3.477  0.3162  0.2739 -0.4975
 4800SOL    HW125862   2.086   3.096   3.415 -0.2753 -0.1660 -0.1966
 4800SOL    HW225863   2.088   3.010   3.537 -1.2502  1.8795 -0.8370
 4801SOL     OW25864   2.505   0.775   3.069 -0.1145 -0.2628  0.4808
 4801SOL    HW125865   2.534   0.820   3.149  1.9572  0.4536 -0.6610
 4801SOL    HW225866   2.473   0.847   3.015  1.5503  1.9792  2.4477
 4802SOL     OW25867   2.647   2.288  14.848  0.3056 -0.0259 -0.1149
 4802SOL    HW125868   2.597   2.232  14.907  0.6609  0.8858  1.0536
 4802SOL    HW225869   2.738   2.275  14.875  0.0807  0.9799  1.0888
 4803SOL     OW25870   2.123   4.121  12.204 -0.2548 -0.0819 -0.7170
 4803SOL    HW125871   2.138   4.216  12.209  0.5806 -0.3341  1.5285
 4803SOL    HW225872   2.187   4.091  12.140 -0.7872 -0.2576 -1.1742
 4804SOL     OW25873   2.513   0.090   1.600  0.3149 -0.1160  0.2053
 4804SOL    HW125874   2.592   0.054   1.559 -0.5447 -0.4266 -1.1599
 4804SOL    HW225875   2.558   0.116   1.681  2.3520  2.7456 -1.7955
 4805SOL     OW25876   0.375   3.300   3.620 -0.0072 -0.4934  0.3354
 4805SOL    HW125877   0.346   3.355   3.547  2.9799  0.2801 -0.2955
 4805SOL    HW225878   0.459   3.345   3.635 -0.6022  0.9541 -0.6329
 4806SOL     OW25879   0.407   1.066   7.837 -0.2631  0.0868  0.2182
 4806SOL    HW125880   0.500   1.047   7.840 -0.4383 -0.8020 -0.0474
 4806SOL    HW225881   0.373   1.005   7.772 -1.7762  0.1807  0.9027
 4807SOL     OW25882   4.182   3.682   2.103  0.2200  0.0049  0.3781
 4807SOL    HW125883   4.196   3.588   2.086  0.2624 -0.2700  1.8837
 4807SOL    HW225884   4.155   3.708   2.015 -3.0635  0.3904  1.4984
 4808SOL     OW25885   2.869   0.005   1.572  0.5082 -0.0615 -0.5898
 4808SOL    HW125886   2.963   0.016   1.589  0.2183  1.4556  0.0210
 4808SOL    HW225887   2.874   4.673   1.492 -0.5979 -1.2931  0.1400
 4809SOL     OW25888   1.797   2.819   3.431 -0.0626 -0.1837 -0.2219
 4809SOL    HW125889   1.830   2.842   3.518  2.1328 -0.3456 -1.0124
 4809SOL    HW225890   1.879   2.783   3.396  0.2041 -0.5549  0.7602
 4810SOL     OW25891   3.441   4.305   4.649 -0.1986  0.0680 -0.2449
 4810SOL    HW125892   3.419   4.320   4.741  1.4130  0.6667  0.0418
 4810SOL    HW225893   3.419   4.212   4.642  1.7052 -0.3143 -1.2742
 4811SOL     OW25894   0.004   0.204  17.383 -0.1474 -0.1258  0.0222
 4811SOL    HW125895   0.070   0.193  17.315 -2.4510 -2.7664 -1.8007
 4811SOL    HW225896   0.033   0.281  17.431 -2.1320  0.0166  0.9868
 4812SOL     OW25897   1.635   1.039   6.947  0.5156  0.3315  0.0676
 4812SOL    HW125898   1.703   1.106   6.935 -2.4160  3.1723 -0.4873
 4812SOL    HW225899   1.569   1.058   6.881  1.1931  2.0227 -0.1274
 4813SOL     OW25900   1.716   2.810   2.750 -0.3846  0.3738  0.2100
 4813SOL    HW125901   1.804   2.793   2.783 -0.3683  0.9389  0.4706
 4813SOL    HW225902   1.667   2.787   2.828 -1.1068 -1.5228 -0.8042
 4814SOL     OW25903   2.181   3.316   2.167  0.6354  0.0865 -0.1401
 4814SOL    HW125904   2.163   3.357   2.082  1.0140  2.4100  0.9112
 4814SOL    HW225905   2.128   3.236   2.160 -1.5173  1.4253  1.0719
 4815SOL     OW25906   4.243   3.914  12.345 -0.2046 -0.0204  0.2774
 4815SOL    HW125907   4.189   3.981  12.385 -1.0036 -0.0090 -0.8106
 4815SOL    HW225908   4.177   3.847  12.322  0.5816 -0.9630  0.7663
 4816SOL     OW25909   3.967   0.136   9.304  0.1647  0.0474 -0.1438
 4816SOL    HW125910   3.937   0.181   9.225 -3.0573 -1.5645  0.1594
 4816SOL    HW225911   3.911   0.059   9.305  0.9838 -0.5347  0.6755
 4817SOL     OW25912   1.381   3.485   2.572  0.0084  0.2772 -0.4517
 4817SOL    HW125913   1.476   3.483   2.558 -0.0878 -0.8957 -0.9826
 4817SOL    HW225914   1.352   3.565   2.528  0.3277  0.9321  0.5517
 4818SOL     OW25915   2.713   0.370   7.861  0.8770 -0.6221 -0.2518
 4818SOL    HW125916   2.727   0.465   7.861 -4.9543  0.2409  0.6449
 4818SOL    HW225917   2.655   0.358   7.936  2.2386  1.0737  1.0759
 4819SOL     OW25918   2.585   1.648  13.210  0.4569 -0.0950 -0.1209
 4819SOL    HW125919   2.592   1.739  13.181 -0.5221  0.1168  0.3026
 4819SOL    HW225920   2.495   1.641  13.241 -0.0764  0.8579 -1.4465
 4820SOL     OW25921   4.137   0.148   2.788 -0.3787 -0.0623 -0.0284
 4820SOL    HW125922   4.162   0.101   2.709  0.4290 -0.4233  0.4436
 4820SOL    HW225923   4.158   0.236   2.758 -0.2460  1.0883  3.3552
 4821SOL     OW25924   0.993   4.607   0.323  0.1156  0.0238  0.6194
 4821SOL    HW125925   1.025   4.517   0.322 -1.3771 -0.5289  2.2936
 4821SOL    HW225926   0.973   4.620   0.231 -2.8039 -0.5326  1.1801
 4822SOL     OW25927   1.003   4.626  13.382 -0.4321  0.0443  0.6033
 4822SOL    HW125928   1.045   4.568  13.317  0.3648  0.0989  1.0714
 4822SOL    HW225929   1.054   4.620  13.463  0.4755  1.5909  0.1513
 4823SOL     OW25930   4.497   2.122  12.053  0.2073 -0.0211 -0.1760
 4823SOL    HW125931   4.542   2.077  11.981 -0.3273 -1.6270  0.5165
 4823SOL    HW225932   4.476   2.050  12.111 -0.8020 -0.0917 -0.6334
 4824SOL     OW25933   4.315   2.861   2.845  0.5377 -0.1310 -0.6561
 4824SOL    HW125934   4.370   2.865   2.923  1.9412  3.3562 -1.8190
 4824SOL    HW225935   4.274   2.946   2.858  0.1483 -0.4916  0.5246
 4825SOL     OW25936   1.265   3.868   7.841  0.0126 -0.4083  0.6469
 4825SOL    HW125937   1.206   3.929   7.796  0.2923 -0.8906 -0.3845
 4825SOL    HW225938   1.196   3.810   7.874  0.8212 -2.6763 -1.6284
 4826SOL     OW25939   1.046   3.849   0.826 -0.1744 -0.6707  0.0904
 4826SOL    HW125940   1.078   3.844   0.916 -0.6255  0.3298  0.3082
 4826SOL    HW225941   1.130   3.838   0.780  0.7605 -2.2667  2.1788
 4827SOL     OW25942   0.313   2.577  10.001 -0.1565 -0.3747 -0.0508
 4827SOL    HW125943   0.385   2.593  10.063 -0.7904  2.2397  0.0089
 4827SOL    HW225944   0.265   2.659  10.007  2.8888  1.3775  0.1153
 4828SOL     OW25945   0.704   2.822   9.286  0.6168 -0.4536 -0.2297
 4828SOL    HW125946   0.752   2.905   9.291 -1.6711  0.9100 -1.2548
 4828SOL    HW225947   0.613   2.850   9.288  0.8491  0.2802  0.3080
 4829SOL     OW25948   4.284   2.889   0.450 -0.2864 -0.9018  0.7154
 4829SOL    HW125949   4.228   2.906   0.526  1.2086  0.8235  1.4373
 4829SOL    HW225950   4.350   2.955   0.471 -0.0442 -1.0126  0.2824
 4830SOL     OW25951   4.119   3.476  15.952 -0.2171 -0.6131  0.2643
 4830SOL    HW125952   4.181   3.537  15.911 -0.0408 -0.7822  0.2801
 4830SOL    HW225953   4.065   3.457  15.876 -1.3450  2.4577  0.2981
 4831SOL     OW25954   2.753   3.995   8.926  0.0622  0.3785  0.3635
 4831SOL    HW125955   2.804   3.946   8.861 -1.3355  0.3822 -0.7449
 4831SOL    HW225956   2.726   3.929   8.990 -0.3524  0.0343 -0.1702
 4832SOL     OW25957   0.850   3.481  10.760  0.1899 -0.4736 -0.1692
 4832SOL    HW125958   0.869   3.517  10.846  0.3714 -1.7066  0.3081
 4832SOL    HW225959   0.910   3.406  10.758  1.6940  0.6627  2.0282
 4833SOL     OW25960   3.747   0.725   9.735  0.2404  0.1023  0.7608
 4833SOL    HW125961   3.723   0.696   9.647  1.1821 -0.0403  0.5479
 4833SOL    HW225962   3.802   0.803   9.725 -0.3090  0.5460  1.2691
 4834SOL     OW25963   4.062   1.332   7.294 -0.3370 -1.0933 -0.3184
 4834SOL    HW125964   4.011   1.352   7.215 -1.9862  1.1248  1.2910
 4834SOL    HW225965   4.147   1.306   7.260 -0.2573  0.1455 -1.0675
 4835SOL     OW25966   0.320   1.846   5.907 -0.4584 -0.4871 -0.7387
 4835SOL    HW125967   0.403   1.834   5.861  0.0609 -1.2391  0.3985
 4835SOL    HW225968   0.335   1.815   5.996 -2.3180 -2.9825 -1.2849
 4836SOL     OW25969   0.013   2.358   6.505  0.0063  0.1451  0.3008
 4836SOL    HW125970   0.055   2.396   6.583 -0.6242 -1.4929  1.4459
 4836SOL    HW225971   4.678   2.428   6.471  1.2369  0.2093 -1.5328
 4837SOL     OW25972   4.606   0.266   3.851 -0.2343 -0.1068 -0.8123
 4837SOL    HW125973   4.510   0.264   3.850 -0.2597  1.3918 -1.5245
 4837SOL    HW225974   4.618   0.361   3.839  0.5738  0.0423  1.1466
 4838SOL     OW25975   2.168   0.543   2.736 -0.2603  0.0940 -0.3441
 4838SOL    HW125976   2.255   0.518   2.706 -0.2163 -0.8805  0.6242
 4838SOL    HW225977   2.165   0.637   2.719  2.0243  0.2199 -0.1251
 4839SOL     OW25978   1.978   1.786   6.204 -0.9989 -0.3170 -0.3541
 4839SOL    HW125979   1.935   1.703   6.227  0.5523 -1.5003 -1.6799
 4839SOL    HW225980   1.935   1.845   6.266 -1.2183 -1.2675  0.3931
 4840SOL     OW25981   3.274   3.440   4.580  0.1923  0.0491 -0.1424
 4840SOL    HW125982   3.250   3.525   4.543 -1.5279 -0.2210  0.3917
 4840SOL    HW225983   3.207   3.432   4.647 -2.2970 -1.1093 -2.7785
 4841SOL     OW25984   1.605   4.202   3.743 -0.1471  0.3853  0.1905
 4841SOL    HW125985   1.593   4.296   3.725 -3.2307 -0.1618 -0.6398
 4841SOL    HW225986   1.698   4.193   3.721 -0.0311  1.9341  0.0278
 4842SOL     OW25987   4.185   0.093   3.593  0.2858  0.5528  0.3018
 4842SOL    HW125988   4.166   0.050   3.510  0.6948  2.5550 -0.8321
 4842SOL    HW225989   4.096   0.110   3.624  0.7416  2.2591  0.6621
 4843SOL     OW25990   0.988   3.239  11.056  0.4625  0.1254 -0.7250
 4843SOL    HW125991   0.926   3.167  11.044  0.2736  0.0524  0.6252
 4843SOL    HW225992   1.010   3.269  10.968  1.1572 -0.8745 -0.8958
 4844SOL     OW25993   1.754   3.517   8.916 -0.0998  0.5799  0.3507
 4844SOL    HW125994   1.663   3.535   8.895 -0.8673 -1.7742  1.7043
 4844SOL    HW225995   1.782   3.471   8.837 -0.7127  3.1142 -1.3358
 4845SOL     OW25996   4.046   2.753   2.796 -0.2792 -0.7677  0.1401
 4845SOL    HW125997   4.027   2.723   2.885 -0.7625  0.4949  0.4599
 4845SOL    HW225998   4.139   2.775   2.800 -0.6897  1.2514 -1.4867
 4846SOL     OW25999   2.097   3.837   7.837 -0.0808 -0.1499 -0.5698
 4846SOL    HW126000   2.114   3.827   7.931  0.3607  1.7132 -0.4563
 4846SOL    HW226001   2.059   3.751   7.820  0.8556 -0.5935 -0.4414
 4847SOL     OW26002   2.931   0.063  10.636 -0.1919  0.1451  0.4561
 4847SOL    HW126003   2.989   0.136  10.655  0.9808 -0.7735  0.3845
 4847SOL    HW226004   2.919   0.071  10.541 -0.1002  0.7695  0.4998
 4848SOL     OW26005   3.256   1.184   3.350  0.3822 -0.1476 -0.3152
 4848SOL    HW126006   3.297   1.160   3.267 -1.2915 -0.4102 -1.0487
 4848SOL    HW226007   3.172   1.222   3.324  0.1432  0.1039  0.7851
 4849SOL     OW26008   3.107   3.328   2.979 -0.0119 -0.1496  0.4153
 4849SOL    HW126009   3.101   3.414   3.021  0.4196  1.1192 -2.0982
 4849SOL    HW226010   3.170   3.282   3.035  1.9116 -0.4047 -1.9404
 4850SOL     OW26011   1.655   4.532   2.103  0.2204  0.2924 -0.0026
 4850SOL    HW126012   1.570   4.553   2.140 -0.2618 -0.9520 -0.4054
 4850SOL    HW226013   1.622   4.465   2.044  1.7497  1.8919 -2.6705
 4851SOL     OW26014   2.354   1.758  17.353 -0.4977 -0.3937 -0.1042
 4851SOL    HW126015   2.356   1.750  17.258 -1.1620  2.7391 -0.3789
 4851SOL    HW226016   2.279   1.703  17.376 -2.0958  2.3422  1.2005
 4852SOL     OW26017   2.621   1.708   4.781  0.2159 -0.3585 -0.1962
 4852SOL    HW126018   2.650   1.668   4.699 -1.0843 -0.1718 -0.7503
 4852SOL    HW226019   2.547   1.650   4.801 -0.8630  1.1759  0.2728
 4853SOL     OW26020   3.682   1.891   8.206 -0.3217 -1.0215  0.0277
 4853SOL    HW126021   3.677   1.897   8.301  1.0804 -0.6834  0.0815
 4853SOL    HW226022   3.590   1.873   8.186 -0.7543 -0.5534  1.5924
 4854SOL     OW26023   2.390   2.661   3.700  0.2816 -0.3064 -0.0262
 4854SOL    HW126024   2.469   2.711   3.679  0.1064  0.1722  0.4301
 4854SOL    HW226025   2.419   2.572   3.681  0.8332 -0.3989  1.2611
 4855SOL     OW26026   0.685   0.046   2.571 -0.3919 -0.0065 -0.3192
 4855SOL    HW126027   0.619   0.112   2.594  1.0735  1.0044  0.9619
 4855SOL    HW226028   0.641   0.018   2.490  0.5771  1.0034 -1.1853
 4856SOL     OW26029   1.638   0.753   6.863 -0.1985  0.1912 -0.5412
 4856SOL    HW126030   1.640   0.833   6.810 -0.0569 -0.8561 -2.1313
 4856SOL    HW226031   1.610   0.783   6.949 -2.3603  3.4550 -2.3699
 4857SOL     OW26032   0.132   4.624   9.007  0.0102 -0.1536 -0.3833
 4857SOL    HW126033   0.225   4.626   8.983  0.1371 -4.0996 -0.2502
 4857SOL    HW226034   0.098   4.546   8.963 -0.8024 -0.4846  0.8504
 4858SOL     OW26035   1.380   3.674   1.486  0.1799  0.5808  0.0342
 4858SOL    HW126036   1.445   3.608   1.463  0.6741  1.8356 -2.2505
 4858SOL    HW226037   1.321   3.623   1.541  0.2784 -0.6776 -1.0290
 4859SOL     OW26038   0.106   0.581   3.709  0.0423  0.1953 -0.1043
 4859SOL    HW126039   0.170   0.601   3.778 -0.6083 -0.2313  0.6267
 4859SOL    HW226040   0.135   0.636   3.636  1.8316 -0.8191 -0.1485
 4860SOL     OW26041   3.904   3.352   6.239 -0.2990 -0.0791 -0.0322
 4860SOL    HW126042   3.898   3.278   6.299 -2.4861  0.9940  1.0893
 4860SOL    HW226043   3.813   3.369   6.212  0.2839 -1.5377 -2.9028
 4861SOL     OW26044   3.779   0.452   6.718 -0.1610 -0.0683 -0.2094
 4861SOL    HW126045   3.842   0.428   6.649  0.7143 -0.5235  0.7438
 4861SOL    HW226046   3.811   0.541   6.726  1.3726 -0.5280 -1.0589
 4862SOL     OW26047   2.213   0.065   8.087 -0.1514 -0.2443 -0.3251
 4862SOL    HW126048   2.162   4.710   8.057 -0.4257 -0.0770 -0.2750
 4862SOL    HW226049   2.305   0.048   8.065  0.3092  1.5629  0.1451
 4863SOL     OW26050   2.659   1.146   3.609  0.3471 -0.0702 -0.4532
 4863SOL    HW126051   2.678   1.202   3.685  0.5439  0.4213 -0.8692
 4863SOL    HW226052   2.662   1.061   3.653 -0.9810  0.0207 -0.1754
 4864SOL     OW26053   3.744   1.750   5.663 -0.5607 -0.1582  1.0196
 4864SOL    HW126054   3.734   1.668   5.614 -0.5191 -0.2296  1.1301
 4864SOL    HW226055   3.823   1.777   5.616 -1.9205  2.8317  0.4583
 4865SOL     OW26056   0.894   1.724  14.155 -0.3862 -0.1442 -0.5779
 4865SOL    HW126057   0.921   1.646  14.203  1.1202  0.0476 -1.1080
 4865SOL    HW226058   0.827   1.698  14.092  1.1450 -2.1175 -1.3816
 4866SOL     OW26059   3.856   1.070   9.937 -0.3040  0.0208  0.3978
 4866SOL    HW126060   3.868   1.131   9.865 -0.3769 -1.5573 -0.9670
 4866SOL    HW226061   3.948   1.056   9.961 -0.1408  1.8470  0.8277
 4867SOL     OW26062   2.258   3.961   7.630 -0.2997  0.5793  0.5131
 4867SOL    HW126063   2.195   3.949   7.559 -1.9660 -3.6655  2.7018
 4867SOL    HW226064   2.199   3.940   7.702  2.4695  0.2616  2.6822
 4868SOL     OW26065   0.418   2.253  13.707 -0.3508 -0.1371  0.3239
 4868SOL    HW126066   0.334   2.269  13.666 -0.3096  1.8402  0.9826
 4868SOL    HW226067   0.439   2.174  13.658 -1.9930  0.3208 -1.0825
 4869SOL     OW26068   2.785   0.800   5.426 -0.2927 -0.1169  0.0705
 4869SOL    HW126069   2.807   0.818   5.334 -0.1909 -1.8577 -0.2602
 4869SOL    HW226070   2.836   0.856   5.484 -1.1710  1.3810 -0.6326
 4870SOL     OW26071   3.396   1.547   9.971 -0.0549  0.3708 -0.1820
 4870SOL    HW126072   3.489   1.556   9.988 -0.0808  4.0292 -1.9249
 4870SOL    HW226073   3.387   1.452   9.981  0.7567  0.0988 -2.0222
 4871SOL     OW26074   1.174   0.422   3.083  0.4558  0.0273  0.2578
 4871SOL    HW126075   1.189   0.498   3.028 -0.8535 -0.2667 -0.5302
 4871SOL    HW226076   1.130   0.369   3.016 -1.0390  1.4070  0.1335
 4872SOL     OW26077   0.653   3.844   7.419 -0.1808 -0.6853 -0.0149
 4872SOL    HW126078   0.709   3.915   7.451 -1.7280  0.8251 -0.6358
 4872SOL    HW226079   0.608   3.831   7.503  2.2248 -1.4244  1.1771
 4873SOL     OW26080   2.391   2.077   8.417  0.7305  0.0657  0.2631
 4873SOL    HW126081   2.377   2.170   8.436 -3.1967 -0.4093 -0.1934
 4873SOL    HW226082   2.307   2.044   8.451  1.6666 -2.5350  0.0971
 4874SOL     OW26083   3.966   4.416   7.249  0.3588 -0.1621  0.5710
 4874SOL    HW126084   4.023   4.492   7.257 -1.7656  1.4851  0.0431
 4874SOL    HW226085   3.889   4.441   7.300  0.9053  1.5291  0.5834
 4875SOL     OW26086   4.146   3.294   8.075  0.1036  0.5319  0.0145
 4875SOL    HW126087   4.137   3.378   8.119  3.7368 -0.4731  2.6298
 4875SOL    HW226088   4.238   3.278   8.094  0.8337  1.6318 -2.5966
 4876SOL     OW26089   4.600   3.141   4.664  0.0730 -0.5724  0.0413
 4876SOL    HW126090   4.601   3.071   4.730  2.1451 -1.4557 -0.9411
 4876SOL    HW226091   4.555   3.216   4.703  2.4594  1.3485 -0.9299
 4877SOL     OW26092   4.602   0.029   5.612  0.3870 -0.3356  0.0482
 4877SOL    HW126093   4.512   0.003   5.633  0.4614  0.8140  1.8741
 4877SOL    HW226094   4.604   0.112   5.661 -0.2251  0.7234 -1.7419
 4878SOL     OW26095   4.185   3.273   0.169  0.1477 -0.1068  0.2372
 4878SOL    HW126096   4.149   3.296   0.255  1.2718  1.4019  0.3077
 4878SOL    HW226097   4.172   3.178   0.173  1.3381 -0.2728 -0.0340
 4879SOL     OW26098   3.943   3.865   1.834 -0.1595 -0.3053 -0.1263
 4879SOL    HW126099   4.001   3.793   1.809  2.2394  0.2177  3.8669
 4879SOL    HW226100   3.982   3.870   1.921  0.8474 -0.5052 -0.5622
 4880SOL     OW26101   3.801   0.427   5.333 -0.1829  0.0127  0.0002
 4880SOL    HW126102   3.734   0.444   5.267 -0.5442  1.3701  0.7181
 4880SOL    HW226103   3.851   0.352   5.301  0.5618  1.3597 -1.9532
 4881SOL     OW26104   0.029   1.014   5.748  0.3858 -0.0607 -0.3351
 4881SOL    HW126105   4.720   1.032   5.659 -3.0116  1.3182  1.0280
 4881SOL    HW226106   4.703   1.078   5.803 -1.5451  0.4798 -2.5908
 4882SOL     OW26107   4.095   1.199   4.549  0.3840  0.1243  0.0719
 4882SOL    HW126108   4.111   1.105   4.542 -0.9669 -0.0626 -0.6485
 4882SOL    HW226109   4.116   1.222   4.639  0.1089  0.1936  0.1205
 4883SOL     OW26110   1.303   4.626   6.594  1.0026 -0.0519 -0.3141
 4883SOL    HW126111   1.366   4.666   6.654 -0.3140 -0.9896  1.6915
 4883SOL    HW226112   1.361   4.579   6.533  1.2210 -0.5399  0.2636
 4884SOL     OW26113   2.632   0.036   2.530 -0.2461  0.0007  0.1836
 4884SOL    HW126114   2.704   0.048   2.592  0.6314  0.7368 -0.9690
 4884SOL    HW226115   2.646   0.110   2.471  3.5581 -1.9861 -1.3802
 4885SOL     OW26116   0.292   2.832   2.042  0.7701 -0.2378 -0.0426
 4885SOL    HW126117   0.387   2.842   2.054  0.2633  2.4341  1.5862
 4885SOL    HW226118   0.267   2.757   2.096  0.4970  0.5494  0.9309
 4886SOL     OW26119   1.235   0.461  10.478  0.2470 -0.0328 -0.3059
 4886SOL    HW126120   1.286   0.522  10.530 -0.0186 -1.0216  1.0992
 4886SOL    HW226121   1.167   0.445  10.544  1.7506  0.1206  1.2655
 4887SOL     OW26122   1.683   3.184   5.801  0.1607  0.1160  0.3366
 4887SOL    HW126123   1.726   3.101   5.784 -0.9376 -0.6195  1.1661
 4887SOL    HW226124   1.716   3.197   5.890 -1.1096  1.4892  0.6112
 4888SOL     OW26125   0.411   0.106  10.061  0.4393 -0.3515 -0.1929
 4888SOL    HW126126   0.498   0.146  10.060 -0.5394  1.8118  0.9850
 4888SOL    HW226127   0.377   0.127   9.974 -0.2186 -0.8842 -0.0589
 4889SOL     OW26128   0.552   2.836   2.926  0.2849  0.6190  0.0553
 4889SOL    HW126129   0.511   2.758   2.964  1.5114  0.0765  0.2713
 4889SOL    HW226130   0.476   2.880   2.886 -0.9250  1.9503  3.8377
 4890SOL     OW26131   0.330   4.261  11.838 -0.1186  0.2605  0.2921
 4890SOL    HW126132   0.341   4.231  11.928  2.6450 -1.2545 -0.5755
 4890SOL    HW226133   0.318   4.354  11.859  1.0617  0.1231  1.5752
 4891SOL     OW26134   3.788   0.614   4.901  0.5056  0.1381  0.1272
 4891SOL    HW126135   3.873   0.654   4.920  0.9088 -0.1118 -1.1451
 4891SOL    HW226136   3.816   0.578   4.817 -0.1254 -0.6455  0.2601
 4892SOL     OW26137   4.540   2.686   5.567  0.0658 -0.0633  0.3472
 4892SOL    HW126138   4.501   2.649   5.488 -0.9238 -0.4717  1.0182
 4892SOL    HW226139   4.631   2.666   5.544  0.2637  2.7975 -1.3745
 4893SOL     OW26140   4.164   3.386  10.703  0.5852  0.3404  0.3173
 4893SOL    HW126141   4.213   3.405  10.623 -2.2344 -1.7218 -1.9085
 4893SOL    HW226142   4.240   3.404  10.758  0.1858 -2.2606  1.7244
 4894SOL     OW26143   1.683   1.303   8.062  0.1187 -0.0387 -0.3127
 4894SOL    HW126144   1.615   1.236   8.049  1.3740 -1.0085 -1.9476
 4894SOL    HW226145   1.637   1.367   8.116 -0.5942 -0.3528 -0.5525
 4895SOL     OW26146   3.903   3.780   3.546  0.2056  0.2942  0.2740
 4895SOL    HW126147   3.903   3.753   3.454 -1.4608  0.1718  0.3157
 4895SOL    HW226148   3.973   3.845   3.533 -0.4738  0.7054 -1.3364
 4896SOL     OW26149   0.494   4.018   5.591 -0.1635  0.1224  0.1357
 4896SOL    HW126150   0.410   3.974   5.600 -0.3402  0.4420  0.0601
 4896SOL    HW226151   0.501   4.053   5.680  0.1869  0.2306  0.0665
 4897SOL     OW26152   2.963   2.311   5.429 -0.3632  0.2092  0.2820
 4897SOL    HW126153   3.009   2.362   5.362 -2.4636 -1.3032 -2.3200
 4897SOL    HW226154   2.930   2.378   5.488 -0.9179  1.9841 -2.0237
 4898SOL     OW26155   2.117   0.077   5.841  0.1363  0.3108  0.8004
 4898SOL    HW126156   2.144   0.111   5.755  0.3998 -0.7785  0.4592
 4898SOL    HW226157   2.040   0.023   5.825  0.6349  0.4892 -2.1117
 4899SOL     OW26158   1.793   0.581  17.579  0.1039 -0.1594  0.2144
 4899SOL    HW126159   1.836   0.649  17.527 -1.4760  1.3146  0.8202
 4899SOL    HW226160   1.700   0.593  17.558  0.4879  0.1113 -1.3527
 4900SOL     OW26161   1.263   3.373   1.909  0.1286  0.5898  0.2260
 4900SOL    HW126162   1.251   3.418   1.825  0.9880 -2.1352 -1.3479
 4900SOL    HW226163   1.195   3.306   1.920 -1.0188  1.6567 -0.2977
 4901SOL     OW26164   1.088   2.029   8.888  0.3155 -0.0622  0.2618
 4901SOL    HW126165   0.999   2.011   8.857  0.3440 -0.6190  0.5010
 4901SOL    HW226166   1.069   2.100   8.949  1.5324  0.3324  0.1739
 4902SOL     OW26167   2.086   0.310   4.322  0.6696 -0.3133 -0.5331
 4902SOL    HW126168   2.144   0.358   4.262  0.0880 -1.7400 -2.2133
 4902SOL    HW226169   2.141   0.252   4.375  0.3625  0.8967  1.1041
 4903SOL     OW26170   1.970   1.522  13.372 -0.0972 -0.0530 -1.1329
 4903SOL    HW126171   2.038   1.555  13.430 -2.8927  1.2110  1.4037
 4903SOL    HW226172   1.994   1.570  13.293  0.1544  1.3527 -0.2004
 4904SOL     OW26173   2.464   2.055  14.894 -0.1692 -0.8878  0.2656
 4904SOL    HW126174   2.493   2.048  14.803  1.7502  0.4659  0.7808
 4904SOL    HW226175   2.450   1.962  14.910 -1.8810 -0.3837  1.7507
 4905SOL     OW26176   4.615   1.713   3.655  0.3730 -0.0869 -0.2952
 4905SOL    HW126177   4.675   1.786   3.636  0.2297  0.1744  0.2563
 4905SOL    HW226178   4.535   1.755   3.623  0.1162 -0.4376 -0.1154
 4906SOL     OW26179   1.239   4.352   8.009 -0.2507  0.0393  0.4462
 4906SOL    HW126180   1.165   4.389   8.057 -1.2159  0.3626 -1.2852
 4906SOL    HW226181   1.245   4.268   8.055 -1.6375  0.6445  1.7378
 4907SOL     OW26182   1.696   0.053   2.940  0.1550 -0.1052  0.0018
 4907SOL    HW126183   1.706   0.147   2.928  0.6410 -0.0052  1.1725
 4907SOL    HW226184   1.714   0.024   2.851 -0.4956  0.6727 -0.3771
 4908SOL     OW26185   4.567   3.515  10.248  0.2960  0.1081 -0.2955
 4908SOL    HW126186   4.497   3.489  10.309  0.2809 -0.1574 -0.4269
 4908SOL    HW226187   4.632   3.539  10.314  0.2066  1.7947 -0.8241
 4909SOL     OW26188   2.012   0.582   5.083 -0.2702  0.6078  0.3342
 4909SOL    HW126189   1.926   0.560   5.119  0.1301  1.6461  1.9122
 4909SOL    HW226190   1.980   0.657   5.034  0.2407  0.4159 -0.2940
 4910SOL     OW26191   1.598   4.416   4.330 -0.0599 -0.0911 -0.2524
 4910SOL    HW126192   1.529   4.397   4.393  0.8299 -1.6448  0.2559
 4910SOL    HW226193   1.622   4.507   4.346 -0.8909  0.4483 -2.1082
 4911SOL     OW26194   0.665   3.177   3.619 -0.2947 -0.2490 -0.4430
 4911SOL    HW126195   0.648   3.240   3.689  0.0514 -0.9803  0.3113
 4911SOL    HW226196   0.586   3.123   3.616  0.6682 -1.7810  1.1169
 4912SOL     OW26197   0.342   0.237   4.876 -0.1137  0.0672 -0.3189
 4912SOL    HW126198   0.298   0.164   4.919  0.4236 -1.2661 -2.0077
 4912SOL    HW226199   0.434   0.211   4.883  0.2293  0.9182 -1.6139
 4913SOL     OW26200   1.116   3.195   7.054 -0.0113  0.1223 -0.4219
 4913SOL    HW126201   1.119   3.269   6.993 -1.5761  0.1996 -0.3984
 4913SOL    HW226202   1.159   3.234   7.130 -1.4814  0.3667  0.2856
 4914SOL     OW26203   3.172   4.695   5.127  0.2732  0.5718 -0.4039
 4914SOL    HW126204   3.093   0.024   5.151  0.3551 -0.7900  2.6770
 4914SOL    HW226205   3.152   4.691   5.034 -1.8785 -1.1228  0.1308
 4915SOL     OW26206   1.881   2.734   3.789 -0.3887  0.0965  0.1496
 4915SOL    HW126207   1.812   2.673   3.764 -0.4358  1.4705 -3.1069
 4915SOL    HW226208   1.835   2.777   3.861  2.3271  1.7748  0.9000
 4916SOL     OW26209   4.545   1.480   5.579  0.3299  0.2361  0.5599
 4916SOL    HW126210   4.455   1.484   5.546 -0.4846  0.4998  2.8164
 4916SOL    HW226211   4.559   1.572   5.598 -0.7183  0.4943  0.1071
 4917SOL     OW26212   3.276   0.819   1.348 -0.3381 -0.4642 -0.3462
 4917SOL    HW126213   3.364   0.816   1.385 -0.5074  1.0839  0.1742
 4917SOL    HW226214   3.259   0.912   1.337 -0.2829 -0.5084 -0.7822
 4918SOL     OW26215   0.172   4.514  17.480 -0.0355  0.7124 -0.2155
 4918SOL    HW126216   0.239   4.468  17.532 -0.8321 -1.5811 -1.2160
 4918SOL    HW226217   0.163   4.458  17.403 -0.1821 -1.1609  1.1733
 4919SOL     OW26218   4.333   4.182   3.282 -0.7881 -0.1062 -0.0765
 4919SOL    HW126219   4.356   4.234   3.206 -0.6980  0.2970  0.2264
 4919SOL    HW226220   4.344   4.095   3.243  1.9962 -0.0896  0.6716
 4920SOL     OW26221   1.298   3.623   4.068  0.0164 -0.4558 -0.0157
 4920SOL    HW126222   1.223   3.565   4.053  0.4911 -1.3420  1.0120
 4920SOL    HW226223   1.303   3.669   3.984  2.3563 -0.5070  0.0865
 4921SOL     OW26224   4.710   2.748  13.954 -0.4807 -0.6520 -0.1657
 4921SOL    HW126225   4.719   2.684  14.024  1.3609  2.1804  2.2156
 4921SOL    HW226226   0.062   2.723  13.895  0.3579  2.4186 -0.4431
 4922SOL     OW26227   2.759   0.087   8.391  0.3157 -0.1404 -0.1811
 4922SOL    HW126228   2.811   0.056   8.465  0.1406  0.4931  0.2054
 4922SOL    HW226229   2.713   0.006   8.366 -0.7186  0.9424 -1.7812
 4923SOL     OW26230   4.516   3.776   5.597  0.2739  0.6817 -0.1593
 4923SOL    HW126231   4.473   3.778   5.682  0.3971  1.7969 -0.1247
 4923SOL    HW226232   4.456   3.822   5.538 -0.0441 -0.3030 -0.6019
 4924SOL     OW26233   2.906   1.353   1.386  0.3105  0.3786 -0.3574
 4924SOL    HW126234   2.866   1.437   1.365 -1.1483 -0.5621 -1.3145
 4924SOL    HW226235   2.917   1.377   1.478  0.6508 -0.5556 -0.1532
 4925SOL     OW26236   3.369   1.459   3.715  0.0549  0.2628 -0.7530
 4925SOL    HW126237   3.393   1.378   3.670 -0.1311 -0.0820 -0.2392
 4925SOL    HW226238   3.295   1.484   3.660 -2.0797 -1.9617  1.0830
 4926SOL     OW26239   3.418   4.250   1.518 -0.1383  0.1571 -0.1795
 4926SOL    HW126240   3.483   4.225   1.584  1.3012  2.6316 -0.6696
 4926SOL    HW226241   3.427   4.197   1.439 -0.2456 -1.5435  0.9498
 4927SOL     OW26242   0.239   1.255   5.744 -0.2968  0.0286 -0.2178
 4927SOL    HW126243   0.318   1.306   5.725  0.4859 -1.7635 -1.6809
 4927SOL    HW226244   0.193   1.320   5.798  1.3142  0.6446  0.4198
 4928SOL     OW26245   3.829   3.419   7.408  0.1348 -0.1260 -0.1623
 4928SOL    HW126246   3.734   3.429   7.404  0.3344  2.4779  1.1107
 4928SOL    HW226247   3.864   3.503   7.379 -3.2234  1.5172  0.4913
 4929SOL     OW26248   2.568   0.575   6.693  0.3362  0.2240 -0.2860
 4929SOL    HW126249   2.640   0.624   6.651  0.3198 -1.2589 -2.0255
 4929SOL    HW226250   2.516   0.642   6.739  0.4078  0.2904 -0.3007
 4930SOL     OW26251   0.783   4.700   8.435 -0.1856  0.3767  0.7431
 4930SOL    HW126252   0.837   4.622   8.448  0.9219  1.4270  2.3552
 4930SOL    HW226253   0.848   0.048   8.418 -1.8811  1.3385 -1.9486
 4931SOL     OW26254   4.049   0.278   9.536 -0.5459 -0.1285 -0.3947
 4931SOL    HW126255   4.022   0.226   9.461  1.8034  0.1335 -1.4137
 4931SOL    HW226256   4.130   0.231   9.555  0.8788  2.1115 -0.9850
 4932SOL     OW26257   4.644   1.925  10.253 -0.2518 -0.7964 -0.4254
 4932SOL    HW126258   4.594   2.000  10.287  0.1655 -1.2126  1.0892
 4932SOL    HW226259   0.013   1.961  10.253 -0.6078  0.1183 -2.4122
 4933SOL     OW26260   2.666   4.374   9.341  0.2512 -0.1946  0.5587
 4933SOL    HW126261   2.714   4.354   9.422  0.1495 -0.2262  0.6101
 4933SOL    HW226262   2.686   4.290   9.299 -1.5575  1.2527 -3.1657
 4934SOL     OW26263   0.240   0.158  14.230 -0.4319  0.1896 -0.1929
 4934SOL    HW126264   0.216   0.248  14.206 -1.5118 -0.4582 -1.4911
 4934SOL    HW226265   0.153   0.119  14.235  0.5656 -1.9896 -0.0167
 4935SOL     OW26266   3.372   2.400   6.988 -0.0071 -0.7147  0.7717
 4935SOL    HW126267   3.322   2.480   6.973 -0.9231 -1.6707 -1.2648
 4935SOL    HW226268   3.306   2.333   6.971  1.7116 -1.5724 -2.6763
 4936SOL     OW26269   2.712   0.054   1.788  0.9548  0.4102  0.5507
 4936SOL    HW126270   2.769   0.104   1.729 -1.7020  0.6192 -1.8485
 4936SOL    HW226271   2.758   4.691   1.787  3.2995  1.7384 -1.5131
 4937SOL     OW26272   1.017   1.864  13.806  0.2435  0.3302  0.3143
 4937SOL    HW126273   1.089   1.911  13.764  0.0387  0.3979  0.0343
 4937SOL    HW226274   0.983   1.931  13.865 -0.0591 -0.4334  1.0120
 4938SOL     OW26275   1.633   2.525   6.246  0.2794  0.3937 -0.4473
 4938SOL    HW126276   1.630   2.506   6.340 -0.5099 -2.0039 -0.9830
 4938SOL    HW226277   1.724   2.552   6.234  0.6387 -0.6063  0.0632
 4939SOL     OW26278   0.103   3.684   6.812 -0.0826  0.3724 -0.1439
 4939SOL    HW126279   0.140   3.771   6.792 -0.6086  0.9678  1.4395
 4939SOL    HW226280   0.093   3.649   6.724  0.6456 -2.4591  0.9210
 4940SOL     OW26281   3.814   3.833   6.843 -0.6288 -0.8602 -0.2866
 4940SOL    HW126282   3.901   3.839   6.805 -0.8215  0.4580 -0.5383
 4940SOL    HW226283   3.811   3.738   6.836  0.8029 -0.9717  0.7106
 4941SOL     OW26284   2.959   3.896   3.199  0.1347 -0.8204  0.0927
 4941SOL    HW126285   2.961   3.805   3.167  0.2478  0.1785 -2.8081
 4941SOL    HW226286   3.042   3.898   3.247 -0.6891  0.5297  1.4244
 4942SOL     OW26287   0.566   2.691   4.164  0.1569  0.5948 -0.6789
 4942SOL    HW126288   0.554   2.780   4.132 -0.8261  0.7030 -0.0339
 4942SOL    HW226289   0.580   2.639   4.085  1.7443 -0.0848  0.0426
 4943SOL     OW26290   0.345   2.958   7.885  0.0076  0.1524  0.0541
 4943SOL    HW126291   0.348   2.969   7.980  0.8850 -0.5791  0.1113
 4943SOL    HW226292   0.417   2.896   7.875 -0.6692 -0.6540  0.2434
 4944SOL     OW26293   3.334   0.443   0.829  0.0100 -0.1971  0.0191
 4944SOL    HW126294   3.308   0.475   0.915 -1.2730 -2.7313  0.5519
 4944SOL    HW226295   3.420   0.484   0.819 -0.2192  0.3986  0.4354
 4945SOL     OW26296   0.686   1.268   8.890  0.0035 -0.2658 -0.6157
 4945SOL    HW126297   0.673   1.194   8.831  2.0562 -0.0989 -1.2776
 4945SOL    HW226298   0.772   1.293   8.856  1.6105 -4.2891  0.4033
 4946SOL     OW26299   1.605   2.922   6.113 -0.4408  0.5090 -0.2934
 4946SOL    HW126300   1.636   3.000   6.068 -0.4872  0.5768 -0.2077
 4946SOL    HW226301   1.630   2.848   6.058  0.1968  0.7024 -0.2594
 4947SOL     OW26302   0.355   3.716   8.872  0.4025 -0.2882 -0.5030
 4947SOL    HW126303   0.387   3.763   8.948  3.8952  0.3628 -2.3997
 4947SOL    HW226304   0.302   3.648   8.914  1.7553  0.7123  2.7439
 4948SOL     OW26305   1.555   3.627  15.187  0.3377  0.6783  0.2486
 4948SOL    HW126306   1.573   3.710  15.231 -0.8894 -0.6242  3.2415
 4948SOL    HW226307   1.562   3.651  15.095  0.4466 -0.1662  0.0345
 4949SOL     OW26308   3.905   3.718   5.484  0.2204 -0.3504 -0.2239
 4949SOL    HW126309   3.972   3.680   5.542 -0.0796 -0.9677 -0.2849
 4949SOL    HW226310   3.943   3.806   5.475 -0.3192 -0.3411 -2.4583
 4950SOL     OW26311   3.879   2.401   4.323  0.4250 -0.4191 -0.2068
 4950SOL    HW126312   3.923   2.318   4.305  1.8737  0.0113  1.3138
 4950SOL    HW226313   3.827   2.374   4.399 -0.6444 -2.1155 -1.5479
 4951SOL     OW26314   0.497   1.510   4.803  0.0883 -0.4219  0.0529
 4951SOL    HW126315   0.459   1.597   4.815  1.5450  0.6998 -3.3346
 4951SOL    HW226316   0.590   1.521   4.823 -0.6534  3.3088  1.3938
 4952SOL     OW26317   3.846   4.472   6.468 -0.1156  0.1887  0.1957
 4952SOL    HW126318   3.917   4.420   6.507  1.3081 -0.0794 -2.7880
 4952SOL    HW226319   3.846   4.546   6.529 -1.4169 -0.8299  1.4338
 4953SOL     OW26320   3.072   0.853   0.967 -0.2004 -0.7618  0.9802
 4953SOL    HW126321   3.092   0.883   0.878 -0.2794 -2.0433  0.5223
 4953SOL    HW226322   3.160   0.847   1.003 -0.3874 -0.7101  1.4429
 4954SOL     OW26323   3.118   1.310   2.281 -0.1122 -0.4633  0.0869
 4954SOL    HW126324   3.145   1.402   2.289 -1.3013 -0.3112  2.3055
 4954SOL    HW226325   3.170   1.275   2.209 -0.9894 -1.7261  0.0685
 4955SOL     OW26326   4.339   2.511   5.929 -0.5496  0.4426  0.1306
 4955SOL    HW126327   4.366   2.602   5.940 -2.5893  0.9150  1.3073
 4955SOL    HW226328   4.250   2.527   5.895 -1.2296  0.1888  1.7766
 4956SOL     OW26329   2.548   0.404   3.900  0.1044 -0.1495 -0.1349
 4956SOL    HW126330   2.500   0.352   3.837 -3.3360  0.3149  2.1071
 4956SOL    HW226331   2.616   0.350   3.940 -1.2185 -0.7574  1.3159
 4957SOL     OW26332   2.006   4.133   7.633  0.1467 -0.2151  0.6717
 4957SOL    HW126333   1.966   4.123   7.546  0.7684 -0.1175  0.3710
 4957SOL    HW226334   1.956   4.069   7.682  0.6899 -1.4040 -0.3067
 4958SOL     OW26335   0.391   2.513  13.835  0.0874  0.1219 -0.2531
 4958SOL    HW126336   0.469   2.518  13.890 -0.1418 -2.8054  0.3452
 4958SOL    HW226337   0.401   2.420  13.812  0.7286 -0.4599  2.3584
 4959SOL     OW26338   1.667   1.213  16.807 -0.0707  0.2241  0.1545
 4959SOL    HW126339   1.680   1.169  16.723 -1.1089 -2.1205  1.2176
 4959SOL    HW226340   1.732   1.282  16.797  1.5718 -1.1099  1.5272
 4960SOL     OW26341   4.427   2.321   3.640 -0.0217  0.2171 -0.1802
 4960SOL    HW126342   4.461   2.290   3.557 -1.5575 -3.1795  0.4633
 4960SOL    HW226343   4.416   2.245   3.698 -1.5993  0.1684 -0.5504
 4961SOL     OW26344   2.012   1.485   3.162 -0.6261 -0.5429 -0.0935
 4961SOL    HW126345   2.086   1.542   3.184  0.4837 -1.4985 -1.3546
 4961SOL    HW226346   2.031   1.400   3.203  0.5673 -0.7568 -1.1047
 4962SOL     OW26347   3.439   1.830   8.141 -0.0421 -0.5481 -0.1984
 4962SOL    HW126348   3.407   1.740   8.148  1.5314 -1.0828  0.2431
 4962SOL    HW226349   3.368   1.882   8.179 -0.5668 -3.0726  2.3186
 4963SOL     OW26350   2.247   0.790   1.238 -0.7314 -0.0720 -0.8416
 4963SOL    HW126351   2.247   0.774   1.333 -0.3604  1.6589 -0.5469
 4963SOL    HW226352   2.252   0.700   1.205 -2.4630 -0.4463 -0.0909
 4964SOL     OW26353   2.982   3.048   4.366 -0.2683 -0.4475  0.1286
 4964SOL    HW126354   2.902   3.099   4.362 -1.4775 -2.5406 -2.2934
 4964SOL    HW226355   2.953   2.958   4.348 -1.5533  0.0459 -0.2130
 4965SOL     OW26356   0.166   3.309   0.706 -1.2097  0.2071 -0.5269
 4965SOL    HW126357   0.189   3.387   0.757 -1.8759  1.0006 -1.4553
 4965SOL    HW226358   0.170   3.240   0.772  0.7951  0.7170 -0.1182
 4966SOL     OW26359   3.907   0.350   2.916  0.6970 -0.4468  0.5189
 4966SOL    HW126360   3.920   0.421   2.853 -1.8005 -0.5135 -0.0737
 4966SOL    HW226361   3.869   0.280   2.862  0.7297 -0.6985  0.8229
 4967SOL     OW26362   3.618   0.484  10.105  0.6370 -0.3227  0.3894
 4967SOL    HW126363   3.579   0.467  10.020 -1.2789  1.0917  1.0022
 4967SOL    HW226364   3.608   0.577  10.122 -0.5544 -0.6105  1.2435
 4968SOL     OW26365   3.580   0.408   2.059  0.3362 -0.6640 -0.0062
 4968SOL    HW126366   3.673   0.387   2.050  0.0629 -1.2385 -1.4347
 4968SOL    HW226367   3.580   0.478   2.124  1.4319  0.4358 -1.1852
 4969SOL     OW26368   0.362   0.618   9.386 -0.1605 -0.1247 -0.3050
 4969SOL    HW126369   0.395   0.676   9.317  1.1592  0.3209  0.7117
 4969SOL    HW226370   0.398   0.674   9.455 -1.0939  1.3142 -0.9762
 4970SOL     OW26371   2.670   1.542  12.451  0.0900 -0.1110  0.0319
 4970SOL    HW126372   2.603   1.586  12.504  0.0169  1.8831 -1.7067
 4970SOL    HW226373   2.749   1.589  12.480 -1.5514  2.3368  0.5481
 4971SOL     OW26374   2.761   0.874   2.233 -0.2716 -0.0505 -0.1031
 4971SOL    HW126375   2.736   0.785   2.258 -0.7094  1.0133  3.3373
 4971SOL    HW226376   2.838   0.863   2.178 -0.2800  0.2035 -0.1653
 4972SOL     OW26377   0.317   1.231   6.190 -0.4312  0.1566 -0.3208
 4972SOL    HW126378   0.266   1.311   6.176 -2.5170 -1.4752 -2.0485
 4972SOL    HW226379   0.384   1.245   6.123 -3.7521  0.8021 -3.5080
 4973SOL     OW26380   0.790   4.709   1.531 -0.3025  0.2957  0.1111
 4973SOL    HW126381   0.781   0.045   1.453 -1.2278  0.1089  0.0833
 4973SOL    HW226382   0.699   4.699   1.559  0.5036 -1.0252  2.1591
 4974SOL     OW26383   4.341   0.491  10.584  0.4360  0.0364 -0.0188
 4974SOL    HW126384   4.247   0.472  10.586  0.5405 -0.4582  0.1691
 4974SOL    HW226385   4.371   0.440  10.510 -0.4863 -0.7659  0.1489
 4975SOL     OW26386   2.108   3.719  15.749 -0.1159  0.1233  0.3327
 4975SOL    HW126387   2.134   3.642  15.800 -0.5897 -0.7261 -0.7116
 4975SOL    HW226388   2.121   3.793  15.808  1.1902 -1.9658  2.7109
 4976SOL     OW26389   1.462   1.317   6.389  0.0680 -0.3840  0.2005
 4976SOL    HW126390   1.370   1.327   6.412 -0.6605 -1.4491 -2.2832
 4976SOL    HW226391   1.471   1.234   6.344 -0.2321 -1.2433  1.7231
 4977SOL     OW26392   4.426   0.443  10.839  0.1711  0.4721  0.7870
 4977SOL    HW126393   4.395   0.471  10.753 -0.0990 -0.8738  0.4565
 4977SOL    HW226394   4.399   0.352  10.841 -1.6973  1.0113 -0.0010
 4978SOL     OW26395   0.249   1.641  11.955  0.6388 -0.2998 -0.1724
 4978SOL    HW126396   0.224   1.558  11.914  0.2013  0.1052 -0.7423
 4978SOL    HW226397   0.224   1.702  11.885  1.8348  0.9268  0.4690
 4979SOL     OW26398   4.417   4.597   7.972 -0.3575 -0.6089 -0.2627
 4979SOL    HW126399   4.443   4.505   7.975  2.3404  0.1586 -0.3606
 4979SOL    HW226400   4.364   4.602   7.893  0.4792  1.0760 -0.7220
 4980SOL     OW26401   4.237   2.808   5.994 -0.0486  0.1621  0.1120
 4980SOL    HW126402   4.177   2.738   5.968  1.3319 -0.6518 -0.9241
 4980SOL    HW226403   4.172   2.857   6.043  0.0556  0.3468  0.0638
 4981SOL     OW26404   0.653   4.169   8.241 -0.1532 -0.3245  0.4442
 4981SOL    HW126405   0.673   4.201   8.153 -1.0268  1.0347  0.7382
 4981SOL    HW226406   0.558   4.174   8.239 -0.1722 -0.4623  0.8479
 4982SOL     OW26407   2.431   0.450   7.325  0.1348 -0.1902  0.0970
 4982SOL    HW126408   2.433   0.399   7.244  2.8704 -1.1120  0.7326
 4982SOL    HW226409   2.523   0.456   7.352  0.1668 -2.8056  0.5756
 4983SOL     OW26410   4.688   2.417   3.013 -0.5321  0.2245  0.3292
 4983SOL    HW126411   4.616   2.363   2.981 -1.7990  3.1754 -1.8267
 4983SOL    HW226412   4.655   2.506   3.000  2.5786  0.9045 -3.1093
 4984SOL     OW26413   4.221   1.184   9.583 -0.1266 -0.4776  0.2232
 4984SOL    HW126414   4.161   1.251   9.550  1.6405  0.3070 -1.4326
 4984SOL    HW226415   4.299   1.203   9.531  0.3863  1.2882  1.6500
 4985SOL     OW26416   2.379   2.873   9.128  0.5889  0.2733 -0.2729
 4985SOL    HW126417   2.287   2.888   9.150  0.8203  2.6412 -0.9148
 4985SOL    HW226418   2.411   2.832   9.208  1.3211  0.8319 -0.2813
 4986SOL     OW26419   0.411   3.659  13.129  0.2749 -0.2539  0.0981
 4986SOL    HW126420   0.431   3.580  13.078  1.0693 -1.1293  1.7598
 4986SOL    HW226421   0.319   3.667  13.156  0.8920  0.0154  2.0914
 4987SOL     OW26422   0.479   3.265   9.158  0.3699  0.8826 -0.3592
 4987SOL    HW126423   0.444   3.312   9.234  0.4150  0.7119 -0.2331
 4987SOL    HW226424   0.437   3.314   9.087  3.9919  0.5954 -2.7109
 4988SOL     OW26425   4.040   0.272   8.697 -0.1366 -0.5833  0.1488
 4988SOL    HW126426   4.045   0.246   8.605 -0.3593  1.2351 -0.3694
 4988SOL    HW226427   4.077   0.190   8.733 -1.2109 -0.6157  1.1945
 4989SOL     OW26428   1.430   4.504   3.891 -0.1288  0.1264 -0.0368
 4989SOL    HW126429   1.339   4.491   3.920 -0.8367  0.8624 -1.9277
 4989SOL    HW226430   1.483   4.517   3.969 -1.0720 -1.5040  0.8844
 4990SOL     OW26431   4.607   2.797   3.731 -0.0257 -0.0841  0.3264
 4990SOL    HW126432   4.603   2.892   3.743  0.5528  0.1159 -1.1477
 4990SOL    HW226433   4.537   2.779   3.668 -0.1248  0.6965  0.2158
 4991SOL     OW26434   0.448   0.777   9.188  0.3781 -0.2854 -0.2766
 4991SOL    HW126435   0.522   0.837   9.200 -1.8239  2.3384  0.3777
 4991SOL    HW226436   0.498   0.702   9.157  1.0494  1.0266 -2.3616
 4992SOL     OW26437   2.363   3.323  17.616 -0.1497  0.4866  0.3209
 4992SOL    HW126438   2.294   3.263  17.647  0.4880  0.0835  0.9577
 4992SOL    HW226439   2.381   3.371   0.013 -0.0859  0.1961  0.4813
 4993SOL     OW26440   2.750   2.064   5.097 -0.2218 -0.0225  0.1774
 4993SOL    HW126441   2.764   1.981   5.052 -0.3962  0.5062 -0.8640
 4993SOL    HW226442   2.830   2.077   5.148  0.0929  2.6283 -0.9519
 4994SOL     OW26443   1.919   0.834  12.961 -0.5474  0.3216  0.1437
 4994SOL    HW126444   1.860   0.767  12.926  1.3011 -1.4187  0.3837
 4994SOL    HW226445   1.897   0.831  13.054 -0.6537 -3.0627 -0.0029
 4995SOL     OW26446   0.088   1.487   1.673 -0.0909 -0.1683  0.1525
 4995SOL    HW126447   0.129   1.401   1.680  0.6587 -0.0370 -2.6993
 4995SOL    HW226448   0.016   1.474   1.735  0.3320 -0.2948  0.6158
 4996SOL     OW26449   4.459   1.266   4.267 -0.1788 -0.2721  0.0184
 4996SOL    HW126450   4.363   1.268   4.266 -0.1584  1.0546  1.5509
 4996SOL    HW226451   4.471   1.258   4.172 -1.0188 -1.3397  0.0119
 4997SOL     OW26452   3.026   1.359   0.453  0.2714  0.3236 -0.5219
 4997SOL    HW126453   2.966   1.428   0.480  0.7454  0.2565  0.6962
 4997SOL    HW226454   3.082   1.359   0.531  0.7767 -1.8492 -0.8841
 4998SOL     OW26455   0.502   3.176   4.147 -0.1442  0.6476 -0.0282
 4998SOL    HW126456   0.508   3.268   4.121 -1.1887  0.8671  0.5368
 4998SOL    HW226457   0.412   3.174   4.179 -0.1700 -2.2881 -0.2876
 4999SOL     OW26458   1.024   1.259   5.374 -0.4995 -0.1081  0.1422
 4999SOL    HW126459   1.038   1.235   5.282  1.2510 -1.5074  0.7769
 4999SOL    HW226460   0.984   1.345   5.371  1.4664  0.7716 -0.9894
 5000SOL     OW26461   1.783   2.147  16.258 -0.2857 -0.1795 -0.9190
 5000SOL    HW126462   1.800   2.220  16.199  2.4288 -0.0898 -0.0267
 5000SOL    HW226463   1.703   2.176  16.300 -0.4174 -0.2722 -1.1072
 5001SOL     OW26464   2.557   3.853  12.155  0.1078  0.4612 -0.0764
 5001SOL    HW126465   2.576   3.771  12.109 -0.3311  0.7017 -0.6934
 5001SOL    HW226466   2.495   3.824  12.222 -1.1991  1.9796 -0.6347
 5002SOL     OW26467   1.069   3.115   2.463 -0.4718 -0.8978 -0.6790
 5002SOL    HW126468   1.161   3.138   2.456 -1.3158  1.4209 -4.3515
 5002SOL    HW226469   1.040   3.180   2.527 -0.0080 -1.6490  0.2983
 5003SOL     OW26470   3.810   3.149   2.294 -0.1681  0.2776  0.1749
 5003SOL    HW126471   3.825   3.216   2.361 -0.4488  1.8093 -1.2870
 5003SOL    HW226472   3.726   3.115   2.326 -0.4509 -0.0722 -0.9304
 5004SOL     OW26473   0.692   1.623   6.367  0.2403 -0.3680 -0.3976
 5004SOL    HW126474   0.669   1.657   6.280 -3.1451  0.4477  0.8021
 5004SOL    HW226475   0.782   1.594   6.359  1.0653  1.4507  2.1078
 5005SOL     OW26476   3.931   4.516   3.335 -0.0691 -0.3333  0.4713
 5005SOL    HW126477   3.928   4.490   3.243  0.0924  0.1357  0.3332
 5005SOL    HW226478   3.938   4.426   3.367 -1.6246 -0.6677 -0.1164
 5006SOL     OW26479   2.178   4.640   5.066 -0.3894 -0.1017  0.0618
 5006SOL    HW126480   2.103   4.618   5.121 -0.3772  0.8990  0.4854
 5006SOL    HW226481   2.131   4.696   5.004  2.7436  0.9178 -1.4143
 5007SOL     OW26482   4.604   4.487   2.905 -0.6581 -0.0536 -0.2059
 5007SOL    HW126483   4.595   4.522   2.816  2.4679 -0.5512 -0.6998
 5007SOL    HW226484   4.563   4.400   2.899 -0.3878 -0.1967  0.0245
 5008SOL     OW26485   3.485   4.092   5.127 -0.0592  0.1310  0.1219
 5008SOL    HW126486   3.396   4.070   5.154  0.0019  0.1921  0.3742
 5008SOL    HW226487   3.525   4.059   5.208 -0.1492 -0.9405 -0.2710
 5009SOL     OW26488   0.972   1.827   7.679  0.0260  0.2835  0.2068
 5009SOL    HW126489   1.040   1.889   7.706  1.3033 -0.6099 -0.9940
 5009SOL    HW226490   1.029   1.752   7.698 -2.3399 -1.5069  0.1983
 5010SOL     OW26491   4.166   2.022   4.495 -0.0594 -0.0685 -0.0559
 5010SOL    HW126492   4.095   2.063   4.544  0.0159  0.8872 -0.7529
 5010SOL    HW226493   4.167   1.936   4.536 -3.9033 -0.8373 -1.6162
 5011SOL     OW26494   2.931   4.578   1.330 -0.3660 -0.3153 -0.4559
 5011SOL    HW126495   2.994   4.623   1.274 -1.1563 -2.4562 -3.0449
 5011SOL    HW226496   2.854   4.564   1.275 -1.1303  2.4795 -0.0600
 5012SOL     OW26497   1.987   3.333   0.756  0.1918  0.7281  0.0956
 5012SOL    HW126498   2.077   3.299   0.763 -0.7903 -1.6486  1.1591
 5012SOL    HW226499   1.956   3.346   0.845  1.3114 -0.5098  0.6567
 5013SOL     OW26500   4.253   2.218   8.420 -0.4802  0.0140  0.2137
 5013SOL    HW126501   4.232   2.293   8.364  0.2627 -0.1221 -0.2540
 5013SOL    HW226502   4.295   2.260   8.494  1.3160  2.3417 -2.1054
 5014SOL     OW26503   2.265   2.533   4.306  0.0366 -0.1478 -0.3187
 5014SOL    HW126504   2.207   2.586   4.360 -0.9140 -1.9630  0.4568
 5014SOL    HW226505   2.347   2.581   4.314 -1.4497  2.4690 -0.9374
 5015SOL     OW26506   0.082   2.376   5.680 -0.0587 -0.2498  0.4010
 5015SOL    HW126507   0.101   2.465   5.650  3.0567 -1.5505 -1.5069
 5015SOL    HW226508   4.710   2.391   5.700  0.4945  2.3932  0.9505
 5016SOL     OW26509   4.101   0.294  16.619 -0.2648  0.1644 -0.1263
 5016SOL    HW126510   4.193   0.310  16.601 -0.4165 -0.3847 -1.4272
 5016SOL    HW226511   4.102   0.275  16.713  0.6647 -0.5408 -0.2840
 5017SOL     OW26512   0.065   1.426  14.449 -0.3222  0.0460  0.1955
 5017SOL    HW126513   0.113   1.442  14.369  4.4531 -1.3434  2.7723
 5017SOL    HW226514   4.696   1.412  14.415  0.9882 -2.8520 -2.0049
 5018SOL     OW26515   3.586   0.993  16.241  0.2117 -0.4725  0.1689
 5018SOL    HW126516   3.494   0.986  16.267 -0.1621 -0.9162 -1.2862
 5018SOL    HW226517   3.632   1.012  16.323  0.9220 -2.1059  0.1462
 5019SOL     OW26518   3.564   4.689   5.286 -0.5030 -0.1139  0.1439
 5019SOL    HW126519   3.476   4.651   5.291 -0.0330 -1.3192 -0.7530
 5019SOL    HW226520   3.534   0.060   5.290  0.9247  0.3680  0.0651
 5020SOL     OW26521   3.201   0.312   0.456  0.2336 -0.1588  1.0645
 5020SOL    HW126522   3.270   0.314   0.389 -1.0789  4.0098 -0.2008
 5020SOL    HW226523   3.161   0.233   0.419  0.2274  1.1634 -1.7623
 5021SOL     OW26524   4.577   4.251   0.240 -0.2532  0.5589 -0.4099
 5021SOL    HW126525   4.537   4.327   0.283 -0.7536  0.6085 -0.9525
 5021SOL    HW226526   4.501   4.206   0.201 -1.5119  0.6422  1.9316
 5022SOL     OW26527   0.602   3.840   6.769  0.0015  0.1901  0.0243
 5022SOL    HW126528   0.693   3.868   6.767 -0.1012  0.3705 -2.9025
 5022SOL    HW226529   0.577   3.838   6.861 -1.5831  2.2794 -0.3538
 5023SOL     OW26530   0.108   0.238   4.077 -0.6240 -0.0558  0.4972
 5023SOL    HW126531   0.147   0.158   4.041  0.8041  0.7634  0.2061
 5023SOL    HW226532   0.051   0.271   4.008 -1.0952 -2.4162 -0.2124
 5024SOL     OW26533   0.819   2.572   6.474  0.1384 -0.5819  0.4133
 5024SOL    HW126534   0.854   2.550   6.560  0.3537  1.1310  0.7639
 5024SOL    HW226535   0.763   2.648   6.490  0.6784 -0.1034  0.0243
 5025SOL     OW26536   1.872   4.455   6.875  0.7284 -0.0167 -0.1630
 5025SOL    HW126537   1.883   4.446   6.781 -1.5162  1.3924 -0.5542
 5025SOL    HW226538   1.914   4.376   6.909 -1.7915 -0.7358  1.2721
 5026SOL     OW26539   2.471   3.871   5.167 -0.3575 -0.1767 -0.4708
 5026SOL    HW126540   2.550   3.870   5.221 -1.9480  0.3916  1.8395
 5026SOL    HW226541   2.444   3.780   5.152  1.0423 -0.4728 -1.2405
 5027SOL     OW26542   4.463   2.215  13.529  0.2195  0.1375 -0.1362
 5027SOL    HW126543   4.412   2.197  13.607  3.7280 -0.3794  2.0145
 5027SOL    HW226544   4.390   2.215  13.467 -0.4373 -0.8164  0.6436
 5028SOL     OW26545   2.988   3.224   3.439 -0.1332 -0.4033 -0.1620
 5028SOL    HW126546   2.994   3.141   3.486  1.5258  0.4423  1.1366
 5028SOL    HW226547   2.976   3.282   3.515  0.2236 -0.2250 -0.2389
 5029SOL     OW26548   2.107   1.993   6.490 -0.0000 -0.3012  0.1054
 5029SOL    HW126549   2.094   1.922   6.553 -0.7580  3.7400  4.5725
 5029SOL    HW226550   2.025   1.982   6.441  1.1116 -2.1284 -1.3237
 5030SOL     OW26551   1.276   3.855   4.896 -0.2916  0.2696  0.2398
 5030SOL    HW126552   1.305   3.806   4.973 -1.7360  1.3799  1.4848
 5030SOL    HW226553   1.246   3.934   4.940 -2.2333 -0.5982  0.4782
 5031SOL     OW26554   2.941   4.462  15.443  0.3961 -0.1832 -0.0380
 5031SOL    HW126555   3.023   4.504  15.418  1.3665  0.1110  3.6383
 5031SOL    HW226556   2.891   4.544  15.434 -0.2273 -0.5406  0.1248
 5032SOL     OW26557   3.263   2.868   5.832  0.1925  0.1658  0.2803
 5032SOL    HW126558   3.312   2.930   5.779 -0.9243  1.0950  0.3367
 5032SOL    HW226559   3.230   2.814   5.760  1.2009  0.4615 -0.4044
 5033SOL     OW26560   3.823   3.756   4.990  0.2296  0.3030 -0.3612
 5033SOL    HW126561   3.774   3.833   4.962 -0.0590 -0.3405 -1.6370
 5033SOL    HW226562   3.775   3.725   5.067 -1.4683 -0.4623 -1.7176
 5034SOL     OW26563   0.659   4.061   3.017 -0.3198 -0.1898  0.0491
 5034SOL    HW126564   0.653   4.083   2.925  0.2319  1.0368  0.3100
 5034SOL    HW226565   0.751   4.037   3.026  0.7346  3.3217 -1.5224
 5035SOL     OW26566   1.624   1.061   2.818  0.1739 -0.6310 -0.3866
 5035SOL    HW126567   1.625   1.031   2.727  0.2568 -0.3898 -0.4628
 5035SOL    HW226568   1.572   1.139   2.803  1.4516  0.2444 -0.2642
 5036SOL     OW26569   0.751   3.427   5.913  0.4111  0.3948 -0.1044
 5036SOL    HW126570   0.703   3.475   5.980  0.3211  0.0603  0.0671
 5036SOL    HW226571   0.793   3.358   5.964 -1.4518 -2.5402 -2.5085
 5037SOL     OW26572   3.465   0.244  11.748 -0.6755 -0.1954 -0.0946
 5037SOL    HW126573   3.533   0.289  11.698 -0.1652 -2.0000 -1.0267
 5037SOL    HW226574   3.492   0.242  11.840  0.7402  0.1480 -0.5099
 5038SOL     OW26575   4.018   1.650   3.073  0.2463  0.6895  0.4195
 5038SOL    HW126576   3.946   1.673   3.132  1.4529  1.2758  1.6643
 5038SOL    HW226577   3.987   1.647   2.983  2.1434  2.9367 -0.3205
 5039SOL     OW26578   3.656   1.909   4.708  0.3409  0.1499 -0.5920
 5039SOL    HW126579   3.642   1.814   4.702  0.4866  0.0252  1.1893
 5039SOL    HW226580   3.600   1.932   4.782 -1.2617 -1.4642 -1.2927
 5040SOL     OW26581   3.404   1.285   9.662 -0.1113  0.3391 -0.3057
 5040SOL    HW126582   3.336   1.225   9.692  1.4950 -0.4708  1.6427
 5040SOL    HW226583   3.449   1.247   9.586  0.6840 -0.5109  0.6051
 5041SOL     OW26584   3.911   2.146   6.855 -0.0918 -0.3948  0.6181
 5041SOL    HW126585   3.947   2.059   6.837 -0.1950 -0.3487  0.1887
 5041SOL    HW226586   3.871   2.167   6.770  0.8972  1.4954  0.6366
 5042SOL     OW26587   2.950   2.460   9.895  0.2833  0.1896 -0.2467
 5042SOL    HW126588   2.988   2.377   9.926  0.3318  0.1584 -0.3924
 5042SOL    HW226589   2.999   2.521   9.950  1.7683  0.0582 -1.4137
 5043SOL     OW26590   0.221   1.204  10.879 -0.4361  0.4416  0.6066
 5043SOL    HW126591   0.255   1.293  10.866  1.3854 -0.1683  1.0721
 5043SOL    HW226592   0.223   1.162  10.793  1.8189  0.3535  0.6872
 5044SOL     OW26593   1.334   4.680  14.957  0.0295 -0.6081 -0.0868
 5044SOL    HW126594   1.379   4.623  14.894  0.1247  0.2211 -0.7774
 5044SOL    HW226595   1.279   4.615  15.002 -0.3650 -1.0075 -1.1401
 5045SOL     OW26596   4.570   0.299  11.257 -0.0261  0.1503 -0.0747
 5045SOL    HW126597   4.536   0.384  11.228 -0.5689 -0.2407 -0.5881
 5045SOL    HW226598   4.571   0.309  11.352 -0.3262  1.2255 -0.1848
 5046SOL     OW26599   4.455   2.270   6.535  0.2990  0.6803  0.0825
 5046SOL    HW126600   4.545   2.288   6.510  0.5683  1.4952  1.6981
 5046SOL    HW226601   4.459   2.175   6.541 -0.1479  0.7201  1.1307
 5047SOL     OW26602   1.832   1.126   3.531  0.7221  0.7520 -0.1375
 5047SOL    HW126603   1.814   1.148   3.622  2.2132  0.7089  0.1669
 5047SOL    HW226604   1.898   1.056   3.534 -0.1998 -0.1184  0.0036
 5048SOL     OW26605   2.206   1.991  14.142  0.5529  0.1463 -0.0584
 5048SOL    HW126606   2.281   2.051  14.148  0.2366  0.5462 -0.1081
 5048SOL    HW226607   2.210   1.947  14.227 -1.4542 -1.0654 -0.5994
 5049SOL     OW26608   2.263   4.042  16.132 -0.3463  0.2126  0.5712
 5049SOL    HW126609   2.272   4.109  16.063 -1.1217  1.0791  1.3161
 5049SOL    HW226610   2.350   4.002  16.136 -0.0676  0.5646 -1.4451
 5050SOL     OW26611   1.500   2.055   6.117  0.8267 -0.1911 -0.1379
 5050SOL    HW126612   1.440   2.021   6.184 -1.1531  0.2774 -1.6873
 5050SOL    HW226613   1.459   2.139   6.099 -1.8295 -0.7571  3.2209
 5051SOL     OW26614   3.356   2.472   3.681  0.4034  0.0598  0.3509
 5051SOL    HW126615   3.290   2.409   3.651 -0.1721  1.1635 -0.6896
 5051SOL    HW226616   3.401   2.486   3.598  1.2848 -0.9475  0.6560
 5052SOL     OW26617   2.036   3.114   9.499  0.2674 -0.5821  0.7886
 5052SOL    HW126618   2.090   3.035   9.506  1.0821 -0.1116 -0.1512
 5052SOL    HW226619   2.064   3.150   9.415 -1.0496  0.4543  0.7895
 5053SOL     OW26620   1.985   1.001   2.568 -0.1762 -0.5041  0.7382
 5053SOL    HW126621   1.956   1.039   2.651 -1.2607  1.7875 -0.6965
 5053SOL    HW226622   1.977   1.077   2.511  0.5462 -1.8065 -1.1294
 5054SOL     OW26623   2.070   0.403   4.851 -0.0647  0.4339  0.7544
 5054SOL    HW126624   2.109   0.449   4.926 -0.2456  0.0773  1.0689
 5054SOL    HW226625   1.980   0.397   4.883  0.5232 -0.4430  2.2441
 5055SOL     OW26626   2.937   2.116  17.321 -0.6310  0.5510  0.4941
 5055SOL    HW126627   2.990   2.172  17.378  3.6240  0.3910 -3.2877
 5055SOL    HW226628   3.008   2.094  17.260 -2.6255  0.9328 -1.9408
 5056SOL     OW26629   2.258   4.467  17.495 -0.0173 -0.3204 -0.3862
 5056SOL    HW126630   2.319   4.438  17.428 -0.5991 -0.6128 -0.7932
 5056SOL    HW226631   2.315   4.536  17.528  1.7485 -2.5192  1.1351
 5057SOL     OW26632   3.320   2.731  17.364  0.0169  0.9127 -0.1516
 5057SOL    HW126633   3.301   2.809  17.312  3.2524  2.4748  0.9880
 5057SOL    HW226634   3.365   2.675  17.302  0.5481  2.2251 -0.9599
 5058SOL     OW26635   2.588   0.518   4.742 -0.2392  0.4903 -0.0946
 5058SOL    HW126636   2.633   0.435   4.729 -0.3712  0.5482 -0.9457
 5058SOL    HW226637   2.635   0.571   4.678  0.7524  0.4631  0.6078
 5059SOL     OW26638   1.980   2.242  12.651  0.3106  0.2946  0.1481
 5059SOL    HW126639   1.913   2.195  12.702  3.2534 -1.9923  1.9099
 5059SOL    HW226640   1.984   2.169  12.588  0.3317 -0.3691  0.9199
 5060SOL     OW26641   2.097   2.590   4.070 -0.1296  0.2664 -0.3512
 5060SOL    HW126642   2.113   2.606   4.163 -1.0945  2.1485 -0.5140
 5060SOL    HW226643   2.006   2.616   4.060 -1.1046 -1.3731  3.9020
 5061SOL     OW26644   4.558   4.698   6.152 -0.2333 -0.0966 -0.0716
 5061SOL    HW126645   4.556   4.696   6.248 -0.5616 -2.0421 -0.1152
 5061SOL    HW226646   4.477   4.650   6.132  0.9649 -2.3594  0.5600
 5062SOL     OW26647   3.838   1.496  11.920 -0.1014  0.2634  0.0335
 5062SOL    HW126648   3.887   1.426  11.877  0.6293  0.4188  0.6139
 5062SOL    HW226649   3.779   1.506  11.845 -0.5454  0.9997  0.4960
 5063SOL     OW26650   4.113   4.159  14.851 -0.0224  0.3637 -0.1592
 5063SOL    HW126651   4.098   4.085  14.909 -0.5371  0.2610 -0.4242
 5063SOL    HW226652   4.168   4.210  14.911  0.0556  1.1708 -0.9284
 5064SOL     OW26653   2.123   3.456   4.760  0.6514  0.0434 -0.0820
 5064SOL    HW126654   2.215   3.474   4.741  0.3163  3.4683  1.4554
 5064SOL    HW226655   2.105   3.532   4.816  0.2883  0.0615 -0.2190
 5065SOL     OW26656   0.525   1.411   3.098  0.3217 -0.0902 -0.2085
 5065SOL    HW126657   0.554   1.482   3.156  0.7453  1.0876 -1.8778
 5065SOL    HW226658   0.599   1.402   3.038 -0.2848  2.2323 -1.2964
 5066SOL     OW26659   3.694   4.168   6.492  0.1720  0.3703  0.1362
 5066SOL    HW126660   3.755   4.231   6.455  0.0880  0.7078  0.5787
 5066SOL    HW226661   3.738   4.131   6.569 -0.4395 -0.4716  0.0818
 5067SOL     OW26662   2.875   3.963   6.467 -0.1620  0.6237 -0.3812
 5067SOL    HW126663   2.910   4.053   6.469  0.0958  0.5149 -0.0573
 5067SOL    HW226664   2.921   3.927   6.391  1.0444 -1.5498  1.4007
 5068SOL     OW26665   3.316   3.512   5.127  0.1387  0.1664  0.0716
 5068SOL    HW126666   3.278   3.436   5.171  0.4919 -0.1981 -0.2455
 5068SOL    HW226667   3.264   3.508   5.047 -2.0901  1.0080  1.5044
 5069SOL     OW26668   3.723   2.612   5.051 -0.4712 -0.4561 -0.0706
 5069SOL    HW126669   3.672   2.570   4.982  0.2704  1.4788 -1.8131
 5069SOL    HW226670   3.812   2.591   5.024 -0.4269  0.2085 -0.4554
 5070SOL     OW26671   3.963   4.486   0.901  0.1112 -0.0338  0.0768
 5070SOL    HW126672   3.873   4.518   0.909 -0.4022 -1.9835  1.9092
 5070SOL    HW226673   3.996   4.506   0.989  0.7066  2.0713 -0.6283
 5071SOL     OW26674   4.327   2.982   9.047  0.6743 -0.3181  0.0874
 5071SOL    HW126675   4.288   3.021   8.969  0.4658 -0.5580  0.0739
 5071SOL    HW226676   4.251   2.992   9.104  1.0554  1.4228  0.2934
 5072SOL     OW26677   4.480   1.958   7.738  0.2634  0.2552  0.6644
 5072SOL    HW126678   4.387   1.981   7.740  0.2302  0.0337  1.6142
 5072SOL    HW226679   4.460   1.865   7.746  0.3925  0.0395 -1.5731
 5073SOL     OW26680   0.036   3.747   7.583 -0.0180  0.1553  0.0142
 5073SOL    HW126681   0.042   3.787   7.670 -1.7836 -1.7415  1.0094
 5073SOL    HW226682   0.002   3.662   7.610 -0.1123 -1.0840 -3.9897
 5074SOL     OW26683   2.997   4.559   2.750 -0.1158  0.1636  0.0002
 5074SOL    HW126684   3.041   4.549   2.835  0.0229 -4.2660 -0.5739
 5074SOL    HW226685   3.052   4.489   2.715 -1.2297 -0.0896 -1.2331
 5075SOL     OW26686   4.202   0.746   1.534 -0.0684 -0.2713  0.2478
 5075SOL    HW126687   4.196   0.714   1.444  2.0677 -0.8181  0.2826
 5075SOL    HW226688   4.109   0.735   1.552 -0.5518  2.2336 -0.7728
 5076SOL     OW26689   4.102   3.304   0.821 -0.1005 -0.5376 -0.3874
 5076SOL    HW126690   4.123   3.256   0.740  0.9851  0.4437 -0.6871
 5076SOL    HW226691   4.090   3.391   0.783  3.2018  0.3920  0.7452
 5077SOL     OW26692   0.660   1.733  10.055  0.9755  0.4661  0.0814
 5077SOL    HW126693   0.627   1.804  10.000  2.0081  1.2307  0.4552
 5077SOL    HW226694   0.626   1.756  10.141 -1.5068  1.6020 -1.2040
 5078SOL     OW26695   4.448   0.270   2.518  0.1576 -0.4211 -0.1749
 5078SOL    HW126696   4.525   0.271   2.574  0.6026 -1.7831 -0.7630
 5078SOL    HW226697   4.433   0.176   2.523  0.0659 -0.4283 -0.5709
 5079SOL     OW26698   0.025   2.900   9.109 -0.9391 -0.4229  0.3168
 5079SOL    HW126699   4.688   2.956   9.057 -0.6811 -0.8829 -0.4602
 5079SOL    HW226700   0.100   2.902   9.050 -1.6438 -0.6709 -0.5755
 5080SOL     OW26701   3.249   4.351   7.904  0.1439  0.4948  0.3158
 5080SOL    HW126702   3.260   4.292   7.979 -3.3448 -0.6345 -0.0547
 5080SOL    HW226703   3.155   4.347   7.888  0.3006 -1.9885  0.0436
 5081SOL     OW26704   3.583   3.999   7.967 -0.1265 -0.0925  0.0193
 5081SOL    HW126705   3.574   3.942   8.043 -0.2172  0.9415  0.7786
 5081SOL    HW226706   3.514   4.065   7.978 -1.2414 -1.2817  0.0915
 5082SOL     OW26707   3.917   3.339   3.781 -0.1753 -0.0948 -0.0981
 5082SOL    HW126708   3.967   3.409   3.823 -3.1256  1.6932  0.5018
 5082SOL    HW226709   3.892   3.374   3.695 -2.5495 -0.7992  0.2960
 5083SOL     OW26710   4.036   2.159   4.283  0.2129  0.2207 -0.1206
 5083SOL    HW126711   4.049   2.100   4.356  1.2584  0.2409 -0.3008
 5083SOL    HW226712   4.089   2.236   4.306  0.7450 -0.0758 -0.3785
 5084SOL     OW26713   0.796   0.757   8.498  0.3617  0.4599 -0.0697
 5084SOL    HW126714   0.823   0.838   8.540 -1.4937  1.9266 -1.7557
 5084SOL    HW226715   0.861   0.695   8.533 -0.9882 -0.1909  1.3124
 5085SOL     OW26716   4.538   4.353   5.236 -0.2889 -0.3721  0.2284
 5085SOL    HW126717   4.510   4.355   5.144  1.0113 -0.3959 -0.1675
 5085SOL    HW226718   4.516   4.262   5.256 -0.9171 -0.1232  0.6561
 5086SOL     OW26719   1.352   3.620  10.137 -0.1947 -0.0187  0.1178
 5086SOL    HW126720   1.381   3.710  10.127  2.2578 -0.9699 -1.2959
 5086SOL    HW226721   1.375   3.602  10.229  0.3146 -0.1361 -0.0323
 5087SOL     OW26722   2.509   0.563   6.325 -0.6708  0.4346  0.0953
 5087SOL    HW126723   2.469   0.514   6.397  0.5982 -1.2216 -0.3066
 5087SOL    HW226724   2.438   0.581   6.264 -0.3902 -3.8130 -1.5333
 5088SOL     OW26725   3.422   1.624  13.118  0.2447  0.1311  0.0471
 5088SOL    HW126726   3.438   1.676  13.197 -1.5856  1.4766 -0.4732
 5088SOL    HW226727   3.491   1.653  13.059 -1.5264 -1.5719 -2.8557
 5089SOL     OW26728   2.111   1.735   4.453  0.3617 -0.6700  0.5226
 5089SOL    HW126729   2.086   1.741   4.546 -1.2054  2.5792 -0.0881
 5089SOL    HW226730   2.027   1.744   4.408  0.1225  0.4246  1.1697
 5090SOL     OW26731   0.001   0.056   7.123 -0.1590  0.1790  0.0566
 5090SOL    HW126732   4.641   0.108   7.130 -0.0090  0.1091  2.2087
 5090SOL    HW226733   4.686   4.694   7.088  0.8707  0.1751 -0.9773
 5091SOL     OW26734   0.469   3.977   8.013  0.5736  0.1371 -0.3529
 5091SOL    HW126735   0.488   3.893   8.055 -1.8097 -0.1698  0.1492
 5091SOL    HW226736   0.381   3.979   7.974  1.4193  0.8108 -2.2053
 5092SOL     OW26737   0.320   4.399   8.697  0.0337  0.3286  0.1060
 5092SOL    HW126738   0.396   4.362   8.651 -0.6425  0.6915 -1.2927
 5092SOL    HW226739   0.253   4.337   8.670 -1.5432  2.9149 -1.9194
 5093SOL     OW26740   3.887   1.868   2.636  0.1724  0.2033 -0.1180
 5093SOL    HW126741   3.823   1.912   2.692  1.8521  0.6695  1.4228
 5093SOL    HW226742   3.899   1.941   2.575  1.5647  1.3003  1.4671
 5094SOL     OW26743   2.399   0.866   6.254 -0.7697 -0.5836  0.4048
 5094SOL    HW126744   2.389   0.795   6.318  0.6678 -0.7062  0.4897
 5094SOL    HW226745   2.491   0.885   6.271 -0.8401  0.9990 -1.0199
 5095SOL     OW26746   3.722   2.985   7.431 -0.3824  0.5461  0.0068
 5095SOL    HW126747   3.658   2.922   7.463 -2.6804  3.7165  1.7537
 5095SOL    HW226748   3.684   3.070   7.455  0.7622  0.7271  1.1706
 5096SOL     OW26749   3.628   3.024   6.073 -0.5437  0.1712 -0.0461
 5096SOL    HW126750   3.555   2.964   6.059 -1.3375  1.0462  0.4051
 5096SOL    HW226751   3.695   2.985   6.016 -0.2869  0.3738  0.1180
 5097SOL     OW26752   1.580   0.951   6.689  0.0445  0.2702 -0.1450
 5097SOL    HW126753   1.612   1.036   6.660  0.2313  0.0291 -0.6499
 5097SOL    HW226754   1.485   0.960   6.696  0.2522  0.5289  2.2855
 5098SOL     OW26755   0.533   4.412   8.443  0.4918  0.0690 -0.0491
 5098SOL    HW126756   0.584   4.336   8.472  0.7069  0.2200 -0.0345
 5098SOL    HW226757   0.533   4.472   8.518  1.1123  1.8054 -1.4537
 5099SOL     OW26758   2.336   0.349  15.275 -0.1282 -0.4613  0.2817
 5099SOL    HW126759   2.363   0.263  15.307  2.1812  1.1864  2.7629
 5099SOL    HW226760   2.392   0.412  15.321 -0.8789 -0.6521  1.4640
 5100SOL     OW26761   2.684   2.505   0.719 -0.0444 -0.5669  0.4357
 5100SOL    HW126762   2.654   2.596   0.720  1.7524  0.0082  2.1823
 5100SOL    HW226763   2.603   2.455   0.731 -0.5158  0.4402  1.4668
 5101SOL     OW26764   4.498   2.182   8.793 -0.5857 -0.4225  0.1875
 5101SOL    HW126765   4.482   2.089   8.781  1.9779 -0.5559 -2.2552
 5101SOL    HW226766   4.437   2.192   8.866 -0.3342 -0.0166  0.3443
 5102SOL     OW26767   2.624   1.830   9.171 -0.6185 -0.0880 -0.4081
 5102SOL    HW126768   2.608   1.773   9.096 -2.0435  0.9291 -0.8747
 5102SOL    HW226769   2.714   1.807   9.193 -1.7829 -2.7786  1.5021
 5103SOL     OW26770   0.116   0.600  11.422 -0.5370  0.3820 -0.2909
 5103SOL    HW126771   0.118   0.688  11.460 -1.9540 -0.6468  2.1731
 5103SOL    HW226772   0.108   0.539  11.496  1.8086  0.7455  0.2349
 5104SOL     OW26773   2.340   0.324   4.760 -0.4354 -0.1055 -0.4891
 5104SOL    HW126774   2.347   0.376   4.680  2.4626 -0.4080 -0.4091
 5104SOL    HW226775   2.254   0.352   4.793  0.7878  0.3879  2.2377
 5105SOL     OW26776   3.912   0.111   3.164 -0.3585 -0.0852 -0.4014
 5105SOL    HW126777   3.825   0.150   3.173 -0.0878  0.7132 -1.2563
 5105SOL    HW226778   3.917   0.087   3.072  2.8035 -0.3078 -0.1853
 5106SOL     OW26779   0.802   2.880   6.477 -0.4491  0.7516 -0.0848
 5106SOL    HW126780   0.882   2.874   6.530  1.3956  1.3189 -2.7824
 5106SOL    HW226781   0.738   2.858   6.545  1.4789 -0.2951  1.3903
 5107SOL     OW26782   2.799   0.001   9.223 -0.4649  0.0857 -0.4226
 5107SOL    HW126783   2.849   0.039   9.296 -2.5863  1.4947  0.3062
 5107SOL    HW226784   2.874   4.695   9.171  0.2406 -0.6791  0.9651
 5108SOL     OW26785   4.544   2.773   5.813  0.0987  0.0939 -0.2560
 5108SOL    HW126786   4.563   2.860   5.778  1.5665  0.1726  0.7096
 5108SOL    HW226787   4.531   2.725   5.731 -1.7111  0.4276 -0.1545
 5109SOL     OW26788   2.652   2.604   5.705 -0.2124 -0.5349 -1.5113
 5109SOL    HW126789   2.610   2.635   5.785 -0.4328  2.9096 -2.9641
 5109SOL    HW226790   2.651   2.683   5.651 -0.7534  0.4510 -0.0675
 5110SOL     OW26791   1.165   2.055  17.672 -0.1590  0.2020  0.0823
 5110SOL    HW126792   1.097   2.003  17.629 -1.3541 -0.0668  2.3018
 5110SOL    HW226793   1.120   2.093   0.064 -0.0813  0.3932  0.0314
 5111SOL     OW26794   3.537   2.179   6.185  0.2540 -0.3945 -0.3169
 5111SOL    HW126795   3.485   2.130   6.249 -1.1343 -1.0614 -1.9664
 5111SOL    HW226796   3.465   2.222   6.139 -0.6566 -0.9808  0.5596
 5112SOL     OW26797   0.123   0.442  11.645  0.0404  0.0126  0.4829
 5112SOL    HW126798   0.071   0.371  11.681 -2.1592  0.5658 -1.6089
 5112SOL    HW226799   0.189   0.456  11.713 -0.6967 -0.2378  1.2475
 5113SOL     OW26800   1.015   4.536   6.494 -0.2064 -0.1604  0.1367
 5113SOL    HW126801   1.028   4.576   6.580  2.1546 -1.9022  0.6021
 5113SOL    HW226802   0.920   4.532   6.487 -0.3464  1.4439  1.3489
 5114SOL     OW26803   4.717   3.461  13.419 -0.1484  0.7785  0.3775
 5114SOL    HW126804   4.705   3.443  13.512  0.4093  1.5704  0.6011
 5114SOL    HW226805   4.646   3.412  13.379 -0.9722  0.4608  2.2410
 5115SOL     OW26806   2.107   2.534  17.133 -0.2383 -0.3983 -0.1126
 5115SOL    HW126807   2.148   2.615  17.103 -3.1923  0.4064 -1.9232
 5115SOL    HW226808   2.071   2.566  17.216 -0.1787  0.8375 -0.5686
 5116SOL     OW26809   3.024   3.990   9.818 -0.1965 -0.1301 -0.0064
 5116SOL    HW126810   2.942   3.996   9.768 -0.0029 -0.9049 -0.4244
 5116SOL    HW226811   3.029   3.897   9.842 -0.5318 -0.5597 -1.6007
 5117SOL     OW26812   3.508   0.191  17.408  0.9301 -0.0401  0.2705
 5117SOL    HW126813   3.592   0.147  17.395  1.1081  0.4343 -0.1539
 5117SOL    HW226814   3.538   0.269  17.454  2.2496  1.1957 -2.7137
 5118SOL     OW26815   0.882   3.721   7.653 -0.1484 -0.1259 -0.2771
 5118SOL    HW126816   0.816   3.773   7.605 -0.2725  0.8766  0.9850
 5118SOL    HW226817   0.876   3.763   7.738  0.8486 -0.7848  0.1212
 5119SOL     OW26818   2.636   3.914  10.776 -0.5333  0.4547  0.2084
 5119SOL    HW126819   2.682   3.841  10.735  0.2603  0.5818  0.8716
 5119SOL    HW226820   2.544   3.887  10.782  0.2211 -2.5002 -1.5888
 5120SOL     OW26821   4.332   1.067   6.483 -0.2750  0.4178  1.0750
 5120SOL    HW126822   4.395   1.016   6.533 -1.4922 -0.6480  1.5174
 5120SOL    HW226823   4.251   1.056   6.532 -1.1653  1.3109 -0.2038
 5121SOL     OW26824   3.553   3.800  12.491 -0.0289 -0.2401 -0.1292
 5121SOL    HW126825   3.469   3.753  12.491  0.4866 -1.1616 -0.7574
 5121SOL    HW226826   3.510   3.879  12.525  0.3223 -0.4485  0.8056
 5122SOL     OW26827   2.957   4.564   7.489 -0.0582 -0.1041 -0.1984
 5122SOL    HW126828   2.889   4.591   7.551 -1.6931  0.6435 -2.3532
 5122SOL    HW226829   3.006   4.509   7.551  0.9483 -1.2887 -2.0701
 5123SOL     OW26830   2.374   1.787   7.159  0.4103  0.0401 -0.4897
 5123SOL    HW126831   2.419   1.761   7.079  0.3799  0.1275 -0.5354
 5123SOL    HW226832   2.450   1.789   7.216  0.6894  2.9901 -0.9606
 5124SOL     OW26833   0.109   2.299   3.827  0.1787 -0.1434 -0.0399
 5124SOL    HW126834   0.062   2.382   3.817  0.2727  0.0235  0.8772
 5124SOL    HW226835   0.151   2.310   3.912  2.3111  1.2076 -1.2492
 5125SOL     OW26836   2.850   4.148  11.881 -0.3316  0.8485 -0.2234
 5125SOL    HW126837   2.875   4.174  11.969  0.4757 -0.9788  0.0817
 5125SOL    HW226838   2.890   4.061  11.886  0.5327  1.3737  1.6500
 5126SOL     OW26839   0.970   1.969   2.938  0.0396 -0.0122 -0.0764
 5126SOL    HW126840   0.883   2.008   2.933 -0.6384 -1.5696 -0.5440
 5126SOL    HW226841   0.970   1.894   2.878 -1.3565 -0.3222  0.3111
 5127SOL     OW26842   4.626   0.488   5.007 -0.0296 -0.4082  0.4968
 5127SOL    HW126843   4.612   0.530   4.923  2.3675 -1.8087 -0.6167
 5127SOL    HW226844   4.661   0.567   5.048  1.2968 -0.6677 -0.1221
 5128SOL     OW26845   1.444   0.300   6.763 -0.7071  0.3686 -0.0122
 5128SOL    HW126846   1.534   0.286   6.790 -0.6965  1.1022  0.3159
 5128SOL    HW226847   1.410   0.215   6.789  0.2001  0.3151  0.9912
 5129SOL     OW26848   2.356   3.251   4.864 -0.6940 -0.1079 -0.4797
 5129SOL    HW126849   2.315   3.198   4.795 -0.2636 -0.5167 -0.4206
 5129SOL    HW226850   2.297   3.237   4.938 -0.6107 -0.0384 -0.4000
 5130SOL     OW26851   4.258   0.379   2.688  0.3190 -0.0314  0.3085
 5130SOL    HW126852   4.323   0.338   2.632 -1.1197 -0.6195 -0.9370
 5130SOL    HW226853   4.234   0.454   2.633  1.2072 -0.5883 -0.8294
 5131SOL     OW26854   3.209   2.300   3.554  0.1555 -0.6388 -0.0250
 5131SOL    HW126855   3.273   2.264   3.493  0.2961 -0.1974 -0.1308
 5131SOL    HW226856   3.132   2.288   3.498  0.0182  1.2800 -0.2271
 5132SOL     OW26857   3.966   1.309   6.813 -0.3501  0.1300  0.3857
 5132SOL    HW126858   3.903   1.285   6.881  0.5020  0.0169  1.1402
 5132SOL    HW226859   3.944   1.247   6.744 -2.7757  0.2500  1.0715
 5133SOL     OW26860   2.905   4.227  16.222  0.0967 -0.1218  0.1137
 5133SOL    HW126861   2.882   4.157  16.284 -0.7954  1.4696  1.5948
 5133SOL    HW226862   2.899   4.180  16.139  3.5244 -2.8529  1.3910
 5134SOL     OW26863   2.846   1.870  16.799  0.4851  0.7571 -0.3753
 5134SOL    HW126864   2.770   1.916  16.763  0.3002  2.2756  1.9294
 5134SOL    HW226865   2.831   1.786  16.756 -1.5795  0.5703  0.7039
 5135SOL     OW26866   4.544   1.704   8.039 -0.3627 -0.4126  0.2428
 5135SOL    HW126867   4.627   1.669   8.007 -1.5199 -3.4710  0.5154
 5135SOL    HW226868   4.514   1.620   8.074 -3.8776  0.7883  0.0918
 5136SOL     OW26869   1.682   0.258   6.118 -0.4696  0.2072  0.1714
 5136SOL    HW126870   1.661   0.347   6.146 -0.3434  0.4116 -0.3822
 5136SOL    HW226871   1.654   0.262   6.027 -1.2271 -1.0801  0.3546
 5137SOL     OW26872   2.229   3.652  11.106  0.2586  0.3433 -0.0788
 5137SOL    HW126873   2.197   3.667  11.194 -0.9525  0.0484 -0.4614
 5137SOL    HW226874   2.147   3.637  11.058 -0.7383 -1.0489  2.0591
 5138SOL     OW26875   4.708   2.719   9.333 -0.2337  0.3647  0.2195
 5138SOL    HW126876   0.003   2.796   9.277 -0.6632  0.3175  0.0439
 5138SOL    HW226877   0.029   2.648   9.283  0.0600  0.1972  0.6998
 5139SOL     OW26878   3.380   4.683   1.231  0.5340  0.9072 -0.2140
 5139SOL    HW126879   3.332   0.009   1.162  0.5464  2.3259  0.7212
 5139SOL    HW226880   3.323   4.702   1.306  1.6244 -0.1689  0.8832
 5140SOL     OW26881   3.552   1.077   8.219  0.1652 -0.6257  0.2122
 5140SOL    HW126882   3.629   1.047   8.170 -0.3796 -1.4229 -0.1497
 5140SOL    HW226883   3.594   1.118   8.294 -1.6085  1.4050  0.0850
 5141SOL     OW26884   1.450   4.266  13.585  0.1763 -0.4266  0.1781
 5141SOL    HW126885   1.473   4.356  13.609  0.4928 -0.1984 -1.0140
 5141SOL    HW226886   1.494   4.225  13.660  0.7051  0.1828  0.2009
 5142SOL     OW26887   4.172   0.541   6.001  0.3441 -0.1915  0.3371
 5142SOL    HW126888   4.115   0.522   5.926 -0.7922 -0.8746  1.3538
 5142SOL    HW226889   4.140   0.481   6.069  0.7732  0.1045  0.7996
 5143SOL     OW26890   3.595   1.632   5.042 -0.1492  0.6356 -0.3277
 5143SOL    HW126891   3.637   1.635   4.955  0.3396  2.4920 -0.0366
 5143SOL    HW226892   3.506   1.606   5.017 -0.9922  1.0886  2.2571
 5144SOL     OW26893   3.791   2.421  14.143  0.0327 -0.1691  0.0555
 5144SOL    HW126894   3.817   2.453  14.229 -3.2848 -2.0301  1.7672
 5144SOL    HW226895   3.763   2.331  14.157  1.5710 -0.5804  0.4062
 5145SOL     OW26896   0.663   0.327   4.307  0.0725 -0.0430 -1.0789
 5145SOL    HW126897   0.747   0.286   4.330 -0.1970 -0.1482 -0.2718
 5145SOL    HW226898   0.613   0.245   4.310 -3.5436  2.2186  0.1598
 5146SOL     OW26899   3.865   0.005  16.961 -0.0148  0.2454  0.0341
 5146SOL    HW126900   3.887   4.654  17.021 -1.1341  1.4145  1.8396
 5146SOL    HW226901   3.935   4.720  16.896 -1.5996 -0.0126 -1.6538
 5147SOL     OW26902   1.276   1.202   7.468 -0.3367  0.1911 -0.2514
 5147SOL    HW126903   1.366   1.172   7.460 -0.4208  0.0406 -0.6299
 5147SOL    HW226904   1.261   1.233   7.379  0.7953  1.5749  0.0305
 5148SOL     OW26905   4.215   3.300   8.728 -0.5666  0.3139 -0.4673
 5148SOL    HW126906   4.119   3.294   8.724 -0.7946  2.5007  1.7359
 5148SOL    HW226907   4.228   3.212   8.762 -0.9272  0.9508  1.3470
 5149SOL     OW26908   0.248   3.229   4.087 -0.0255  0.8275 -0.3167
 5149SOL    HW126909   0.229   3.321   4.105 -2.0080  1.0067 -3.4033
 5149SOL    HW226910   0.296   3.236   4.005  2.2430 -0.8885  0.8724
 5150SOL     OW26911   1.478   0.799   2.813  0.3686 -0.2506  0.1499
 5150SOL    HW126912   1.420   0.874   2.810  0.1374 -0.4265  0.2466
 5150SOL    HW226913   1.561   0.848   2.810  0.7496 -1.0200 -1.7737
 5151SOL     OW26914   0.527   0.988   3.658  0.2136 -0.2428  0.7358
 5151SOL    HW126915   0.596   0.925   3.638 -0.9652 -0.5364 -2.3949
 5151SOL    HW226916   0.453   0.947   3.612 -1.4460  1.5111  1.8051
 5152SOL     OW26917   1.450   4.049   6.940  0.1700 -1.0085 -0.4197
 5152SOL    HW126918   1.488   4.126   6.983  0.9925 -1.2845 -0.6557
 5152SOL    HW226919   1.513   3.980   6.958  0.3423 -0.8487 -0.4134
 5153SOL     OW26920   2.789   3.799   4.805  0.0506  0.4140 -0.2088
 5153SOL    HW126921   2.834   3.845   4.876 -0.7660 -0.5827  0.9449
 5153SOL    HW226922   2.851   3.822   4.736  1.1402 -0.7863  0.3694
 5154SOL     OW26923   2.452   1.916   7.555 -0.6399 -0.1669 -0.1962
 5154SOL    HW126924   2.367   1.958   7.568 -1.9964 -2.3705 -2.0122
 5154SOL    HW226925   2.485   1.914   7.645 -0.6435 -0.7380 -0.2036
 5155SOL     OW26926   4.260   2.979   7.312  0.5892 -0.0309  0.4417
 5155SOL    HW126927   4.262   3.048   7.378  0.8056 -0.3032  0.7251
 5155SOL    HW226928   4.328   2.922   7.349  0.0286  0.0751  1.6341
 5156SOL     OW26929   3.604   3.453   7.099 -0.0279  0.5059 -0.4299
 5156SOL    HW126930   3.694   3.427   7.077 -0.0984  0.9422 -1.2536
 5156SOL    HW226931   3.629   3.503   7.176 -1.0828 -0.2756  0.4231
 5157SOL     OW26932   2.635   1.095  13.945 -0.1640  0.4128 -0.4473
 5157SOL    HW126933   2.720   1.069  13.979 -0.4925 -0.6352 -0.4462
 5157SOL    HW226934   2.597   1.137  14.023  0.3612 -1.2930  0.7085
 5158SOL     OW26935   0.271   2.747   9.532 -0.4949 -0.6524  0.2120
 5158SOL    HW126936   0.290   2.653   9.524 -0.7126 -0.5978 -0.9161
 5158SOL    HW226937   0.304   2.754   9.621 -1.3340  0.2060  0.4537
 5159SOL     OW26938   2.043   2.829   7.210  0.4200 -0.3699 -0.5414
 5159SOL    HW126939   2.085   2.907   7.174 -1.5268 -0.1967 -2.4023
 5159SOL    HW226940   1.962   2.830   7.159  0.8313 -0.6903 -1.2163
 5160SOL     OW26941   3.397   2.070  17.018 -0.1367  0.2762  0.2359
 5160SOL    HW126942   3.362   1.987  17.048  0.6908 -0.3572 -0.5461
 5160SOL    HW226943   3.477   2.041  16.975  0.3991  1.3897  0.4695
 5161SOL     OW26944   4.024   2.212   5.939 -0.1454 -0.6605 -0.7555
 5161SOL    HW126945   3.959   2.160   5.987  1.5280 -1.3050  0.7698
 5161SOL    HW226946   4.090   2.153   5.903 -0.9533 -1.8126 -0.3738
 5162SOL     OW26947   2.510   4.067   4.929 -0.3955 -0.0976 -0.9934
 5162SOL    HW126948   2.476   4.049   4.841 -0.1340 -1.8212 -0.7387
 5162SOL    HW226949   2.509   3.984   4.978  0.0481 -0.0656 -0.9312
 5163SOL     OW26950   1.373   2.219   2.998 -1.0726 -0.1666  0.2945
 5163SOL    HW126951   1.430   2.284   2.958 -0.4238 -0.8087  0.1615
 5163SOL    HW226952   1.373   2.161   2.922 -1.1222 -1.0771  0.9798
 5164SOL     OW26953   0.439   1.264   8.046 -0.0489  0.7445  0.3333
 5164SOL    HW126954   0.474   1.198   7.986 -0.8473  0.7925 -0.1961
 5164SOL    HW226955   0.361   1.222   8.083 -0.4252  2.4118  1.3978
 5165SOL     OW26956   1.447   3.687   6.707 -0.3986 -0.3921 -0.7657
 5165SOL    HW126957   1.416   3.633   6.780 -2.2807  0.3243 -1.0236
 5165SOL    HW226958   1.388   3.762   6.716  3.0296  2.0792  1.0731
 5166SOL     OW26959   2.322   3.290  12.297  0.3583 -0.2537 -0.6180
 5166SOL    HW126960   2.248   3.259  12.349  0.7181 -1.9715 -1.1240
 5166SOL    HW226961   2.274   3.364  12.259 -0.3651  0.6262  1.9846
 5167SOL     OW26962   3.965   4.430   4.983  0.1580  0.2122  0.1099
 5167SOL    HW126963   3.886   4.415   4.931  0.2986 -0.8779  0.2173
 5167SOL    HW226964   3.968   4.523   5.007 -1.0017  0.4983 -0.8626
 5168SOL     OW26965   0.411   3.133  17.316  0.2457 -0.4403  0.3141
 5168SOL    HW126966   0.434   3.116  17.408  0.8281  2.0235  0.6244
 5168SOL    HW226967   0.475   3.201  17.296 -0.2149  0.2167  1.0584
 5169SOL     OW26968   4.497   0.718   9.719 -0.0883 -0.5816 -0.0724
 5169SOL    HW126969   4.426   0.722   9.656  0.6813  0.0659 -0.9104
 5169SOL    HW226970   4.466   0.649   9.777 -1.3878  0.7596  0.8523
 5170SOL     OW26971   1.181   1.670   1.921  0.3833 -0.1736 -0.2847
 5170SOL    HW126972   1.183   1.748   1.866 -0.6906  0.4248  0.5197
 5170SOL    HW226973   1.130   1.614   1.864 -1.8185  1.3072  0.2199
 5171SOL     OW26974   1.550   4.116   5.391  0.0560  0.8782  0.0766
 5171SOL    HW126975   1.556   4.157   5.477 -0.1758  0.8130  0.1249
 5171SOL    HW226976   1.577   4.182   5.327  2.1862  0.8658  0.9665
 5172SOL     OW26977   3.260   4.085   6.894 -0.0564 -0.6191  0.3665
 5172SOL    HW126978   3.293   4.112   6.808 -2.7983 -1.4194 -0.9367
 5172SOL    HW226979   3.259   3.990   6.896 -2.2301 -0.6529 -1.6070
 5173SOL     OW26980   0.191   1.187   8.208  0.0275  0.2893  0.1924
 5173SOL    HW126981   0.110   1.146   8.177  1.2184 -2.6323  0.9307
 5173SOL    HW226982   0.236   1.115   8.252 -2.5076  0.0066  2.3309
 5174SOL     OW26983   2.389   3.448   0.158  0.4766  0.1270 -0.4545
 5174SOL    HW126984   2.482   3.425   0.156  0.4032 -0.2190  0.0181
 5174SOL    HW226985   2.382   3.463   0.252  1.1337 -1.3303 -0.1778
 5175SOL     OW26986   0.503   1.035   8.388 -0.0717  0.3709 -0.2814
 5175SOL    HW126987   0.551   1.002   8.312 -1.1667 -0.2441 -0.7126
 5175SOL    HW226988   0.525   0.966   8.451 -1.6961 -0.3371 -0.4887
 5176SOL     OW26989   4.543   0.460  14.234 -0.5078  0.1715  0.8190
 5176SOL    HW126990   4.580   0.406  14.305  2.0504 -0.7865 -1.2398
 5176SOL    HW226991   4.475   0.401  14.201 -1.8983 -0.1132  4.2211
 5177SOL     OW26992   2.326   0.552   3.123 -0.0783 -0.1113 -0.3450
 5177SOL    HW126993   2.369   0.636   3.138  0.6002 -0.4205 -0.5943
 5177SOL    HW226994   2.364   0.525   3.040  0.4976  2.0814 -0.8006
 5178SOL     OW26995   1.968   0.273   2.222  0.0168 -0.1878  0.0162
 5178SOL    HW126996   2.006   0.196   2.266  0.8187  0.6161  0.7343
 5178SOL    HW226997   1.884   0.236   2.195 -0.5722  0.7043  0.6468
 5179SOL     OW26998   4.398   1.559   7.487  0.1762 -0.0137  0.6645
 5179SOL    HW126999   4.305   1.536   7.486 -0.2693  1.7961 -0.4864
 5179SOL    HW227000   4.413   1.546   7.393  2.3476  0.4194  0.9603
 5180SOL     OW27001   4.084   2.063   1.004 -0.6102 -0.0656  0.0298
 5180SOL    HW127002   4.121   1.975   1.008  2.0173  1.0693  0.8115
 5180SOL    HW227003   3.991   2.043   1.010 -0.6661 -0.3895 -1.8836
 5181SOL     OW27004   1.981   0.711   7.753 -0.0549  0.9390 -0.2153
 5181SOL    HW127005   2.056   0.746   7.704  0.2999  1.6008  0.8125
 5181SOL    HW227006   1.963   0.625   7.714 -1.0599  1.3222 -0.5882
 5182SOL     OW27007   3.370   0.281   8.370  0.0008  0.2689 -0.5180
 5182SOL    HW127008   3.312   0.336   8.317  0.1697 -0.7792 -1.7813
 5182SOL    HW227009   3.298   0.249   8.424  2.3770 -0.5784  2.0966
 5183SOL     OW27010   3.378   4.578   7.840 -0.1432 -0.3808  0.2717
 5183SOL    HW127011   3.406   4.613   7.924  1.2444  0.9725 -0.7424
 5183SOL    HW227012   3.316   4.514   7.874  0.0123  0.0560  1.3732
 5184SOL     OW27013   0.647   3.393   0.592  0.1299 -0.0486 -0.0327
 5184SOL    HW127014   0.741   3.408   0.585  0.5259 -2.1918  0.5819
 5184SOL    HW227015   0.617   3.443   0.668  0.0901 -0.6880  0.3785
 5185SOL     OW27016   0.103   1.926   6.945 -0.6510  0.1832  0.5213
 5185SOL    HW127017   0.103   2.009   6.897  1.8922  0.3651  0.8403
 5185SOL    HW227018   0.009   1.907   6.937 -0.5480 -0.8758  1.7764
 5186SOL     OW27019   4.067   3.892  10.805  0.2466  0.1099  0.7332
 5186SOL    HW127020   4.013   3.934  10.738 -0.6748 -2.3146 -0.0726
 5186SOL    HW227021   4.032   3.803  10.810  0.0323  0.2052  0.9287
 5187SOL     OW27022   4.708   3.527  12.181 -0.1360 -0.4427 -0.4656
 5187SOL    HW127023   4.714   3.520  12.276 -2.3588  0.0837 -0.2819
 5187SOL    HW227024   4.700   3.622  12.173 -1.3963 -0.3471  1.7316
 5188SOL     OW27025   3.748   2.549   8.244 -0.1585 -0.3150  0.0165
 5188SOL    HW127026   3.794   2.497   8.178  1.7920 -1.1487  2.0526
 5188SOL    HW227027   3.670   2.573   8.193 -0.4740 -1.9531 -0.2557
 5189SOL     OW27028   0.459   0.048   3.475  0.9769  0.2778  0.3314
 5189SOL    HW127029   0.537   0.007   3.435  0.3770  0.0025 -0.5582
 5189SOL    HW227030   0.500   0.099   3.545  2.4862  1.2401 -1.2599
 5190SOL     OW27031   3.832   3.487   3.550 -0.5599 -0.2525  0.1634
 5190SOL    HW127032   3.877   3.570   3.534  1.4601 -0.8694  2.5753
 5190SOL    HW227033   3.741   3.510   3.566 -1.2873 -3.0117 -0.0044
 5191SOL     OW27034   2.321   4.439  13.058  0.0021  0.4304  0.5663
 5191SOL    HW127035   2.263   4.498  13.105 -1.7094 -0.9229  0.1836
 5191SOL    HW227036   2.396   4.497  13.052 -0.0415  0.2836 -1.4423
 5192SOL     OW27037   3.117   1.262   1.183  0.0206 -0.1891 -0.4688
 5192SOL    HW127038   3.077   1.280   1.268  3.3286 -0.9213  1.1981
 5192SOL    HW227039   3.049   1.292   1.122 -1.7379  0.4264  1.8080
 5193SOL     OW27040   4.122   2.152   7.829 -0.1270  0.2309 -0.7455
 5193SOL    HW127041   4.189   2.215   7.806  1.9029 -0.4341  3.3454
 5193SOL    HW227042   4.163   2.093   7.892  1.5903  2.0287 -0.2182
 5194SOL     OW27043   4.059   4.083   4.369 -0.0031 -0.0183  0.0257
 5194SOL    HW127044   3.963   4.082   4.363 -0.0433 -0.9465  0.9094
 5194SOL    HW227045   4.088   4.056   4.282  1.8531 -0.6399  0.8499
 5195SOL     OW27046   4.020   0.850   8.088 -0.1628 -0.2111 -0.0922
 5195SOL    HW127047   4.040   0.791   8.016 -0.6147 -0.1976 -0.2322
 5195SOL    HW227048   4.027   0.785   8.158  0.5401 -2.8941 -2.6337
 5196SOL     OW27049   2.150   4.301   1.717  0.2400  0.1204  0.3255
 5196SOL    HW127050   2.144   4.389   1.680  0.2538  0.4106  1.0252
 5196SOL    HW227051   2.185   4.246   1.647 -1.4365  0.1549 -0.5542
 5197SOL     OW27052   2.894   2.729   8.588  0.4191  0.0533  0.4000
 5197SOL    HW127053   2.829   2.679   8.638  0.7003  0.6346  1.3501
 5197SOL    HW227054   2.967   2.688   8.636  0.7825  1.3504  0.9521
 5198SOL     OW27055   4.560   4.143   3.957 -0.0696 -0.1800  0.6241
 5198SOL    HW127056   4.507   4.221   3.940  0.8919  0.7752  2.0133
 5198SOL    HW227057   4.637   4.180   4.000 -1.3416  2.2156  0.8583
 5199SOL     OW27058   0.024   1.520  12.289 -0.3145 -0.2759  0.5285
 5199SOL    HW127059   0.043   1.473  12.370 -1.1302 -2.1265 -0.3484
 5199SOL    HW227060   0.049   1.461  12.218 -1.5144  0.6485 -0.6453
 5200SOL     OW27061   4.476   1.234   4.014 -0.5052  0.0767 -0.1656
 5200SOL    HW127062   4.389   1.196   4.001 -1.2499  1.9359 -0.5761
 5200SOL    HW227063   4.529   1.155   4.003 -1.1729 -0.9411  4.0162
 5201SOL     OW27064   1.124   2.597  11.166 -0.0929  0.0162 -0.0623
 5201SOL    HW127065   1.208   2.641  11.157  0.3395 -0.7679  0.1222
 5201SOL    HW227066   1.135   2.538  11.091 -2.3717  1.5288 -1.5903
 5202SOL     OW27067   2.305   2.736   8.746 -0.1160 -0.4185 -0.6522
 5202SOL    HW127068   2.320   2.654   8.793  0.0396  0.4503  0.8032
 5202SOL    HW227069   2.382   2.788   8.770  0.8295 -1.1336 -2.1380
 5203SOL     OW27070   4.485   0.159   2.955 -0.2977  0.2140 -0.1805
 5203SOL    HW127071   4.520   0.247   2.965 -1.4402  0.6264  0.1685
 5203SOL    HW227072   4.447   0.167   2.868 -1.7078  0.4695  0.4658
 5204SOL     OW27073   4.476   4.245   4.652 -0.4370 -0.0399  0.5397
 5204SOL    HW127074   4.508   4.206   4.571  0.4043  1.4397  0.1628
 5204SOL    HW227075   4.387   4.211   4.647 -0.6616  0.0424  4.2128
 5205SOL     OW27076   1.404   3.565   6.939 -0.1046 -0.4634  0.1392
 5205SOL    HW127077   1.375   3.569   7.030  0.3460 -1.5254  0.3315
 5205SOL    HW227078   1.499   3.569   6.955  0.0366 -0.5493 -0.6948
 5206SOL     OW27079   3.945   3.039  14.681 -0.1439 -0.0471 -0.1952
 5206SOL    HW127080   3.991   2.967  14.638 -2.8732 -0.0065 -3.2125
 5206SOL    HW227081   4.002   3.074  14.749  0.2320  0.9195 -1.0105
 5207SOL     OW27082   4.539   0.042   0.487 -0.3533  0.1413 -0.4053
 5207SOL    HW127083   4.491   0.121   0.461 -1.2165 -1.0402 -2.4180
 5207SOL    HW227084   4.472   0.001   0.542 -0.7913 -1.4872 -2.1404
 5208SOL     OW27085   0.175   3.164  14.245 -0.2515 -0.2475  0.7318
 5208SOL    HW127086   0.104   3.157  14.181  0.9451 -0.2127 -0.6231
 5208SOL    HW227087   0.236   3.090  14.234  0.2124  0.0163  1.5448
 5209SOL     OW27088   0.124   2.068   5.427  0.2884 -0.6608  0.5468
 5209SOL    HW127089   0.129   2.150   5.379 -2.8602  0.2920  1.8846
 5209SOL    HW227090   0.182   2.020   5.368 -1.2216 -0.2009 -1.3199
 5210SOL     OW27091   3.681   1.958   3.709  0.2592 -0.2411  0.5815
 5210SOL    HW127092   3.741   1.895   3.749  1.4419  1.1247  0.9164
 5210SOL    HW227093   3.617   1.899   3.667  0.7114 -0.2809 -0.0518
 5211SOL     OW27094   3.700   1.524   1.122 -0.2600  0.8138 -0.0764
 5211SOL    HW127095   3.705   1.531   1.026 -1.2595 -0.6288 -0.2370
 5211SOL    HW227096   3.757   1.593   1.155  0.6704 -0.0137  0.0729
 5212SOL     OW27097   1.461   0.091   4.922 -0.4926 -0.6401  0.3047
 5212SOL    HW127098   1.376   0.051   4.900 -0.2244 -1.3374  0.5547
 5212SOL    HW227099   1.461   0.084   5.017 -2.8119 -0.5086  0.3155
 5213SOL     OW27100   2.809   0.691   2.545 -0.2537  0.6038 -0.2012
 5213SOL    HW127101   2.715   0.681   2.563 -0.0202  0.4918  0.9911
 5213SOL    HW227102   2.841   0.729   2.627 -1.1796  0.2006  0.3492
 5214SOL     OW27103   4.166   1.318  10.118 -0.2332 -0.0460 -0.1026
 5214SOL    HW127104   4.090   1.295  10.172  1.4658 -0.5835  2.0438
 5214SOL    HW227105   4.180   1.410  10.141  2.7179 -0.5828  0.2745
 5215SOL     OW27106   1.844   2.294  10.013  0.1647  0.0117 -0.4623
 5215SOL    HW127107   1.802   2.214  10.045 -1.0944  0.8548  0.0116
 5215SOL    HW227108   1.773   2.332   9.960 -0.2490 -0.4905 -0.2641
 5216SOL     OW27109   4.360   3.709   4.527  0.0579 -0.8082  0.9113
 5216SOL    HW127110   4.388   3.700   4.436 -2.7506  2.5883 -0.2714
 5216SOL    HW227111   4.271   3.678   4.509  0.0442 -1.1427  1.5202
 5217SOL     OW27112   3.948   4.218  11.773 -0.2616 -0.2516  0.2885
 5217SOL    HW127113   3.865   4.184  11.741  0.4604  0.6145 -2.5435
 5217SOL    HW227114   3.929   4.299  11.820 -1.7805  1.5284 -3.3608
 5218SOL     OW27115   0.480   4.668  17.446 -0.2555 -0.3671  0.6614
 5218SOL    HW127116   0.500   0.032  17.488  2.7375  0.9405 -3.4303
 5218SOL    HW227117   0.506   4.602  17.511  0.1805 -2.1994 -1.3761
 5219SOL     OW27118   1.257   3.728   0.688 -0.5303  0.0173 -0.3773
 5219SOL    HW127119   1.257   3.676   0.607 -0.2780 -2.2621  1.0935
 5219SOL    HW227120   1.310   3.662   0.733  1.3512 -0.3057 -3.0468
 5220SOL     OW27121   1.679   1.414   7.291 -0.5239 -0.1293 -0.1961
 5220SOL    HW127122   1.600   1.463   7.314 -1.3095 -0.8079 -1.4476
 5220SOL    HW227123   1.740   1.487   7.280 -1.1495  0.8308  2.9019
 5221SOL     OW27124   4.117   2.449   1.730  0.5074  0.1664  0.0233
 5221SOL    HW127125   4.033   2.446   1.775  1.1019  2.5859  1.2804
 5221SOL    HW227126   4.098   2.513   1.662 -1.6671 -0.5241  0.0082
 5222SOL     OW27127   0.493   0.154   8.845  0.2462  0.4867 -0.2423
 5222SOL    HW127128   0.473   0.118   8.931  0.9785 -0.9386 -0.6710
 5222SOL    HW227129   0.587   0.136   8.846  0.3154  0.8718  0.3754
 5223SOL     OW27130   1.213   0.640   2.897 -0.2486 -0.1110  0.1803
 5223SOL    HW127131   1.155   0.675   2.830 -1.5468 -2.8029 -0.1192
 5223SOL    HW227132   1.294   0.691   2.902  0.1593 -0.3827 -4.1688
 5224SOL     OW27133   0.310   1.903   5.274  0.1183  0.6602 -0.4344
 5224SOL    HW127134   0.322   1.947   5.190  1.2851  1.2980  0.0616
 5224SOL    HW227135   0.327   1.815   5.240 -1.1695 -0.2296  1.2103
 5225SOL     OW27136   1.023   2.192   2.707  0.1113 -0.5268  0.1322
 5225SOL    HW127137   0.941   2.161   2.744 -0.4649  1.0779  0.2315
 5225SOL    HW227138   1.006   2.183   2.613 -0.6860  1.1239  0.1017
 5226SOL     OW27139   4.436   0.458   6.713 -0.4839 -0.1724  0.0350
 5226SOL    HW127140   4.430   0.516   6.789 -1.0461  0.1835 -0.2791
 5226SOL    HW227141   4.347   0.422   6.703 -0.5486  0.2785 -0.9312
 5227SOL     OW27142   2.750   2.906  16.162  0.2343  0.5464 -0.3378
 5227SOL    HW127143   2.782   2.833  16.216 -0.0234  0.0168 -0.9111
 5227SOL    HW227144   2.828   2.961  16.171 -0.0439  0.8337  0.2840
 5228SOL     OW27145   1.996   0.958   8.810 -0.2735  0.4123  0.2347
 5228SOL    HW127146   1.928   0.907   8.855  0.0281  0.5096  0.8006
 5228SOL    HW227147   1.997   1.044   8.853 -1.4490  1.1644 -1.2467
 5229SOL     OW27148   3.720   4.189   7.265 -0.1501 -0.5341 -0.3444
 5229SOL    HW127149   3.690   4.278   7.246 -2.9489 -1.5406 -0.7248
 5229SOL    HW227150   3.695   4.190   7.358  2.5894  0.9407  0.3560
 5230SOL     OW27151   1.633   2.307   7.374  0.5915 -0.3657  0.1220
 5230SOL    HW127152   1.563   2.264   7.325 -0.4531  0.1762  1.1610
 5230SOL    HW227153   1.699   2.309   7.305 -0.6293  1.3065 -0.9754
 5231SOL     OW27154   1.868   1.595  12.309  0.6591  0.5624  0.0498
 5231SOL    HW127155   1.845   1.613  12.218 -0.6275  3.0660  0.8815
 5231SOL    HW227156   1.789   1.548  12.338  0.5420  0.6964 -0.0498
 5232SOL     OW27157   1.177   3.699  16.258  0.3146  0.1690  0.0848
 5232SOL    HW127158   1.212   3.627  16.310 -1.5634  0.1479  1.3094
 5232SOL    HW227159   1.093   3.719  16.299 -1.0626 -2.3330 -1.4895
 5233SOL     OW27160   0.928   3.581   9.511  0.6794  0.2266 -0.3099
 5233SOL    HW127161   0.868   3.607   9.581 -0.1446  0.4091 -1.0706
 5233SOL    HW227162   0.981   3.504   9.531  0.9861 -0.2008 -2.7642
 5234SOL     OW27163   0.185   1.652   8.367 -0.3852 -0.8761 -0.4427
 5234SOL    HW127164   0.166   1.586   8.300 -3.4039  1.3269 -1.7551
 5234SOL    HW227165   0.102   1.700   8.373  1.1946  1.6263  1.1149
 5235SOL     OW27166   2.158   1.697  13.511  0.5329 -0.0887  0.1408
 5235SOL    HW127167   2.165   1.751  13.589  1.2579  0.8650 -0.5938
 5235SOL    HW227168   2.096   1.752  13.464  1.6904  0.9648 -0.1495
 5236SOL     OW27169   2.776   1.055   4.962 -0.1285  0.5376  0.0780
 5236SOL    HW127170   2.847   1.119   4.962  0.0035  0.3757  1.6064
 5236SOL    HW227171   2.709   1.114   4.997  0.8718 -0.0845  3.0049
 5237SOL     OW27172   3.332   3.470   9.380 -0.3489  0.0011 -0.2926
 5237SOL    HW127173   3.265   3.463   9.312  1.6983  0.4226 -2.3576
 5237SOL    HW227174   3.377   3.542   9.336  0.2231  1.2475  2.3448
 5238SOL     OW27175   0.222   3.410   1.670  0.0039  0.0784  0.0774
 5238SOL    HW127176   0.260   3.493   1.697 -2.3854  0.9129  0.9255
 5238SOL    HW227177   0.252   3.356   1.743  1.0920  0.9689  0.2820
 5239SOL     OW27178   0.684   1.949   6.338 -0.1151  0.1161 -0.3242
 5239SOL    HW127179   0.598   1.979   6.311 -1.1004 -1.9740  0.5100
 5239SOL    HW227180   0.724   2.035   6.350  1.1162 -0.3707 -0.9054
 5240SOL     OW27181   2.877   4.582   5.727 -0.2810 -0.2011 -0.1102
 5240SOL    HW127182   2.958   4.544   5.760 -0.8068 -0.1867  1.1957
 5240SOL    HW227183   2.817   4.579   5.801 -0.3622  2.3518 -0.0817
 5241SOL     OW27184   4.398   0.470   8.375 -0.2826  0.0929 -0.6053
 5241SOL    HW127185   4.414   0.403   8.442  1.4026 -0.0896 -1.2028
 5241SOL    HW227186   4.353   0.537   8.427 -0.8745  0.9502 -2.2445
 5242SOL     OW27187   3.583   0.770   0.048  0.2597 -0.2051  0.2360
 5242SOL    HW127188   3.585   0.789   0.142  2.2126  0.2398  0.1016
 5242SOL    HW227189   3.531   0.841   0.011 -0.4339 -0.3304  0.9659
 5243SOL     OW27190   0.230   2.859   4.134  0.0017 -0.4066 -0.5229
 5243SOL    HW127191   0.240   2.764   4.131  0.4071 -0.3993  0.8773
 5243SOL    HW227192   0.136   2.875   4.141  0.0753  0.0271 -0.5475
 5244SOL     OW27193   2.588   1.884   5.256 -0.5327  0.2001 -0.0564
 5244SOL    HW127194   2.642   1.950   5.212 -0.4433  0.1938  0.0439
 5244SOL    HW227195   2.654   1.847   5.315  0.4680  1.3515 -0.4585
 5245SOL     OW27196   2.288   4.677   7.305  0.3633  0.1001  0.6116
 5245SOL    HW127197   2.361   4.618   7.325  0.3590  0.2639  1.0942
 5245SOL    HW227198   2.291   4.681   7.209 -3.5920  1.1380  0.5401
 5246SOL     OW27199   4.194   4.366   6.368 -0.0821  0.0919 -0.3182
 5246SOL    HW127200   4.170   4.452   6.333 -0.2777  0.2889  0.3019
 5246SOL    HW227201   4.264   4.387   6.429 -0.1428  0.7696 -0.4802
 5247SOL     OW27202   3.222   0.024  14.987 -0.2407  0.4010  0.0420
 5247SOL    HW127203   3.162   0.099  14.980 -1.2652 -0.7561 -4.1266
 5247SOL    HW227204   3.236   0.008  14.893  3.2450 -0.6362  0.7398
 5248SOL     OW27205   3.674   0.583   1.633  0.2196 -0.3356 -0.6160
 5248SOL    HW127206   3.626   0.565   1.714  1.3038 -3.7502 -0.7593
 5248SOL    HW227207   3.610   0.626   1.576 -0.9251 -1.7795 -0.4335
 5249SOL     OW27208   3.842   0.922   2.786  0.2843  0.2693  0.8034
 5249SOL    HW127209   3.769   0.881   2.740  0.5599  1.4940 -0.7262
 5249SOL    HW227210   3.847   0.854   2.853  2.5839  0.7269  1.0854
 5250SOL     OW27211   2.335   0.020   3.996  0.1283 -0.4027 -0.0361
 5250SOL    HW127212   2.297   0.107   4.010 -0.1877 -0.8645  1.9984
 5250SOL    HW227213   2.314   4.698   4.079  1.4685  2.4926  1.7864
 5251SOL     OW27214   3.675   1.423  17.530  0.3068  0.0750  0.1493
 5251SOL    HW127215   3.589   1.465  17.530 -0.4036 -1.3663 -0.1551
 5251SOL    HW227216   3.661   1.337  17.570  1.3478 -0.7067 -1.1637
 5252SOL     OW27217   4.305   3.903   0.368 -0.3899 -0.2346  0.2320
 5252SOL    HW127218   4.216   3.868   0.355  1.0656 -4.5560  1.8692
 5252SOL    HW227219   4.329   3.883   0.458 -0.5118 -0.1854  0.2764
 5253SOL     OW27220   2.917   3.290   4.026  0.8515 -0.4343 -0.7877
 5253SOL    HW127221   2.894   3.382   4.016  2.7865  0.4190  2.3561
 5253SOL    HW227222   2.890   3.259   4.112  0.8333 -0.7940 -0.9230
 5254SOL     OW27223   2.182   0.661   5.777 -0.5005 -0.3702  0.7401
 5254SOL    HW127224   2.203   0.748   5.809 -1.5793  0.2765 -0.2992
 5254SOL    HW227225   2.100   0.673   5.728  0.0402 -1.3879 -0.4175
 5255SOL     OW27226   4.365   3.897  16.054  0.1206  0.3236 -0.3972
 5255SOL    HW127227   4.428   3.878  16.123  0.3193 -0.9263 -0.9133
 5255SOL    HW227228   4.349   3.991  16.059 -0.1236  0.4099 -2.5380
 5256SOL     OW27229   1.263   3.104  13.868  0.3872  0.9677 -0.2082
 5256SOL    HW127230   1.242   3.197  13.870 -0.8184  0.6634  1.3966
 5256SOL    HW227231   1.351   3.096  13.904 -0.8164 -0.0952  2.5754
 5257SOL     OW27232   2.309   0.816  12.203 -0.2851 -0.2310 -0.4411
 5257SOL    HW127233   2.400   0.826  12.173  0.3225 -1.0986  1.1344
 5257SOL    HW227234   2.311   0.889  12.265 -0.6299  1.0524 -1.9546
 5258SOL     OW27235   0.790   1.466   7.102  0.3134  0.2141  0.0654
 5258SOL    HW127236   0.769   1.424   7.186  1.9264  1.8204  1.2630
 5258SOL    HW227237   0.714   1.453   7.045  0.3467  0.5508 -0.0563
 5259SOL     OW27238   1.616   3.858  11.354 -0.1526  0.3981  0.1148
 5259SOL    HW127239   1.649   3.771  11.333 -3.2225 -0.5533 -0.7240
 5259SOL    HW227240   1.539   3.831  11.404 -2.6189  2.0420 -2.7388
 5260SOL     OW27241   0.070   3.558   1.031 -0.0060  0.3956  0.0982
 5260SOL    HW127242   0.144   3.525   0.981  1.3506 -0.2068  2.5183
 5260SOL    HW227243   0.039   3.486   1.086  1.4576 -0.7231 -0.5483
 5261SOL     OW27244   1.632   3.280   5.557  0.5287 -0.0700  0.0963
 5261SOL    HW127245   1.542   3.254   5.536  0.9874 -0.2433 -1.6676
 5261SOL    HW227246   1.636   3.252   5.648  0.8224  0.6583  0.3106
 5262SOL     OW27247   0.350   0.717   7.822  0.4106  0.0588  0.2843
 5262SOL    HW127248   0.287   0.756   7.882  0.3468 -1.3386  1.1250
 5262SOL    HW227249   0.324   0.751   7.736 -1.4571 -1.6862  0.1824
 5263SOL     OW27250   3.419   3.332  15.126 -0.2316 -0.3013 -0.1724
 5263SOL    HW127251   3.398   3.245  15.093  1.7765 -0.5054 -0.8814
 5263SOL    HW227252   3.422   3.378  15.042 -0.6465  0.3108  0.1458
 5264SOL     OW27253   2.353   3.980   3.514  0.3861 -0.0858  1.0786
 5264SOL    HW127254   2.398   3.949   3.436  1.3248  0.9235  1.2109
 5264SOL    HW227255   2.421   4.030   3.559  0.4433 -0.8556  1.8307
 5265SOL     OW27256   3.226   3.164  10.654 -0.1465 -0.2611  0.3134
 5265SOL    HW127257   3.181   3.210  10.583  1.1750  0.9257  0.2604
 5265SOL    HW227258   3.318   3.159  10.628 -0.3178  2.5792 -0.8390
 5266SOL     OW27259   0.092   3.332   7.863 -1.0092  0.2539 -0.2623
 5266SOL    HW127260   0.134   3.394   7.804  0.1824  0.7497  1.1293
 5266SOL    HW227261   0.141   3.346   7.943 -2.5453  0.9027  0.5651
 5267SOL     OW27262   3.569   4.038   7.050 -0.0919  0.3369 -0.0786
 5267SOL    HW127263   3.647   4.081   7.016 -0.6701  0.5681 -1.1003
 5267SOL    HW227264   3.609   3.954   7.075 -3.6994 -1.2295  0.3865
 5268SOL     OW27265   0.460   3.267  16.036 -0.5058  0.0155 -0.5365
 5268SOL    HW127266   0.545   3.224  16.033 -0.1485  0.6986  0.0742
 5268SOL    HW227267   0.441   3.256  15.942 -1.3466 -3.7600  0.0812
 5269SOL     OW27268   0.853   0.153   2.150  0.6670  0.3847 -0.4591
 5269SOL    HW127269   0.863   0.118   2.062 -2.8037  1.0257 -1.0765
 5269SOL    HW227270   0.760   0.172   2.147  0.3903 -0.8659  0.1037
 5270SOL     OW27271   1.158   0.936   7.745  0.3107  0.7695 -0.2192
 5270SOL    HW127272   1.166   0.962   7.837  1.8773 -1.8937  0.3819
 5270SOL    HW227273   1.070   0.968   7.726 -0.0380  0.2987  0.5945
 5271SOL     OW27274   3.311   1.782   4.956 -0.1558 -0.1805 -0.1260
 5271SOL    HW127275   3.379   1.844   4.931 -0.7403 -0.2975 -2.0421
 5271SOL    HW227276   3.335   1.716   4.892 -0.9672 -2.3808  1.8684
 5272SOL     OW27277   1.986   0.710   3.358 -0.2831 -0.3007 -0.3435
 5272SOL    HW127278   2.022   0.758   3.284 -0.6794  1.1807  0.4341
 5272SOL    HW227279   1.901   0.676   3.330  0.0400 -0.2118 -1.4428
 5273SOL     OW27280   0.482   3.697  14.929  0.1680  0.3572 -0.1396
 5273SOL    HW127281   0.413   3.639  14.961 -1.0865  1.9223 -0.0287
 5273SOL    HW227282   0.457   3.785  14.957 -2.2919 -1.3142  2.9200
 5274SOL     OW27283   2.871   1.709   2.712  0.0574  0.0026 -0.1041
 5274SOL    HW127284   2.843   1.796   2.684 -0.9112 -0.4201 -0.4612
 5274SOL    HW227285   2.799   1.655   2.680 -1.4725  1.5980  0.6346
 5275SOL     OW27286   2.372   2.560   8.980 -0.6242 -0.3022  0.2132
 5275SOL    HW127287   2.291   2.611   8.982 -0.3649  0.1161  0.0334
 5275SOL    HW227288   2.404   2.569   9.070 -1.7718  0.7028  0.5145
 5276SOL     OW27289   1.063   4.110   6.812 -0.1616  0.0491 -0.1750
 5276SOL    HW127290   1.046   4.203   6.798 -1.0243 -0.0144  0.4393
 5276SOL    HW227291   0.980   4.065   6.801  1.0907 -2.3553  0.2411
 5277SOL     OW27292   2.572   3.631   3.436  0.4137 -0.1714  0.1596
 5277SOL    HW127293   2.662   3.606   3.454 -0.6620 -2.6987  2.0922
 5277SOL    HW227294   2.567   3.620   3.341  4.4137  0.6479 -0.1323
 5278SOL     OW27295   4.550   1.090   6.189 -0.5365  0.0244  0.7344
 5278SOL    HW127296   4.509   1.014   6.231 -0.3915 -0.2393  0.4018
 5278SOL    HW227297   4.643   1.076   6.203 -0.0864  1.2701 -0.9366
 5279SOL     OW27298   2.369   0.354   7.584 -0.0087  0.5096  0.3670
 5279SOL    HW127299   2.380   0.273   7.535  0.2828  0.3385  0.7211
 5279SOL    HW227300   2.369   0.414   7.509 -0.9848 -2.3789 -1.9202
 5280SOL     OW27301   2.433   2.426   2.332  0.0021  0.7160 -0.0777
 5280SOL    HW127302   2.386   2.343   2.335  0.5037  0.4029 -0.9027
 5280SOL    HW227303   2.401   2.455   2.417 -1.2649 -0.4754 -0.1604
 5281SOL     OW27304   0.729   4.235   9.335  0.0578 -0.0784  0.3557
 5281SOL    HW127305   0.772   4.220   9.251 -2.8221  1.1391 -1.3454
 5281SOL    HW227306   0.793   4.292   9.377 -0.1093  0.5472 -0.2382
 5282SOL     OW27307   0.590   2.643   2.580 -0.0797  0.2180 -0.2577
 5282SOL    HW127308   0.573   2.698   2.503 -2.7113 -2.5441 -1.6740
 5282SOL    HW227309   0.659   2.696   2.620 -0.5074 -1.0489  2.1467
 5283SOL     OW27310   2.937   2.771  17.071 -0.5147  0.2865  0.7504
 5283SOL    HW127311   2.926   2.836  17.001  1.2159  1.4289  1.5558
 5283SOL    HW227312   2.878   2.798  17.141  1.2528 -0.7917  2.6202
 5284SOL     OW27313   2.247   1.743   9.397 -0.0053  0.4044 -0.1594
 5284SOL    HW127314   2.276   1.831   9.420  3.7438 -1.0933  0.8658
 5284SOL    HW227315   2.323   1.696   9.362 -0.3246  0.2841 -0.6934
 5285SOL     OW27316   3.331   3.800   6.231  0.2205  0.1547  0.3143
 5285SOL    HW127317   3.352   3.713   6.198 -0.8531  0.5724 -1.4858
 5285SOL    HW227318   3.419   3.821   6.261  0.1961 -0.4902  0.8311
 5286SOL     OW27319   0.844   2.288   9.559 -0.6487 -0.2294  0.3236
 5286SOL    HW127320   0.889   2.334   9.630 -1.1012 -0.2396  0.6123
 5286SOL    HW227321   0.923   2.233   9.550 -0.1712  0.2724  1.4437
 5287SOL     OW27322   4.675   4.628   2.673  0.2305  0.1125 -0.8532
 5287SOL    HW127323   0.001   4.690   2.729  1.5229 -2.6279  1.0903
 5287SOL    HW227324   0.023   4.567   2.645  0.3250  0.2404 -0.9030
 5288SOL     OW27325   0.942   4.154   3.398 -0.0318 -0.2437  0.2783
 5288SOL    HW127326   0.847   4.160   3.392  0.3060  1.9803 -3.0317
 5288SOL    HW227327   0.956   4.156   3.303  2.4443 -1.1031  0.6361
 5289SOL     OW27328   4.661   4.509  10.634 -0.0427  0.4336  0.2820
 5289SOL    HW127329   4.622   4.596  10.629 -0.2729  0.4089  1.6562
 5289SOL    HW227330   0.021   4.507  10.686  0.2320  0.4915 -0.1436
 5290SOL     OW27331   4.515   4.185  13.359 -0.0153 -0.0134  0.0998
 5290SOL    HW127332   4.573   4.134  13.302 -0.6387 -1.4676  0.7537
 5290SOL    HW227333   4.554   4.272  13.352 -0.1086  0.1908  2.0761
 5291SOL     OW27334   0.102   1.911   2.884 -0.1222 -0.0867 -0.3706
 5291SOL    HW127335   0.071   1.971   2.817 -1.3528 -1.1739 -0.7788
 5291SOL    HW227336   0.150   1.846   2.832 -0.4535  1.0327 -2.0923
 5292SOL     OW27337   4.289   4.088   7.518 -0.5162  0.2258  0.1034
 5292SOL    HW127338   4.347   4.106   7.444 -2.8157  2.8284 -1.0455
 5292SOL    HW227339   4.291   4.166   7.572  0.6816 -0.6073  1.2758
 5293SOL     OW27340   3.169   3.377   8.679  0.0605  0.0912 -0.5453
 5293SOL    HW127341   3.158   3.281   8.681 -0.0019  0.0819 -1.8700
 5293SOL    HW227342   3.212   3.395   8.596 -0.4699  0.2118 -0.7934
 5294SOL     OW27343   0.604   3.499   3.337 -0.0917 -0.2508 -0.1318
 5294SOL    HW127344   0.611   3.474   3.429  0.8712 -2.8661 -0.9341
 5294SOL    HW227345   0.525   3.454   3.307 -0.5448  0.0677  0.5765
 5295SOL     OW27346   3.532   3.280  13.164  0.4526 -0.1610 -0.5510
 5295SOL    HW127347   3.475   3.203  13.152 -0.2290  0.0862  1.1388
 5295SOL    HW227348   3.571   3.256  13.248 -2.9679 -0.1089  1.0860
 5296SOL     OW27349   2.410   4.350   9.060  0.5430 -0.1328 -0.0759
 5296SOL    HW127350   2.498   4.349   9.100  0.2771  1.2574  0.5486
 5296SOL    HW227351   2.433   4.286   8.993 -1.1987 -1.4508  0.5937
 5297SOL     OW27352   4.368   4.599   5.513 -0.2534 -0.6172  0.0437
 5297SOL    HW127353   4.389   4.620   5.422  0.3053  1.6384  0.6752
 5297SOL    HW227354   4.346   4.506   5.512 -0.9642 -0.4854  2.4834
 5298SOL     OW27355   3.606   3.207   3.257 -0.4912 -0.1084 -0.1749
 5298SOL    HW127356   3.585   3.115   3.239 -2.3703  0.8779 -3.0742
 5298SOL    HW227357   3.680   3.224   3.198  0.3537  0.9773  1.2251
 5299SOL     OW27358   0.634   3.478   9.362 -0.5557 -0.4056 -0.5245
 5299SOL    HW127359   0.637   3.552   9.422  0.3489 -0.9149  0.0460
 5299SOL    HW227360   0.539   3.470   9.367 -0.5031  0.2506  1.1803
 5300SOL     OW27361   0.509   3.108  17.598 -0.9814 -0.3842 -1.0136
 5300SOL    HW127362   0.561   3.188  17.592  1.0258 -1.4808  1.9030
 5300SOL    HW227363   0.505   3.103   0.011  1.1996 -1.0780 -0.9665
 5301SOL     OW27364   2.408   1.010   0.861  0.2323  0.9214  0.0325
 5301SOL    HW127365   2.392   0.921   0.829  1.1772  0.3632  1.1342
 5301SOL    HW227366   2.438   1.052   0.780 -0.2480 -0.5100 -0.9028
 5302SOL     OW27367   1.306   2.137   6.823 -0.2922  0.1363  0.1284
 5302SOL    HW127368   1.305   2.041   6.829  0.4927  0.1322  0.1372
 5302SOL    HW227369   1.216   2.145   6.791 -0.2950  0.4538  0.2187
 5303SOL     OW27370   4.684   0.483  17.226 -0.3364  0.2501  0.2328
 5303SOL    HW127371   0.033   0.533  17.183  1.3674 -2.5986 -0.3398
 5303SOL    HW227372   4.716   0.470  17.315 -0.2199 -1.0437 -0.0055
 5304SOL     OW27373   2.101   1.602   0.049 -0.0886  0.1043  0.5329
 5304SOL    HW127374   2.146   1.519   0.037 -1.4450 -0.5220 -0.1683
 5304SOL    HW227375   2.134   1.617   0.138  1.0282 -0.1273  0.1612
 5305SOL     OW27376   2.680   2.274  13.533  0.0941 -0.3516  0.3440
 5305SOL    HW127377   2.688   2.213  13.459  0.2257  1.4311 -1.1140
 5305SOL    HW227378   2.593   2.304  13.507 -1.1336 -1.9969  2.5149
 5306SOL     OW27379   1.737   3.219   1.999  0.0166 -0.2743  0.6608
 5306SOL    HW127380   1.712   3.169   1.921 -0.6756  0.8050  0.1913
 5306SOL    HW227381   1.805   3.281   1.970  0.0971 -0.3034  0.7856
 5307SOL     OW27382   3.701   3.260   8.060  0.1813 -0.1379  0.0436
 5307SOL    HW127383   3.725   3.198   8.129  2.5157  1.6508  0.8190
 5307SOL    HW227384   3.775   3.244   8.001  1.3689 -0.8726  1.7316
 5308SOL     OW27385   1.773   4.193  13.958 -0.2684 -0.0795  0.3191
 5308SOL    HW127386   1.835   4.139  14.009 -2.1183 -0.5901  2.0311
 5308SOL    HW227387   1.832   4.231  13.893  1.0907 -1.4459  0.7561
 5309SOL     OW27388   0.388   1.443   4.283  0.0832 -0.5605  0.4542
 5309SOL    HW127389   0.419   1.478   4.366  0.3751  0.6986 -0.1807
 5309SOL    HW227390   0.464   1.392   4.256  0.2763 -0.0409  0.0186
 5310SOL     OW27391   3.775   1.272   5.682 -0.0838 -0.1733  0.3910
 5310SOL    HW127392   3.820   1.326   5.746 -0.8965 -0.3975  1.1617
 5310SOL    HW227393   3.737   1.343   5.630 -0.0656 -0.7805 -0.4551
 5311SOL     OW27394   3.218   3.773   4.945 -0.2283 -0.2613 -0.0629
 5311SOL    HW127395   3.274   3.764   5.022 -0.8815  0.9737  0.5656
 5311SOL    HW227396   3.159   3.697   4.955 -0.5904 -0.2937 -2.5502
 5312SOL     OW27397   4.408   2.354   4.487  0.1951 -0.2971 -0.1647
 5312SOL    HW127398   4.478   2.352   4.422  0.0301  0.5033 -0.3787
 5312SOL    HW227399   4.332   2.382   4.436 -0.0424 -2.2582 -0.8883
 5313SOL     OW27400   3.695   2.389  17.326 -0.7687 -0.5085 -0.0848
 5313SOL    HW127401   3.783   2.352  17.320 -0.6917 -0.4444  0.7353
 5313SOL    HW227402   3.663   2.318  17.381 -2.0435 -0.2926 -0.5641
 5314SOL     OW27403   0.610   1.451  10.019  0.0110  0.2425  0.4863
 5314SOL    HW127404   0.623   1.546  10.025 -2.1976  0.6708 -1.4292
 5314SOL    HW227405   0.523   1.445   9.980 -0.4857  1.0786  1.4374
 5315SOL     OW27406   3.008   0.880   1.812  0.2293 -0.4347  0.1171
 5315SOL    HW127407   2.984   0.956   1.761  1.9922  1.4732  2.1382
 5315SOL    HW227408   2.957   0.807   1.776 -0.7733 -0.3781  1.3925
 5316SOL     OW27409   3.363   1.498   0.795 -0.2509 -0.3631 -0.0173
 5316SOL    HW127410   3.419   1.421   0.793 -0.7253 -0.7148  0.3356
 5316SOL    HW227411   3.331   1.482   0.883  1.8901 -0.6403  0.7092
 5317SOL     OW27412   1.057   4.322  14.305 -0.3305 -0.4326 -0.5954
 5317SOL    HW127413   0.971   4.296  14.339  0.6120 -0.4716  1.7079
 5317SOL    HW227414   1.035   4.415  14.301 -0.6631 -0.5367 -1.2758
 5318SOL     OW27415   1.045   2.364   7.372 -0.7942 -0.3358 -0.0197
 5318SOL    HW127416   1.118   2.416   7.340 -1.6035  0.3562 -0.7567
 5318SOL    HW227417   1.079   2.296   7.431 -1.0181 -0.5140 -0.0939
 5319SOL     OW27418   0.050   1.518   4.513  0.1107 -0.4643 -0.2024
 5319SOL    HW127419   0.067   1.595   4.459 -0.6624 -0.6375 -0.6993
 5319SOL    HW227420   0.092   1.449   4.462 -2.5261 -0.3023 -2.6390
 5320SOL     OW27421   4.127   1.224   4.856 -0.6203 -0.6115 -0.6229
 5320SOL    HW127422   4.136   1.315   4.827 -1.6473 -0.4202 -0.3642
 5320SOL    HW227423   4.073   1.242   4.933  0.5519 -0.3150  0.1267
 5321SOL     OW27424   2.595   2.145   3.002  0.6099 -0.0667 -0.4999
 5321SOL    HW127425   2.545   2.080   3.052 -0.9603  0.8632 -0.8617
 5321SOL    HW227426   2.640   2.089   2.940 -0.7915 -1.6392 -0.1046
 5322SOL     OW27427   3.097   1.762   1.266 -0.4735  0.2598  0.1618
 5322SOL    HW127428   3.085   1.796   1.355 -1.0122  0.3538  0.0549
 5322SOL    HW227429   3.037   1.819   1.218  0.8882 -0.3341 -2.2222
 5323SOL     OW27430   2.729   2.518  14.334 -0.2833  0.4998 -0.4626
 5323SOL    HW127431   2.799   2.560  14.384 -1.0817 -0.6851  1.6991
 5323SOL    HW227432   2.691   2.447  14.387 -0.8214  0.9738 -0.2175
 5324SOL     OW27433   2.167   1.144   2.240  0.3414 -0.2352 -0.4590
 5324SOL    HW127434   2.210   1.058   2.240 -2.3968 -1.6017 -2.4246
 5324SOL    HW227435   2.083   1.132   2.196  0.2359 -0.1903 -0.2684
 5325SOL     OW27436   0.718   3.964  10.150  0.0724 -0.2480 -0.4065
 5325SOL    HW127437   0.753   3.948  10.063  1.2803  2.1689 -0.3616
 5325SOL    HW227438   0.638   3.916  10.130  0.4851 -0.7122 -0.9316
 5326SOL     OW27439   3.542   0.202   4.555 -0.2638 -0.7165  0.4061
 5326SOL    HW127440   3.615   0.145   4.531 -1.4821 -1.1740 -2.1957
 5326SOL    HW227441   3.537   0.255   4.476  2.2763 -0.1832  0.6012
 5327SOL     OW27442   0.351   1.877   8.354 -0.5146 -0.4313 -0.5081
 5327SOL    HW127443   0.266   1.834   8.365  0.3740 -2.2726 -0.8061
 5327SOL    HW227444   0.399   1.814   8.300  0.2657 -0.4043  0.1608
 5328SOL     OW27445   1.417   2.511   5.741 -0.6048  0.5098  0.0747
 5328SOL    HW127446   1.349   2.452   5.773  1.3777 -1.9533 -0.2218
 5328SOL    HW227447   1.489   2.470   5.790 -0.9013 -1.9129 -1.4937
 5329SOL     OW27448   2.896   0.578  10.005 -0.0467 -0.7681  0.1534
 5329SOL    HW127449   2.932   0.501  10.049 -3.5531 -1.6668  1.4360
 5329SOL    HW227450   2.809   0.544   9.983  0.0452 -0.6739 -0.3451
 5330SOL     OW27451   0.699   2.419   5.575  0.0833  0.0928 -0.5643
 5330SOL    HW127452   0.760   2.467   5.518  0.1800 -1.6607 -1.9329
 5330SOL    HW227453   0.644   2.494   5.599  1.1555  0.5712  0.3835
 5331SOL     OW27454   2.899   1.091   3.049 -0.0932 -0.0999 -0.4420
 5331SOL    HW127455   2.910   1.040   2.969  1.3678  2.1152 -1.6478
 5331SOL    HW227456   2.868   1.024   3.110  0.1306 -1.3193 -1.6769
 5332SOL     OW27457   4.668   0.348  12.082 -0.2800 -0.2075 -0.0203
 5332SOL    HW127458   4.624   0.302  12.153  3.4438  0.0886  2.4290
 5332SOL    HW227459   0.039   0.345  12.110 -0.4731 -1.6142  0.4527
 5333SOL     OW27460   0.307   1.169   9.770  0.5439 -0.5338 -0.2733
 5333SOL    HW127461   0.235   1.121   9.811 -0.5495 -0.2397 -1.8658
 5333SOL    HW227462   0.383   1.153   9.826 -1.0527 -3.5471  1.0143
 5334SOL     OW27463   0.242   1.331  11.819  0.2762 -0.3109 -0.1677
 5334SOL    HW127464   0.337   1.317  11.817 -0.0438 -2.5349  1.3392
 5334SOL    HW227465   0.219   1.314  11.728 -2.1001 -2.4327  0.8435
 5335SOL     OW27466   1.897   2.536   6.226 -0.3496 -0.0413 -0.1236
 5335SOL    HW127467   1.973   2.592   6.211  0.1026 -0.5215  0.3889
 5335SOL    HW227468   1.910   2.479   6.150 -1.0651 -0.7519  0.2835
 5336SOL     OW27469   0.289   1.089   0.880  0.4676  0.0124 -0.1827
 5336SOL    HW127470   0.278   1.175   0.922  0.1851  0.0487 -0.3308
 5336SOL    HW227471   0.368   1.065   0.928  0.7729 -0.1199 -0.7506
 5337SOL     OW27472   4.497   0.763   4.554  0.0427  0.2090  0.5799
 5337SOL    HW127473   4.591   0.751   4.573 -0.0122 -3.2189 -1.2090
 5337SOL    HW227474   4.467   0.751   4.644 -0.2285 -0.4696  0.3980
 5338SOL     OW27475   2.394   1.136   8.453  0.2376  0.3454 -0.3922
 5338SOL    HW127476   2.365   1.114   8.542  0.7012 -0.0327 -0.3329
 5338SOL    HW227477   2.312   1.142   8.404  1.5054  0.0415 -2.5364
 5339SOL     OW27478   2.966   0.658   1.208 -0.4985 -0.1847  0.7635
 5339SOL    HW127479   2.913   0.592   1.255 -0.1039 -1.4843 -0.6218
 5339SOL    HW227480   3.036   0.674   1.271  1.0592  0.4991 -1.1504
 5340SOL     OW27481   3.346   3.405   8.457  0.2714  0.2179 -0.5532
 5340SOL    HW127482   3.390   3.322   8.441 -1.4640 -0.6450 -0.9262
 5340SOL    HW227483   3.419   3.461   8.483  1.1398 -1.4181  0.5101
 5341SOL     OW27484   3.870   0.711   6.699  0.5829  0.4412 -0.0780
 5341SOL    HW127485   3.887   0.798   6.736 -1.2495  0.3407  0.9926
 5341SOL    HW227486   3.955   0.670   6.720  0.6276  0.5135 -0.1177
 5342SOL     OW27487   1.929   0.914   6.978 -0.1172 -0.2379  0.2852
 5342SOL    HW127488   1.852   0.900   7.032 -0.1047 -0.0651  0.3490
 5342SOL    HW227489   1.994   0.936   7.044  0.1416 -1.3678  0.3917
 5343SOL     OW27490   1.267   1.601   3.642  0.4839  0.2829 -0.1235
 5343SOL    HW127491   1.331   1.661   3.603  0.7249 -0.6395 -1.1671
 5343SOL    HW227492   1.239   1.646   3.722 -1.4172 -0.5225 -0.3379
 5344SOL     OW27493   1.659   0.819  15.814 -0.4047 -0.8290  1.0560
 5344SOL    HW127494   1.574   0.816  15.769 -1.1883  1.3780  2.4088
 5344SOL    HW227495   1.681   0.909  15.789 -0.3352 -2.1562 -3.7459
 5345SOL     OW27496   2.562   0.960  13.710  0.2779 -0.8173  0.0557
 5345SOL    HW127497   2.611   0.991  13.787 -1.2290 -2.3410  1.6353
 5345SOL    HW227498   2.627   0.931  13.646 -0.6462 -0.7236 -0.9216
 5346SOL     OW27499   0.247   1.302  16.923  0.0466  0.9766 -0.0155
 5346SOL    HW127500   0.186   1.317  16.852  0.8708  1.3197 -0.6502
 5346SOL    HW227501   0.316   1.365  16.905 -0.5924  1.2690 -1.4218
 5347SOL     OW27502   2.490   3.171   2.753  0.3765  0.0359 -1.1902
 5347SOL    HW127503   2.459   3.236   2.690 -1.0434  1.9876  1.5016
 5347SOL    HW227504   2.437   3.196   2.829 -2.0249 -1.5491 -2.3650
 5348SOL     OW27505   4.451   0.839   8.136  0.1539 -0.0912 -0.0283
 5348SOL    HW127506   4.444   0.758   8.085  2.0144 -0.3599  0.1667
 5348SOL    HW227507   4.529   0.878   8.096 -0.3390 -0.4553 -1.3645
 5349SOL     OW27508   2.480   4.142   7.376 -0.3962  0.3543 -0.6132
 5349SOL    HW127509   2.533   4.169   7.301 -0.3229  0.9592 -0.3377
 5349SOL    HW227510   2.515   4.202   7.442 -2.5805  0.5070  0.4050
 5350SOL     OW27511   4.309   2.868   5.342 -0.0851  0.3277 -0.5639
 5350SOL    HW127512   4.217   2.843   5.354  0.6627 -2.1585 -0.0059
 5350SOL    HW227513   4.321   2.815   5.263 -0.6304  1.0159 -1.1075
 5351SOL     OW27514   4.559   3.094   9.849 -0.6147 -0.2403  0.6375
 5351SOL    HW127515   4.506   3.021   9.819 -0.1193 -0.9491  1.4805
 5351SOL    HW227516   4.627   3.050   9.901 -0.6753  0.2846  1.1628
 5352SOL     OW27517   0.860   4.001  17.125 -0.2595  0.6894 -0.2001
 5352SOL    HW127518   0.841   3.936  17.058  2.1547 -0.8797  0.6393
 5352SOL    HW227519   0.940   4.038  17.087 -0.0752  1.6370  1.0749
 5353SOL     OW27520   2.061   4.167   8.670 -0.1457  0.0988 -0.1427
 5353SOL    HW127521   2.099   4.090   8.627  0.6983 -0.1480  1.0241
 5353SOL    HW227522   2.143   4.193   8.713 -0.6685 -0.3689  1.1325
 5354SOL     OW27523   0.709   4.251   7.687  0.1171  0.5783 -0.0685
 5354SOL    HW127524   0.755   4.285   7.609 -1.0357  0.2781 -0.8725
 5354SOL    HW227525   0.681   4.334   7.725  1.3035  1.8815 -2.0241
 5355SOL     OW27526   2.284   2.107  16.169  0.3029 -0.3773 -0.2822
 5355SOL    HW127527   2.309   2.025  16.212 -1.6155 -0.8970 -0.1659
 5355SOL    HW227528   2.242   2.067  16.093  0.0313  0.8096 -0.7609
 5356SOL     OW27529   1.945   3.000   4.940  0.7868  0.1445 -0.0370
 5356SOL    HW127530   1.987   3.054   4.873 -0.2711  1.2042  0.1598
 5356SOL    HW227531   1.971   3.032   5.026 -1.5933 -3.3033  1.9971
 5357SOL     OW27532   0.796   2.573   9.275  0.4057 -0.7598 -0.1012
 5357SOL    HW127533   0.710   2.531   9.275 -0.4542  1.0142 -0.7731
 5357SOL    HW227534   0.775   2.664   9.294  2.0483 -0.2848 -0.5320
 5358SOL     OW27535   1.717   3.291   0.020  0.3146  0.0034 -0.4217
 5358SOL    HW127536   1.668   3.371   0.002 -0.6453 -0.3341  0.7333
 5358SOL    HW227537   1.648   3.225   0.022  0.6973 -0.2812  2.8618
 5359SOL     OW27538   4.637   1.663  12.859  0.0110 -1.0027  0.0588
 5359SOL    HW127539   4.561   1.656  12.802 -0.0468 -0.9298  0.1265
 5359SOL    HW227540   4.713   1.648  12.803  0.0685  0.3168 -0.2194
 5360SOL     OW27541   0.701   3.491   7.093  0.3674  0.5730 -0.1934
 5360SOL    HW127542   0.776   3.512   7.038 -1.2248  0.2994 -2.4874
 5360SOL    HW227543   0.723   3.515   7.183 -0.6123  1.4292 -0.1940
 5361SOL     OW27544   3.087   0.611   2.128 -0.6777 -0.1154 -0.2504
 5361SOL    HW127545   3.060   0.617   2.219  1.0207  0.7345  0.1970
 5361SOL    HW227546   3.121   0.523   2.115  1.9244  1.0404 -1.2903
 5362SOL     OW27547   3.852   4.607   6.056 -0.1172 -0.0418 -0.6840
 5362SOL    HW127548   3.861   4.634   5.964 -1.1340 -1.6418 -1.2551
 5362SOL    HW227549   3.897   4.678   6.101 -2.6770 -0.0760  1.9097
 5363SOL     OW27550   4.485   1.307   6.347  0.6384  0.2262  0.6354
 5363SOL    HW127551   4.508   1.218   6.320 -2.2821  0.0112 -1.2363
 5363SOL    HW227552   4.460   1.292   6.438  0.3172 -2.0759  0.1906
 5364SOL     OW27553   3.043   3.371   9.407  0.2612  0.6207  1.0079
 5364SOL    HW127554   2.962   3.406   9.369 -0.5897 -1.3370  1.0409
 5364SOL    HW227555   3.108   3.439   9.385 -0.6433  1.1073 -0.2078
 5365SOL     OW27556   0.556   1.761  13.500 -0.1544  0.0753 -0.2429
 5365SOL    HW127557   0.504   1.681  13.515 -0.3785  0.1211 -0.7795
 5365SOL    HW227558   0.597   1.767  13.586 -2.9711  1.2111  1.0151
 5366SOL     OW27559   3.011   2.171   5.013  0.4936 -0.1654  0.2975
 5366SOL    HW127560   3.007   2.134   5.101 -1.5931  0.4232  0.4365
 5366SOL    HW227561   3.005   2.089   4.964  1.1845  0.9270 -1.5893
 5367SOL     OW27562   4.663   3.664   1.967  0.1442  0.0596 -0.4987
 5367SOL    HW127563   4.636   3.630   1.882  0.3663 -2.6525  0.5410
 5367SOL    HW227564   4.692   3.585   2.012  2.0708  2.0785  1.8027
 5368SOL     OW27565   2.883   3.790   2.319  0.6885  0.0921 -0.8048
 5368SOL    HW127566   2.825   3.713   2.317 -0.1766  0.7636 -1.2801
 5368SOL    HW227567   2.969   3.749   2.315  1.8852  2.5884 -0.3165
 5369SOL     OW27568   3.924   4.375  14.351  0.8267  0.0111 -0.2065
 5369SOL    HW127569   3.844   4.325  14.337  1.2878 -0.7573 -0.0851
 5369SOL    HW227570   3.966   4.324  14.421  1.9973 -1.2389 -1.8192
 5370SOL     OW27571   2.083   2.743  15.305 -0.0147 -0.0235  0.2115
 5370SOL    HW127572   2.119   2.666  15.350 -0.3840 -0.2502  0.1223
 5370SOL    HW227573   1.997   2.710  15.278  1.3811 -4.0799  0.6406
 5371SOL     OW27574   2.524   0.470   8.353 -0.2550  0.5362 -0.6937
 5371SOL    HW127575   2.452   0.532   8.345 -0.1816  0.8061  0.6597
 5371SOL    HW227576   2.573   0.502   8.429 -0.9792  2.1937 -0.9208
 5372SOL     OW27577   3.308   2.379   0.334  0.4883 -0.2133 -0.5790
 5372SOL    HW127578   3.232   2.434   0.347 -1.4051 -2.9130 -0.1305
 5372SOL    HW227579   3.364   2.411   0.405  0.7987 -2.1753  0.0915
 5373SOL     OW27580   1.156   2.369   7.853 -0.1579  0.1508 -0.1214
 5373SOL    HW127581   1.066   2.395   7.831 -0.5241 -1.2496 -0.2390
 5373SOL    HW227582   1.179   2.421   7.930  2.7129  1.5066 -1.8778
 5374SOL     OW27583   0.815   0.547   5.928  0.0504 -0.3924 -0.5725
 5374SOL    HW127584   0.804   0.637   5.957  1.7498 -0.3678 -0.0449
 5374SOL    HW227585   0.789   0.556   5.836 -3.7377 -0.7792  0.4308
 5375SOL     OW27586   3.366   1.989   0.607  0.1401 -0.5496 -0.0509
 5375SOL    HW127587   3.336   2.069   0.564 -1.8851 -2.3023 -1.8629
 5375SOL    HW227588   3.305   1.917   0.596 -0.6453  0.1117  0.0312
 5376SOL     OW27589   4.050   2.409   3.162  1.0337  0.1308  0.5447
 5376SOL    HW127590   3.975   2.394   3.104  0.5470  0.1650  1.1564
 5376SOL    HW227591   4.122   2.354   3.132  1.1858 -0.1235  1.3550
 5377SOL     OW27592   3.450   1.272   1.301 -0.1628 -0.6062 -0.3713
 5377SOL    HW127593   3.538   1.277   1.263  0.1470  0.8004  0.5547
 5377SOL    HW227594   3.452   1.343   1.365  2.6925 -0.9939 -0.0602
 5378SOL     OW27595   3.824   4.631  14.002 -0.5934  0.2820 -0.2842
 5378SOL    HW127596   3.858   4.686  13.931  1.0016  0.8416  0.9094
 5378SOL    HW227597   3.909   4.614  14.043 -0.7228  2.5020  0.9253
 5379SOL     OW27598   3.961   3.008   7.755  0.7578 -0.9448  0.1254
 5379SOL    HW127599   3.994   2.989   7.843 -2.0795 -2.0451  0.9562
 5379SOL    HW227600   3.934   3.098   7.773 -1.1654 -1.2242 -1.4350
 5380SOL     OW27601   1.815   2.344   7.164 -0.2271 -0.4764 -0.3017
 5380SOL    HW127602   1.866   2.386   7.096  2.7527 -0.9921  1.6259
 5380SOL    HW227603   1.880   2.281   7.194  2.0960  1.6257 -1.0179
 5381SOL     OW27604   0.617   3.294   4.625  0.0522 -0.7589  0.6258
 5381SOL    HW127605   0.629   3.329   4.714  2.0529  0.7076 -0.2067
 5381SOL    HW227606   0.698   3.303   4.575 -0.3579 -0.3018  0.0573
 5382SOL     OW27607   2.624   0.682  13.236  0.1144 -0.4505 -0.3537
 5382SOL    HW127608   2.586   0.769  13.251  2.1897  0.4954 -0.5608
 5382SOL    HW227609   2.568   0.627  13.291  0.2500  0.1624  0.4107
 5383SOL     OW27610   0.552   3.735   4.103 -0.0914 -0.0380  0.9127
 5383SOL    HW127611   0.578   3.822   4.072 -3.0677 -0.3944 -2.7188
 5383SOL    HW227612   0.461   3.733   4.073 -0.0449 -2.8629  0.9598
 5384SOL     OW27613   3.323   1.544   9.285  0.5317 -0.3191  0.2664
 5384SOL    HW127614   3.333   1.532   9.380 -0.0617 -0.2764  0.3344
 5384SOL    HW227615   3.321   1.639   9.276  1.6241 -0.0765  2.5155
 5385SOL     OW27616   1.255   0.054  16.545  0.4986  0.2715  0.6439
 5385SOL    HW127617   1.165   0.067  16.513  1.3182  3.1356 -0.5553
 5385SOL    HW227618   1.259   4.713  16.618 -1.7213  0.0803  0.6050
 5386SOL     OW27619   3.468   1.232  10.223 -0.2271  0.0389 -0.4624
 5386SOL    HW127620   3.430   1.152  10.259  2.8705 -0.6706  1.2604
 5386SOL    HW227621   3.555   1.195  10.238  0.2025  0.9402 -0.7567
 5387SOL     OW27622   0.820   3.846   4.459 -0.4749  0.4977 -0.4548
 5387SOL    HW127623   0.752   3.891   4.510  1.0941  2.1018  0.2242
 5387SOL    HW227624   0.830   3.904   4.383  0.0001 -0.2422 -0.9559
 5388SOL     OW27625   4.625   0.759  16.612 -0.2183  0.2192 -0.0472
 5388SOL    HW127626   4.706   0.737  16.566  0.0563 -0.4439  0.7579
 5388SOL    HW227627   4.591   0.670  16.618  0.8640 -0.1294  0.8818
 5389SOL     OW27628   1.812   1.269   6.914  0.4966  0.7397  0.9027
 5389SOL    HW127629   1.873   1.335   6.949  2.6431 -0.9731  0.3937
 5389SOL    HW227630   1.858   1.239   6.835 -0.5121  0.7162  0.3229
 5390SOL     OW27631   2.023   1.927   2.658 -0.2678 -0.2757  0.3126
 5390SOL    HW127632   2.085   1.876   2.607  1.1163 -0.3700  2.1108
 5390SOL    HW227633   2.061   1.912   2.744 -0.7660 -2.1088  0.2054
 5391SOL     OW27634   4.146   1.485   0.903 -0.1737 -0.2116  0.1280
 5391SOL    HW127635   4.197   1.464   0.825  0.3046 -1.5638  0.7994
 5391SOL    HW227636   4.207   1.487   0.977  0.2940 -3.1623 -0.2045
 5392SOL     OW27637   2.019   1.151   5.930  0.9474 -0.1332  0.0375
 5392SOL    HW127638   1.997   1.061   5.905 -2.2132  0.8956 -0.8395
 5392SOL    HW227639   2.069   1.130   6.009  1.1901  0.5383  0.0596
 5393SOL     OW27640   3.388   3.872   4.464  0.5956 -0.3778  0.0413
 5393SOL    HW127641   3.409   3.839   4.552 -0.2545  0.9585  0.7429
 5393SOL    HW227642   3.475   3.854   4.428  0.6016 -0.0476 -0.1063
 5394SOL     OW27643   4.451   3.803  11.144 -0.4829  0.4269 -0.2264
 5394SOL    HW127644   4.525   3.743  11.137  0.1747  1.1664  0.2924
 5394SOL    HW227645   4.397   3.765  11.213 -1.7510  0.5284 -1.1851
 5395SOL     OW27646   4.066   1.429   1.514  0.0159  0.0728 -0.2201
 5395SOL    HW127647   4.025   1.455   1.597  1.5387 -1.6369  1.0524
 5395SOL    HW227648   4.153   1.465   1.526  0.4751 -0.5814 -1.5357
 5396SOL     OW27649   2.002   2.110   2.456  0.2493  0.0595  0.0193
 5396SOL    HW127650   2.011   2.060   2.537 -0.4306  0.0828  0.1049
 5396SOL    HW227651   2.021   2.044   2.389  1.9118 -1.7640  2.2698
 5397SOL     OW27652   2.509   3.756   0.181 -0.1506  0.9932  0.1968
 5397SOL    HW127653   2.460   3.837   0.171  1.2556  1.4182 -3.1326
 5397SOL    HW227654   2.461   3.717   0.255 -0.3335  1.4291  0.3047
 5398SOL     OW27655   2.147   1.866  10.960 -0.3693 -0.1539 -0.1304
 5398SOL    HW127656   2.221   1.857  11.020  0.5463  0.1252 -1.2160
 5398SOL    HW227657   2.083   1.837  11.025 -1.5357  0.1999 -1.1106
 5399SOL     OW27658   2.973   0.006   0.883 -0.5716  0.1239 -0.0439
 5399SOL    HW127659   2.995   4.643   0.925  1.0165  0.5922  0.0335
 5399SOL    HW227660   2.926   4.696   0.805 -0.3320  0.0208 -0.1487
 5400SOL     OW27661   2.935   1.094   0.416 -0.4680 -0.0594  0.1619
 5400SOL    HW127662   2.946   1.184   0.448 -2.3307  0.9266 -1.9941
 5400SOL    HW227663   2.905   1.118   0.329  1.2480  0.3669 -0.3053
 5401SOL     OW27664   2.297   3.611   7.949  0.0921  0.1253 -0.3135
 5401SOL    HW127665   2.365   3.545   7.939 -0.5398 -0.5862  0.1094
 5401SOL    HW227666   2.251   3.603   7.865  0.2544  0.1882 -0.4080
 5402SOL     OW27667   3.556   2.298   2.760  0.8831 -0.2494  0.2108
 5402SOL    HW127668   3.463   2.291   2.739  0.4767 -2.1375  2.5580
 5402SOL    HW227669   3.582   2.386   2.732 -0.3766  0.5995  1.7493
 5403SOL     OW27670   1.308   4.614  12.878 -0.1834  0.2113  0.5370
 5403SOL    HW127671   1.268   4.663  12.806 -0.7114 -1.3432 -0.2339
 5403SOL    HW227672   1.267   4.661  12.950 -0.3269 -0.7525  1.0816
 5404SOL     OW27673   2.465   0.506   1.932  0.0768 -0.1785 -0.2208
 5404SOL    HW127674   2.376   0.481   1.906 -0.0908 -0.2926  0.4625
 5404SOL    HW227675   2.511   0.522   1.850 -0.6499 -0.1356 -0.6226
 5405SOL     OW27676   2.709   0.203   5.601 -0.3858 -0.2608  0.6228
 5405SOL    HW127677   2.659   0.221   5.521  0.9475  1.6318  0.2228
 5405SOL    HW227678   2.798   0.196   5.567 -1.1217  0.0528 -1.4312
 5406SOL     OW27679   4.000   3.135   5.228  0.4839 -0.4733 -0.0525
 5406SOL    HW127680   3.955   3.067   5.177 -4.0550  2.5883 -0.0763
 5406SOL    HW227681   3.925   3.187   5.256 -0.5694 -1.8677 -0.2935
 5407SOL     OW27682   3.771   0.068   6.338 -0.4345  0.1642 -0.4267
 5407SOL    HW127683   3.860   0.072   6.303 -0.6438  2.8999 -0.6016
 5407SOL    HW227684   3.744   0.160   6.332 -1.7971 -0.2022 -0.1334
 5408SOL     OW27685   3.480   0.222   5.244 -0.0584 -0.2251 -0.7245
 5408SOL    HW127686   3.525   0.295   5.202  0.6901 -0.1093  0.2726
 5408SOL    HW227687   3.434   0.259   5.320 -0.0751 -3.3289  0.7866
 5409SOL     OW27688   1.316   2.337  15.211  0.4082  0.5968  0.0348
 5409SOL    HW127689   1.383   2.348  15.145  0.0593  1.6859 -0.1351
 5409SOL    HW227690   1.271   2.421  15.221 -2.0328 -0.9004  1.6472
 5410SOL     OW27691   1.953   1.360   6.664  0.1733 -0.2261 -0.2076
 5410SOL    HW127692   1.995   1.279   6.635  1.1454  0.4920 -0.8159
 5410SOL    HW227693   1.904   1.384   6.585  1.4500  1.5955 -0.4436
 5411SOL     OW27694   1.959   4.389   8.079 -0.2246 -0.3656 -0.4404
 5411SOL    HW127695   1.938   4.471   8.034 -1.1513 -0.1779  0.3232
 5411SOL    HW227696   1.977   4.334   8.002  1.2202  0.3400 -0.6103
 5412SOL     OW27697   4.162   2.667  16.220 -0.2942  0.0099  0.5527
 5412SOL    HW127698   4.247   2.696  16.253 -0.1410  0.8639 -0.6261
 5412SOL    HW227699   4.112   2.702  16.294 -1.6134 -0.4918 -0.1115
 5413SOL     OW27700   3.795   3.006   9.799 -0.2621 -0.2434 -0.2751
 5413SOL    HW127701   3.784   2.916   9.770  1.3521 -1.1237  1.9083
 5413SOL    HW227702   3.723   3.048   9.751 -1.8281 -0.1280  2.1708
 5414SOL     OW27703   0.615   0.901  16.420 -0.3098 -0.1480  0.0130
 5414SOL    HW127704   0.614   0.911  16.516  1.3477 -0.3785  0.0523
 5414SOL    HW227705   0.605   0.991  16.389  0.7194  0.0680  0.3160
 5415SOL     OW27706   4.160   4.285   3.784 -0.3696  0.2873  0.1478
 5415SOL    HW127707   4.230   4.259   3.723 -0.6775 -0.1194 -0.0348
 5415SOL    HW227708   4.120   4.360   3.741  0.8382  0.2608 -1.0494
 5416SOL     OW27709   2.980   1.821   0.776  0.3194 -0.0398 -0.1101
 5416SOL    HW127710   3.048   1.816   0.710 -1.6844 -1.0877 -2.1152
 5416SOL    HW227711   3.009   1.751   0.835  1.6267  1.6579  1.2842
 5417SOL     OW27712   2.529   3.882   9.736  0.4479  0.2217  0.4003
 5417SOL    HW127713   2.441   3.913   9.714  0.5854  1.3024  1.4083
 5417SOL    HW227714   2.555   3.936   9.811 -0.4966  0.7618  0.3410
 5418SOL     OW27715   3.427   4.415   1.211 -0.4376 -0.3309 -0.4601
 5418SOL    HW127716   3.406   4.508   1.217  1.4727  0.0879 -0.0044
 5418SOL    HW227717   3.501   4.397   1.269  1.4694  0.0053 -2.7869
 5419SOL     OW27718   1.238   1.991  14.262  0.9026  0.2796 -0.2945
 5419SOL    HW127719   1.260   2.079  14.291 -1.2583  1.1871 -1.4286
 5419SOL    HW227720   1.165   1.971  14.322  0.0195  2.4363 -0.6502
 5420SOL     OW27721   1.479   0.769   7.453  0.3199  0.6005 -0.3399
 5420SOL    HW127722   1.482   0.839   7.388  0.6492 -0.8958 -1.9401
 5420SOL    HW227723   1.553   0.803   7.504 -1.7648  3.6235  0.6908
 5421SOL     OW27724   2.984   0.068  12.686  0.3876  0.0198  0.8568
 5421SOL    HW127725   2.941   0.025  12.760 -0.4618  0.6500  0.7383
 5421SOL    HW227726   3.073   0.060  12.718  1.4405  0.0660 -2.0282
 5422SOL     OW27727   2.435   3.377   8.280  0.0828  0.8773 -0.2979
 5422SOL    HW127728   2.488   3.456   8.269  0.2855  1.0336  1.8778
 5422SOL    HW227729   2.495   3.326   8.334 -0.8284 -0.4456 -0.5186
 5423SOL     OW27730   2.904   0.584   8.115  0.5742  0.0393  0.2974
 5423SOL    HW127731   2.904   0.510   8.176 -0.8286 -0.7789 -0.7052
 5423SOL    HW227732   2.977   0.562   8.058  0.1020  2.1047 -1.0970
 5424SOL     OW27733   0.857   1.849   5.690  0.7965 -0.0895  0.5917
 5424SOL    HW127734   0.811   1.928   5.717  2.5114  1.3630 -0.7594
 5424SOL    HW227735   0.929   1.859   5.752  0.8944 -0.6939  0.5797
 5425SOL     OW27736   0.599   4.251  10.298  0.0450  0.0052 -0.5700
 5425SOL    HW127737   0.641   4.274  10.216  0.5992 -0.7956 -0.5038
 5425SOL    HW227738   0.660   4.200  10.351 -1.0280 -2.1701 -1.4557
 5426SOL     OW27739   1.256   0.556  17.229  0.0861  0.0416 -0.2278
 5426SOL    HW127740   1.311   0.617  17.180  1.5398 -1.8729 -1.0182
 5426SOL    HW227741   1.278   0.468  17.197 -2.5890 -0.4896 -0.6261
 5427SOL     OW27742   0.585   1.720   3.138  0.1244  0.0746  0.0376
 5427SOL    HW127743   0.589   1.814   3.122 -3.9705  0.3259  0.5116
 5427SOL    HW227744   0.614   1.686   3.053  0.9017 -0.0310  0.3400
 5428SOL     OW27745   0.429   2.326   4.814  0.1297 -0.2050 -0.2505
 5428SOL    HW127746   0.419   2.357   4.904  0.2285 -0.2123 -0.2368
 5428SOL    HW227747   0.343   2.298   4.783  0.4889 -0.7289 -0.7788
 5429SOL     OW27748   0.768   2.369  10.313 -0.0190  0.0872  0.1372
 5429SOL    HW127749   0.676   2.344  10.304  0.1926 -1.3102  1.8223
 5429SOL    HW227750   0.759   2.464  10.303 -0.0271  0.1889  1.1486
 5430SOL     OW27751   0.914   1.711   2.826 -0.0456  0.2311 -0.3901
 5430SOL    HW127752   0.914   1.707   2.922 -0.6847 -2.7045 -0.4920
 5430SOL    HW227753   1.001   1.673   2.810  0.7420  1.9046 -0.0193
 5431SOL     OW27754   1.231   3.325   7.283  0.5736  0.1402  0.2552
 5431SOL    HW127755   1.299   3.390   7.298  2.1051 -2.0955  2.8562
 5431SOL    HW227756   1.185   3.337   7.366  0.9130  1.6443  0.2231
 5432SOL     OW27757   2.162   1.052   1.191  0.1713 -0.3175  0.0531
 5432SOL    HW127758   2.190   0.960   1.190  0.7503 -0.1446  1.3855
 5432SOL    HW227759   2.069   1.045   1.169 -0.1878 -0.5340  1.6458
 5433SOL     OW27760   0.122   0.341   4.498  0.4298 -0.6255 -0.4772
 5433SOL    HW127761   0.106   0.307   4.586 -3.1179 -2.4145 -1.8349
 5433SOL    HW227762   0.194   0.288   4.463  1.4539  0.5002 -0.1032
 5434SOL     OW27763   3.397   1.589   2.739 -0.0614 -0.0587  0.2239
 5434SOL    HW127764   3.309   1.624   2.744  0.7859  2.2310 -1.2341
 5434SOL    HW227765   3.375   1.506   2.696  0.7114 -0.0174 -0.2490
 5435SOL     OW27766   3.481   1.242  15.659  0.0965  0.0655 -0.2619
 5435SOL    HW127767   3.503   1.232  15.566 -0.9591 -0.4345 -0.4609
 5435SOL    HW227768   3.508   1.156  15.690 -0.7583  0.0702  0.4973
 5436SOL     OW27769   0.911   0.365  13.180  0.1337 -0.4545  0.5839
 5436SOL    HW127770   0.910   0.329  13.091 -1.3052 -0.2984  0.5395
 5436SOL    HW227771   0.922   0.284  13.229  2.1435  0.0247  0.9414
 5437SOL     OW27772   1.233   1.894   6.318 -0.0569  0.4674 -0.4491
 5437SOL    HW127773   1.275   1.946   6.386 -2.1638  1.8969 -0.2355
 5437SOL    HW227774   1.140   1.918   6.323 -0.2941 -0.8404  1.7299
 5438SOL     OW27775   3.409   0.349  13.494 -0.1587  0.2842 -0.2716
 5438SOL    HW127776   3.384   0.368  13.403 -0.1849  1.3278 -0.0447
 5438SOL    HW227777   3.327   0.371  13.537  1.2440  2.7558  1.1055
 5439SOL     OW27778   4.100   3.625   4.491 -0.2321 -0.1537 -0.4851
 5439SOL    HW127779   4.107   3.579   4.575 -0.8581 -1.3881 -1.1158
 5439SOL    HW227780   4.042   3.561   4.450 -0.8009  0.0487  0.0017
 5440SOL     OW27781   3.476   4.088  14.024  0.6033 -0.2020  0.3383
 5440SOL    HW127782   3.508   4.072  13.935 -2.2016 -3.5794 -0.0648
 5440SOL    HW227783   3.553   4.053  14.068  1.3998 -2.1755 -2.6281
 5441SOL     OW27784   2.389   4.554   2.394  0.2827  0.3418  0.4153
 5441SOL    HW127785   2.463   4.540   2.335  0.0997 -2.2719  0.7758
 5441SOL    HW227786   2.333   4.606   2.337  0.2438  0.1584  0.2854
 5442SOL     OW27787   3.512   0.948   5.853 -0.0570  0.3126  0.1385
 5442SOL    HW127788   3.582   0.917   5.910 -0.1128  2.2754  1.2799
 5442SOL    HW227789   3.500   0.877   5.790  0.7784  0.5017 -0.2351
 5443SOL     OW27790   2.421   0.511   2.311  0.0470 -0.6278 -0.5661
 5443SOL    HW127791   2.345   0.557   2.276  0.5544  0.4785 -0.1980
 5443SOL    HW227792   2.494   0.535   2.255 -0.3408  2.2943  0.2187
 5444SOL     OW27793   2.286   4.411   6.825 -0.4040  0.0447  0.1588
 5444SOL    HW127794   2.246   4.495   6.802  0.7947  0.6834  0.4254
 5444SOL    HW227795   2.370   4.428   6.782 -0.9715 -1.0355 -1.3680
 5445SOL     OW27796   0.831   0.549   4.603 -0.0847 -0.0814  0.3598
 5445SOL    HW127797   0.843   0.560   4.509 -0.5411 -0.0040  0.3080
 5445SOL    HW227798   0.779   0.628   4.616  0.8512  0.4133  1.0171
 5446SOL     OW27799   0.558   2.310   8.564 -0.0078 -0.5302 -0.4473
 5446SOL    HW127800   0.609   2.232   8.587 -1.2091 -1.1934 -0.0497
 5446SOL    HW227801   0.551   2.352   8.650 -0.1931 -0.5373 -0.4589
 5447SOL     OW27802   4.299   1.127  15.678  0.0636  0.5881 -0.0586
 5447SOL    HW127803   4.363   1.106  15.746  0.4096 -2.1739 -1.2554
 5447SOL    HW227804   4.351   1.171  15.610 -0.2168  0.1230 -0.5693
 5448SOL     OW27805   1.051   1.695   8.590  0.4306 -0.0198 -0.1362
 5448SOL    HW127806   1.024   1.760   8.656  1.7583  0.5634 -0.1585
 5448SOL    HW227807   1.000   1.727   8.516  0.6373  1.4784  0.3633
 5449SOL     OW27808   2.661   1.807   6.068 -0.0470  0.0165  0.2596
 5449SOL    HW127809   2.729   1.742   6.081  0.7476  0.8240  0.0963
 5449SOL    HW227810   2.617   1.806   6.153 -3.0806  1.0540 -1.2779
 5450SOL     OW27811   4.587   1.025   0.844 -0.1458 -0.4880  0.2667
 5450SOL    HW127812   4.492   1.011   0.844 -0.3844  1.1773 -0.8625
 5450SOL    HW227813   4.602   0.992   0.932  1.3913  0.5303  0.3821
 5451SOL     OW27814   3.311   0.530   1.088 -0.2789 -0.0169  0.1118
 5451SOL    HW127815   3.376   0.538   1.159 -0.2704  2.9234 -0.2427
 5451SOL    HW227816   3.250   0.463   1.120 -0.5678 -0.3622 -1.1820
 5452SOL     OW27817   0.691   3.760   5.424 -0.5562 -0.2698  0.0406
 5452SOL    HW127818   0.682   3.801   5.510 -0.0029  0.0710 -0.0615
 5452SOL    HW227819   0.764   3.702   5.446  0.3477  1.2825  1.1893
 5453SOL     OW27820   1.702   4.050   2.810 -0.2833 -0.7023  0.1482
 5453SOL    HW127821   1.789   4.082   2.833 -1.0614  1.9548 -0.6384
 5453SOL    HW227822   1.712   3.956   2.823 -0.0520 -1.1462 -3.3484
 5454SOL     OW27823   3.522   4.365   8.217 -0.1220  0.1751 -0.5394
 5454SOL    HW127824   3.594   4.352   8.280 -0.4657 -1.4338 -0.4770
 5454SOL    HW227825   3.458   4.418   8.264 -1.0340 -2.1576  0.8808
 5455SOL     OW27826   2.568   4.049   5.478 -0.0771  0.1343  0.1459
 5455SOL    HW127827   2.598   4.135   5.449  0.6790 -0.9087 -2.2131
 5455SOL    HW227828   2.644   4.019   5.528 -1.3527  0.1922  2.1031
 5456SOL     OW27829   1.241   4.296   1.654 -0.4254 -0.2831  0.4228
 5456SOL    HW127830   1.200   4.306   1.568  1.3208  0.4578 -0.3300
 5456SOL    HW227831   1.284   4.212   1.641 -1.5058 -0.7726  0.0253
 5457SOL     OW27832   0.167   1.972   7.499 -0.0999  0.5440  0.0978
 5457SOL    HW127833   0.223   2.026   7.443 -0.1699  0.6726  0.1515
 5457SOL    HW227834   0.134   2.023   7.573 -3.2949 -0.9392 -0.3264
 5458SOL     OW27835   4.484   0.003   2.507  0.0076  0.5262  0.6547
 5458SOL    HW127836   4.524   4.695   2.425  0.3222 -0.9485  1.2999
 5458SOL    HW227837   4.553   4.690   2.565 -0.0445 -0.2717  0.2605
 5459SOL     OW27838   2.630   2.344   5.853  0.4384  0.4636  0.5374
 5459SOL    HW127839   2.576   2.332   5.775  0.0229 -0.8274  1.0300
 5459SOL    HW227840   2.648   2.438   5.850  0.4140  0.4222 -1.0668
 5460SOL     OW27841   4.262   2.249   3.082 -0.1321 -0.5226 -0.2049
 5460SOL    HW127842   4.221   2.195   3.014  0.6247  1.3552 -2.1764
 5460SOL    HW227843   4.348   2.206   3.082 -0.1675 -0.5908  0.6460
 5461SOL     OW27844   3.433   0.407   1.583 -0.0189  0.0941  0.6294
 5461SOL    HW127845   3.460   0.455   1.661 -1.2830 -0.2577  1.2891
 5461SOL    HW227846   3.403   0.320   1.612  0.2464 -0.2534 -0.1234
 5462SOL     OW27847   2.141   3.782   0.122  0.2176 -0.9745  0.1562
 5462SOL    HW127848   2.059   3.827   0.100  1.5385  1.1975 -0.3763
 5462SOL    HW227849   2.119   3.689   0.115 -1.0578 -0.7325  1.1025
 5463SOL     OW27850   3.525   1.857   7.162 -0.0939 -0.4203  0.2140
 5463SOL    HW127851   3.494   1.920   7.228 -1.9409 -0.8346 -0.2847
 5463SOL    HW227852   3.545   1.912   7.087 -0.5359  1.7425  1.6721
 5464SOL     OW27853   0.162   1.003   4.805  0.4756  0.2496 -0.3152
 5464SOL    HW127854   0.128   1.055   4.733 -0.4108  0.1010 -0.0027
 5464SOL    HW227855   0.100   1.028   4.873  1.7362 -3.3387  2.1768
 5465SOL     OW27856   4.200   1.084   1.832  0.0290 -0.0425  0.1209
 5465SOL    HW127857   4.205   1.035   1.915 -0.1038 -0.1727  0.0516
 5465SOL    HW227858   4.117   1.129   1.850 -0.2243 -0.1084 -0.8879
 5466SOL     OW27859   1.516   0.494   7.388  0.2215  0.0810  0.0583
 5466SOL    HW127860   1.492   0.443   7.465 -1.0159  4.2352  2.4816
 5466SOL    HW227861   1.475   0.579   7.406  1.1507  0.5331  0.0533
 5467SOL     OW27862   0.845   2.492   5.945  0.2201  0.3446  0.1685
 5467SOL    HW127863   0.894   2.569   5.974  1.4929  0.4971 -2.3500
 5467SOL    HW227864   0.819   2.457   6.030  1.6578 -1.3653 -0.1015
 5468SOL     OW27865   0.133   0.935  14.861 -0.4771  0.0930 -0.0202
 5468SOL    HW127866   0.089   0.914  14.943 -1.1301  1.1445 -0.1062
 5468SOL    HW227867   0.217   0.893  14.883  0.0817  1.9856  1.4363
 5469SOL     OW27868   3.938   1.379   0.753 -0.1177  0.8400  0.2957
 5469SOL    HW127869   4.012   1.415   0.801  0.5429  1.0537 -0.8754
 5469SOL    HW227870   3.983   1.349   0.674  0.7824  0.1794  1.0623
 5470SOL     OW27871   2.856   0.547  11.334  0.2343  0.1282  0.2902
 5470SOL    HW127872   2.859   0.627  11.282 -0.7899 -1.8281 -2.7661
 5470SOL    HW227873   2.919   0.570  11.403  1.7396 -0.0627 -1.0258
 5471SOL     OW27874   4.057   3.337   8.439 -0.1250  0.8161 -0.5219
 5471SOL    HW127875   4.042   3.243   8.424 -0.3389  1.0086 -1.4881
 5471SOL    HW227876   3.982   3.353   8.496 -0.2715 -2.1868  0.1625
 5472SOL     OW27877   2.128   3.711   2.375 -0.0490  0.3639  0.0051
 5472SOL    HW127878   2.174   3.681   2.453 -2.5279 -0.9656  0.9522
 5472SOL    HW227879   2.110   3.800   2.406  0.6925 -0.6282  3.2749
 5473SOL     OW27880   3.773   2.221   7.322  0.3145  0.1385 -0.2391
 5473SOL    HW127881   3.788   2.279   7.247  1.5295  1.3836  0.9528
 5473SOL    HW227882   3.689   2.245   7.362  0.8240  0.5578  0.5987
 5474SOL     OW27883   2.546   4.432   4.209  1.2074 -0.4405  0.5815
 5474SOL    HW127884   2.481   4.501   4.215  1.1423 -0.2742 -1.8384
 5474SOL    HW227885   2.555   4.411   4.302 -1.7567  1.1524  1.2223
 5475SOL     OW27886   3.289   3.799   7.580 -0.0273 -0.1420 -0.1579
 5475SOL    HW127887   3.380   3.821   7.560  0.4552 -1.5928  0.4359
 5475SOL    HW227888   3.248   3.801   7.494  0.5481  0.0401 -0.4283
 5476SOL     OW27889   2.744   4.616   7.280 -0.0632 -0.1972  0.5027
 5476SOL    HW127890   2.785   4.569   7.207 -0.8763 -0.7613  0.4108
 5476SOL    HW227891   2.809   4.608   7.350  2.4373 -3.3099 -2.1413
 5477SOL     OW27892   1.108   1.536   4.446  0.5305 -0.3716  0.6620
 5477SOL    HW127893   1.160   1.573   4.375 -0.1503  0.3265  0.5414
 5477SOL    HW227894   1.041   1.602   4.457  0.1756 -0.5667 -0.3140
 5478SOL     OW27895   3.311   1.263  10.010 -0.3529 -0.0832  0.6219
 5478SOL    HW127896   3.371   1.236  10.079  2.0783  2.6078 -0.4020
 5478SOL    HW227897   3.264   1.183   9.988 -0.6339 -0.3058  2.0660
 5479SOL     OW27898   2.969   2.614   1.990 -0.0709  0.0093  0.0300
 5479SOL    HW127899   2.970   2.670   2.068 -0.7330  0.9702 -0.6621
 5479SOL    HW227900   3.030   2.661   1.934  0.0982 -0.2818 -0.0331
 5480SOL     OW27901   3.081   1.107   9.486 -0.3214  0.1401 -0.0350
 5480SOL    HW127902   3.030   1.166   9.542  1.1158  1.4131 -0.0757
 5480SOL    HW227903   3.126   1.166   9.426 -2.4714 -0.1773 -1.9772
 5481SOL     OW27904   2.911   3.950   9.226 -0.1208 -0.1374  0.1145
 5481SOL    HW127905   2.915   4.025   9.284  3.2191 -1.9777  2.2483
 5481SOL    HW227906   2.994   3.958   9.180  0.2446 -1.4546  0.5291
 5482SOL     OW27907   3.255   3.382   3.555  0.3474 -0.2298  0.3337
 5482SOL    HW127908   3.230   3.413   3.642 -2.2249 -2.2905  0.3423
 5482SOL    HW227909   3.297   3.297   3.572  0.5761 -0.0073  0.8549
 5483SOL     OW27910   0.371   0.645   6.151 -1.0179 -0.0624  0.4467
 5483SOL    HW127911   0.462   0.614   6.152 -0.6170  1.1009 -0.4712
 5483SOL    HW227912   0.374   0.731   6.193  0.7232 -1.1424  2.5636
 5484SOL     OW27913   3.504   3.105   9.739 -0.6336  0.2508 -0.3444
 5484SOL    HW127914   3.549   3.153   9.808  1.8219 -4.2138  1.1355
 5484SOL    HW227915   3.410   3.120   9.755 -0.6607  1.2804 -1.4376
 5485SOL     OW27916   1.487   4.530   6.376 -0.4990  0.0295  0.4888
 5485SOL    HW127917   1.520   4.610   6.335 -0.7977 -1.7337 -3.1924
 5485SOL    HW227918   1.559   4.509   6.435  0.9183  1.7875 -0.6242
 5486SOL     OW27919   3.077   4.500   5.505  0.4604 -0.1958 -0.3577
 5486SOL    HW127920   3.032   4.488   5.588  2.6931 -1.4508  0.6730
 5486SOL    HW227921   3.139   4.567   5.533 -0.5425 -0.2387  1.9546
 5487SOL     OW27922   0.833   0.592   6.967  0.1031  0.6271  0.0906
 5487SOL    HW127923   0.837   0.619   7.059  0.3845 -2.3907  0.9696
 5487SOL    HW227924   0.820   0.498   6.976 -0.2569  0.7172  0.5041
 5488SOL     OW27925   2.059   3.924   5.078 -0.0071  0.3244 -0.3607
 5488SOL    HW127926   2.076   3.968   4.995  1.3949  0.4256 -0.0171
 5488SOL    HW227927   2.129   3.964   5.131  0.8866 -1.6050 -0.0840
 5489SOL     OW27928   2.712   2.699   8.953  0.1773  0.0550 -0.6768
 5489SOL    HW127929   2.769   2.663   9.021  2.3407  0.9593 -2.0013
 5489SOL    HW227930   2.705   2.613   8.912 -1.6495 -0.1554  0.0618
 5490SOL     OW27931   3.271   3.112   2.394 -0.1580  0.6496  0.6888
 5490SOL    HW127932   3.238   3.202   2.394 -1.7515  0.0501  1.5651
 5490SOL    HW227933   3.217   3.065   2.457  0.7327 -0.8234  0.3512
 5491SOL     OW27934   1.132   3.317   9.167  0.1116 -0.3731 -0.0907
 5491SOL    HW127935   1.042   3.298   9.142 -0.1108 -1.9791  1.8977
 5491SOL    HW227936   1.109   3.394   9.219  0.1160 -1.0910  0.9812
 5492SOL     OW27937   2.722   0.208   3.990 -0.0092  0.4293  0.2906
 5492SOL    HW127938   2.742   0.128   4.039 -1.6729 -0.1277  0.0785
 5492SOL    HW227939   2.801   0.218   3.938 -0.3409 -0.6008 -0.4319
 5493SOL     OW27940   2.480   3.456   3.890 -0.0763 -0.1426  0.4742
 5493SOL    HW127941   2.423   3.382   3.909  1.0156 -1.6443 -2.0789
 5493SOL    HW227942   2.520   3.481   3.973 -0.8057  2.7197 -0.0609
 5494SOL     OW27943   1.455   2.432  13.096  0.0280  0.1826 -0.4815
 5494SOL    HW127944   1.360   2.423  13.105 -0.0513  1.5141  0.0410
 5494SOL    HW227945   1.478   2.390  13.013  2.7884 -2.3390  1.5431
 5495SOL     OW27946   3.463   1.309  13.635  0.1993  0.4534  0.0763
 5495SOL    HW127947   3.553   1.313  13.605 -0.2489 -1.0568 -1.4413
 5495SOL    HW227948   3.421   1.389  13.602  1.1097  0.7851 -0.2812
 5496SOL     OW27949   1.466   1.296   2.845 -0.1294 -0.1330 -0.0445
 5496SOL    HW127950   1.495   1.368   2.790 -2.7716  0.4757 -0.6124
 5496SOL    HW227951   1.414   1.337   2.914 -0.6274  0.8525 -1.0092
 5497SOL     OW27952   3.397   2.168   3.399  0.2855  0.6541 -0.2587
 5497SOL    HW127953   3.392   2.077   3.370  0.3845  0.5235  0.1351
 5497SOL    HW227954   3.492   2.177   3.392  0.4914 -0.6956  0.8103
 5498SOL     OW27955   2.449   3.278   2.500  0.0167  0.5580 -0.3613
 5498SOL    HW127956   2.397   3.305   2.424 -1.3725 -0.9200  0.0589
 5498SOL    HW227957   2.532   3.262   2.454 -0.0964  2.0983 -1.0743
 5499SOL     OW27958   0.685   3.971   1.589 -0.4096  0.3603 -0.0748
 5499SOL    HW127959   0.625   4.037   1.554 -0.4763 -0.1654 -0.9684
 5499SOL    HW227960   0.623   3.907   1.622 -0.7342 -0.0404 -1.4576
 5500SOL     OW27961   2.983   4.575   4.819  0.4181  0.0107  0.1174
 5500SOL    HW127962   2.894   4.548   4.793  0.3303  1.3413 -0.9265
 5500SOL    HW227963   2.983   4.664   4.786  1.2713  0.2985  0.8949
 5501SOL     OW27964   3.137   3.227  10.386  0.5095 -0.2729  0.3008
 5501SOL    HW127965   3.058   3.177  10.369  0.5563 -0.9340  2.0781
 5501SOL    HW227966   3.200   3.193  10.322  0.7382 -0.4955  0.6402
 5502SOL     OW27967   2.668   1.115   2.664  0.0673  0.3248  0.4191
 5502SOL    HW127968   2.669   1.072   2.579  1.3552 -0.6624  0.9358
 5502SOL    HW227969   2.608   1.186   2.642 -0.9239 -0.7780 -0.4517
 5503SOL     OW27970   0.180   3.103   0.112 -0.2736  0.1868  0.1517
 5503SOL    HW127971   0.228   3.079   0.032  0.2169 -0.2419  0.5705
 5503SOL    HW227972   0.257   3.132   0.160 -0.4766  1.1951 -0.1349
 5504SOL     OW27973   3.609   3.988   8.446 -0.1360 -0.0552  0.0876
 5504SOL    HW127974   3.637   3.898   8.428 -0.1899 -0.2899  1.1353
 5504SOL    HW227975   3.688   4.028   8.481  0.2755  0.3510 -1.3169
 5505SOL     OW27976   0.080   1.605  16.893 -0.2218 -0.7629 -1.0179
 5505SOL    HW127977   0.009   1.622  16.955  1.1288 -1.1602  0.6445
 5505SOL    HW227978   0.052   1.517  16.867 -1.9530 -0.8449  1.0885
 5506SOL     OW27979   4.318   1.843  11.385 -0.2172  0.0632  0.2243
 5506SOL    HW127980   4.404   1.814  11.355 -0.1415 -0.3903  0.8731
 5506SOL    HW227981   4.260   1.791  11.328 -0.5941  0.6100  0.1089
 5507SOL     OW27982   4.310   2.313  11.978  0.6031 -0.4887  0.7760
 5507SOL    HW127983   4.384   2.257  12.004  0.1591 -0.9455  1.0450
 5507SOL    HW227984   4.358   2.396  11.989  0.5719 -0.3811  0.0944
 5508SOL     OW27985   2.198   3.937   6.445 -0.1745 -0.2483  0.5753
 5508SOL    HW127986   2.217   3.870   6.511  0.3155  0.3445  1.0432
 5508SOL    HW227987   2.206   3.894   6.360  1.4261 -0.9799  1.0818
 5509SOL     OW27988   1.115   2.558   3.178  0.3421  0.4544 -0.2572
 5509SOL    HW127989   1.132   2.502   3.103 -0.8285 -1.1897  0.7025
 5509SOL    HW227990   1.205   2.580   3.201  0.5329 -2.0247  1.4136
 5510SOL     OW27991   3.927   2.310   8.744  0.3812 -0.5623 -0.3419
 5510SOL    HW127992   3.917   2.310   8.839  1.2525  1.6489 -0.2433
 5510SOL    HW227993   3.892   2.397   8.722  0.8103 -0.9047 -2.3935
 5511SOL     OW27994   4.661   1.804   8.910  0.0660  0.0519  0.3687
 5511SOL    HW127995   4.658   1.709   8.903  1.5376  0.0910 -1.0097
 5511SOL    HW227996   0.030   1.823   8.879 -0.5801 -1.4482 -2.4095
 5512SOL     OW27997   0.387   0.950   0.080 -0.4341  0.3036  0.4389
 5512SOL    HW127998   0.385   0.929   0.173  0.5531 -0.8225  0.2033
 5512SOL    HW227999   0.327   1.025   0.079 -1.7768 -0.7549 -0.0666
 5513SOL     OW28000   1.117   4.063   3.578  0.1064  0.7554 -0.0692
 5513SOL    HW128001   1.195   4.118   3.582  2.6528 -2.7312 -1.3229
 5513SOL    HW228002   1.066   4.108   3.511 -0.7824  1.2609  0.9512
 5514SOL     OW28003   3.360   0.622   5.249 -0.5458  0.2273  0.2498
 5514SOL    HW128004   3.299   0.679   5.296  1.3352  0.4815  2.3845
 5514SOL    HW228005   3.313   0.599   5.169  0.5999 -0.1074 -0.3116
 5515SOL     OW28006   3.408   3.438   3.276 -0.2409  0.1752  0.6300
 5515SOL    HW128007   3.413   3.433   3.371  0.9853  0.2434  0.5683
 5515SOL    HW228008   3.473   3.371   3.255  1.2692  2.1180 -0.9120
 5516SOL     OW28009   1.031   0.265   0.594  0.3433 -0.8508 -0.3768
 5516SOL    HW128010   1.099   0.217   0.640  0.1315 -1.6664 -0.9120
 5516SOL    HW228011   0.991   0.193   0.545 -1.1223 -0.4693  0.2600
 5517SOL     OW28012   3.102   2.997  10.158 -0.2330 -0.4378  0.2575
 5517SOL    HW128013   3.180   2.971  10.208 -0.2400 -0.4193  0.2784
 5517SOL    HW228014   3.105   2.936  10.085 -2.2938 -2.1852  1.6270
 5518SOL     OW28015   1.608   2.236   8.976  0.6354 -0.0121  0.0408
 5518SOL    HW128016   1.519   2.223   9.007  0.4833  0.7379 -0.0827
 5518SOL    HW228017   1.605   2.328   8.950 -1.2862 -0.1501 -0.1850
 5519SOL     OW28018   0.214   2.299  10.640  0.3224 -0.4842 -0.6756
 5519SOL    HW128019   0.300   2.297  10.683  0.9120 -1.0764 -1.8883
 5519SOL    HW228020   0.218   2.386  10.599 -0.6064 -0.7930 -1.4242
 5520SOL     OW28021   2.420   1.206   2.611  0.2472 -0.1684  0.7709
 5520SOL    HW128022   2.428   1.290   2.657 -0.1700  0.7919 -0.9331
 5520SOL    HW228023   2.341   1.224   2.561 -1.6366 -2.2920  3.0103
 5521SOL     OW28024   2.928   1.448  10.778 -0.6023 -0.3692 -0.5581
 5521SOL    HW128025   2.864   1.437  10.708  2.0201 -0.2599 -3.0024
 5521SOL    HW228026   2.869   1.498  10.835 -2.2275 -1.7185 -1.0617
 5522SOL     OW28027   3.108   4.266   7.406  0.0144 -0.6189  0.0096
 5522SOL    HW128028   3.183   4.212   7.430  1.0700  0.5512 -0.6385
 5522SOL    HW228029   3.084   4.296   7.494  0.7200 -1.5918  0.5236
 5523SOL     OW28030   4.449   0.590  16.720  0.4309 -0.4169 -0.3043
 5523SOL    HW128031   4.382   0.656  16.738 -0.4381 -0.6245 -2.7702
 5523SOL    HW228032   4.491   0.573  16.804 -1.0850 -0.5392  0.4230
 5524SOL     OW28033   4.188   3.399   5.450 -0.0244  0.6943  0.4194
 5524SOL    HW128034   4.249   3.430   5.383 -0.0658  1.1967  0.6106
 5524SOL    HW228035   4.189   3.483   5.498 -1.5338  1.5041 -0.9573
 5525SOL     OW28036   4.173   2.164   1.766  0.1726 -0.4099 -0.0574
 5525SOL    HW128037   4.165   2.259   1.768  3.7140 -0.0991  0.2534
 5525SOL    HW228038   4.235   2.149   1.837  0.6337 -0.2966 -0.4356
 5526SOL     OW28039   1.414   3.299   7.062  0.1354  0.0653 -0.2832
 5526SOL    HW128040   1.385   3.324   7.150 -1.2446 -0.8348 -0.4730
 5526SOL    HW228041   1.326   3.273   7.036 -0.0788  0.3193  0.1817
 5527SOL     OW28042   0.751   0.078   8.868 -0.4908  0.3047 -0.4173
 5527SOL    HW128043   0.822   0.084   8.804 -1.1075 -0.7254 -1.2011
 5527SOL    HW228044   0.782   0.006   8.922 -1.0092 -0.5973 -1.3362
 5528SOL     OW28045   2.108   3.287   9.732 -0.2661 -0.1677 -0.1060
 5528SOL    HW128046   2.166   3.351   9.773  0.0048 -0.2355 -0.3835
 5528SOL    HW228047   2.134   3.280   9.640 -1.2937  1.0684 -0.4832
 5529SOL     OW28048   1.236   3.399  11.209  0.3569  0.1458  0.1675
 5529SOL    HW128049   1.244   3.481  11.160 -2.2799 -0.1927 -0.8106
 5529SOL    HW228050   1.242   3.437  11.297  1.1072  3.4471 -1.3112
 5530SOL     OW28051   0.864   0.934   1.013 -0.1254  0.6554 -0.0435
 5530SOL    HW128052   0.781   0.941   0.965 -0.0864 -3.3427 -0.7661
 5530SOL    HW228053   0.861   0.842   1.040  0.4613  0.7625  0.3789
 5531SOL     OW28054   0.637   0.502   3.919 -0.1687  0.0433  0.2429
 5531SOL    HW128055   0.596   0.440   3.979 -1.1949  0.8786  0.3932
 5531SOL    HW228056   0.679   0.448   3.852  0.6318 -1.4594  1.9411
 5532SOL     OW28057   1.550   2.303   9.390 -0.6015 -0.4543  0.0346
 5532SOL    HW128058   1.589   2.269   9.470 -1.7573 -0.1695  0.7144
 5532SOL    HW228059   1.496   2.227   9.370 -0.3328 -1.2041  2.2069
 5533SOL     OW28060   0.870   3.445  11.602  0.4203 -0.9247 -0.3918
 5533SOL    HW128061   0.921   3.367  11.578 -1.1035 -2.6994  2.0605
 5533SOL    HW228062   0.941   3.484  11.653  1.5947 -0.5495 -2.3258
 5534SOL     OW28063   2.537   2.197   2.686  0.2257 -0.6649 -0.3395
 5534SOL    HW128064   2.443   2.191   2.698  0.0151 -1.4004 -2.3370
 5534SOL    HW228065   2.557   2.142   2.610  1.6637  0.7205 -0.9855
 5535SOL     OW28066   0.396   0.178   5.897  0.1112 -0.3647  0.0183
 5535SOL    HW128067   0.487   0.147   5.891  1.1956  2.4271  2.2905
 5535SOL    HW228068   0.401   0.227   5.979  0.1444 -1.6573  0.7917
 5536SOL     OW28069   1.895   3.547   5.909  0.3494  0.0553 -0.8989
 5536SOL    HW128070   1.909   3.638   5.934 -0.5527 -0.1666  0.3982
 5536SOL    HW228071   1.932   3.499   5.983  1.4612 -0.4711 -1.7905
 5537SOL     OW28072   2.626   1.717   3.272 -0.6462  0.0626 -0.6008
 5537SOL    HW128073   2.531   1.715   3.275 -0.6493  1.7955  0.4709
 5537SOL    HW228074   2.633   1.705   3.177 -2.5791 -1.2366 -0.5725
 5538SOL     OW28075   4.220   2.035   0.666 -0.0216  0.3089 -0.0669
 5538SOL    HW128076   4.155   1.977   0.704 -0.5854  0.8599 -0.1861
 5538SOL    HW228077   4.287   1.967   0.654  1.5336  1.7861  0.1421
 5539SOL     OW28078   3.413   2.411   8.316 -0.2204  0.3755 -0.1962
 5539SOL    HW128079   3.351   2.366   8.372 -0.4420  2.9412  1.6109
 5539SOL    HW228080   3.420   2.491   8.367 -1.4532  2.6613 -3.6325
 5540SOL     OW28081   1.856   0.980  17.216 -0.0571 -0.1605  0.1508
 5540SOL    HW128082   1.888   1.040  17.283  1.4542  0.8412 -1.4681
 5540SOL    HW228083   1.789   1.033  17.173 -0.0526  1.1473  1.7516
 5541SOL     OW28084   2.495   1.344  14.054 -0.1112  0.0138  0.6509
 5541SOL    HW128085   2.454   1.372  14.135 -2.9546 -1.5020 -0.2770
 5541SOL    HW228086   2.450   1.270  14.012 -0.9837  1.0698 -0.2785
 5542SOL     OW28087   1.842   2.797   9.959 -0.0325 -0.3548  0.8400
 5542SOL    HW128088   1.842   2.889   9.933  0.4213 -0.0706  1.8350
 5542SOL    HW228089   1.813   2.751   9.881 -0.0570  2.6880 -0.9454
 5543SOL     OW28090   2.000   3.711   7.585 -0.5010  0.5817  0.0559
 5543SOL    HW128091   1.947   3.787   7.606  0.5067  0.8825  1.5089
 5543SOL    HW228092   2.044   3.746   7.507 -0.4346 -1.1525 -0.6808
 5544SOL     OW28093   1.844   3.927   9.161  0.3211  0.0151  0.5938
 5544SOL    HW128094   1.749   3.933   9.160  0.4197  1.0629 -1.9048
 5544SOL    HW228095   1.861   3.910   9.068  2.8285 -1.1107  1.2619
 5545SOL     OW28096   0.265   2.787  14.583 -0.4272 -0.6520 -0.2679
 5545SOL    HW128097   0.251   2.749  14.497 -2.3575  0.3549 -0.3822
 5545SOL    HW228098   0.349   2.750  14.612 -0.8647 -0.8995  0.6793
 5546SOL     OW28099   3.805   1.752   1.240 -0.0615 -0.0198 -0.0177
 5546SOL    HW128100   3.886   1.703   1.252 -0.1189 -0.4542 -1.4391
 5546SOL    HW228101   3.793   1.788   1.328 -1.2172 -2.2151  0.7127
 5547SOL     OW28102   4.109   0.940   7.139  0.3092  0.3194 -0.1510
 5547SOL    HW128103   4.048   0.919   7.068 -0.7887  0.3391  0.7965
 5547SOL    HW228104   4.054   0.933   7.216 -3.4157 -0.8568 -2.9298
 5548SOL     OW28105   1.505   3.290   8.026  0.3041  0.0391  0.2687
 5548SOL    HW128106   1.566   3.224   8.059 -2.7519 -1.1347  3.6806
 5548SOL    HW228107   1.532   3.360   8.085 -2.7759  0.6947  0.9002
 5549SOL     OW28108   0.019   1.469   3.714  0.2614 -0.4036  0.7026
 5549SOL    HW128109   4.704   1.558   3.716 -1.2962 -1.0319  1.0289
 5549SOL    HW228110   0.112   1.493   3.720  1.0575 -2.9508 -1.4384
 5550SOL     OW28111   0.539   1.761  13.945  0.2707  0.4457 -0.1046
 5550SOL    HW128112   0.553   1.740  14.037  0.4008 -1.2494 -0.5053
 5550SOL    HW228113   0.447   1.736  13.943  0.8422 -1.8224  1.7044
 5551SOL     OW28114   0.664   2.439   7.676  0.0021 -0.1666  0.4922
 5551SOL    HW128115   0.599   2.403   7.736 -0.0485  0.7014  0.9675
 5551SOL    HW228116   0.700   2.359   7.637 -0.5129  0.7242 -1.7996
 5552SOL     OW28117   4.552   1.467   4.713 -0.1491  0.4256 -0.6117
 5552SOL    HW128118   4.589   1.424   4.790  0.5504  2.4997  0.2148
 5552SOL    HW228119   4.632   1.478   4.661 -0.3130  1.0684 -0.7329
 5553SOL     OW28120   4.292   3.469   4.920  0.1628  0.0605 -0.3114
 5553SOL    HW128121   4.239   3.444   4.996 -0.6944  2.9691  0.0490
 5553SOL    HW228122   4.301   3.564   4.931  2.5970 -0.1979 -0.0252
 5554SOL     OW28123   0.150   1.687   4.338 -0.3337 -0.1286  0.3061
 5554SOL    HW128124   0.068   1.737   4.343 -1.4780 -1.8955 -0.9133
 5554SOL    HW228125   0.142   1.650   4.251 -1.2420 -3.1681  1.6720
 5555SOL     OW28126   2.713   1.626   3.744 -0.0338  0.1452 -0.3575
 5555SOL    HW128127   2.640   1.677   3.709 -1.4766 -0.9167  1.1498
 5555SOL    HW228128   2.786   1.670   3.699  0.4037 -0.6893 -0.4703
 5556SOL     OW28129   2.543   4.369   6.637 -0.0682  0.4212 -0.1409
 5556SOL    HW128130   2.591   4.307   6.692  0.8726  0.9871 -0.3251
 5556SOL    HW228131   2.598   4.448   6.640 -1.3595  1.2770  1.1294
 5557SOL     OW28132   2.586   2.188   9.836 -0.1905 -0.0997  0.0983
 5557SOL    HW128133   2.514   2.210   9.896  1.2655  0.6533  1.5430
 5557SOL    HW228134   2.544   2.122   9.780 -0.6465  0.0207  0.2957
 5558SOL     OW28135   2.318   0.363   8.108 -0.1952  0.4584 -0.6148
 5558SOL    HW128136   2.328   0.315   8.026  0.4085  3.0551 -2.0637
 5558SOL    HW228137   2.251   0.426   8.083  0.3334  1.0879 -0.4533
 5559SOL     OW28138   3.260   4.194   8.963 -0.4824 -0.2559  0.7315
 5559SOL    HW128139   3.307   4.233   9.037  0.8281 -0.8581  0.2028
 5559SOL    HW228140   3.285   4.251   8.891 -0.2975  0.2276  1.1783
 5560SOL     OW28141   0.808   3.768   2.580 -0.3621 -0.4936 -0.5358
 5560SOL    HW128142   0.869   3.838   2.602 -2.5825  1.2011  0.3032
 5560SOL    HW228143   0.740   3.773   2.647  0.3874  1.4213  0.0761
 5561SOL     OW28144   0.483   4.491   9.428 -0.2119 -0.1512 -0.9097
 5561SOL    HW128145   0.565   4.500   9.476 -2.1980  0.8037  2.3004
 5561SOL    HW228146   0.435   4.572   9.447  0.4769  0.5009 -1.9372
 5562SOL     OW28147   0.622   3.558   1.626 -0.0779 -0.3261  0.2339
 5562SOL    HW128148   0.530   3.567   1.651  0.0998 -0.1059  0.8204
 5562SOL    HW228149   0.635   3.468   1.657  0.7996  0.0257  0.9026
 5563SOL     OW28150   2.800   0.130   4.646 -0.2248  0.4783  0.6365
 5563SOL    HW128151   2.798   0.208   4.591 -2.2348  0.4319  0.6219
 5563SOL    HW228152   2.829   0.171   4.727  0.5871  1.7559 -0.3163
 5564SOL     OW28153   2.355   2.513   5.734  0.2828  0.1321  0.0042
 5564SOL    HW128154   2.413   2.580   5.698 -1.6295  1.9298  0.2698
 5564SOL    HW228155   2.394   2.436   5.694 -0.3693 -0.9312  1.4294
 5565SOL     OW28156   2.956   0.945   5.608  0.2883 -0.3556  0.0989
 5565SOL    HW128157   3.037   0.920   5.653  1.8240 -1.5647 -3.3400
 5565SOL    HW228158   2.904   0.964   5.685 -0.6912 -0.3264 -0.5749
 5566SOL     OW28159   2.615   0.893   3.845 -0.4747  0.1300  0.1370
 5566SOL    HW128160   2.577   0.878   3.932 -1.0092  0.7306  0.0100
 5566SOL    HW228161   2.630   0.805   3.812  1.3699  0.1538  0.9078
 5567SOL     OW28162   2.950   2.691   2.258 -0.1690  0.0305 -0.7959
 5567SOL    HW128163   3.040   2.672   2.283 -0.4746 -0.3109  0.0713
 5567SOL    HW228164   2.901   2.611   2.278 -1.9104  0.8564 -1.7528
 5568SOL     OW28165   0.529   2.549   5.302  0.3570  0.2196  0.1047
 5568SOL    HW128166   0.610   2.600   5.296  0.3689 -0.1704 -2.8572
 5568SOL    HW228167   0.489   2.577   5.219  0.8995 -2.0467 -0.9039
 5569SOL     OW28168   1.585   0.906  10.984  0.3657  0.3038 -0.2595
 5569SOL    HW128169   1.594   0.814  10.958 -0.0755  0.1037  0.2838
 5569SOL    HW228170   1.517   0.903  11.052 -1.6411  2.2214 -2.2134
 5570SOL     OW28171   3.651   0.995   0.496  0.0861  0.4283  0.4718
 5570SOL    HW128172   3.727   0.938   0.483  0.6684  0.9850  1.3993
 5570SOL    HW228173   3.695   1.076   0.470 -0.0629  0.2819 -0.2296
 5571SOL     OW28174   4.115   0.951   3.882  0.4918 -0.4788  0.3018
 5571SOL    HW128175   4.021   0.933   3.878  0.4652 -0.0631 -0.9757
 5571SOL    HW228176   4.138   0.864   3.850  1.0080 -0.6206  1.0632
 5572SOL     OW28177   1.797   2.403   5.042  0.5628  0.7290  0.3511
 5572SOL    HW128178   1.880   2.391   5.088  1.2211 -1.1722 -1.3606
 5572SOL    HW228179   1.808   2.470   4.974 -2.3548 -1.0308 -1.8416
 5573SOL     OW28180   4.136   2.708  11.821  0.3451  0.0247 -0.3321
 5573SOL    HW128181   4.115   2.767  11.748  2.6676 -0.8454 -1.6938
 5573SOL    HW228182   4.055   2.709  11.872  0.3155 -1.5080 -0.3451
 5574SOL     OW28183   1.741   3.670  11.010  0.6910  0.5075  0.0857
 5574SOL    HW128184   1.669   3.726  11.038  0.1208 -0.1361 -0.0767
 5574SOL    HW228185   1.781   3.650  11.094  1.1664 -0.6067 -0.4038
 5575SOL     OW28186   0.512   3.402  14.673  0.1644 -0.6567 -0.5943
 5575SOL    HW128187   0.446   3.379  14.608  0.7303  0.3113 -1.5030
 5575SOL    HW228188   0.566   3.323  14.685  2.2444  0.9229  0.4313
 5576SOL     OW28189   3.306   1.663   0.115 -0.0924  0.3036 -0.2503
 5576SOL    HW128190   3.217   1.665   0.080  0.0195  0.3755 -0.5289
 5576SOL    HW228191   3.346   1.743   0.081 -1.0011  0.9635  0.2163
 5577SOL     OW28192   3.920   3.295   8.716 -0.3044 -0.1786 -0.2089
 5577SOL    HW128193   3.886   3.383   8.737  3.3429  0.7984  1.5372
 5577SOL    HW228194   3.845   3.238   8.698  1.0669 -1.6416 -1.2023
 5578SOL     OW28195   1.873   4.298   6.272 -0.6244 -0.1123  0.4046
 5578SOL    HW128196   1.839   4.369   6.218 -0.2259 -1.2889 -1.3944
 5578SOL    HW228197   1.965   4.321   6.282 -0.6603  0.0084  0.4628
 5579SOL     OW28198   4.294   3.426   7.107 -0.7277  0.2089 -0.1241
 5579SOL    HW128199   4.329   3.426   7.196 -0.0973  2.2827 -0.3841
 5579SOL    HW228200   4.226   3.364   7.136 -0.0690  0.0987  1.1994
 5580SOL     OW28201   3.300   2.155   6.041  0.2876  0.0627 -0.0941
 5580SOL    HW128202   3.286   2.194   5.954  1.2391  0.1444 -0.2166
 5580SOL    HW228203   3.255   2.071   6.028 -1.7354  0.9787  1.0710
 5581SOL     OW28204   2.915   1.167   2.348 -0.3549  0.8199  0.6407
 5581SOL    HW128205   2.995   1.213   2.327 -0.7217 -0.3631 -3.3504
 5581SOL    HW228206   2.923   1.098   2.282  1.6841  1.4477  0.2444
 5582SOL     OW28207   1.367   0.826  13.682 -0.1070  0.1394 -0.1085
 5582SOL    HW128208   1.319   0.746  13.706 -0.9087  0.2909 -1.1961
 5582SOL    HW228209   1.327   0.907  13.716  2.0978  0.8935  0.6542
 5583SOL     OW28210   2.189   1.547  11.213  0.0034 -0.3533 -0.2836
 5583SOL    HW128211   2.263   1.556  11.154  1.0580 -0.6334  0.9777
 5583SOL    HW228212   2.116   1.559  11.152 -0.8312 -0.0413  0.7639
 5584SOL     OW28213   0.641   1.921  12.898 -0.5283 -0.4394 -0.1132
 5584SOL    HW128214   0.701   1.988  12.931  1.0716 -2.0022  0.1315
 5584SOL    HW228215   0.682   1.845  12.938 -1.6606 -1.9532 -1.8274
 5585SOL     OW28216   1.160   1.289   6.360 -0.0644 -0.3651  0.5799
 5585SOL    HW128217   1.132   1.282   6.268 -1.4584 -0.4265  1.0162
 5585SOL    HW228218   1.110   1.219   6.400  0.7022 -1.2439 -0.0017
 5586SOL     OW28219   2.215   4.320  17.067 -0.1790 -0.4502  0.1125
 5586SOL    HW128220   2.150   4.388  17.048  0.3637 -0.7536 -2.7533
 5586SOL    HW228221   2.278   4.340  16.999 -1.2781  2.8494  0.0683
 5587SOL     OW28222   0.462   4.374   7.121 -0.2329 -0.2713  0.2724
 5587SOL    HW128223   0.425   4.324   7.193  0.9340 -0.5985  0.6339
 5587SOL    HW228224   0.556   4.360   7.134 -0.0286  1.7101  0.8552
 5588SOL     OW28225   0.772   0.451   6.247  0.2027 -0.3800 -0.4130
 5588SOL    HW128226   0.742   0.538   6.222 -2.9864 -1.1165  0.8196
 5588SOL    HW228227   0.693   0.413   6.287 -1.1811  2.5883 -0.3328
 5589SOL     OW28228   4.520   3.218   4.244 -0.5273  0.3572  0.1546
 5589SOL    HW128229   4.563   3.298   4.214  0.5073 -0.1541  0.2633
 5589SOL    HW228230   4.576   3.153   4.202 -0.3091  0.1254  0.8042
 5590SOL     OW28231   4.701   3.908  11.920 -0.7892  0.6724 -0.6694
 5590SOL    HW128232   4.641   3.904  11.845 -0.3154  2.1795 -1.1289
 5590SOL    HW228233   4.707   4.003  11.913  2.4960  0.5781  0.8004
 5591SOL     OW28234   4.268   0.637  13.644 -0.3114 -0.2960  0.1562
 5591SOL    HW128235   4.268   0.541  13.636 -0.9114 -0.4129  1.5913
 5591SOL    HW228236   4.226   0.662  13.561  1.0138 -2.1132 -1.0709
 5592SOL     OW28237   3.144   4.648   3.197  0.1133  0.1916 -0.0517
 5592SOL    HW128238   3.238   4.636   3.193 -0.0433 -0.6434 -0.9735
 5592SOL    HW228239   3.117   4.608   3.280  1.2149 -0.1085  0.1611
 5593SOL     OW28240   0.742   3.185   2.404  0.2033 -0.0609  0.1234
 5593SOL    HW128241   0.827   3.192   2.447 -0.5953 -0.0371  1.7166
 5593SOL    HW228242   0.723   3.092   2.417  0.4046  0.0529  1.2342
 5594SOL     OW28243   2.093   2.503  11.213 -0.3789 -0.4373  0.6474
 5594SOL    HW128244   2.156   2.447  11.258  1.1296  1.6901  1.1606
 5594SOL    HW228245   2.008   2.476  11.249 -0.8928 -0.3598 -0.4935
 5595SOL     OW28246   3.632   4.459  11.618  0.5520  0.1543 -0.4339
 5595SOL    HW128247   3.619   4.553  11.621 -1.9291 -0.2380  1.0355
 5595SOL    HW228248   3.539   4.434  11.625  0.6592 -0.1948 -0.2685
 5596SOL     OW28249   3.482   0.419   6.028 -0.1207 -0.1065 -0.0325
 5596SOL    HW128250   3.390   0.429   6.052 -0.6626 -1.1976 -1.5999
 5596SOL    HW228251   3.525   0.479   6.088 -2.5431  0.4730  1.0911
 5597SOL     OW28252   4.068   2.505   5.205 -0.1659  0.4942  0.3334
 5597SOL    HW128253   4.063   2.596   5.177  2.0218  1.1415  2.0683
 5597SOL    HW228254   4.118   2.463   5.134  0.6732  0.8614  0.7118
 5598SOL     OW28255   2.753   0.545   7.046 -0.0172  0.0010  0.1375
 5598SOL    HW128256   2.703   0.485   6.990 -0.4195 -0.4661  0.9847
 5598SOL    HW228257   2.813   0.580   6.980 -2.5771  1.0355 -1.6272
 5599SOL     OW28258   3.639   0.431   8.392  0.1463  0.4624  0.6117
 5599SOL    HW128259   3.583   0.391   8.326  1.0058 -1.1316  0.8378
 5599SOL    HW228260   3.614   0.386   8.472  0.1224 -2.7120 -1.1928
 5600SOL     OW28261   0.096   3.006  12.997 -0.4367 -0.6501  0.6039
 5600SOL    HW128262   0.110   2.918  12.962  2.9919  1.0595 -2.3112
 5600SOL    HW228263   0.169   3.014  13.058  0.2502 -0.2772 -0.2648
 5601SOL     OW28264   1.065   2.849   8.246 -0.4814 -0.0805  0.3920
 5601SOL    HW128265   1.055   2.768   8.197 -1.4679 -0.0062  0.4663
 5601SOL    HW228266   1.028   2.914   8.186  3.0069  0.6899 -0.9466
 5602SOL     OW28267   4.185   3.929   6.937  0.4209 -0.4394 -0.1990
 5602SOL    HW128268   4.243   3.995   6.899  1.2411 -1.2720 -0.3627
 5602SOL    HW228269   4.144   3.892   6.859  1.5026  0.8644 -1.3669
 5603SOL     OW28270   1.277   0.663   4.595 -0.4733 -0.2268  0.0040
 5603SOL    HW128271   1.198   0.715   4.604  0.0804  0.8494 -1.3220
 5603SOL    HW228272   1.348   0.720   4.565  2.1971 -1.2834  4.3679
 5604SOL     OW28273   3.640   4.619   3.595 -0.1801 -0.4641 -0.9694
 5604SOL    HW128274   3.646   4.532   3.635 -0.3531 -0.6394 -1.3146
 5604SOL    HW228275   3.558   4.646   3.637 -0.8168 -0.1187 -2.4290
 5605SOL     OW28276   2.784   2.968  14.567  0.0163 -0.4710  0.1553
 5605SOL    HW128277   2.795   2.942  14.476 -0.3926 -2.2760  0.6109
 5605SOL    HW228278   2.734   2.895  14.604  0.6595 -0.2103  1.5564
 5606SOL     OW28279   4.504   3.695   3.494  0.2067 -0.6713  0.1522
 5606SOL    HW128280   4.449   3.703   3.416  0.5370  1.7184  0.1790
 5606SOL    HW228281   4.569   3.764   3.486  0.3406 -0.7412  0.6241
 5607SOL     OW28282   4.301   1.434   0.668  0.3988  0.6760 -0.2420
 5607SOL    HW128283   4.331   1.347   0.643  0.4060  0.1351  1.6326
 5607SOL    HW228284   4.301   1.480   0.584 -1.7422  0.7963 -0.1740
 5608SOL     OW28285   4.324   3.772   6.578  0.3315  0.1532 -0.0210
 5608SOL    HW128286   4.418   3.753   6.576  0.3057  0.1654 -1.9159
 5608SOL    HW228287   4.297   3.708   6.511 -0.8618 -0.1671  0.7786
 5609SOL     OW28288   1.447   4.573   7.018  0.1900 -0.4607  0.4759
 5609SOL    HW128289   1.432   4.500   7.078  0.7825  1.4294  2.9117
 5609SOL    HW228290   1.540   4.562   6.998 -0.2678 -1.1126 -1.3213
 5610SOL     OW28291   1.474   1.560  13.185  0.5249 -0.1970 -0.2151
 5610SOL    HW128292   1.568   1.558  13.203  0.7047  4.1227 -0.5909
 5610SOL    HW228293   1.477   1.630  13.119  0.2409  0.2524  0.2458
 5611SOL     OW28294   1.842   3.714   5.261  0.2272 -0.1844 -0.0323
 5611SOL    HW128295   1.823   3.629   5.300 -1.9142  0.4562  0.3312
 5611SOL    HW228296   1.817   3.773   5.332  1.1992 -2.5990  2.3255
 5612SOL     OW28297   0.210   1.407   3.166  0.2098  0.0516  0.0944
 5612SOL    HW128298   0.287   1.404   3.110  0.2602 -1.0009  0.2362
 5612SOL    HW228299   0.170   1.494   3.152  0.7327 -0.0372 -1.8955
 5613SOL     OW28300   4.102   2.689   7.413 -0.1625  0.1046  0.0246
 5613SOL    HW128301   4.088   2.781   7.434  1.9128  0.8805 -1.9044
 5613SOL    HW228302   4.156   2.660   7.486  1.8139 -0.6320 -1.6898
 5614SOL     OW28303   2.684   4.485   4.707  0.1564 -0.4734  0.0768
 5614SOL    HW128304   2.717   4.398   4.726  0.1039 -0.2128  1.3415
 5614SOL    HW228305   2.674   4.518   4.796 -0.0306  0.0848 -0.1461
 5615SOL     OW28306   2.647   1.895   2.858 -0.3699  0.0375  0.1010
 5615SOL    HW128307   2.690   1.902   2.773 -1.9107 -0.7300 -0.7348
 5615SOL    HW228308   2.554   1.898   2.835 -0.0118  1.8001 -1.1680
 5616SOL     OW28309   1.955   1.953  12.561 -0.5065  0.4530  0.3048
 5616SOL    HW128310   1.987   1.925  12.475 -2.0492  0.5066 -0.2754
 5616SOL    HW228311   2.008   1.900  12.621  0.5586 -0.2872 -1.2603
 5617SOL     OW28312   0.085   4.561   5.666 -0.1837 -0.7499 -0.1046
 5617SOL    HW128313   0.017   4.627   5.680  0.0786 -0.0296 -2.2779
 5617SOL    HW228314   0.038   4.489   5.624 -1.0835 -0.8128  1.0128
 5618SOL     OW28315   0.855   1.638   1.681  0.3336  0.0775  0.3439
 5618SOL    HW128316   0.940   1.606   1.711  0.5437 -1.1028 -1.5395
 5618SOL    HW228317   0.806   1.556   1.679  1.8796 -0.8614  1.6700
 5619SOL     OW28318   2.172   4.557  13.677  0.0272  0.5050  0.0051
 5619SOL    HW128319   2.174   4.653  13.680 -1.0647  0.6019 -1.7835
 5619SOL    HW228320   2.261   4.546  13.644  0.3319  0.7219  0.7560
 5620SOL     OW28321   0.490   1.559   7.064  0.3989  0.4557 -0.5868
 5620SOL    HW128322   0.465   1.633   7.119  1.5146  1.4390 -1.3965
 5620SOL    HW228323   0.520   1.610   6.989  0.8411 -0.7614 -1.2388
 5621SOL     OW28324   2.278   1.508   8.003 -0.3419  0.1625 -0.2595
 5621SOL    HW128325   2.338   1.569   8.046 -2.2639 -0.0552  2.7864
 5621SOL    HW228326   2.203   1.561   7.977  0.2251 -0.2544 -2.6953
 5622SOL     OW28327   2.089   2.162  17.066 -0.1865  0.4116  0.4822
 5622SOL    HW128328   2.015   2.106  17.044  0.8045 -1.7504  2.6985
 5622SOL    HW228329   2.140   2.165  16.985 -0.2354  0.0628  0.4406
 5623SOL     OW28330   1.589   3.766   0.740  0.4446  0.1137 -0.3579
 5623SOL    HW128331   1.663   3.803   0.693 -0.4865  1.3382 -0.8574
 5623SOL    HW228332   1.523   3.762   0.671  0.0823 -0.1208  0.0005
 5624SOL     OW28333   4.020   2.058   4.857 -0.7073 -0.3506 -0.4828
 5624SOL    HW128334   4.012   2.119   4.784 -0.6663  3.4394  2.6988
 5624SOL    HW228335   4.088   2.090   4.917 -0.7045 -0.0788 -0.6292
 5625SOL     OW28336   1.821   2.148   3.286  0.0897  0.0350  0.3058
 5625SOL    HW128337   1.829   2.241   3.264 -1.4000  0.1183  0.1215
 5625SOL    HW228338   1.725   2.147   3.290  0.0692 -1.5803 -0.9838
 5626SOL     OW28339   0.490   1.714   7.536  0.1957  0.6056  0.2649
 5626SOL    HW128340   0.441   1.689   7.615 -1.5190 -0.1095 -1.0158
 5626SOL    HW228341   0.477   1.809   7.529 -0.2349  0.5113 -0.2137
 5627SOL     OW28342   3.736   2.024   7.979  0.0988 -0.2857  0.0656
 5627SOL    HW128343   3.733   1.992   8.069  2.5393 -0.5862  0.0428
 5627SOL    HW228344   3.680   2.100   7.996  0.6319  0.2615 -0.6285
 5628SOL     OW28345   1.863   0.535   0.393 -0.3688 -0.0104 -0.0913
 5628SOL    HW128346   1.849   0.621   0.352 -0.9615 -0.1042 -0.0906
 5628SOL    HW228347   1.842   0.549   0.485 -0.4991  0.1770 -0.1495
 5629SOL     OW28348   2.567   2.331   3.246  0.2623  0.2861 -0.5635
 5629SOL    HW128349   2.511   2.374   3.182 -0.0425 -1.2827 -1.3436
 5629SOL    HW228350   2.596   2.258   3.193 -0.8994 -1.0144  0.6025
 5630SOL     OW28351   2.811   1.003   6.121 -0.0909  0.6516  0.0332
 5630SOL    HW128352   2.846   0.935   6.064 -0.6646 -0.3164  0.8446
 5630SOL    HW228353   2.886   1.063   6.115 -0.1361  0.7256  0.2007
 5631SOL     OW28354   0.810   2.337   4.392 -0.0412  0.1599 -0.3189
 5631SOL    HW128355   0.803   2.349   4.297 -2.6351 -1.1089 -0.2893
 5631SOL    HW228356   0.723   2.364   4.422 -0.3381  1.3618 -2.2417
 5632SOL     OW28357   4.229   0.017  15.277  0.3086  0.6739  1.0807
 5632SOL    HW128358   4.168   0.011  15.203 -0.6630  1.3942  1.8257
 5632SOL    HW228359   4.172   0.057  15.342 -0.4215 -0.3640  1.0785
 5633SOL     OW28360   3.181   0.230  12.288 -0.0474  0.0277  0.1790
 5633SOL    HW128361   3.097   0.250  12.330 -0.0893 -1.3717  0.7355
 5633SOL    HW228362   3.155   0.253  12.198  0.4141 -1.1404 -0.2444
 5634SOL     OW28363   3.436   0.957   2.958 -0.2567 -0.4169 -0.3939
 5634SOL    HW128364   3.408   0.916   2.876 -1.0001 -0.8268  0.0575
 5634SOL    HW228365   3.507   0.903   2.993 -0.5307  0.3086  1.2794
 5635SOL     OW28366   4.458   2.200  16.831  0.5570  0.0185  0.0728
 5635SOL    HW128367   4.495   2.112  16.829 -0.6598 -0.5059  0.1958
 5635SOL    HW228368   4.385   2.185  16.770  0.9890  0.7297 -0.6076
 5636SOL     OW28369   3.864   2.982   5.049 -0.3851 -0.1922 -0.2977
 5636SOL    HW128370   3.891   3.030   4.971  1.4057  1.3337  1.2722
 5636SOL    HW228371   3.783   2.937   5.025 -0.8760  0.8186 -0.4963
 5637SOL     OW28372   1.557   0.514   3.507  0.3094  0.0571 -0.4660
 5637SOL    HW128373   1.592   0.602   3.496 -0.5842  0.2113 -2.0923
 5637SOL    HW228374   1.556   0.508   3.603 -4.0252  0.4801 -0.4997
 5638SOL     OW28375   3.461   2.195  16.525  0.5640  0.3219 -0.0948
 5638SOL    HW128376   3.448   2.288  16.510  0.2267  0.5917  1.8387
 5638SOL    HW228377   3.503   2.165  16.445 -0.0683 -2.3938  0.5638
 5639SOL     OW28378   0.964   3.596   0.313 -0.5496  0.1604  0.3539
 5639SOL    HW128379   0.987   3.668   0.372  1.9548 -1.2678  1.1179
 5639SOL    HW228380   1.004   3.523   0.360 -1.7994  0.1185  1.3576
 5640SOL     OW28381   1.793   4.699  15.140  0.0136  0.1506  0.3659
 5640SOL    HW128382   1.882   4.716  15.168  0.5547  0.4521 -1.5403
 5640SOL    HW228383   1.745   4.716  15.221 -0.4321 -1.5017  0.4550
 5641SOL     OW28384   2.503   0.758   5.243  0.3441 -0.3743  0.4297
 5641SOL    HW128385   2.488   0.773   5.150  0.1610  1.7444  0.7985
 5641SOL    HW228386   2.526   0.846   5.273 -0.3153  1.3572 -4.1066
 5642SOL     OW28387   2.475   0.990  17.591  0.0362 -0.0314  0.2180
 5642SOL    HW128388   2.517   1.066  17.551 -1.2379 -0.2567 -1.5360
 5642SOL    HW228389   2.475   1.010   0.001 -0.1425 -0.0486  0.2221
 5643SOL     OW28390   2.485   1.179   2.261 -0.1574  0.0310 -0.4367
 5643SOL    HW128391   2.563   1.138   2.298 -1.2210 -0.3848  1.3142
 5643SOL    HW228392   2.427   1.104   2.271  0.8733 -0.6788  0.2082
 5644SOL     OW28393   4.682   4.664   7.947  0.7994 -0.0894  0.2182
 5644SOL    HW128394   4.699   4.577   7.911  1.3698 -0.2889  0.9668
 5644SOL    HW228395   4.590   4.653   7.970  1.1696 -0.8290  1.3305
 5645SOL     OW28396   0.267   4.691   2.596  0.3648  0.3908  0.1122
 5645SOL    HW128397   0.273   4.688   2.501  0.3039 -1.4664  0.1629
 5645SOL    HW228398   0.330   4.623   2.619  1.7309  1.3100 -0.9515
 5646SOL     OW28399   2.007   2.534   2.356 -0.0112  0.0015  0.4930
 5646SOL    HW128400   1.918   2.502   2.366  0.4358 -1.6031 -0.5748
 5646SOL    HW228401   2.015   2.598   2.426  1.8362 -0.2580  0.5223
 5647SOL     OW28402   3.402   0.208  15.773  0.2089 -0.1227 -0.2283
 5647SOL    HW128403   3.454   0.195  15.693 -1.5227 -1.8768 -1.0602
 5647SOL    HW228404   3.316   0.238  15.745 -0.0684 -1.7440 -1.1430
 5648SOL     OW28405   0.672   0.186  10.055  0.0200  0.2001 -0.8713
 5648SOL    HW128406   0.700   0.277  10.064  1.3415 -0.3464  0.4891
 5648SOL    HW228407   0.729   0.146   9.990  0.4942 -0.0440 -0.3007
 5649SOL     OW28408   3.919   1.504   5.794 -0.0592 -0.2380  0.4992
 5649SOL    HW128409   3.981   1.531   5.861  0.8304  0.1942 -0.4980
 5649SOL    HW228410   3.982   1.472   5.730 -0.2981 -1.7398  1.0222
 5650SOL     OW28411   3.405   4.354   9.162 -0.2280 -0.1021  0.4243
 5650SOL    HW128412   3.411   4.445   9.189 -1.7655 -0.1052  0.7284
 5650SOL    HW228413   3.500   4.343   9.156 -0.2140 -0.5994  1.5373
 5651SOL     OW28414   4.541   3.357  13.800  0.3976 -0.0984 -0.1659
 5651SOL    HW128415   4.599   3.281  13.789  1.6590  0.6075  1.6627
 5651SOL    HW228416   4.606   3.428  13.808 -0.8735  1.0020  0.3448
 5652SOL     OW28417   4.600   4.321   6.001  0.5989 -0.8534  0.1563
 5652SOL    HW128418   4.616   4.415   6.004 -0.8079 -0.6573  1.3877
 5652SOL    HW228419   4.518   4.320   5.952 -1.0570  0.7659  2.8883
 5653SOL     OW28420   0.689   0.904   4.842  0.2016 -0.5013 -0.0071
 5653SOL    HW128421   0.658   0.916   4.931 -0.0011 -0.5477 -0.0688
 5653SOL    HW228422   0.772   0.861   4.861 -0.9175 -2.0825  1.3756
 5654SOL     OW28423   1.147   2.513   8.112  0.6148  0.5661 -0.0513
 5654SOL    HW128424   1.082   2.583   8.111  0.1798  0.1655 -0.0655
 5654SOL    HW228425   1.226   2.558   8.082 -0.0824  2.8959  1.6314
 5655SOL     OW28426   1.483   0.598  10.256 -0.3925 -0.1245  0.1214
 5655SOL    HW128427   1.480   0.584  10.161  0.5303  1.3018 -0.1283
 5655SOL    HW228428   1.504   0.512  10.292 -1.2184  0.6273  2.4234
 5656SOL     OW28429   3.171   0.709   6.959  0.0233 -0.2109 -0.0364
 5656SOL    HW128430   3.234   0.772   6.994  1.8724 -3.1459  1.9099
 5656SOL    HW228431   3.148   0.748   6.874  1.8716 -0.8547 -0.8271
 5657SOL     OW28432   2.551   3.666  11.757 -0.2781 -0.3917  0.4463
 5657SOL    HW128433   2.613   3.627  11.695 -0.6922 -2.1114  1.0919
 5657SOL    HW228434   2.572   3.757  11.735  0.2449 -1.1305 -2.1557
 5658SOL     OW28435   1.827   1.613  12.049 -0.1001  0.4766 -0.1862
 5658SOL    HW128436   1.792   1.524  12.042  2.0042 -0.3367 -0.1542
 5658SOL    HW228437   1.919   1.589  12.041 -1.0745 -2.2407 -3.5848
 5659SOL     OW28438   2.325   0.446  12.668 -0.2945  0.0088  0.0988
 5659SOL    HW128439   2.376   0.411  12.742 -0.4644 -1.6673 -0.5841
 5659SOL    HW228440   2.365   0.387  12.604 -1.2692 -0.1962 -0.3147
 5660SOL     OW28441   2.345   4.333   2.168  0.0242  0.5667  0.3694
 5660SOL    HW128442   2.335   4.326   2.263 -0.8201 -1.7960  0.1098
 5660SOL    HW228443   2.419   4.392   2.153  1.3219 -0.9692  0.8112
 5661SOL     OW28444   1.585   2.836  11.338  0.3843  0.4371  0.6631
 5661SOL    HW128445   1.628   2.914  11.302 -1.3657  2.0946  2.1226
 5661SOL    HW228446   1.503   2.868  11.376 -0.9410 -0.7179 -1.1839
 5662SOL     OW28447   3.447   0.051   4.035  0.0691  0.6776 -0.1445
 5662SOL    HW128448   3.522   0.065   4.092  0.5648 -0.1545 -0.5822
 5662SOL    HW228449   3.372   0.033   4.092  0.3832 -2.8420 -0.8333
 5663SOL     OW28450   0.796   1.278   4.745 -0.4526 -0.0356 -0.0044
 5663SOL    HW128451   0.870   1.260   4.688  0.3413 -0.6691  1.2300
 5663SOL    HW228452   0.725   1.222   4.715 -2.1256  1.8389  0.4092
 5664SOL     OW28453   0.818   3.547   4.012  0.0342 -0.9267  0.2994
 5664SOL    HW128454   0.838   3.515   4.100  0.0839  0.6702  0.8762
 5664SOL    HW228455   0.887   3.614   4.012 -1.6530  0.8200  0.6417
 5665SOL     OW28456   4.328   3.300  10.424 -0.7590 -0.3919  0.4233
 5665SOL    HW128457   4.323   3.215  10.380  2.1244 -0.7368  0.7471
 5665SOL    HW228458   4.271   3.353  10.368  2.5820  2.8392  0.0799
 5666SOL     OW28459   1.662   1.121  17.068 -0.1580  0.1547  0.4867
 5666SOL    HW128460   1.686   1.147  16.980 -0.1703  0.9354  0.7204
 5666SOL    HW228461   1.648   1.202  17.116  2.8923  1.4287 -0.8238
 5667SOL     OW28462   3.142   4.499   0.645 -0.1606  0.5883  0.5497
 5667SOL    HW128463   3.234   4.471   0.642 -0.3491  0.0304 -0.2789
 5667SOL    HW228464   3.124   4.567   0.580  1.0600  0.2659 -0.1338
 5668SOL     OW28465   0.318   4.608   7.227 -0.2840  0.4121 -0.0779
 5668SOL    HW128466   0.348   4.681   7.173 -0.7393  1.8976  1.6574
 5668SOL    HW228467   0.313   4.537   7.163  0.0704  2.5975 -2.5749
 5669SOL     OW28468   0.517   0.742   8.507 -0.2038 -0.0218 -0.1483
 5669SOL    HW128469   0.507   0.680   8.434 -1.9597  1.5627 -1.2422
 5669SOL    HW228470   0.609   0.719   8.519  0.7928  2.2566 -3.4897
 5670SOL     OW28471   1.819   3.767   6.407  0.4964 -0.0328  0.2215
 5670SOL    HW128472   1.780   3.849   6.437  0.7612  0.7718 -1.5929
 5670SOL    HW228473   1.872   3.801   6.334  0.5277  2.2565  1.3172
 5671SOL     OW28474   2.156   3.268   6.373  0.3833  0.2145 -0.1420
 5671SOL    HW128475   2.119   3.279   6.460 -2.1286 -2.2372 -0.8867
 5671SOL    HW228476   2.233   3.324   6.378 -0.7027  1.7523 -0.8353
 5672SOL     OW28477   4.639   3.712   8.261  0.2891 -0.3278 -0.2637
 5672SOL    HW128478   4.648   3.617   8.267  1.0828 -0.3204 -1.5493
 5672SOL    HW228479   0.009   3.741   8.250 -0.0339 -0.2975 -2.7496
 5673SOL     OW28480   0.317   3.017   6.597 -0.0574 -0.7811 -0.1295
 5673SOL    HW128481   0.289   2.994   6.685 -0.9248  0.4326 -0.0876
 5673SOL    HW228482   0.256   2.959   6.550 -0.2292  0.2906 -1.2363
 5674SOL     OW28483   0.610   4.243   0.987 -0.5711  0.2626  0.6224
 5674SOL    HW128484   0.588   4.289   0.906  0.6307 -1.7654 -0.8856
 5674SOL    HW228485   0.643   4.315   1.040  0.5762  0.6824 -0.6467
 5675SOL     OW28486   0.008   3.070   2.204 -0.6025  0.3312  0.2983
 5675SOL    HW128487   4.698   2.980   2.218 -1.3208  0.7703  1.5120
 5675SOL    HW228488   0.069   3.071   2.130 -0.4040 -1.6048  0.4371
 5676SOL     OW28489   1.048   0.931  17.311 -0.5909  0.1069 -0.3574
 5676SOL    HW128490   1.093   0.950  17.393  0.2193  1.6093 -1.1527
 5676SOL    HW228491   1.049   1.016  17.269  0.7640  0.3320  0.1270
 5677SOL     OW28492   4.401   0.233   8.534  0.3879  0.0929  0.0674
 5677SOL    HW128493   4.399   0.176   8.611  1.4372  0.8466  0.6483
 5677SOL    HW228494   4.312   0.232   8.500  1.3879 -1.8598 -2.5801
 5678SOL     OW28495   0.862   3.170  12.229 -0.4853  0.0248  0.3673
 5678SOL    HW128496   0.807   3.185  12.306  1.3247 -0.7548  1.8222
 5678SOL    HW228497   0.796   3.123  12.178  0.2845 -1.3690  0.6311
 5679SOL     OW28498   1.861   2.473  12.584  0.1808  0.2799  0.1620
 5679SOL    HW128499   1.880   2.386  12.619 -3.3069 -0.4116  0.3495
 5679SOL    HW228500   1.833   2.452  12.495  1.4178  0.0896 -0.1781
 5680SOL     OW28501   1.772   3.715   0.967  0.0195  0.2582  0.4469
 5680SOL    HW128502   1.688   3.713   0.921  0.7505  0.7121 -0.8957
 5680SOL    HW228503   1.836   3.729   0.897 -0.7972 -1.0199 -0.5651
 5681SOL     OW28504   0.986   0.343   6.392 -0.0258  0.1293 -0.7795
 5681SOL    HW128505   1.056   0.362   6.330 -0.7818 -1.8701 -2.2439
 5681SOL    HW228506   0.922   0.406   6.360  0.7385  0.8826 -0.8487
 5682SOL     OW28507   1.338   3.013   6.741  0.1735  0.4231  0.5769
 5682SOL    HW128508   1.390   2.938   6.712 -0.2851 -0.3314  1.6885
 5682SOL    HW228509   1.389   3.093   6.737  0.1564  0.3974 -0.1638
 5683SOL     OW28510   3.025   4.506   3.961 -0.1866  0.0165  0.2218
 5683SOL    HW128511   3.083   4.470   3.894 -0.5526 -0.4131  0.1408
 5683SOL    HW228512   2.981   4.429   3.994 -0.4511 -0.1126 -0.4379
 5684SOL     OW28513   3.192   3.101   5.303  0.3946  0.3498 -0.0774
 5684SOL    HW128514   3.111   3.077   5.347  0.4879  2.0789  1.0165
 5684SOL    HW228515   3.219   3.180   5.349 -0.2383 -0.2085  1.2366
 5685SOL     OW28516   0.733   3.604   4.297  0.0922  0.3157 -0.0699
 5685SOL    HW128517   0.734   3.693   4.332 -0.0192  0.7986 -1.3111
 5685SOL    HW228518   0.668   3.607   4.228 -0.4664  1.3423  0.5111
 5686SOL     OW28519   3.078   4.438   2.997 -0.1963 -0.0158  0.3519
 5686SOL    HW128520   3.111   4.365   3.050 -1.2744 -0.8037 -0.0432
 5686SOL    HW228521   3.081   4.497   3.072 -1.7511  0.8409 -0.2490
 5687SOL     OW28522   1.836   2.468  11.311 -0.0003  0.4151  0.6459
 5687SOL    HW128523   1.812   2.379  11.286 -1.7332  1.1787 -0.3811
 5687SOL    HW228524   1.791   2.478  11.396  0.1621 -0.6592  0.8590
 5688SOL     OW28525   1.433   2.549   4.527 -0.1166 -0.0183 -0.5204
 5688SOL    HW128526   1.416   2.544   4.433  0.7992 -1.5078 -0.6031
 5688SOL    HW228527   1.446   2.458   4.553 -0.0549  0.1205 -0.0690
 5689SOL     OW28528   3.200   0.266   5.179  0.6859  0.1321 -0.3178
 5689SOL    HW128529   3.119   0.216   5.190 -0.0789  1.6004  0.7185
 5689SOL    HW228530   3.259   0.195   5.154  0.3310 -0.7940  1.4767
 5690SOL     OW28531   1.781   0.714   2.956  0.1128 -0.1541  0.1030
 5690SOL    HW128532   1.770   0.808   2.971  0.4884  0.4085 -2.9879
 5690SOL    HW228533   1.814   0.723   2.866 -0.9772 -0.8889 -0.3688
 5691SOL     OW28534   3.125   1.290   7.008 -0.4601  0.0260  0.0854
 5691SOL    HW128535   3.078   1.369   6.982  2.7837  1.4624 -1.3699
 5691SOL    HW228536   3.186   1.324   7.072  2.4324 -0.0019 -2.6537
 5692SOL     OW28537   2.928   4.458   9.141  0.3038  0.0574 -0.4839
 5692SOL    HW128538   2.884   4.494   9.218 -0.4576  0.6602 -1.1995
 5692SOL    HW228539   2.866   4.445   9.069 -0.6802  2.1600 -0.0029
 5693SOL     OW28540   2.968   4.447  12.480 -0.0843  0.3100  0.1335
 5693SOL    HW128541   3.040   4.447  12.543  0.1472  0.0886 -0.1264
 5693SOL    HW228542   2.996   4.365  12.438 -1.7405 -0.5004  0.6132
 5694SOL     OW28543   0.583   3.555   0.804 -0.2175 -0.5109  0.4278
 5694SOL    HW128544   0.606   3.629   0.860 -1.1521  0.0685  0.0361
 5694SOL    HW228545   0.525   3.595   0.740  1.2278  2.8636  1.2360
 5695SOL     OW28546   1.724   1.703   6.875  0.1313 -0.7666 -0.5297
 5695SOL    HW128547   1.668   1.626   6.884 -0.4855  0.0512  2.5340
 5695SOL    HW228548   1.813   1.669   6.876  1.2683  2.1113 -1.9405
 5696SOL     OW28549   3.126   2.535   0.438  0.6940  0.4324  0.0601
 5696SOL    HW128550   3.033   2.523   0.459  0.7514 -0.7605 -0.4161
 5696SOL    HW228551   3.161   2.503   0.522 -2.5865 -1.8249  0.5564
 5697SOL     OW28552   2.638   2.961   3.439 -0.0624  0.4653  0.8889
 5697SOL    HW128553   2.636   3.050   3.404  1.5030 -0.1159 -0.6776
 5697SOL    HW228554   2.543   2.948   3.431  0.4844 -2.2086 -1.2370
 5698SOL     OW28555   3.390   3.721   3.255 -0.0397 -0.2048 -0.2796
 5698SOL    HW128556   3.376   3.638   3.210 -0.4774  0.3535 -1.1660
 5698SOL    HW228557   3.483   3.713   3.277 -0.8155 -1.6280  2.4995
 5699SOL     OW28558   2.503   4.527   1.836  0.3736  0.1758  0.3133
 5699SOL    HW128559   2.457   4.480   1.767  0.8052  2.0860 -1.2849
 5699SOL    HW228560   2.585   4.541   1.788 -0.4310 -2.3602 -1.7901
 5700SOL     OW28561   1.558   4.226  16.355  0.6575 -0.1129 -0.4337
 5700SOL    HW128562   1.602   4.303  16.319 -0.4763  1.1711  0.9202
 5700SOL    HW228563   1.524   4.182  16.277 -1.8405  1.2617 -0.0998
 5701SOL     OW28564   1.512   4.231  15.791 -0.1473 -0.0925  0.1296
 5701SOL    HW128565   1.437   4.191  15.745  0.8298 -1.9951  0.1844
 5701SOL    HW228566   1.477   4.308  15.836 -1.0071 -0.9144  0.8771
 5702SOL     OW28567   3.749   3.443   2.017  0.5973  0.2800 -0.3379
 5702SOL    HW128568   3.759   3.351   1.992  0.0518  0.0378  0.3380
 5702SOL    HW228569   3.822   3.457   2.077 -0.3262  0.5323  0.7328
 5703SOL     OW28570   1.405   1.041  11.131 -0.0625  0.2339 -0.0936
 5703SOL    HW128571   1.491   1.080  11.146 -0.6224  2.1191 -1.7233
 5703SOL    HW228572   1.375   1.035  11.221  2.7306  0.9975  0.8760
 5704SOL     OW28573   4.463   1.261  10.178 -0.5662  0.6147  0.4474
 5704SOL    HW128574   4.377   1.253  10.136 -0.0332 -1.2779 -0.2674
 5704SOL    HW228575   4.450   1.341  10.229 -3.4105 -0.1483  0.9181
 5705SOL     OW28576   1.392   1.026   1.879  0.3276  0.1576  0.3441
 5705SOL    HW128577   1.349   0.941   1.864  0.0321  0.1386  1.2803
 5705SOL    HW228578   1.357   1.063   1.797 -2.8296 -0.6612  1.3014
 5706SOL     OW28579   0.576   2.642   5.680  0.1256  0.3777  0.1563
 5706SOL    HW128580   0.570   2.712   5.746 -0.2419  0.0063  0.5141
 5706SOL    HW228581   0.519   2.680   5.613  0.1292  0.4615  0.2006
 5707SOL     OW28582   3.841   0.433  14.340 -0.0855 -0.9018 -0.5372
 5707SOL    HW128583   3.931   0.440  14.371  0.5767  2.6887 -3.3102
 5707SOL    HW228584   3.818   0.525  14.341 -1.5529 -1.2776  0.3550
 5708SOL     OW28585   2.319   2.269  14.777 -0.1228  0.4200  0.4028
 5708SOL    HW128586   2.351   2.209  14.844  1.6229  0.1819 -0.6438
 5708SOL    HW228587   2.323   2.353  14.823  0.8610  1.4924 -1.6544
 5709SOL     OW28588   0.914   4.711   6.283 -0.3676 -0.8676 -0.4097
 5709SOL    HW128589   0.840   0.049   6.299 -0.4157 -1.2800  0.9128
 5709SOL    HW228590   0.866   4.643   6.236 -0.1768 -0.4943 -1.1503
 5710SOL     OW28591   1.883   0.854   3.878  0.1451  0.2117 -0.0600
 5710SOL    HW128592   1.925   0.924   3.828  0.7370 -0.3277 -0.3181
 5710SOL    HW228593   1.961   0.821   3.924 -1.3834 -2.0492  0.9031
 5711SOL     OW28594   4.469   1.350   7.926  0.0801 -0.2698  0.3960
 5711SOL    HW128595   4.407   1.295   7.878  1.1420 -0.4623 -0.7613
 5711SOL    HW228596   4.496   1.400   7.849 -1.5995  3.5426  2.2619
 5712SOL     OW28597   0.386   3.419   2.984 -0.0914 -0.7750  0.6726
 5712SOL    HW128598   0.454   3.445   2.921 -1.3231 -0.6827 -0.6097
 5712SOL    HW228599   0.376   3.498   3.038 -2.6125 -1.3261  0.9876
 5713SOL     OW28600   2.275   0.091   3.441  0.5218 -0.3310 -0.3694
 5713SOL    HW128601   2.363   0.083   3.477  1.1354  1.9423 -1.3688
 5713SOL    HW228602   2.286   0.164   3.380  0.2599 -0.7323 -0.9066
 5714SOL     OW28603   1.324   3.751   9.831  0.0698 -0.9093 -0.2232
 5714SOL    HW128604   1.376   3.700   9.769  2.1937  2.5534 -1.3036
 5714SOL    HW228605   1.307   3.682   9.895  0.7246 -1.3791 -0.5502
 5715SOL     OW28606   2.712   1.072   7.865  0.1502 -0.5201 -0.0827
 5715SOL    HW128607   2.700   1.113   7.779 -2.5677 -1.0300  0.0521
 5715SOL    HW228608   2.748   0.987   7.842 -0.7475 -1.2827  1.3361
 5716SOL     OW28609   2.222   3.260  11.960 -0.4471  0.3906  0.4875
 5716SOL    HW128610   2.172   3.194  12.008 -0.3788 -0.3527 -0.4735
 5716SOL    HW228611   2.204   3.333  12.020 -0.5225  0.2292  0.6580
 5717SOL     OW28612   2.679   3.602   2.749  0.1154 -0.7206  0.2803
 5717SOL    HW128613   2.737   3.559   2.686  2.7209 -1.5945  3.2726
 5717SOL    HW228614   2.683   3.693   2.718 -1.7612 -0.1301  1.7908
 5718SOL     OW28615   3.926   1.770   6.299 -0.2953  0.2483  0.5331
 5718SOL    HW128616   3.981   1.847   6.314  0.7163 -0.4593  0.5022
 5718SOL    HW228617   3.850   1.815   6.262 -0.8490 -0.2185  1.1319
 5719SOL     OW28618   0.991   2.281  10.967 -0.3760  0.6844  0.8546
 5719SOL    HW128619   0.934   2.342  10.920  1.3893  2.3487  0.8538
 5719SOL    HW228620   0.941   2.263  11.047 -1.6047 -2.5738 -0.6616
 5720SOL     OW28621   1.217   1.727   9.500  0.1287  0.3492  1.0805
 5720SOL    HW128622   1.207   1.721   9.405  0.0333  0.9622  1.0517
 5720SOL    HW228623   1.125   1.726   9.523 -0.2011 -0.5695 -0.2747
 5721SOL     OW28624   1.483   4.125   8.423 -0.5384 -0.2210  0.3559
 5721SOL    HW128625   1.395   4.161   8.416 -0.4022  0.0255 -0.0355
 5721SOL    HW228626   1.541   4.198   8.443 -0.4620 -1.2840  4.0313
 5722SOL     OW28627   4.676   0.341  10.556 -0.4476  0.0848  0.0641
 5722SOL    HW128628   0.003   0.361  10.637 -0.4940 -0.9420  0.3431
 5722SOL    HW228629   4.678   0.246  10.548  0.7900  0.0831  0.3422
 5723SOL     OW28630   2.679   2.471   8.376 -0.0573  0.1144  0.5452
 5723SOL    HW128631   2.744   2.466   8.306 -0.4629  0.5510  0.1409
 5723SOL    HW228632   2.705   2.407   8.443 -3.4288 -0.4091  1.3354
 5724SOL     OW28633   1.037   2.195  14.631 -0.1604 -0.6974 -0.0212
 5724SOL    HW128634   1.119   2.212  14.584  1.4064 -0.3935  2.7920
 5724SOL    HW228635   1.068   2.214  14.720  1.5496 -0.6532 -0.6175
 5725SOL     OW28636   3.041   4.350   7.656 -0.4423  0.0885  0.1299
 5725SOL    HW128637   3.006   4.382   7.739  1.4073  0.2432  0.8601
 5725SOL    HW228638   3.036   4.255   7.667  1.8799 -0.2747 -1.9002
 5726SOL     OW28639   0.113   1.371   9.980  0.3171 -0.1333  0.1444
 5726SOL    HW128640   0.070   1.406   9.902  0.4814  1.9166  0.9836
 5726SOL    HW228641   0.142   1.284   9.953 -0.8026  0.1621 -2.0334
 5727SOL     OW28642   4.511   1.445  15.806 -0.1427  0.1194 -0.7421
 5727SOL    HW128643   4.519   1.496  15.726 -0.3968 -1.5203 -1.8257
 5727SOL    HW228644   4.464   1.504  15.866  1.6227 -0.1044  0.8650
 5728SOL     OW28645   2.870   0.965   0.801  0.3456  0.1235  0.3169
 5728SOL    HW128646   2.818   0.977   0.721 -1.0428  0.8510  1.3168
 5728SOL    HW228647   2.816   0.896   0.839  0.8654 -2.0234 -2.8692
 5729SOL     OW28648   3.626   4.410  14.021  0.0625 -0.0192  0.0611
 5729SOL    HW128649   3.614   4.406  13.926 -0.8927  0.6409  0.1451
 5729SOL    HW228650   3.670   4.494  14.037  0.7813 -0.3921  0.0330
 5730SOL     OW28651   3.166   1.280   2.713 -0.2558  0.0535 -0.0218
 5730SOL    HW128652   3.088   1.316   2.755  0.0621 -0.4980  1.0247
 5730SOL    HW228653   3.226   1.273   2.787  0.7982 -0.4117 -0.9218
 5731SOL     OW28654   1.441   0.317  14.554 -0.6590 -0.5787 -0.3087
 5731SOL    HW128655   1.365   0.287  14.504 -0.3088  0.1174 -1.2586
 5731SOL    HW228656   1.499   0.241  14.559 -0.2444 -0.3209 -1.1805
 5732SOL     OW28657   3.540   1.458   3.429  0.0868 -0.1199  0.1414
 5732SOL    HW128658   3.501   1.377   3.464 -0.5692  0.1403  0.0069
 5732SOL    HW228659   3.631   1.429   3.424  0.3239  0.3317  1.9130
 5733SOL     OW28660   1.826   3.242  16.596  0.3834 -0.2548  0.0953
 5733SOL    HW128661   1.822   3.331  16.632 -0.6315 -0.2826  0.0515
 5733SOL    HW228662   1.788   3.191  16.668 -0.1850 -1.1389 -0.8393
 5734SOL     OW28663   4.501   4.571  10.130 -0.1210 -0.0336 -0.5218
 5734SOL    HW128664   4.474   4.513  10.202 -1.7429  1.6117  0.2136
 5734SOL    HW228665   4.595   4.567  10.114  0.1879  0.5206  1.0634
 5735SOL     OW28666   2.201   3.052   7.987 -0.2363 -0.3075 -0.3734
 5735SOL    HW128667   2.234   3.133   8.025 -2.4160 -0.9269  2.8389
 5735SOL    HW228668   2.183   3.081   7.898 -1.4698  0.1068  0.0076
 5736SOL     OW28669   1.683   3.588   0.441  0.3195  0.0982 -0.1436
 5736SOL    HW128670   1.601   3.633   0.458 -0.0766 -0.6040 -0.2087
 5736SOL    HW228671   1.652   3.553   0.357 -1.9313 -1.4950  1.3739
 5737SOL     OW28672   0.674   4.190   3.298  0.2655 -0.5868 -0.1475
 5737SOL    HW128673   0.673   4.175   3.204  0.9079  0.2834 -0.3009
 5737SOL    HW228674   0.603   4.253   3.311  1.0326  0.7138 -2.1937
 5738SOL     OW28675   1.658   2.175  15.601  0.0565  0.4537  0.3068
 5738SOL    HW128676   1.701   2.260  15.593  2.4690 -0.7267  0.7611
 5738SOL    HW228677   1.614   2.162  15.517  0.6863 -1.8248  0.3247
 5739SOL     OW28678   1.552   0.565   5.902 -0.6737 -0.2788  0.2916
 5739SOL    HW128679   1.539   0.593   5.812  1.9884  1.6167  0.4925
 5739SOL    HW228680   1.500   0.625   5.956  0.0133 -0.9823  1.7492
 5740SOL     OW28681   1.828   1.883  15.765  0.3377  0.3767  0.4673
 5740SOL    HW128682   1.864   1.944  15.699 -1.1179  0.6405 -0.0733
 5740SOL    HW228683   1.871   1.801  15.742 -0.4654 -0.0805  0.6124
 5741SOL     OW28684   0.925   4.108   4.736 -0.3588  0.0540  0.4805
 5741SOL    HW128685   0.864   4.097   4.809  1.0434  0.7004  1.7498
 5741SOL    HW228686   0.914   4.018   4.704 -1.1490 -0.3641  1.9512
 5742SOL     OW28687   2.321   0.250  10.626 -0.0030 -0.5208 -0.0897
 5742SOL    HW128688   2.346   0.299  10.704  2.2898 -2.6736  0.5295
 5742SOL    HW228689   2.334   0.156  10.637 -0.2022 -0.5155  0.1784
 5743SOL     OW28690   4.712   2.869  11.252  0.0560 -0.4542  0.2717
 5743SOL    HW128691   0.041   2.909  11.181 -0.4388  0.8205  0.6499
 5743SOL    HW228692   4.698   2.786  11.205 -1.3465 -0.2317  0.2992
 5744SOL     OW28693   4.387   3.917   6.310 -0.8910 -0.3397 -0.0727
 5744SOL    HW128694   4.420   3.929   6.399 -2.3717  0.5437  0.3531
 5744SOL    HW228695   4.372   4.008   6.283  0.9575  0.4811  1.6478
 5745SOL     OW28696   2.890   2.467   6.389 -0.3069 -0.1823 -0.8750
 5745SOL    HW128697   2.907   2.435   6.300  0.1384 -0.3614 -0.7264
 5745SOL    HW228698   2.981   2.480   6.417 -0.1542 -0.8005 -1.0710
 5746SOL     OW28699   4.097   3.200   4.658  0.5921  0.4061  0.3637
 5746SOL    HW128700   4.114   3.293   4.673  0.3162  0.7713 -1.6500
 5746SOL    HW228701   4.116   3.198   4.565  0.2290  0.5525  0.2878
 5747SOL     OW28702   4.673   2.245   7.108 -0.0210  0.5256 -0.1549
 5747SOL    HW128703   4.583   2.266   7.130 -0.6943 -1.7630 -0.6799
 5747SOL    HW228704   4.701   2.213   7.194  0.1809  0.3694 -0.2798
 5748SOL     OW28705   1.644   0.416   7.883  0.1934 -0.2604 -0.0472
 5748SOL    HW128706   1.574   0.415   7.817 -0.0546 -0.9109  0.2301
 5748SOL    HW228707   1.596   0.438   7.963 -2.5493 -1.2941 -1.3926
 5749SOL     OW28708   4.531   2.639   3.460 -0.1661  0.2920  0.1084
 5749SOL    HW128709   4.610   2.586   3.447 -0.9067 -0.9173  0.5463
 5749SOL    HW228710   4.471   2.580   3.415  1.6764 -2.1857  0.8511
 5750SOL     OW28711   1.629   1.750   9.581  0.1295  0.2331  0.2101
 5750SOL    HW128712   1.539   1.735   9.609 -1.0457  0.8043 -3.2734
 5750SOL    HW228713   1.679   1.746   9.663  2.0946  0.2901 -0.9755
 5751SOL     OW28714   1.618   4.569  15.800  0.3632  0.2344  0.2699
 5751SOL    HW128715   1.565   4.530  15.869  2.4235 -1.9490  0.5977
 5751SOL    HW228716   1.702   4.538  15.834 -1.3393 -3.1810  1.3280
 5752SOL     OW28717   4.471   2.365   5.255 -0.3318 -0.3619  0.4812
 5752SOL    HW128718   4.483   2.341   5.347  2.7061  0.7165  0.3706
 5752SOL    HW228719   4.411   2.294   5.234  0.6301 -1.5061  1.5450
 5753SOL     OW28720   2.104   0.234   1.987 -0.0587 -0.6130  0.1335
 5753SOL    HW128721   2.156   0.174   2.041  0.6571 -1.6964 -1.7539
 5753SOL    HW228722   2.054   0.285   2.050 -0.1324 -0.5867  0.0535
 5754SOL     OW28723   0.036   1.517   2.081  0.0454  0.9785  0.1221
 5754SOL    HW128724   0.047   1.610   2.063 -1.7948  0.8284 -1.7262
 5754SOL    HW228725   4.690   1.515   2.151 -0.0735  2.9010  0.0545
 5755SOL     OW28726   3.730   0.386  11.371  0.0876 -0.4804  0.8083
 5755SOL    HW128727   3.806   0.438  11.397  0.5261  0.1489 -1.7469
 5755SOL    HW228728   3.744   0.301  11.414  0.7336  0.3688  2.2840
 5756SOL     OW28729   0.168   0.748   0.547 -0.0457  0.3517  0.4638
 5756SOL    HW128730   0.158   0.836   0.584 -0.7367 -0.2171  1.6084
 5756SOL    HW228731   0.187   0.704   0.629  2.3691  0.4236 -0.0627
 5757SOL     OW28732   4.710   2.788   4.008 -0.1694  0.2272 -0.6540
 5757SOL    HW128733   0.073   2.814   3.970 -0.8955  3.1968 -0.1636
 5757SOL    HW228734   4.655   2.786   3.930  1.0585  1.0585 -1.5437
 5758SOL     OW28735   0.761   3.032  11.698  0.5427 -0.8389  0.0635
 5758SOL    HW128736   0.722   3.067  11.618  1.4142  0.3025  0.1342
 5758SOL    HW228737   0.693   2.968  11.719  1.0052 -1.1619  0.5665
 5759SOL     OW28738   0.221   2.124   3.051 -0.3577 -0.5898 -0.7592
 5759SOL    HW128739   0.303   2.168   3.032 -0.7909 -0.5158 -2.5099
 5759SOL    HW228740   0.213   2.055   2.985  2.0153 -1.6555  0.0899
 5760SOL     OW28741   1.640   2.828   7.595 -0.0192  0.2393  0.3466
 5760SOL    HW128742   1.677   2.903   7.549  2.4060  0.9598  3.4714
 5760SOL    HW228743   1.713   2.766   7.599  0.2314  0.3461 -2.6105
 5761SOL     OW28744   4.147   3.147   1.034 -0.0614 -0.0652  0.1624
 5761SOL    HW128745   4.052   3.147   1.048  0.0070  1.1743  0.5710
 5761SOL    HW228746   4.146   3.209   0.961 -1.1633  1.3600  1.3896
 5762SOL     OW28747   2.896   3.563  17.353  0.3585  0.2619  0.0313
 5762SOL    HW128748   2.863   3.480  17.388  0.1106 -0.1688 -1.2167
 5762SOL    HW228749   2.816   3.603  17.317 -1.0010 -1.2782  1.3751
 5763SOL     OW28750   2.659   0.446   9.936 -0.2211 -0.5048 -0.2839
 5763SOL    HW128751   2.648   0.351   9.939  0.2527 -0.5272  0.8523
 5763SOL    HW228752   2.637   0.463   9.844 -0.7489 -2.3201 -0.4957
 5764SOL     OW28753   1.085   0.248  14.389  0.0774  0.4842 -0.5992
 5764SOL    HW128754   1.147   0.309  14.350  0.8032 -0.8605 -1.5672
 5764SOL    HW228755   1.116   0.163  14.358  0.9912  0.6500 -0.1127
 5765SOL     OW28756   0.379   3.025   9.111 -0.6620 -0.6271 -0.1531
 5765SOL    HW128757   0.414   2.964   9.176 -0.7513 -0.0246  0.4589
 5765SOL    HW228758   0.414   3.111   9.133 -0.9993 -0.4288 -0.3892
 5766SOL     OW28759   4.369   0.187   5.236  0.8499 -0.2940  0.4265
 5766SOL    HW128760   4.296   0.223   5.286  1.3837  1.4610 -0.0569
 5766SOL    HW228761   4.376   0.094   5.260  0.8608 -0.2939  0.4239
 5767SOL     OW28762   1.078   2.410   8.372 -0.5916 -0.4931  0.0369
 5767SOL    HW128763   1.087   2.431   8.279 -1.0788  1.7738  0.5242
 5767SOL    HW228764   0.992   2.451   8.385 -1.0049 -1.0153 -1.0054
 5768SOL     OW28765   2.434   3.454   2.809 -0.0823 -0.4649 -0.1903
 5768SOL    HW128766   2.428   3.500   2.892  1.9735 -1.0900  0.3040
 5768SOL    HW228767   2.519   3.489   2.783 -0.1737 -0.1485 -0.0712
 5769SOL     OW28768   2.987   2.424   7.641 -0.1744  0.1031  0.2502
 5769SOL    HW128769   2.915   2.385   7.692  0.0538 -3.1441 -1.8936
 5769SOL    HW228770   3.052   2.356   7.621 -0.1793 -0.5712  2.4389
 5770SOL     OW28771   4.226   3.927   8.325 -0.0422  0.5003  0.6214
 5770SOL    HW128772   4.251   3.999   8.383  0.0480  0.2074  0.9435
 5770SOL    HW228773   4.250   3.975   8.245  1.9455  0.0699  0.9587
 5771SOL     OW28774   0.134   2.298   7.426 -0.2197  0.4048  0.4794
 5771SOL    HW128775   0.090   2.237   7.484 -1.4521  0.2136 -0.6417
 5771SOL    HW228776   0.206   2.248   7.389 -1.4742 -0.3332 -1.0161
 5772SOL     OW28777   0.057   1.493   7.382  0.7881 -0.1888 -0.2984
 5772SOL    HW128778   0.129   1.504   7.320  1.3350  1.3628  0.6291
 5772SOL    HW228779   0.036   1.580   7.415 -0.3963 -0.4992 -0.2376
 5773SOL     OW28780   3.306   1.312  15.964  0.3437 -0.0772  0.7660
 5773SOL    HW128781   3.317   1.303  16.058  2.9350 -0.2872  0.4352
 5773SOL    HW228782   3.394   1.341  15.942  0.0254  0.6984  0.5102
 5774SOL     OW28783   0.011   0.233  13.221 -0.1015  0.4430 -0.0403
 5774SOL    HW128784   0.044   0.300  13.282  1.2370 -0.1729 -0.0949
 5774SOL    HW228785   0.082   0.244  13.158  0.6810 -1.8941  0.4529
 5775SOL     OW28786   4.616   1.859   6.737 -0.0640  0.2692 -0.0241
 5775SOL    HW128787   4.556   1.812   6.795 -0.3850  0.9715  0.2269
 5775SOL    HW228788   4.688   1.797   6.733  0.3413  0.5776  2.6295
 5776SOL     OW28789   0.516   0.427   6.405 -0.3680 -0.2860  0.0394
 5776SOL    HW128790   0.462   0.385   6.472 -1.4466 -0.4169 -0.9282
 5776SOL    HW228791   0.569   0.497   6.444 -1.2510 -0.3362  1.3391
 5777SOL     OW28792   1.684   2.345  16.538  0.1030 -0.1714  0.4936
 5777SOL    HW128793   1.636   2.311  16.463 -0.6730 -1.0635  1.4046
 5777SOL    HW228794   1.624   2.411  16.573 -0.7475 -0.6365 -0.0993
 5778SOL     OW28795   2.523   2.839   4.514 -0.7134  0.0202 -0.1958
 5778SOL    HW128796   2.433   2.870   4.513  0.3650  3.0268 -2.4317
 5778SOL    HW228797   2.526   2.790   4.431 -0.3416 -0.6496  0.2142
 5779SOL     OW28798   0.448   0.529   3.284  0.3453 -0.0595  0.7783
 5779SOL    HW128799   0.353   0.535   3.280  0.2853 -2.0357 -0.9475
 5779SOL    HW228800   0.472   0.567   3.368 -0.1241 -0.5878  1.1546
 5780SOL     OW28801   4.176   1.462   4.062  0.6134 -0.6619  0.0823
 5780SOL    HW128802   4.196   1.395   4.127 -3.2109  0.2954  2.2540
 5780SOL    HW228803   4.167   1.539   4.117 -0.0834 -0.4122 -0.3788
 5781SOL     OW28804   1.386   2.352   8.802  0.1087  0.6162  0.3666
 5781SOL    HW128805   1.439   2.431   8.787 -0.8234  0.7010 -2.5276
 5781SOL    HW228806   1.344   2.365   8.887 -0.0882  0.7949  0.2450
 5782SOL     OW28807   0.810   4.676  13.069 -0.1888 -0.5679  0.5768
 5782SOL    HW128808   0.797   4.595  13.118  0.9630 -0.9418  0.2709
 5782SOL    HW228809   0.779   0.026  13.127 -2.4428  0.3869 -1.7764
 5783SOL     OW28810   2.818   4.644  14.204  0.1914  0.1548 -0.1168
 5783SOL    HW128811   2.733   4.686  14.192  1.0604  2.0369  0.3843
 5783SOL    HW228812   2.840   4.686  14.287  0.1373  1.9060 -0.9808
 5784SOL     OW28813   3.866   1.405  12.180  0.5118 -0.9555  0.6166
 5784SOL    HW128814   3.864   1.440  12.091  1.6747 -0.6982  0.6852
 5784SOL    HW228815   3.781   1.362  12.177  0.9167 -1.7149  0.2180
 5785SOL     OW28816   3.336   0.401   4.973 -0.1187  0.1168 -0.4633
 5785SOL    HW128817   3.298   0.476   5.020  1.7735  0.4178  0.5840
 5785SOL    HW228818   3.281   0.332   5.009 -1.4339  1.5790  0.3528
 5786SOL     OW28819   1.641   2.862   1.186  0.0925  0.3385 -0.8392
 5786SOL    HW128820   1.712   2.839   1.245 -1.1241 -1.5869 -0.1308
 5786SOL    HW228821   1.568   2.808   1.216 -0.4782  1.6053  0.0401
 5787SOL     OW28822   2.081   3.173   4.781  0.1894 -0.1836  0.8180
 5787SOL    HW128823   2.081   3.268   4.793 -1.3396  0.1015 -1.4076
 5787SOL    HW228824   2.132   3.168   4.700 -0.9605 -1.6513  0.1836
 5788SOL     OW28825   2.761   1.278  12.441 -0.2803  0.7830 -0.0163
 5788SOL    HW128826   2.683   1.330  12.423 -2.3175 -1.9524  0.9395
 5788SOL    HW228827   2.806   1.343  12.495  1.5874  1.1821 -2.0532
 5789SOL     OW28828   4.166   3.883  14.940 -0.2428 -0.1545  0.2068
 5789SOL    HW128829   4.077   3.870  14.907  0.4170  1.3217 -2.1305
 5789SOL    HW228830   4.152   3.860  15.032  0.7342 -0.1919  0.3467
 5790SOL     OW28831   4.577   0.375   4.216  0.0760  0.7578  0.1713
 5790SOL    HW128832   4.630   0.431   4.273  1.2568  0.2140 -0.4138
 5790SOL    HW228833   4.643   0.307   4.209 -0.8167 -0.3271  2.0423
 5791SOL     OW28834   2.591   3.209  12.279  0.7568 -0.2592  0.3358
 5791SOL    HW128835   2.614   3.141  12.343 -0.6884 -1.9181 -0.9314
 5791SOL    HW228836   2.502   3.233  12.305  1.2253 -0.9269  2.5654
 5792SOL     OW28837   2.318   4.424   8.739 -0.0189  0.8324  0.8369
 5792SOL    HW128838   2.297   4.333   8.760 -0.3453  1.2618  2.3867
 5792SOL    HW228839   2.406   4.420   8.702 -1.1663  2.0319 -1.9748
 5793SOL     OW28840   2.406   1.753   5.086  0.1948 -0.0368  0.3099
 5793SOL    HW128841   2.383   1.693   5.157  0.7019  0.5472  0.9611
 5793SOL    HW228842   2.464   1.806   5.141  1.4529 -2.3501  1.2569
 5794SOL     OW28843   2.738   4.372  14.013 -0.3843 -0.3633  0.4424
 5794SOL    HW128844   2.770   4.333  13.932 -0.8876  1.3397 -0.5630
 5794SOL    HW228845   2.805   4.342  14.075 -1.0546 -3.5349 -0.3882
 5795SOL     OW28846   1.317   3.323  12.134 -0.2882  0.3861 -0.1708
 5795SOL    HW128847   1.305   3.333  12.040 -0.6457 -2.0396 -0.3728
 5795SOL    HW228848   1.253   3.256  12.157  0.9411 -1.8644 -3.3752
 5796SOL     OW28849   3.969   0.745   3.550  0.0390 -0.1673  0.0447
 5796SOL    HW128850   3.926   0.685   3.489  1.4364 -1.5559  0.4459
 5796SOL    HW228851   4.035   0.784   3.492 -0.5668 -1.3507 -1.4424
 5797SOL     OW28852   4.151   2.808  12.885 -0.0926  0.0564  0.0096
 5797SOL    HW128853   4.080   2.872  12.883  0.6385  0.9207  1.5471
 5797SOL    HW228854   4.222   2.857  12.842 -1.4523  3.5014  1.6536
 5798SOL     OW28855   1.352   1.533   8.112 -0.1058 -0.0162  0.1010
 5798SOL    HW128856   1.422   1.536   8.177  0.6263 -0.6119 -0.6643
 5798SOL    HW228857   1.274   1.503   8.159  0.1811  0.1793  0.7077
 5799SOL     OW28858   0.909   3.611   5.788 -0.1278  0.0038 -0.3142
 5799SOL    HW128859   0.880   3.534   5.838 -1.0144  2.2808  2.6729
 5799SOL    HW228860   0.834   3.660   5.755  1.2434  0.6901 -2.4435
 5800SOL     OW28861   2.129   2.524  12.607  0.2477 -0.5351  0.0797
 5800SOL    HW128862   2.036   2.502  12.614  0.2924 -1.0926 -0.9955
 5800SOL    HW228863   2.117   2.619  12.608  1.1480 -0.4244  0.4680
 5801SOL     OW28864   0.117   1.762   1.491 -0.3859  0.5786  0.0234
 5801SOL    HW128865   0.118   1.784   1.398 -0.9867  1.3242  0.1899
 5801SOL    HW228866   0.071   1.835   1.534  1.1246  0.9871  0.9466
 5802SOL     OW28867   2.318   4.139   6.283  0.2209 -0.4460  0.4955
 5802SOL    HW128868   2.349   4.062   6.331  1.9072  0.5698  1.0427
 5802SOL    HW228869   2.339   4.201   6.354  0.0012 -1.6301  1.5995
 5803SOL     OW28870   0.161   4.140   6.010  0.1790  0.1938 -0.2236
 5803SOL    HW128871   0.128   4.181   5.929  1.1993 -0.4255 -0.9400
 5803SOL    HW228872   0.154   4.046   5.998 -0.4871  0.1289  0.6833
 5804SOL     OW28873   1.939   2.198   5.899  0.1920  0.4281  0.0890
 5804SOL    HW128874   1.890   2.190   5.981  2.1906 -0.7861  1.1699
 5804SOL    HW228875   1.955   2.106   5.876  1.0643  0.4131  0.7695
 5805SOL     OW28876   0.743   0.533   6.564  0.1212  0.0892 -0.1752
 5805SOL    HW128877   0.802   0.469   6.602  1.6170  1.4785 -0.1451
 5805SOL    HW228878   0.681   0.546   6.636 -0.4730 -0.3547 -0.6003
 5806SOL     OW28879   3.071   1.112   6.107  0.0608 -0.2548 -0.0356
 5806SOL    HW128880   3.066   1.093   6.014  1.1111  1.5976 -0.4749
 5806SOL    HW228881   3.166   1.121   6.109 -0.0066  0.1784  1.9636
 5807SOL     OW28882   1.730   2.178   3.842 -0.0971  0.2637 -0.0678
 5807SOL    HW128883   1.777   2.185   3.759 -0.2739  0.5878 -0.1390
 5807SOL    HW228884   1.748   2.087   3.865 -2.4076 -0.1185  0.1561
 5808SOL     OW28885   4.029   0.455   3.577 -0.1007 -0.2884  0.2795
 5808SOL    HW128886   3.972   0.499   3.513 -0.6987  0.7257  1.5080
 5808SOL    HW228887   4.114   0.495   3.558 -1.2268  2.4470  1.0055
 5809SOL     OW28888   3.353   0.560  10.672 -0.0006 -0.0638  0.1923
 5809SOL    HW128889   3.357   0.548  10.767  0.4845 -0.5040  0.1140
 5809SOL    HW228890   3.291   0.632  10.662  1.6728  1.3721  0.1274
 5810SOL     OW28891   1.115   4.467   3.270  0.7106  0.2766  0.1355
 5810SOL    HW128892   1.165   4.479   3.188  0.3191  2.8159  0.2592
 5810SOL    HW228893   1.166   4.526   3.325 -1.9014  2.4437  0.2397
 5811SOL     OW28894   4.423   3.964   7.886 -0.6637  0.5953 -0.3611
 5811SOL    HW128895   4.465   3.886   7.923 -0.8264  1.1344  0.9404
 5811SOL    HW228896   4.372   3.926   7.814  3.5149  1.5317 -3.8171
 5812SOL     OW28897   3.870   2.060  16.513 -0.0890  0.3252  0.3682
 5812SOL    HW128898   3.916   1.993  16.565 -0.5519 -2.3709 -2.6569
 5812SOL    HW228899   3.935   2.130  16.519 -1.6479  1.6975  1.2676
 5813SOL     OW28900   1.902   1.020   8.251 -0.1433  0.6254 -0.3970
 5813SOL    HW128901   1.867   1.048   8.166 -0.0032 -0.7661 -0.9176
 5813SOL    HW228902   1.826   0.979   8.293  0.5388  0.3699  0.5754
 5814SOL     OW28903   0.103   4.663   7.385  0.2586 -0.2454  0.0987
 5814SOL    HW128904   0.186   4.619   7.405 -0.9389 -1.9187  1.3019
 5814SOL    HW228905   0.129   4.700   7.301  0.2618 -3.6762 -1.4160
 5815SOL     OW28906   1.756   0.282   8.289 -0.2797 -0.1394  0.2270
 5815SOL    HW128907   1.768   0.246   8.377 -2.4304 -0.8978  0.2156
 5815SOL    HW228908   1.825   0.235   8.242 -0.2650  0.0778  0.0293
 5816SOL     OW28909   2.187   1.538   6.943 -0.1663 -0.2781 -0.4734
 5816SOL    HW128910   2.264   1.594   6.933 -0.1231 -0.0863  0.9904
 5816SOL    HW228911   2.202   1.474   7.013  0.1579  0.5432  0.1985
 5817SOL     OW28912   1.564   4.289   2.452  0.0999  0.1936  0.4948
 5817SOL    HW128913   1.481   4.252   2.483  0.3982 -1.4637 -0.6825
 5817SOL    HW228914   1.536   4.375   2.419 -0.9853 -0.5026 -0.3966
 5818SOL     OW28915   2.406   1.667   2.825 -0.2837  0.1674  0.0365
 5818SOL    HW128916   2.417   1.731   2.754 -1.4083 -3.3753 -3.2791
 5818SOL    HW228917   2.363   1.600   2.773  0.8105 -0.6475  0.1883
 5819SOL     OW28918   3.377   3.664   5.438 -0.6667 -0.4425  0.1684
 5819SOL    HW128919   3.399   3.655   5.531 -2.7149 -1.1377  0.5992
 5819SOL    HW228920   3.357   3.757   5.429  1.7221  0.0462  0.0830
 5820SOL     OW28921   0.873   1.667   4.601 -0.1083 -0.2667 -0.0932
 5820SOL    HW128922   0.935   1.712   4.658  0.5318 -1.9096  0.5035
 5820SOL    HW228923   0.824   1.746   4.578  0.5457 -0.0560 -0.7716
 5821SOL     OW28924   4.600   3.693  11.499 -0.0328  0.1294 -0.3941
 5821SOL    HW128925   4.585   3.617  11.555 -4.6913  0.6710 -0.8770
 5821SOL    HW228926   4.642   3.651  11.424 -0.4619 -2.9277  1.0926
 5822SOL     OW28927   3.337   0.398   2.553  0.3560  0.0265  0.4881
 5822SOL    HW128928   3.425   0.387   2.517 -0.3596  1.9055 -1.8815
 5822SOL    HW228929   3.303   0.310   2.567 -0.9459  0.2179 -1.2731
 5823SOL     OW28930   4.553   4.449   4.309  0.3145  0.2401  0.1026
 5823SOL    HW128931   4.508   4.365   4.313 -0.4795  0.7603  1.7120
 5823SOL    HW228932   4.505   4.504   4.247 -0.8126  1.5879  2.1797
 5824SOL     OW28933   1.315   0.279   3.810 -0.0018 -0.3100  0.1702
 5824SOL    HW128934   1.280   0.258   3.896 -0.3745 -1.8903 -0.3696
 5824SOL    HW228935   1.386   0.340   3.831  1.4661 -0.5700 -3.9278
 5825SOL     OW28936   4.674   1.497  10.435  0.1716 -0.2358  0.0037
 5825SOL    HW128937   4.614   1.426  10.460 -0.1511  0.2538  0.6384
 5825SOL    HW228938   0.034   1.463  10.475 -1.0600 -1.8731  1.1107
 5826SOL     OW28939   2.709   1.660   0.055 -0.0034 -0.0502 -0.1644
 5826SOL    HW128940   2.672   1.747   0.038 -1.2110 -0.9040 -1.8110
 5826SOL    HW228941   2.637   1.608   0.021  0.7254 -1.7355  0.8449
 5827SOL     OW28942   0.879   0.491   3.493  0.2657 -0.2140  0.1692
 5827SOL    HW128943   0.847   0.548   3.423  1.8389 -1.5513 -1.6271
 5827SOL    HW228944   0.974   0.503   3.497  0.3579  0.1943 -3.9354
 5828SOL     OW28945   3.148   3.133   7.364 -0.4726  0.0248  0.3205
 5828SOL    HW128946   3.107   3.199   7.421 -0.3871  0.3111  0.0505
 5828SOL    HW228947   3.139   3.052   7.414  0.7876  1.1883  2.4076
 5829SOL     OW28948   4.473   2.433  12.815  0.4874  0.1159  0.5058
 5829SOL    HW128949   4.439   2.504  12.760  0.7665  2.1123  2.9545
 5829SOL    HW228950   4.416   2.429  12.892 -0.5653 -1.5870 -0.3638
 5830SOL     OW28951   3.644   2.176  15.590  0.4950  0.0413  0.3472
 5830SOL    HW128952   3.619   2.268  15.580  1.4891  0.1465 -1.0847
 5830SOL    HW228953   3.615   2.141  15.506 -0.2242 -0.5055  0.8282
 5831SOL     OW28954   1.169   0.530  14.533 -0.2485  0.2231  0.3066
 5831SOL    HW128955   1.186   0.518  14.440  0.0983  0.4973  0.3338
 5831SOL    HW228956   1.223   0.605  14.558  0.7898 -0.3152 -0.3146
 5832SOL     OW28957   3.966   4.484   2.381 -0.2838  0.0472  0.2785
 5832SOL    HW128958   4.003   4.441   2.304 -1.7158  0.1921 -0.5051
 5832SOL    HW228959   3.873   4.475   2.360 -0.3738 -0.4275  0.8812
 5833SOL     OW28960   3.857   1.183   2.752  0.3032 -0.1970 -0.3369
 5833SOL    HW128961   3.872   1.239   2.827  2.8996 -3.0635  1.3058
 5833SOL    HW228962   3.851   1.098   2.795 -0.5275  0.7702  1.4371
 5834SOL     OW28963   1.365   2.045   8.776  0.3092 -0.5544  0.2116
 5834SOL    HW128964   1.288   1.998   8.807 -0.4628  1.6750  1.6675
 5834SOL    HW228965   1.336   2.136   8.781 -1.2364 -1.0572  0.4771
 5835SOL     OW28966   1.254   4.701   3.691  0.7638  0.2248 -0.2017
 5835SOL    HW128967   1.328   4.702   3.752 -0.4508 -0.1465  1.2955
 5835SOL    HW228968   1.208   0.064   3.706 -1.5044 -0.7156 -1.8548
 5836SOL     OW28969   1.348   0.107   2.959  0.3385  0.2539  0.3460
 5836SOL    HW128970   1.427   0.052   2.965  0.7938  0.8700  0.0350
 5836SOL    HW228971   1.380   0.187   2.916 -0.0174  2.0308  3.3905
 5837SOL     OW28972   1.518   3.419   5.810  0.5302  0.2768  0.0649
 5837SOL    HW128973   1.572   3.341   5.795  0.9415  0.3278  1.2916
 5837SOL    HW228974   1.507   3.409   5.904 -1.3950 -3.3002 -0.4979
 5838SOL     OW28975   3.756   4.497   9.833 -0.0009 -0.0211 -0.1824
 5838SOL    HW128976   3.850   4.506   9.818 -0.0964  0.1074 -0.6942
 5838SOL    HW228977   3.717   4.581   9.809  1.8863  0.4463 -1.5832
 5839SOL     OW28978   4.322   0.664   2.548  0.3998 -0.5311  0.0490
 5839SOL    HW128979   4.382   0.661   2.623 -1.1864  0.1205  1.3473
 5839SOL    HW228980   4.356   0.598   2.488  0.0053  1.0883 -1.9313
 5840SOL     OW28981   2.921   2.574   6.016 -0.0368  0.2083 -0.5379
 5840SOL    HW128982   3.008   2.613   6.005 -0.3343  1.2918  1.0351
 5840SOL    HW228983   2.864   2.646   6.043 -1.3520 -1.6862  1.6196
 5841SOL     OW28984   2.837   1.218   0.190 -0.6455 -0.4020 -0.2381
 5841SOL    HW128985   2.894   1.268   0.132  1.0487 -2.4037 -0.2838
 5841SOL    HW228986   2.795   1.292   0.233  0.2771  0.9156 -1.5937
 5842SOL     OW28987   3.549   2.490   4.832 -0.5056 -0.6408  0.1397
 5842SOL    HW128988   3.640   2.483   4.801 -0.2603 -2.0719  1.2183
 5842SOL    HW228989   3.515   2.404   4.808  0.5646 -1.5889  2.0770
 5843SOL     OW28990   2.942   1.169   7.128  0.6326  0.1417 -0.5749
 5843SOL    HW128991   2.970   1.137   7.214  2.3609 -0.0685 -1.1981
 5843SOL    HW228992   3.021   1.209   7.090  0.7003 -1.4306 -2.0950
 5844SOL     OW28993   0.484   1.914   3.896  0.4737 -0.0951  0.0322
 5844SOL    HW128994   0.478   1.819   3.902 -2.8446  0.1025 -0.0145
 5844SOL    HW228995   0.564   1.941   3.851  1.1426  1.0152  1.8689
 5845SOL     OW28996   3.577   3.543   2.520  0.0136 -0.3455 -1.1418
 5845SOL    HW128997   3.527   3.620   2.549 -3.0811 -3.6839  2.3912
 5845SOL    HW228998   3.567   3.569   2.428  1.0450 -1.7417 -1.6398
 5846SOL     OW28999   0.908   1.410   2.782  0.4632 -0.0040 -0.0717
 5846SOL    HW129000   0.881   1.368   2.864  2.5515  1.2843  1.2830
 5846SOL    HW229001   0.821   1.432   2.751 -0.3160 -3.8731 -0.5558
 5847SOL     OW29002   2.272   0.525   5.105  1.2603  0.5977  0.4428
 5847SOL    HW129003   2.181   0.555   5.112  0.7713 -1.0244  1.0746
 5847SOL    HW229004   2.304   0.561   5.022  0.7714  2.1544  0.9298
 5848SOL     OW29005   1.029   3.697   7.220 -0.8662  0.1893 -0.2683
 5848SOL    HW129006   1.077   3.766   7.266 -1.5883  1.2883 -1.1478
 5848SOL    HW229007   0.957   3.749   7.183  1.3859  3.9991  0.7416
 5849SOL     OW29008   3.462   0.120   7.482 -0.0778  0.2253 -0.0887
 5849SOL    HW129009   3.422   0.167   7.410  0.0963  2.8449  1.5492
 5849SOL    HW229010   3.382   0.085   7.522 -1.0098  1.4085 -0.9232
 5850SOL     OW29011   0.392   1.465   9.835  0.3231 -0.1793 -0.6481
 5850SOL    HW129012   0.391   1.381   9.789 -2.0211 -0.9238  0.7806
 5850SOL    HW229013   0.321   1.517   9.797  0.5088  0.3710 -0.2414
 5851SOL     OW29014   0.410   0.884   6.550 -0.5869  0.1679  0.0608
 5851SOL    HW129015   0.334   0.883   6.608 -1.9481 -0.4405 -1.7688
 5851SOL    HW229016   0.487   0.891   6.607 -0.0249  1.4357 -0.8530
 5852SOL     OW29017   0.750   4.628  15.358  0.5650 -0.3160  0.1976
 5852SOL    HW129018   0.755   4.718  15.390  1.3891 -0.0568 -0.6846
 5852SOL    HW229019   0.655   4.612  15.361  0.3504  1.0878  0.7810
 5853SOL     OW29020   2.715   0.654   6.193 -0.2016 -0.5106 -0.0847
 5853SOL    HW129021   2.641   0.618   6.243  1.3373 -3.1836  0.3103
 5853SOL    HW229022   2.695   0.625   6.104 -1.1541  1.8006 -0.6099
 5854SOL     OW29023   1.374   2.248   9.891 -0.2528  0.3489 -0.2866
 5854SOL    HW129024   1.383   2.312   9.821 -2.0778  0.8825 -0.0430
 5854SOL    HW229025   1.397   2.294   9.972 -1.0194 -3.2047  1.9821
 5855SOL     OW29026   2.005   4.566   2.582 -0.4490  0.0132 -0.4001
 5855SOL    HW129027   2.024   4.586   2.673 -1.9276  0.6174 -0.2391
 5855SOL    HW229028   2.055   4.484   2.577  0.6493  0.7844 -2.3143
 5856SOL     OW29029   3.605   1.789   4.101 -0.3152  0.2443 -0.9034
 5856SOL    HW129030   3.694   1.811   4.074  0.0400 -0.4455 -0.2973
 5856SOL    HW229031   3.548   1.828   4.034 -1.8180 -1.8847 -0.8736
 5857SOL     OW29032   4.172   0.866   3.390 -0.2802 -0.2661  0.2553
 5857SOL    HW129033   4.206   0.956   3.389 -0.1918 -0.3107 -0.4609
 5857SOL    HW229034   4.166   0.854   3.295 -1.0704  2.1007 -0.0092
 5858SOL     OW29035   1.801   1.299   5.909  0.1829  0.2207  0.3434
 5858SOL    HW129036   1.875   1.247   5.937  0.0929 -0.9016 -1.4585
 5858SOL    HW229037   1.743   1.233   5.872  0.8071 -0.6741  0.9804
 5859SOL     OW29038   2.265   0.098   0.769  0.0405 -0.0590  0.3455
 5859SOL    HW129039   2.246   0.117   0.861 -2.2227  1.7763 -0.4992
 5859SOL    HW229040   2.227   0.012   0.754  0.5251 -0.4503  1.3179
 5860SOL     OW29041   0.919   2.579   2.736 -0.0190 -0.3664 -0.9931
 5860SOL    HW129042   0.881   2.524   2.668 -0.0678 -2.5637  0.8215
 5860SOL    HW229043   0.905   2.519   2.809 -1.0214  0.4391 -0.5222
 5861SOL     OW29044   4.169   0.511   8.742 -0.4504  0.4361  0.0001
 5861SOL    HW129045   4.175   0.418   8.720 -2.1463 -0.4431  3.3080
 5861SOL    HW229046   4.082   0.517   8.781  0.3813 -1.0614  2.1072
 5862SOL     OW29047   4.441   2.644   6.483  0.1314 -0.1859 -0.3493
 5862SOL    HW129048   4.426   2.575   6.418  0.7798 -1.3692  0.7648
 5862SOL    HW229049   4.355   2.639   6.526  0.1185 -2.6826 -0.6682
 5863SOL     OW29050   0.013   2.473  15.561  0.2071 -0.0044 -0.3649
 5863SOL    HW129051   4.664   2.528  15.526  1.1152  0.4354 -1.4775
 5863SOL    HW229052   0.048   2.533  15.627 -1.3593  0.1743  0.2991
 5864SOL     OW29053   3.089   3.654   1.697 -0.2024  0.3826 -0.4908
 5864SOL    HW129054   3.143   3.675   1.620 -0.5782  0.4554 -0.7338
 5864SOL    HW229055   3.021   3.603   1.653 -0.0286 -0.6365  0.4130
 5865SOL     OW29056   4.353   1.101   0.244  0.2830  0.0070 -0.4243
 5865SOL    HW129057   4.353   1.034   0.313  0.4816 -1.7814 -2.1398
 5865SOL    HW229058   4.267   1.078   0.210  0.8512 -2.7987 -0.0535
 5866SOL     OW29059   0.356   2.082  11.478 -0.0034  0.4775 -0.0938
 5866SOL    HW129060   0.266   2.112  11.469 -0.8317 -2.2012 -0.8881
 5866SOL    HW229061   0.368   2.043  11.391 -1.3663 -2.1847  0.9161
 5867SOL     OW29062   1.607   1.947  16.186 -0.4376 -0.2685  0.0384
 5867SOL    HW129063   1.694   1.981  16.203 -0.3797  0.1702 -1.1156
 5867SOL    HW229064   1.571   1.936  16.274 -0.7102 -0.6841 -0.1239
 5868SOL     OW29065   2.216   1.027   6.148  0.3108  0.8309  0.2814
 5868SOL    HW129066   2.201   1.090   6.219 -1.2922  1.6930 -0.8446
 5868SOL    HW229067   2.291   0.975   6.180 -0.7776 -0.8303  0.1277
 5869SOL     OW29068   1.629   0.540   4.627 -0.2732  0.3833 -0.2236
 5869SOL    HW129069   1.546   0.494   4.633  0.2854 -0.7808 -1.3386
 5869SOL    HW229070   1.597   0.628   4.609 -0.9737  0.0712 -0.5229
 5870SOL     OW29071   0.209   0.459   8.725  0.5780 -0.1314  0.0904
 5870SOL    HW129072   0.157   0.502   8.793  1.5026  1.1283  0.0086
 5870SOL    HW229073   0.295   0.497   8.742  1.4132 -1.1826 -1.7843
 5871SOL     OW29074   3.133   0.992   8.990 -0.1738  0.3516 -0.3769
 5871SOL    HW129075   3.110   1.046   8.915  1.6759  1.7542  0.0785
 5871SOL    HW229076   3.169   0.910   8.955  0.1497  0.1080  0.5318
 5872SOL     OW29077   1.095   4.498  11.606  0.3536  0.4615  0.1916
 5872SOL    HW129078   1.144   4.418  11.586  1.0643  1.0286 -0.3433
 5872SOL    HW229079   1.148   4.566  11.564 -0.2974 -0.9557 -2.9096
 5873SOL     OW29080   2.214   3.654   6.506  0.6765 -0.4126 -0.0008
 5873SOL    HW129081   2.256   3.641   6.591 -0.8770 -2.9456  0.3847
 5873SOL    HW229082   2.279   3.610   6.450  2.3823  1.4540  0.5180
 5874SOL     OW29083   4.458   1.587   6.583 -0.1776 -0.3475  0.2513
 5874SOL    HW129084   4.512   1.511   6.566  1.3757  1.2546 -1.9647
 5874SOL    HW229085   4.451   1.632   6.499  1.8715 -0.2434  0.1507
 5875SOL     OW29086   4.283   3.831   7.682 -0.2340  0.3191  0.1663
 5875SOL    HW129087   4.335   3.872   7.613 -0.7415  0.0396 -0.3781
 5875SOL    HW229088   4.234   3.764   7.635 -2.7617  2.3215 -0.1123
 5876SOL     OW29089   3.232   1.636   6.594 -0.0997 -0.0934  0.2097
 5876SOL    HW129090   3.179   1.714   6.578  1.3893  0.0156 -4.2078
 5876SOL    HW229091   3.164   1.569   6.606  0.0809 -0.5117 -1.0985
 5877SOL     OW29092   4.204   0.776   9.198  0.1981  0.2471 -0.2062
 5877SOL    HW129093   4.188   0.772   9.104  1.0939  0.0053 -0.3553
 5877SOL    HW229094   4.203   0.682   9.213 -1.2089  0.2944 -0.0513
 5878SOL     OW29095   2.390   2.437   7.968 -0.0387  0.1327  0.0079
 5878SOL    HW129096   2.332   2.463   8.040  1.0695  1.0417  0.5839
 5878SOL    HW229097   2.331   2.449   7.894 -0.8267 -0.7518  0.4981
 5879SOL     OW29098   2.896   2.192   0.513  0.2842 -0.0276 -0.2860
 5879SOL    HW129099   2.891   2.218   0.605  1.3975 -1.6712  0.2476
 5879SOL    HW229100   2.990   2.174   0.504  0.3791  1.4407 -2.3012
 5880SOL     OW29101   3.162   4.567  12.220  0.2923  0.6819  0.0966
 5880SOL    HW129102   3.175   4.590  12.312  0.5391 -1.3848  0.5831
 5880SOL    HW229103   3.149   4.651  12.177  1.8693 -0.2739 -2.2312
 5881SOL     OW29104   0.457   0.538   3.731 -0.3898 -0.1699 -0.2981
 5881SOL    HW129105   0.400   0.599   3.778 -1.6950 -0.9096 -0.9511
 5881SOL    HW229106   0.528   0.527   3.795  0.2226 -2.9079 -1.4606
 5882SOL     OW29107   0.711   1.088   8.191 -0.4721 -0.6407 -0.2789
 5882SOL    HW129108   0.697   1.182   8.200  1.3171 -0.3701 -0.3335
 5882SOL    HW229109   0.805   1.079   8.206 -0.7333 -1.2116  1.0533
 5883SOL     OW29110   2.656   1.477  11.215 -0.5280  0.2581 -0.2937
 5883SOL    HW129111   2.679   1.394  11.256  1.4269  0.6067 -0.7153
 5883SOL    HW229112   2.705   1.542  11.266  0.2567  0.6699 -1.5811
 5884SOL     OW29113   3.373   0.444  12.781  0.0750 -0.0435  0.1966
 5884SOL    HW129114   3.345   0.397  12.702 -2.4676  0.8523  0.5687
 5884SOL    HW229115   3.445   0.386  12.806 -0.1446 -0.7901 -0.8850
 5885SOL     OW29116   1.700   2.487   8.660 -0.2714  0.1635 -0.2066
 5885SOL    HW129117   1.638   2.519   8.726 -0.1958  1.2174 -0.6495
 5885SOL    HW229118   1.773   2.458   8.714 -0.4667 -1.1229 -0.6387
 5886SOL     OW29119   3.342   3.749   3.719  0.3777 -0.2041  0.2818
 5886SOL    HW129120   3.397   3.695   3.776 -2.0253 -3.9737 -0.9457
 5886SOL    HW229121   3.398   3.826   3.716  0.6538 -0.3322  2.5818
 5887SOL     OW29122   4.298   2.594   3.089  0.3994 -0.5067  0.2026
 5887SOL    HW129123   4.208   2.614   3.064  0.8310 -1.5399 -2.1285
 5887SOL    HW229124   4.328   2.685   3.094 -2.3893  0.4184 -0.1130
 5888SOL     OW29125   4.126   4.252  13.224 -0.2127  0.3172  0.2857
 5888SOL    HW129126   4.032   4.235  13.226 -0.1931  0.3399  1.8539
 5888SOL    HW229127   4.133   4.292  13.138 -0.6449  0.0697  0.1365
 5889SOL     OW29128   2.446   1.655  15.521  0.3415 -0.2350 -0.2244
 5889SOL    HW129129   2.463   1.677  15.429 -1.0600 -2.0124 -0.9132
 5889SOL    HW229130   2.365   1.706  15.529  0.2426 -0.7415  2.0363
 5890SOL     OW29131   1.851   3.267   4.395 -0.4094  0.1153 -0.1693
 5890SOL    HW129132   1.790   3.253   4.468 -0.5107 -0.4906 -0.3676
 5890SOL    HW229133   1.905   3.341   4.421  0.0018  0.0060 -0.7270
 5891SOL     OW29134   3.453   2.347  17.021  0.2407  0.8093 -0.1733
 5891SOL    HW129135   3.410   2.262  17.007 -2.6981  2.1196  0.8759
 5891SOL    HW229136   3.492   2.343  16.934  0.1067  0.8277 -0.2341
 5892SOL     OW29137   4.354   0.389   3.246 -0.0590 -0.8806 -0.5269
 5892SOL    HW129138   4.376   0.327   3.315 -0.0737  1.2449  1.3865
 5892SOL    HW229139   4.273   0.355   3.208  0.1157  0.4303 -2.0918
 5893SOL     OW29140   3.740   4.082   3.732  0.0789  0.1423 -0.0458
 5893SOL    HW129141   3.783   4.120   3.655  1.6290 -1.3532  0.0567
 5893SOL    HW229142   3.756   4.151   3.796 -0.6715  0.9698 -0.7533
 5894SOL     OW29143   1.644   0.779   8.713 -0.4540  0.1573 -0.1169
 5894SOL    HW129144   1.708   0.775   8.642 -0.0908  0.8623  0.1732
 5894SOL    HW229145   1.704   0.798   8.786  0.2239 -2.4535  0.0066
 5895SOL     OW29146   0.797   3.904  15.421 -0.0756  0.6418  0.0740
 5895SOL    HW129147   0.855   3.975  15.395  1.1809 -0.0584  0.9635
 5895SOL    HW229148   0.722   3.957  15.448  0.9163  1.1431  1.8175
 5896SOL     OW29149   4.063   1.154   8.742 -0.4241  0.0574  0.4999
 5896SOL    HW129150   4.145   1.137   8.694 -0.3793  1.2652  0.1466
 5896SOL    HW229151   4.091   1.145   8.833 -0.1801  0.0475  0.4253
 5897SOL     OW29152   1.004   1.262   0.229  0.1197 -0.5081 -0.5136
 5897SOL    HW129153   0.983   1.169   0.229  0.2063 -0.5139 -2.0963
 5897SOL    HW229154   1.092   1.251   0.265 -0.5078 -1.6872  0.6382
 5898SOL     OW29155   3.161   4.141   4.183 -0.2396 -0.0948 -0.7941
 5898SOL    HW129156   3.256   4.149   4.174 -0.1410  1.1283  1.4752
 5898SOL    HW229157   3.150   4.048   4.202 -0.4229  0.3276  1.0811
 5899SOL     OW29158   4.707   4.211   2.744  0.4565  0.0501  0.7639
 5899SOL    HW129159   4.649   4.223   2.669  0.7207 -3.0558  0.0794
 5899SOL    HW229160   0.048   4.284   2.739 -0.2440  0.7944  3.2073
 5900SOL     OW29161   1.512   0.330   8.145  0.2714 -0.1179 -0.1334
 5900SOL    HW129162   1.599   0.322   8.185  0.6892  1.3593 -0.7470
 5900SOL    HW229163   1.502   0.252   8.090 -0.6615  2.4280 -3.5437
 5901SOL     OW29164   3.108   3.591   3.470  0.8467  0.2384 -0.0155
 5901SOL    HW129165   3.141   3.626   3.387  1.5771 -0.2901  0.0576
 5901SOL    HW229166   3.178   3.529   3.490 -0.1980 -0.4254  1.6103
 5902SOL     OW29167   4.050   2.802  11.127  0.1665 -0.4832 -0.1972
 5902SOL    HW129168   4.020   2.875  11.182  1.0320  0.5177 -1.0626
 5902SOL    HW229169   4.031   2.844  11.043  0.1304 -0.1463 -0.0183
 5903SOL     OW29170   2.608   3.592   0.002 -0.7365  0.1918  0.3534
 5903SOL    HW129171   2.552   3.634   0.067  1.1540  1.3115  1.2753
 5903SOL    HW229172   2.689   3.641   0.020 -1.1888  1.5604 -1.3260
 5904SOL     OW29173   2.002   1.172  10.395  0.2478  0.3457 -0.1497
 5904SOL    HW129174   1.932   1.117  10.359 -1.0267  1.7787  0.0903
 5904SOL    HW229175   2.025   1.129  10.477 -0.7931 -0.5175 -0.3048
 5905SOL     OW29176   1.548   4.464   5.652 -0.3748 -0.4334  0.7671
 5905SOL    HW129177   1.485   4.491   5.586  0.0562  1.8689  1.3079
 5905SOL    HW229178   1.628   4.451   5.601 -1.9900 -2.8080 -1.1337
 5906SOL     OW29179   0.928   4.533   1.710 -0.9748 -0.0757 -0.1687
 5906SOL    HW129180   0.968   4.457   1.668  0.1241  0.0723  0.5948
 5906SOL    HW229181   0.898   4.597   1.646 -0.4376 -0.8904 -1.2352
 5907SOL     OW29182   1.182   2.559  11.428  0.1560  0.3737 -0.0252
 5907SOL    HW129183   1.243   2.488  11.450  1.8233  1.9380  0.3329
 5907SOL    HW229184   1.172   2.557  11.333 -1.6718  2.2357  0.1374
 5908SOL     OW29185   1.691   0.911   0.457  0.0155 -0.3335  0.2070
 5908SOL    HW129186   1.681   0.847   0.386 -0.8030 -0.1695  0.1674
 5908SOL    HW229187   1.647   0.986   0.416  0.8298 -0.7527 -1.4268
 5909SOL     OW29188   1.664   0.856  14.424  0.2418  0.4080 -0.3413
 5909SOL    HW129189   1.725   0.783  14.431  1.0502  0.9590 -1.6981
 5909SOL    HW229190   1.627   0.856  14.513  1.5744  0.3523  0.2081
 5910SOL     OW29191   3.234   3.005   7.986  0.3239 -0.3368  0.5320
 5910SOL    HW129192   3.153   2.961   8.014 -0.9817  0.8581 -1.3726
 5910SOL    HW229193   3.251   3.070   8.053 -0.9354 -0.0647  0.5937
 5911SOL     OW29194   3.277   2.318   2.694 -0.0928  0.1363 -0.2482
 5911SOL    HW129195   3.238   2.336   2.780 -0.1535 -1.7642  0.1174
 5911SOL    HW229196   3.237   2.382   2.636  0.7786 -0.3022 -1.3312
 5912SOL     OW29197   3.914   0.008   3.665 -0.1385  0.2901 -0.6659
 5912SOL    HW129198   3.836   4.672   3.672 -0.2107  0.5065  0.2209
 5912SOL    HW229199   3.882   0.077   3.608  0.5300  0.8323 -0.3808
 5913SOL     OW29200   0.391   0.796  14.962 -0.0361  0.2202 -0.2796
 5913SOL    HW129201   0.384   0.702  14.943  0.3205 -0.6414  3.8587
 5913SOL    HW229202   0.422   0.832  14.879  1.3807  2.8741  1.4315
 5914SOL     OW29203   1.483   2.586   2.450 -0.1519 -0.6361 -0.5308
 5914SOL    HW129204   1.563   2.599   2.399  0.4861  0.9246  0.8477
 5914SOL    HW229205   1.430   2.530   2.394  1.1298 -2.1261 -0.2307
 5915SOL     OW29206   4.668   2.175  16.142  0.6378  0.2340 -0.2623
 5915SOL    HW129207   4.584   2.217  16.159  1.1626  1.9372 -1.9727
 5915SOL    HW229208   0.003   2.227  16.201 -2.6704 -0.5928  3.5895
 5916SOL     OW29209   1.185   1.494   7.261 -0.4855  0.1789 -0.0805
 5916SOL    HW129210   1.146   1.456   7.183  0.5268 -0.0050 -0.5026
 5916SOL    HW229211   1.111   1.498   7.322  1.0615  1.0032  1.7621
 5917SOL     OW29212   3.220   2.879   3.003  0.7566  0.0292  0.0160
 5917SOL    HW129213   3.181   2.932   2.934 -0.8527  0.5398  1.3184
 5917SOL    HW229214   3.146   2.857   3.060 -0.8381  1.3800 -1.5385
 5918SOL     OW29215   3.137   1.328  12.486  0.0221 -0.2375  0.4355
 5918SOL    HW129216   3.084   1.353  12.562 -0.8231 -0.0287 -0.2267
 5918SOL    HW229217   3.090   1.248  12.458  0.3720 -0.6733  1.0970
 5919SOL     OW29218   2.784   4.585   0.331  0.1162  0.1295 -1.0422
 5919SOL    HW129219   2.792   4.548   0.243 -0.5979  1.2033 -1.5559
 5919SOL    HW229220   2.723   4.521   0.369  0.9564 -0.2986 -0.3993
 5920SOL     OW29221   3.243   0.179   6.330  0.2139  0.3179 -0.4476
 5920SOL    HW129222   3.313   0.186   6.394 -0.2386 -0.2992  0.1103
 5920SOL    HW229223   3.202   0.265   6.345 -2.6406 -0.7963 -1.9242
 5921SOL     OW29224   0.950   0.815   4.948  0.4448 -0.0440 -0.0081
 5921SOL    HW129225   1.027   0.809   4.892  1.8429  0.0689  1.9180
 5921SOL    HW229226   0.956   0.900   4.992  2.3283 -1.5916  2.7214
 5922SOL     OW29227   3.094   2.591  17.253  0.6189 -0.1411  0.3470
 5922SOL    HW129228   3.135   2.657  17.197  0.9068  0.9436  1.8414
 5922SOL    HW229229   3.105   2.636  17.337  2.6313 -2.3080  1.2197
 5923SOL     OW29230   2.882   0.993   2.791 -0.7390  0.0439  0.4044
 5923SOL    HW129231   2.796   1.034   2.779 -0.0392  2.1292  2.5532
 5923SOL    HW229232   2.940   1.036   2.727 -0.4168  0.0137  0.6736
 5924SOL     OW29233   3.314   0.150   0.685 -0.7197 -0.1957  0.4390
 5924SOL    HW129234   3.312   0.210   0.611  0.7923 -2.2321 -1.2649
 5924SOL    HW229235   3.243   0.183   0.739 -1.3344 -2.1754  0.8403
 5925SOL     OW29236   0.362   1.047  11.794 -0.0532  0.0383  0.1813
 5925SOL    HW129237   0.319   1.073  11.875 -0.3301 -1.3083  0.4680
 5925SOL    HW229238   0.422   1.121  11.781 -2.4644  1.9558 -0.0930
 5926SOL     OW29239   2.241   3.549   7.440 -0.6894 -0.6853 -0.1646
 5926SOL    HW129240   2.278   3.636   7.454 -2.5237 -0.1602  1.3478
 5926SOL    HW229241   2.313   3.499   7.400  0.8427  1.3699  0.0430
 5927SOL     OW29242   4.534   0.043  10.323 -0.3293 -0.1157 -0.9685
 5927SOL    HW129243   4.550   4.686  10.269  1.9878 -0.5541  0.3643
 5927SOL    HW229244   4.453   0.014  10.366 -0.9965 -0.5561 -2.5110
 5928SOL     OW29245   3.836   2.240  10.153  0.6217 -0.1820 -0.6539
 5928SOL    HW129246   3.747   2.206  10.161 -0.1232  2.1730  0.9809
 5928SOL    HW229247   3.873   2.174  10.094  1.9121 -0.9575  1.0368
 5929SOL     OW29248   1.222   0.315   0.984  0.4182  0.0532  0.0620
 5929SOL    HW129249   1.286   0.324   1.055  0.7373  1.8490 -0.4396
 5929SOL    HW229250   1.234   0.402   0.944 -1.5015  0.1141 -0.3656
 5930SOL     OW29251   2.776   2.884   4.615  0.2292  0.5241  0.4694
 5930SOL    HW129252   2.686   2.853   4.600 -0.0542  0.5680  2.1127
 5930SOL    HW229253   2.830   2.814   4.579 -0.3835 -0.9229  2.3433
 5931SOL     OW29254   3.637   0.699   4.112  0.4886  0.0737  0.4384
 5931SOL    HW129255   3.596   0.660   4.189  0.1765  1.3446  0.9169
 5931SOL    HW229256   3.626   0.628   4.049  1.8956 -1.2758  1.6979
 5932SOL     OW29257   1.996   4.213   9.083  0.3318 -0.8173 -0.4730
 5932SOL    HW129258   2.054   4.149   9.042  0.3405 -0.4303 -1.0545
 5932SOL    HW229259   2.061   4.250   9.143  0.1640  1.4076 -1.6542
 5933SOL     OW29260   4.103   2.236   0.775 -0.2580  0.4502  0.4299
 5933SOL    HW129261   4.088   2.179   0.851 -1.0615  0.6707  0.4369
 5933SOL    HW229262   4.150   2.172   0.721 -2.3284  0.7492 -1.6911
 5934SOL     OW29263   2.277   1.575   4.042 -0.4912  0.1532 -0.1610
 5934SOL    HW129264   2.266   1.664   4.075  0.0881  0.1545  0.0164
 5934SOL    HW229265   2.372   1.583   4.034 -0.4839 -0.4514 -0.7083
 5935SOL     OW29266   4.069   3.529   8.204 -0.0656  0.0011  0.2410
 5935SOL    HW129267   4.011   3.485   8.267  0.4472 -3.0987 -1.4895
 5935SOL    HW229268   4.016   3.577   8.140  1.6479  0.5791 -0.7168
 5936SOL     OW29269   4.361   4.045  12.055 -0.7752 -0.2268  0.0039
 5936SOL    HW129270   4.359   3.990  11.977  0.5533  0.3315 -0.4281
 5936SOL    HW229271   4.315   3.996  12.123 -1.4099 -0.1798 -0.3961
 5937SOL     OW29272   2.744   2.704   3.426 -0.0560 -0.5023  0.3386
 5937SOL    HW129273   2.702   2.789   3.435  0.6924 -0.0970  0.0488
 5937SOL    HW229274   2.836   2.726   3.442 -0.1894  1.3871 -1.4372
 5938SOL     OW29275   2.778   3.508  16.432  0.1297 -0.3413  0.2542
 5938SOL    HW129276   2.683   3.495  16.438  0.0176  0.0647 -0.6879
 5938SOL    HW229277   2.788   3.439  16.366  3.0195  0.5571 -0.2303
 5939SOL     OW29278   2.833   4.078   6.051  0.0151 -0.5528  0.4299
 5939SOL    HW129279   2.747   4.068   6.092  0.0749 -1.7231  0.2601
 5939SOL    HW229280   2.876   4.136   6.114 -1.5907  0.9386  0.1503
 5940SOL     OW29281   4.103   0.258   8.109 -0.5651  0.0407  0.2861
 5940SOL    HW129282   4.194   0.267   8.137 -0.5662 -2.8835  1.2211
 5940SOL    HW229283   4.056   0.331   8.149  0.7851  0.4680  1.0881
 5941SOL     OW29284   1.085   2.143   0.267  0.3746 -0.0181  0.5563
 5941SOL    HW129285   1.012   2.099   0.311  1.1666  0.2353  2.1033
 5941SOL    HW229286   1.146   2.174   0.334  1.1648  0.4749 -0.3932
 5942SOL     OW29287   0.354   3.662   2.554  0.2806 -0.5542 -0.0834
 5942SOL    HW129288   0.293   3.599   2.593  1.1754 -2.1420 -1.2728
 5942SOL    HW229289   0.309   3.741   2.586  2.5625  1.2216 -1.2994
 5943SOL     OW29290   3.339   2.519   6.145  0.0284  0.1321  0.2770
 5943SOL    HW129291   3.266   2.457   6.135 -0.7605  0.9200  1.2720
 5943SOL    HW229292   3.381   2.506   6.230 -1.2273  0.2045  0.9049
 5944SOL     OW29293   0.471   0.115   8.512  0.0328  0.2160 -0.0203
 5944SOL    HW129294   0.548   0.073   8.473  1.0862  2.5469 -0.4815
 5944SOL    HW229295   0.512   0.138   8.596 -1.5712  1.1831  0.5003
 5945SOL     OW29296   1.304   2.520   8.516 -1.1108 -0.3772 -0.1906
 5945SOL    HW129297   1.231   2.509   8.455 -1.4526 -1.0345  0.3457
 5945SOL    HW229298   1.272   2.480   8.597 -0.4976  2.0957  1.2653
 5946SOL     OW29299   3.157   0.729   7.757  0.0732  0.4980 -0.5157
 5946SOL    HW129300   3.067   0.729   7.725 -0.0041  0.9844 -0.2974
 5946SOL    HW229301   3.164   0.824   7.766 -1.7586  0.3753  2.2068
 5947SOL     OW29302   1.391   0.160   3.228 -0.1227  0.5000 -0.2200
 5947SOL    HW129303   1.328   0.107   3.276  0.4276 -0.8958 -1.0405
 5947SOL    HW229304   1.381   0.139   3.135 -4.0276 -0.1130  0.3418
 5948SOL     OW29305   2.763   1.468   8.688  0.0711  0.4432  0.6589
 5948SOL    HW129306   2.857   1.474   8.703  0.0475 -2.1340  1.9128
 5948SOL    HW229307   2.742   1.561   8.697 -1.0291  0.4129 -1.7842
 5949SOL     OW29308   4.104   1.298  12.863 -0.5583  0.6118  0.8402
 5949SOL    HW129309   4.200   1.302  12.863 -0.4810 -1.5840 -1.8157
 5949SOL    HW229310   4.079   1.341  12.782 -2.1904  0.0129  1.0261
 5950SOL     OW29311   0.190   2.415   9.288  0.2015 -0.1328 -0.2733
 5950SOL    HW129312   0.145   2.341   9.328  0.2607  0.7856  1.5125
 5950SOL    HW229313   0.239   2.443   9.366 -0.9850  0.2988  0.3234
 5951SOL     OW29314   1.871   0.112   6.789  0.1124  0.3360  0.4137
 5951SOL    HW129315   1.955   0.067   6.788  1.0022  2.0087  1.0523
 5951SOL    HW229316   1.898   0.203   6.800  0.4748  0.1845  0.7615
 5952SOL     OW29317   1.062   3.366   5.580 -0.1909  0.0709 -0.4089
 5952SOL    HW129318   1.033   3.275   5.589 -0.1894 -0.0018 -1.1563
 5952SOL    HW229319   1.099   3.354   5.492  1.5263 -2.5537  0.6730
 5953SOL     OW29320   1.736   2.801   4.939 -0.8200  0.3752 -0.2077
 5953SOL    HW129321   1.772   2.885   4.968 -0.0241  0.1929 -0.6664
 5953SOL    HW229322   1.712   2.765   5.024 -0.1610  0.4576  0.0186
 5954SOL     OW29323   2.044   0.230   8.806 -0.0994  0.9403 -0.1924
 5954SOL    HW129324   2.050   0.273   8.720 -1.6632 -0.5977 -1.0672
 5954SOL    HW229325   2.007   0.297   8.863 -0.2473  0.1661  0.6177
 5955SOL     OW29326   3.598   0.316   9.098  0.4301 -0.2260  0.2781
 5955SOL    HW129327   3.515   0.270   9.088  1.3718 -2.4266  2.2652
 5955SOL    HW229328   3.613   0.346   9.009 -0.3520 -0.5017  0.0567
 5956SOL     OW29329   1.853   3.984  15.617 -0.1660 -0.0461 -0.5368
 5956SOL    HW129330   1.863   4.070  15.657  0.8765 -0.8605  0.9332
 5956SOL    HW229331   1.765   3.998  15.581 -1.7104  0.7945  3.6178
 5957SOL     OW29332   3.817   4.416  11.904  0.1780 -0.0498 -0.2833
 5957SOL    HW129333   3.766   4.491  11.934 -1.7160 -0.9404 -1.3206
 5957SOL    HW229334   3.742   4.356  11.904 -0.0573  0.2719  2.1108
 5958SOL     OW29335   4.592   0.826   4.188 -0.0325  0.8119 -0.0135
 5958SOL    HW129336   4.518   0.781   4.227 -0.2156  0.7282 -0.4583
 5958SOL    HW229337   4.662   0.761   4.186  0.4499  1.3459 -0.4645
 5959SOL     OW29338   0.731   2.991   3.050  0.3711  0.0017 -0.0984
 5959SOL    HW129339   0.661   2.930   3.026  1.2497 -0.9682 -0.2175
 5959SOL    HW229340   0.737   2.977   3.145  0.4114 -1.7599 -0.3471
 5960SOL     OW29341   3.516   2.094   3.043  0.0607  0.5436 -0.3527
 5960SOL    HW129342   3.566   2.053   2.972  2.3116  1.5931  0.6064
 5960SOL    HW229343   3.519   2.030   3.114  0.8489 -0.0835 -0.9481
 5961SOL     OW29344   0.417   0.400   5.684 -0.6119  0.0693  0.1891
 5961SOL    HW129345   0.512   0.393   5.669 -0.7972  0.4430 -1.2220
 5961SOL    HW229346   0.393   0.319   5.729 -2.7372 -0.5547 -2.0755
 5962SOL     OW29347   3.431   3.244   6.877  0.3505 -0.1984 -0.1846
 5962SOL    HW129348   3.404   3.238   6.969 -0.9928  0.4200 -0.5270
 5962SOL    HW229349   3.474   3.159   6.874 -2.1814 -1.5949  2.6856
 5963SOL     OW29350   4.319   1.705   4.916 -0.0023 -0.4039  0.0862
 5963SOL    HW129351   4.231   1.732   4.888  0.0077  1.4352  1.8742
 5963SOL    HW229352   4.342   1.648   4.842  0.0706  2.0030 -1.7674
 5964SOL     OW29353   3.439   0.544  17.641  0.3071  0.1583 -0.0458
 5964SOL    HW129354   3.517   0.509   0.000 -1.1829 -1.4024  1.4121
 5964SOL    HW229355   3.462   0.637  17.652 -0.6865  0.3722  0.2225
 5965SOL     OW29356   3.258   3.556   2.647  0.4453 -0.0635 -0.5210
 5965SOL    HW129357   3.213   3.635   2.677  1.0127  0.9124 -2.2231
 5965SOL    HW229358   3.338   3.595   2.612  0.3600 -0.3522 -1.0287
 5966SOL     OW29359   0.695   3.547   5.186 -0.1902  0.1388 -0.4009
 5966SOL    HW129360   0.609   3.511   5.207 -0.7534  1.4426 -0.4703
 5966SOL    HW229361   0.730   3.574   5.271 -1.7425  0.9054  0.0014
 5967SOL     OW29362   1.985   2.959  14.388 -0.4974  0.0216  0.2677
 5967SOL    HW129363   1.938   2.885  14.349 -1.2401 -0.4428  2.0697
 5967SOL    HW229364   2.044   2.951  14.313 -0.3437  0.1432  0.3771
 5968SOL     OW29365   4.483   2.416   6.283 -0.1666  0.2868  0.2068
 5968SOL    HW129366   4.522   2.352   6.224  3.9112  0.5388  2.5988
 5968SOL    HW229367   4.417   2.370   6.336  0.1993 -1.4201 -0.8400
 5969SOL     OW29368   0.883   3.378   2.211  0.0987 -0.1467 -0.9650
 5969SOL    HW129369   0.977   3.389   2.229 -0.3435 -0.2220  1.3609
 5969SOL    HW229370   0.862   3.292   2.246  0.2329  0.6090  0.9706
 5970SOL     OW29371   3.661   4.699  11.531 -0.3915 -0.1923 -0.1786
 5970SOL    HW129372   3.717   0.047  11.568 -1.4877 -0.5273  2.0891
 5970SOL    HW229373   3.621   0.028  11.458 -0.7373 -0.6538 -0.3041
 5971SOL     OW29374   2.399   0.946   2.687 -0.3480 -0.5814 -0.3777
 5971SOL    HW129375   2.456   0.967   2.761 -0.3705  1.2053 -0.8559
 5971SOL    HW229376   2.430   1.001   2.615 -0.0923  0.4065  0.4673
 5972SOL     OW29377   2.149   3.987   8.993  0.4212  0.1733 -0.3879
 5972SOL    HW129378   2.157   3.928   8.918  1.5870 -1.0952  0.7395
 5972SOL    HW229379   2.152   3.919   9.060 -0.8274 -1.7336 -2.2529
 5973SOL     OW29380   2.620   1.468   7.044 -0.3635  0.3311  0.1302
 5973SOL    HW129381   2.622   1.511   7.130  0.3911 -1.4772  1.0189
 5973SOL    HW229382   2.622   1.377   7.073  0.2991 -0.2777 -1.8686
 5974SOL     OW29383   1.617   4.425  13.981  0.6995  0.1332 -0.1385
 5974SOL    HW129384   1.529   4.397  13.957  0.0314 -0.4167  3.0156
 5974SOL    HW229385   1.664   4.342  13.977  2.7048  1.3517 -2.4270
 5975SOL     OW29386   4.612   4.203   6.239  0.2195  0.4509  0.1418
 5975SOL    HW129387   4.518   4.186   6.231  0.4409 -0.2022 -1.0834
 5975SOL    HW229388   4.636   4.230   6.150  2.1250 -0.0328  0.5152
 5976SOL     OW29389   0.249   1.204   8.817 -0.2809 -0.3825  0.3033
 5976SOL    HW129390   0.259   1.112   8.842 -0.7356  0.3309  3.0985
 5976SOL    HW229391   0.246   1.186   8.723  0.2903  2.6954 -0.3099
 5977SOL     OW29392   3.939   0.100  13.822  0.2030 -0.8083 -0.3843
 5977SOL    HW129393   4.025   0.084  13.784  0.3468  1.2580 -0.8886
 5977SOL    HW229394   3.953   0.190  13.850  0.7985 -0.8944 -0.4221
 5978SOL     OW29395   2.751   4.139   7.696 -0.4072 -0.6570 -0.1749
 5978SOL    HW129396   2.769   4.074   7.764 -4.0145 -0.9175  0.5331
 5978SOL    HW229397   2.827   4.124   7.640  0.0294  1.6395 -0.2079
 5979SOL     OW29398   1.840   3.591   4.695  0.0364  0.2804 -0.6888
 5979SOL    HW129399   1.746   3.571   4.693  0.2709 -0.9369  1.1418
 5979SOL    HW229400   1.854   3.589   4.600  0.4792 -1.4916 -0.5898
 5980SOL     OW29401   4.221   3.817   2.339 -0.3248 -0.4339 -0.0163
 5980SOL    HW129402   4.299   3.781   2.381  0.4418 -0.9472 -1.8794
 5980SOL    HW229403   4.212   3.771   2.255 -1.4789  1.4270 -0.9055
 5981SOL     OW29404   2.456   2.909  16.969  0.2480 -0.3091 -0.0448
 5981SOL    HW129405   2.461   2.889  16.876 -0.2954  0.4173 -0.2222
 5981SOL    HW229406   2.505   2.833  17.003  0.1046 -0.2802  0.2307
 5982SOL     OW29407   3.801   1.669  14.704 -0.0181  0.1861 -0.2202
 5982SOL    HW129408   3.786   1.608  14.632 -0.9950 -0.3186  0.4280
 5982SOL    HW229409   3.714   1.706  14.717  0.5512  1.3633  0.2308
 5983SOL     OW29410   4.068   0.658  17.223 -0.4028 -0.2041  0.0957
 5983SOL    HW129411   4.136   0.710  17.181 -2.1864 -1.1205 -3.8896
 5983SOL    HW229412   4.039   0.606  17.148 -2.5561 -1.1565  1.5912
 5984SOL     OW29413   3.805   0.627   6.385 -0.1290  0.3303 -0.1520
 5984SOL    HW129414   3.872   0.695   6.387  0.4712 -0.3672  3.5336
 5984SOL    HW229415   3.738   0.675   6.434 -1.2250 -0.2502 -1.0723
 5985SOL     OW29416   4.319   3.723   3.288  0.1770  0.4659  0.0060
 5985SOL    HW129417   4.230   3.748   3.314  0.7852  0.3408  2.1969
 5985SOL    HW229418   4.296   3.641   3.244  0.3325  0.3483  0.1432
 5986SOL     OW29419   2.769   3.767   9.370 -0.9806 -0.0150 -0.3595
 5986SOL    HW129420   2.822   3.841   9.339 -0.3592 -0.1487  0.4035
 5986SOL    HW229421   2.773   3.776   9.465 -0.0137 -1.1533 -0.2970
 5987SOL     OW29422   4.671   1.467   3.421  0.6299  0.0381 -0.0718
 5987SOL    HW129423   4.674   1.449   3.515  0.4048 -1.3850 -0.3456
 5987SOL    HW229424   0.038   1.505   3.407  0.4060  1.9975  4.0193
 5988SOL     OW29425   1.308   3.430  13.962 -0.0573  0.4385 -0.3433
 5988SOL    HW129426   1.373   3.377  13.917 -0.4479  0.1176 -0.5321
 5988SOL    HW229427   1.245   3.436  13.890 -1.8890  0.4431  1.2373
 5989SOL     OW29428   1.333   2.912  11.498 -0.2804  0.1582  0.4349
 5989SOL    HW129429   1.265   2.867  11.548 -0.9363  2.6798  1.8032
 5989SOL    HW229430   1.310   3.003  11.516 -4.1082 -0.4619 -1.3663
 5990SOL     OW29431   4.604   3.510   6.289 -0.8154  0.1722  0.2840
 5990SOL    HW129432   4.678   3.558   6.326  0.3689 -1.8938  0.6188
 5990SOL    HW229433   4.623   3.420   6.315  0.2663  0.0055 -1.0373
 5991SOL     OW29434   4.516   3.997   5.025  0.1457 -0.3090 -0.2428
 5991SOL    HW129435   4.480   3.999   4.936  2.7165  1.8232 -1.2197
 5991SOL    HW229436   4.610   3.991   5.008  0.2984  1.2018  0.0777
 5992SOL     OW29437   3.345   4.008   4.849 -0.5460  0.7325 -0.0083
 5992SOL    HW129438   3.358   4.054   4.932 -0.2340  0.2532  0.2110
 5992SOL    HW229439   3.293   3.942   4.895 -0.0692 -1.2091 -2.2784
 5993SOL     OW29440   4.288   0.830   4.792 -0.5816  0.0034  0.2481
 5993SOL    HW129441   4.230   0.847   4.719  0.0682  0.4903 -0.1571
 5993SOL    HW229442   4.303   0.920   4.821  2.6770 -0.6563  0.6014
 5994SOL     OW29443   1.106   1.087   7.156  0.4544 -0.1072 -0.1896
 5994SOL    HW129444   1.085   1.054   7.068  0.5916  2.1057 -1.0607
 5994SOL    HW229445   1.127   1.001   7.191 -1.7759 -1.1475 -1.4121
 5995SOL     OW29446   4.036   0.588   1.919 -0.0748 -0.2592  0.6911
 5995SOL    HW129447   4.004   0.526   1.854  2.1018  0.1758 -0.7624
 5995SOL    HW229448   3.953   0.633   1.937  0.6757  1.0730  0.8098
 5996SOL     OW29449   1.727   0.965   1.968 -0.4684 -0.2907 -0.2971
 5996SOL    HW129450   1.712   0.918   1.886 -0.3051 -0.8225 -0.0215
 5996SOL    HW229451   1.675   0.911   2.028 -1.6513 -0.7345 -1.7453
 5997SOL     OW29452   0.131   2.498   3.204  0.3706 -0.5775 -0.3791
 5997SOL    HW129453   0.100   2.589   3.208  1.3963 -0.2429 -0.0769
 5997SOL    HW229454   0.074   2.464   3.135  1.9862 -0.8637 -1.5673
 5998SOL     OW29455   3.607   0.775  13.816  0.2314  0.1879  0.1045
 5998SOL    HW129456   3.610   0.852  13.759  1.6076 -0.0196 -0.0892
 5998SOL    HW229457   3.679   0.719  13.788  0.5970  1.0503 -0.6908
 5999SOL     OW29458   2.192   2.665  10.268 -0.7322  0.2987  0.7277
 5999SOL    HW129459   2.267   2.718  10.294 -0.3607  1.0115 -1.8031
 5999SOL    HW229460   2.223   2.590  10.217 -0.0746 -0.4209  2.1862
 6000SOL     OW29461   4.416   1.727   9.244  0.0441 -0.0362  0.2213
 6000SOL    HW129462   4.382   1.709   9.332 -0.9276  1.4296  0.1366
 6000SOL    HW229463   4.498   1.678   9.233 -0.6908 -1.7776  2.4106
 6001SOL     OW29464   0.762   0.774   7.672 -0.3540 -0.8788  0.1226
 6001SOL    HW129465   0.763   0.861   7.712  1.2540 -1.3080  1.0114
 6001SOL    HW229466   0.771   0.721   7.752 -2.5799 -2.4417 -0.6608
 6002SOL     OW29467   1.828   0.610   8.006 -0.2996  0.7195 -0.0789
 6002SOL    HW129468   1.887   0.662   7.952  1.4054 -2.2455 -1.0744
 6002SOL    HW229469   1.783   0.576   7.929  0.1110  1.4960 -0.6731
 6003SOL     OW29470   4.200   1.719   6.980 -0.4778 -0.9585  0.4634
 6003SOL    HW129471   4.163   1.634   6.956  1.1340 -0.9143 -2.2225
 6003SOL    HW229472   4.290   1.714   6.947 -0.3244  1.2783  0.5278
 6004SOL     OW29473   2.864   3.893  11.974  0.1921  0.0368  0.1383
 6004SOL    HW129474   2.871   3.810  11.927 -0.7895 -0.2206  0.4405
 6004SOL    HW229475   2.771   3.909  11.992  0.3277  0.6899  0.2718
 6005SOL     OW29476   2.715   4.222   4.747  0.3887  0.1322  0.4536
 6005SOL    HW129477   2.803   4.187   4.728  0.6406  0.7873  0.4178
 6005SOL    HW229478   2.696   4.157   4.815  0.1397  0.8745  1.0887
 6006SOL     OW29479   4.273   4.070  11.407  0.0395 -0.2130  0.7413
 6006SOL    HW129480   4.262   4.101  11.497  4.0340  1.5274  0.6398
 6006SOL    HW229481   4.263   3.975  11.414  1.0274 -0.5304 -2.1068
 6007SOL     OW29482   4.620   0.776   7.004 -0.3294 -0.9523  0.4959
 6007SOL    HW129483   4.575   0.796   7.086  1.5331  3.9875  0.2857
 6007SOL    HW229484   4.635   0.864   6.970 -1.5615 -0.8917  0.0981
 6008SOL     OW29485   0.594   2.753   4.503  0.1193  0.2796 -0.3387
 6008SOL    HW129486   0.547   2.832   4.529  3.4877  1.4146  2.3129
 6008SOL    HW229487   0.610   2.712   4.588 -0.1551 -0.8924 -0.8481
 6009SOL     OW29488   0.089   4.710   6.627 -0.0307  0.1749  0.5498
 6009SOL    HW129489   0.182   4.696   6.609 -0.1711  0.8867 -0.7411
 6009SOL    HW229490   0.075   4.678   6.717  2.3723  1.1255  1.2432
 6010SOL     OW29491   0.328   0.735   4.931 -0.4601  0.3282 -0.0110
 6010SOL    HW129492   0.273   0.796   4.881  0.3148  1.2525  0.2484
 6010SOL    HW229493   0.413   0.746   4.888  0.3197 -0.7957  1.2447
 6011SOL     OW29494   0.748   1.842   4.783 -0.6791  0.3616 -0.0766
 6011SOL    HW129495   0.763   1.842   4.877 -2.8867  0.5440  0.2811
 6011SOL    HW229496   0.764   1.933   4.760 -2.9983  0.7736 -0.0234
 6012SOL     OW29497   1.949   2.172  11.206 -0.2664 -0.4459  0.7678
 6012SOL    HW129498   2.043   2.158  11.198 -0.2880 -0.2026  0.0922
 6012SOL    HW229499   1.914   2.148  11.120 -0.6751 -0.8718  1.0496
 6013SOL     OW29500   4.168   4.710  11.299  0.2192 -0.1009 -0.3443
 6013SOL    HW129501   4.244   0.037  11.264 -0.8526  0.7346 -1.5276
 6013SOL    HW229502   4.181   4.623  11.261 -0.6393 -0.5117  0.3151
 6014SOL     OW29503   0.491   0.303   4.036 -0.4577 -0.5301  0.2540
 6014SOL    HW129504   0.458   0.229   3.986 -0.3900 -0.6367  0.3679
 6014SOL    HW229505   0.537   0.260   4.108 -0.7653 -3.1071 -1.1085
 6015SOL     OW29506   3.873   4.355  16.343 -0.5350 -0.1091 -0.9102
 6015SOL    HW129507   3.798   4.310  16.304  0.5355 -1.8240 -0.9833
 6015SOL    HW229508   3.912   4.398  16.267  1.5527 -1.5196 -0.6630
 6016SOL     OW29509   2.586   0.911   3.293  0.4716 -0.5008  0.1318
 6016SOL    HW129510   2.588   1.006   3.299 -0.1965 -0.4772 -0.0863
 6016SOL    HW229511   2.515   0.892   3.354 -1.0940  1.6881 -1.0135
 6017SOL     OW29512   1.727   2.768  17.404 -0.1476  0.3124 -0.0092
 6017SOL    HW129513   1.811   2.725  17.419 -0.9587 -1.5374 -0.7119
 6017SOL    HW229514   1.748   2.827  17.333 -0.9993  1.4603  0.6957
 6018SOL     OW29515   0.887   1.343   4.234 -0.3180  0.8019  0.8033
 6018SOL    HW129516   0.867   1.423   4.283 -0.5759 -0.0801  2.1524
 6018SOL    HW229517   0.907   1.284   4.306 -1.1588 -1.9691 -1.2537
 6019SOL     OW29518   0.078   4.445  10.953  0.1607  0.6004  0.8907
 6019SOL    HW129519   0.153   4.404  10.910  1.2189  0.8156  2.5042
 6019SOL    HW229520   0.115   4.500  11.022 -0.8022  0.3013  1.6446
 6020SOL     OW29521   1.777   3.994   5.239  0.2647  0.2216 -0.2397
 6020SOL    HW129522   1.800   3.976   5.330 -0.6127  1.9419  0.3118
 6020SOL    HW229523   1.737   4.081   5.233  0.2847  0.3060  0.9962
 6021SOL     OW29524   2.558   4.129   7.996  0.2554  0.5811 -0.2598
 6021SOL    HW129525   2.550   4.175   7.913  0.6388  0.2074 -0.5032
 6021SOL    HW229526   2.575   4.038   7.971  2.2995  0.9162 -0.1642
 6022SOL     OW29527   2.741   0.117   2.110 -0.0169 -0.5844 -0.0286
 6022SOL    HW129528   2.720   0.200   2.066  0.9310 -0.0974  0.4434
 6022SOL    HW229529   2.821   0.092   2.065 -0.9488  1.3129 -2.7394
 6023SOL     OW29530   0.346   3.927   1.478  0.0705  0.1106  0.4159
 6023SOL    HW129531   0.421   3.868   1.471  0.3772  0.2620  2.4406
 6023SOL    HW229532   0.392   4.006   1.507  1.0150 -0.6469  0.9972
 6024SOL     OW29533   1.317   4.593   8.585 -0.1392 -0.2999 -0.0718
 6024SOL    HW129534   1.410   4.611   8.570  0.2387 -1.9556  0.2171
 6024SOL    HW229535   1.282   4.682   8.582  2.4621  0.7030 -0.7051
 6025SOL     OW29536   0.647   0.642   1.794  0.2729 -0.0350 -0.2219
 6025SOL    HW129537   0.699   0.666   1.718 -0.6236 -1.1403 -1.1793
 6025SOL    HW229538   0.711   0.623   1.863  0.5883  0.7838 -0.2892
 6026SOL     OW29539   3.879   0.232   1.135  0.1993  0.0268 -0.2198
 6026SOL    HW129540   3.835   0.298   1.083  0.7005  0.2627 -0.3435
 6026SOL    HW229541   3.933   0.289   1.189  0.8873 -1.0507  0.2389
 6027SOL     OW29542   3.534   1.378   8.037  0.0437  0.3887  0.4165
 6027SOL    HW129543   3.597   1.398   8.106 -0.0925  1.6836  0.1628
 6027SOL    HW229544   3.449   1.386   8.079 -1.5644 -0.3943 -2.6449
 6028SOL     OW29545   4.430   1.611  15.369  0.3387 -0.1844 -0.6604
 6028SOL    HW129546   4.520   1.630  15.344  0.6058  0.0209  0.4338
 6028SOL    HW229547   4.447   1.517  15.371  1.0551 -0.0563 -0.9176
 6029SOL     OW29548   3.961   4.140   1.864 -0.1637  0.4003  0.0782
 6029SOL    HW129549   3.999   4.095   1.939  0.3711  1.3363  0.3604
 6029SOL    HW229550   3.946   4.068   1.802 -1.8609  1.8925 -1.2497
 6030SOL     OW29551   0.015   1.036  14.352  0.2434 -1.1401 -0.1762
 6030SOL    HW129552   4.680   1.074  14.420 -0.9363 -0.0956 -1.7047
 6030SOL    HW229553   0.096   1.021  14.402  0.7244 -0.6578 -0.8104
 6031SOL     OW29554   3.376   4.416   3.705  0.6873 -0.1135  0.0655
 6031SOL    HW129555   3.434   4.467   3.761 -0.9230 -1.3783  2.8745
 6031SOL    HW229556   3.374   4.467   3.624 -1.5655 -2.0252 -1.0978
 6032SOL     OW29557   2.128   4.136   2.741  0.3982 -0.3242 -0.6309
 6032SOL    HW129558   2.170   4.219   2.719 -2.5379  1.1870 -0.5733
 6032SOL    HW229559   2.090   4.164   2.825 -0.2990 -1.0718 -0.6927
 6033SOL     OW29560   0.657   0.468   2.448  0.0847  0.7648  0.2089
 6033SOL    HW129561   0.595   0.459   2.520 -0.6786  1.0600 -0.4115
 6033SOL    HW229562   0.654   0.387   2.397  0.5621  1.4276 -0.8841
 6034SOL     OW29563   3.261   4.237   8.332 -0.1341  0.2120  0.2829
 6034SOL    HW129564   3.315   4.227   8.410  0.6927 -1.8624 -0.5441
 6034SOL    HW229565   3.255   4.331   8.346 -1.0372  0.4647 -1.7646
 6035SOL     OW29566   1.290   3.392   6.334  0.1961 -0.1853  0.2886
 6035SOL    HW129567   1.197   3.399   6.315  0.2768  0.9734  0.3346
 6035SOL    HW229568   1.319   3.477   6.367 -2.3052 -0.0997  2.2044
 6036SOL     OW29569   0.685   4.129   7.935 -0.3562 -0.2403 -0.2711
 6036SOL    HW129570   0.686   4.127   7.840  0.6048  1.3479 -0.2858
 6036SOL    HW229571   0.611   4.072   7.956 -1.5636  1.4274  0.0862
 6037SOL     OW29572   2.691   4.578   4.958  0.7580  0.0350 -0.0858
 6037SOL    HW129573   2.646   4.644   5.011  0.2432  0.7315 -1.3973
 6037SOL    HW229574   2.742   4.535   5.027 -2.6123 -1.7036  1.3155
 6038SOL     OW29575   4.659   3.045   3.830  0.2053  0.2043 -0.3617
 6038SOL    HW129576   0.027   3.008   3.837  0.3456  0.5618 -0.2142
 6038SOL    HW229577   4.671   3.108   3.758 -0.1579 -0.2880 -0.8558
 6039SOL     OW29578   3.405   1.470   1.526  0.2536  0.5324 -0.0928
 6039SOL    HW129579   3.422   1.546   1.581  2.1309 -0.8509  1.2149
 6039SOL    HW229580   3.314   1.493   1.505  0.5159  1.3257 -0.3543
 6040SOL     OW29581   1.736   0.663  16.355  0.2499 -0.6409 -0.1517
 6040SOL    HW129582   1.697   0.672  16.268  1.0058  2.2216 -0.1997
 6040SOL    HW229583   1.824   0.687  16.328  0.3654 -0.1279  0.6602
 6041SOL     OW29584   0.597   4.489   2.118 -0.1950  0.4696 -0.3784
 6041SOL    HW129585   0.548   4.421   2.073  0.0423  0.7090 -1.0024
 6041SOL    HW229586   0.665   4.488   2.050 -1.4289 -0.6384 -1.5823
 6042SOL     OW29587   3.916   3.773   2.746  0.3527 -0.0400 -0.8466
 6042SOL    HW129588   3.891   3.686   2.714 -0.8309 -0.1682  0.4384
 6042SOL    HW229589   3.961   3.809   2.670  1.0016 -0.9365 -0.8972
 6043SOL     OW29590   0.959   2.092  17.111  0.2622 -0.2670  0.0108
 6043SOL    HW129591   1.010   2.153  17.058 -0.9233  0.8721  0.1614
 6043SOL    HW229592   0.884   2.144  17.140 -0.4404 -1.1384 -0.2618
 6044SOL     OW29593   1.637   0.624   9.707  0.4541 -0.2529 -0.1208
 6044SOL    HW129594   1.553   0.659   9.736  0.4626  0.4367 -0.9234
 6044SOL    HW229595   1.699   0.663   9.768 -0.6788  0.1280  0.7809
 6045SOL     OW29596   0.811   3.520  13.230 -0.2076 -0.0394 -0.4550
 6045SOL    HW129597   0.764   3.569  13.297  0.9437  0.0116  0.3273
 6045SOL    HW229598   0.798   3.429  13.256 -0.9301 -0.4284 -2.1536
 6046SOL     OW29599   2.010   3.894  13.209 -0.1566 -0.1520 -0.1746
 6046SOL    HW129600   2.034   3.957  13.276 -0.7738 -1.5437  1.3452
 6046SOL    HW229601   1.921   3.870  13.234 -0.5028 -0.1425 -1.3618
 6047SOL     OW29602   1.672   2.470   6.515 -0.2841  0.4771  0.8475
 6047SOL    HW129603   1.754   2.468   6.565 -0.0378 -1.9471  0.3553
 6047SOL    HW229604   1.613   2.446   6.586 -1.0171 -0.7384 -0.1859
 6048SOL     OW29605   3.054   4.226   3.957 -0.0903 -0.0929 -0.3001
 6048SOL    HW129606   2.979   4.169   3.976 -0.3301  0.7158  1.2308
 6048SOL    HW229607   3.099   4.208   4.040 -0.1012  0.1646 -0.2376
 6049SOL     OW29608   4.491   2.940   9.374 -0.2148  0.4318 -0.7131
 6049SOL    HW129609   4.554   2.978   9.435 -1.5598  1.7249 -0.1061
 6049SOL    HW229610   4.519   2.977   9.291 -0.0809  0.4292 -0.6680
 6050SOL     OW29611   1.233   1.208   3.736  0.2568  0.3136  0.3001
 6050SOL    HW129612   1.284   1.146   3.787  0.6656 -1.3592 -2.1529
 6050SOL    HW229613   1.197   1.154   3.666 -1.5285 -0.4655  1.8205
 6051SOL     OW29614   4.536   1.193   8.875 -0.1312 -0.0522 -0.2434
 6051SOL    HW129615   4.536   1.209   8.969  0.4232  1.1414 -0.4481
 6051SOL    HW229616   4.588   1.265   8.838  0.0613 -0.4927 -0.8382
 6052SOL     OW29617   3.290   1.366  17.029 -0.4089 -0.1411 -0.0089
 6052SOL    HW129618   3.255   1.331  16.947  1.1179 -0.1987 -0.6305
 6052SOL    HW229619   3.349   1.298  17.060  1.8508  1.1978 -1.3947
 6053SOL     OW29620   2.678   0.169  10.679 -1.0944  0.0035 -0.3935
 6053SOL    HW129621   2.762   0.123  10.673 -0.7866  0.5369 -0.2822
 6053SOL    HW229622   2.704   0.230  10.749  0.5918 -0.5636 -0.5160
 6054SOL     OW29623   2.028   0.882   4.223  0.4767 -1.0253 -0.4489
 6054SOL    HW129624   2.040   0.887   4.128 -1.0943 -0.6859 -0.6287
 6054SOL    HW229625   1.964   0.811   4.232 -1.3318  0.2215 -3.3663
 6055SOL     OW29626   2.949   2.902   9.223 -0.1696  0.0170  0.7787
 6055SOL    HW129627   2.973   2.852   9.301 -1.9882 -1.3581  0.4542
 6055SOL    HW229628   2.983   2.990   9.240  0.7206 -0.4275  1.2939
 6056SOL     OW29629   3.872   2.314   5.177 -0.0078  0.2190  0.1336
 6056SOL    HW129630   3.945   2.373   5.195 -0.1660  0.2374  0.7087
 6056SOL    HW229631   3.892   2.284   5.088  0.0135 -1.7444  0.8056
 6057SOL     OW29632   1.453   0.917   4.296 -0.1237 -0.3463 -0.1838
 6057SOL    HW129633   1.412   0.915   4.209 -1.5389  0.7030  0.4526
 6057SOL    HW229634   1.502   0.999   4.291 -0.2904 -0.1379  1.6101
 6058SOL     OW29635   2.340   0.476   6.535  0.0123  0.0545  0.2378
 6058SOL    HW129636   2.290   0.558   6.522  2.1555  1.1273 -1.1755
 6058SOL    HW229637   2.393   0.506   6.609 -2.1831  2.0003  1.0521
 6059SOL     OW29638   1.681   3.277   6.973 -0.1967  0.4377 -0.1563
 6059SOL    HW129639   1.743   3.303   7.040 -1.4596  1.2700  0.6759
 6059SOL    HW229640   1.599   3.308   7.010  0.4212 -1.2770  2.6300
 6060SOL     OW29641   0.169   1.307   4.363 -0.5442  0.1632  0.3865
 6060SOL    HW129642   0.255   1.347   4.346  0.5917 -2.6189 -0.4183
 6060SOL    HW229643   0.148   1.259   4.283  0.8793 -0.9291  0.6614
 6061SOL     OW29644   4.032   1.503   7.054 -0.2980 -0.4785 -0.2865
 6061SOL    HW129645   3.965   1.499   6.985 -1.4637 -2.0093  0.9479
 6061SOL    HW229646   4.006   1.569   7.117  3.6882  0.4383  0.3321
 6062SOL     OW29647   4.140   2.093  12.561  0.6348  0.3107  0.3909
 6062SOL    HW129648   4.189   2.146  12.623  1.0240 -0.1294  0.4628
 6062SOL    HW229649   4.177   2.119  12.477  0.8237 -0.8296  0.1202
 6063SOL     OW29650   3.294   4.143   7.555 -0.1674 -0.4954 -0.0182
 6063SOL    HW129651   3.348   4.219   7.580  0.6266 -0.6360 -1.3165
 6063SOL    HW229652   3.352   4.086   7.605  0.9151  0.0729 -0.6081
 6064SOL     OW29653   2.680   3.174  11.973  0.4814  0.4708  0.1159
 6064SOL    HW129654   2.640   3.153  12.058 -0.2561 -0.1135 -0.3698
 6064SOL    HW229655   2.607   3.231  11.948  0.8113  0.9964  0.3463
 6065SOL     OW29656   4.131   2.089   3.755  0.0244  0.1963 -0.1736
 6065SOL    HW129657   4.112   2.090   3.849  0.1065 -2.3944 -0.1138
 6065SOL    HW229658   4.094   2.171   3.723 -2.8385 -0.9530  0.1302
 6066SOL     OW29659   1.076   1.491   1.758 -0.1029  0.2956 -0.2406
 6066SOL    HW129660   1.106   1.485   1.667  0.3371 -0.1745 -0.0666
 6066SOL    HW229661   1.094   1.403   1.792 -0.8451  0.1666 -0.1970
 6067SOL     OW29662   2.067   2.109   5.350  0.2535 -0.7594 -0.2774
 6067SOL    HW129663   2.089   2.024   5.313 -1.2205 -1.4716  0.5067
 6067SOL    HW229664   2.025   2.095   5.435  1.5574  0.0048  0.4969
 6068SOL     OW29665   1.616   2.316   5.232  0.2578 -0.1925  0.0232
 6068SOL    HW129666   1.676   2.341   5.162  2.7259 -2.7327  1.2246
 6068SOL    HW229667   1.561   2.394   5.230 -1.3443 -1.3767 -1.7333
 6069SOL     OW29668   3.779   1.999   8.930 -0.0072 -0.0498 -0.3761
 6069SOL    HW129669   3.801   1.966   8.843  0.6254  0.9232 -0.5871
 6069SOL    HW229670   3.846   2.067   8.941  0.7455 -0.7673 -0.4736
 6070SOL     OW29671   4.701   3.747   2.462 -0.4774 -0.2105 -0.6956
 6070SOL    HW129672   0.062   3.795   2.475  0.1923 -1.0770 -1.5923
 6070SOL    HW229673   0.003   3.660   2.496  0.0872  0.0867 -0.3080
 6071SOL     OW29674   1.504   4.373   1.970 -0.7116  0.4782 -0.1394
 6071SOL    HW129675   1.532   4.296   1.921  1.5843  2.6552 -2.1765
 6071SOL    HW229676   1.414   4.345   1.989 -0.7191 -1.2066 -2.7073
 6072SOL     OW29677   4.708   4.694   4.589 -0.0559  0.0190  0.0803
 6072SOL    HW129678   4.626   4.679   4.637 -0.4316 -0.9919 -0.8872
 6072SOL    HW229679   0.024   0.034   4.654  1.2141 -1.3555  0.6401
 6073SOL     OW29680   3.396   2.346  10.149 -0.2413  0.1025  0.1392
 6073SOL    HW129681   3.456   2.280  10.184 -1.9357 -1.5713 -0.1488
 6073SOL    HW229682   3.407   2.420  10.209  3.4887 -0.3367  0.0083
 6074SOL     OW29683   1.455   1.176  15.836  0.0699 -0.5253 -0.3268
 6074SOL    HW129684   1.410   1.218  15.909  0.2304 -1.6683  0.4407
 6074SOL    HW229685   1.407   1.093  15.828  0.6252 -0.7247 -1.5845
 6075SOL     OW29686   0.724   0.490   8.329 -0.0770 -0.6401  0.2450
 6075SOL    HW129687   0.767   0.576   8.327 -0.0936 -0.6509 -0.4469
 6075SOL    HW229688   0.766   0.452   8.252 -1.0586  1.8651 -1.5556
 6076SOL     OW29689   2.908   0.698   7.608 -0.0421  0.4161  0.3093
 6076SOL    HW129690   2.891   0.617   7.561  2.9652 -0.7367  1.2091
 6076SOL    HW229691   2.836   0.690   7.671  1.6412 -0.9599  2.0487
 6077SOL     OW29692   2.112   4.412   6.336  0.0118  0.0129  0.1446
 6077SOL    HW129693   2.158   4.461   6.268 -0.3093 -0.5725 -0.4887
 6077SOL    HW229694   2.182   4.357   6.371 -0.6125 -1.1427 -0.4235
 6078SOL     OW29695   2.254   2.571  15.428  0.1818  0.5026  0.3096
 6078SOL    HW129696   2.269   2.562  15.522 -1.7104  2.1667  0.7752
 6078SOL    HW229697   2.344   2.583  15.398 -0.6245 -0.4847 -2.5449
 6079SOL     OW29698   2.117   1.748   6.655 -0.4025  0.2350  0.0767
 6079SOL    HW129699   2.086   1.659   6.673  3.7766 -1.1687  0.4759
 6079SOL    HW229700   2.065   1.795   6.719  1.5209  1.0921  0.9867
 6080SOL     OW29701   4.333   1.063   5.887  0.2642 -0.2908  0.4662
 6080SOL    HW129702   4.335   1.155   5.859  0.8719 -0.4075  0.1325
 6080SOL    HW229703   4.375   1.015   5.816 -0.1676 -1.3546  0.9343
 6081SOL     OW29704   1.048   0.573   2.451  0.2548  0.7374  0.1551
 6081SOL    HW129705   1.117   0.622   2.406  1.1045 -2.1967 -1.7599
 6081SOL    HW229706   1.107   0.537   2.517  1.1280  2.9763  0.5842
 6082SOL     OW29707   1.081   2.823   5.764  0.5416  0.5007  0.3218
 6082SOL    HW129708   1.141   2.799   5.835  1.9379  0.1866 -0.9757
 6082SOL    HW229709   1.016   2.754   5.764 -0.4752  1.4553 -0.1073
 6083SOL     OW29710   3.110   1.312   9.277 -0.0417 -0.0533 -0.5589
 6083SOL    HW129711   3.130   1.405   9.293 -2.1506  0.1980  0.6570
 6083SOL    HW229712   3.036   1.321   9.217 -0.9460  0.5182  0.6529
 6084SOL     OW29713   3.987   0.410   7.610 -0.1545  0.3033 -0.4489
 6084SOL    HW129714   4.076   0.443   7.622 -0.5570  0.9935  0.6924
 6084SOL    HW229715   3.964   0.376   7.696  0.8989  1.1086  0.1517
 6085SOL     OW29716   3.319   4.524   8.312  0.3535 -0.8074  0.2766
 6085SOL    HW129717   3.316   4.596   8.250  0.4014  0.2858  1.5469
 6085SOL    HW229718   3.347   4.578   8.385  0.8775 -0.2559 -0.3373
 6086SOL     OW29719   4.625   3.367  15.887  0.1732 -0.1004  0.0643
 6086SOL    HW129720   4.551   3.404  15.935  0.1425  0.3430 -0.3183
 6086SOL    HW229721   4.593   3.351  15.798 -0.1386  0.8854 -0.0053
 6087SOL     OW29722   2.412   2.133   5.973 -0.1854 -0.2532 -0.1558
 6087SOL    HW129723   2.470   2.208   5.981 -2.1514  1.0848  1.6868
 6087SOL    HW229724   2.347   2.149   6.042  1.2402 -0.7668  1.3141
 6088SOL     OW29725   1.839   2.164   3.576 -0.4869  0.2068  0.0043
 6088SOL    HW129726   1.852   2.133   3.486 -0.3073 -0.2537  0.1880
 6088SOL    HW229727   1.881   2.249   3.564  0.5133 -0.3500 -0.4387
 6089SOL     OW29728   2.748   3.865   4.237 -0.1205  0.5611 -0.0451
 6089SOL    HW129729   2.688   3.888   4.309 -0.3975  2.0547 -0.7499
 6089SOL    HW229730   2.748   3.943   4.182 -0.4317  0.4398 -0.2194
 6090SOL     OW29731   3.424   3.456  16.827 -0.1946 -0.1931  0.9169
 6090SOL    HW129732   3.363   3.445  16.754 -1.2079  1.1207  1.5635
 6090SOL    HW229733   3.380   3.440  16.910  1.3303 -1.5699  1.4684
 6091SOL     OW29734   4.069   4.622   6.717  0.6332 -0.1190 -0.0088
 6091SOL    HW129735   4.004   4.691   6.724  0.1717 -0.4262 -1.2664
 6091SOL    HW229736   4.020   4.546   6.748  2.7623 -1.3434  0.4219
 6092SOL     OW29737   3.137   0.576   1.451  0.5615 -0.3716  0.5217
 6092SOL    HW129738   3.180   0.651   1.409 -0.0396 -0.8947 -1.0421
 6092SOL    HW229739   3.180   0.570   1.536 -0.9720  0.9350  1.3677
 6093SOL     OW29740   1.168   1.429   2.068 -0.1926 -0.2083  0.1034
 6093SOL    HW129741   1.150   1.521   2.051 -0.8878 -0.7349 -1.9382
 6093SOL    HW229742   1.258   1.419   2.038  0.1386  3.0883 -0.0133
 6094SOL     OW29743   3.619   0.812   2.646 -0.0903 -0.1576  0.6063
 6094SOL    HW129744   3.529   0.785   2.662 -1.1936  1.8631 -2.1647
 6094SOL    HW229745   3.658   0.732   2.610  0.0315  1.0802 -2.0707
 6095SOL     OW29746   4.001   1.721  12.689 -0.5172 -0.1377 -0.0441
 6095SOL    HW129747   4.014   1.633  12.654 -0.0279 -0.2539  0.4318
 6095SOL    HW229748   3.924   1.698  12.741  0.1282 -1.9220  0.1213
 6096SOL     OW29749   0.568   1.834   9.801 -0.0103 -0.0863  0.4085
 6096SOL    HW129750   0.562   1.745   9.765 -1.1631  0.2020 -0.1175
 6096SOL    HW229751   0.495   1.878   9.756 -1.8508 -2.4778  1.0115
 6097SOL     OW29752   3.060   2.260   1.081  0.5278 -0.2883  0.8093
 6097SOL    HW129753   2.966   2.249   1.094  0.4357 -1.2293 -0.5980
 6097SOL    HW229754   3.072   2.242   0.987 -1.6282 -2.3583  0.9242
 6098SOL     OW29755   0.371   4.571   4.312 -0.5763  0.1416  0.3050
 6098SOL    HW129756   0.412   4.505   4.367  1.4588 -1.1218 -2.7103
 6098SOL    HW229757   0.282   4.561   4.344 -1.1224  0.5158 -1.1113
 6099SOL     OW29758   4.453   1.651   6.850 -0.3305  0.0959 -0.6558
 6099SOL    HW129759   4.488   1.562   6.847 -0.2653  0.1283 -0.9290
 6099SOL    HW229760   4.431   1.665   6.758 -0.0920 -2.5883 -1.1138
 6100SOL     OW29761   4.307   1.724   7.928 -0.0777 -0.4203  0.1579
 6100SOL    HW129762   4.396   1.710   7.960 -0.4036 -0.4384  1.0528
 6100SOL    HW229763   4.265   1.638   7.933  0.3493 -0.5491  1.8186
 6101SOL     OW29764   0.494   1.862   6.940 -0.1183 -0.1611  0.0480
 6101SOL    HW129765   0.410   1.860   6.894  0.1187  3.5233 -0.5819
 6101SOL    HW229766   0.553   1.804   6.892  1.1152  0.3029  1.0129
 6102SOL     OW29767   3.430   4.325   2.816 -0.3854 -0.1021  0.6217
 6102SOL    HW129768   3.412   4.328   2.722 -0.0255 -1.0913  0.5167
 6102SOL    HW229769   3.522   4.302   2.804 -0.2752  0.0642  1.1725
 6103SOL     OW29770   1.380   3.360   4.085  0.0767  0.2163 -0.2159
 6103SOL    HW129771   1.368   3.455   4.090  1.3179  0.3365  0.5197
 6103SOL    HW229772   1.300   3.341   4.035 -1.7375 -0.9849  3.2020
 6104SOL     OW29773   1.771   1.614   3.742  0.1987  0.3074  0.1549
 6104SOL    HW129774   1.694   1.585   3.790  1.4048 -0.9826  1.3132
 6104SOL    HW229775   1.732   1.691   3.699  4.4471  1.6335 -1.3927
 6105SOL     OW29776   4.064   1.524  16.755 -0.0563  0.0988 -0.4646
 6105SOL    HW129777   4.007   1.549  16.828  4.1012  0.9575  2.4487
 6105SOL    HW229778   4.146   1.531  16.804 -0.5841  1.1662  0.2794
 6106SOL     OW29779   4.324   4.279   3.560 -0.2082  0.0290  0.8006
 6106SOL    HW129780   4.325   4.243   3.471  2.0212 -0.2515  0.9526
 6106SOL    HW229781   4.347   4.371   3.546  0.2425 -0.1630  0.3002
 6107SOL     OW29782   3.983   3.586  10.881 -0.0998  0.0959  0.6981
 6107SOL    HW129783   3.910   3.566  10.939  1.0933  0.8114  2.4580
 6107SOL    HW229784   4.044   3.515  10.897 -0.2191 -0.1338  0.1091
 6108SOL     OW29785   1.800   3.806   3.028  0.7117 -0.0373 -0.3389
 6108SOL    HW129786   1.729   3.766   2.978  0.4953 -1.0864  0.8054
 6108SOL    HW229787   1.857   3.730   3.038 -2.2806 -2.1203  0.7162
 6109SOL     OW29788   3.738   3.466   6.028 -0.4900  0.3848 -0.5844
 6109SOL    HW129789   3.824   3.508   6.036  0.2102 -1.2367  0.3532
 6109SOL    HW229790   3.717   3.511   5.946  0.7481  1.6770 -0.1898
 6110SOL     OW29791   4.412   2.655   2.700  0.2145  0.2027  0.7579
 6110SOL    HW129792   4.354   2.711   2.752 -1.2050  0.5243 -1.1718
 6110SOL    HW229793   4.414   2.575   2.752  0.5266 -0.0371  0.3730
 6111SOL     OW29794   0.882   1.625   5.961  0.3751  0.0077  0.0277
 6111SOL    HW129795   0.898   1.591   5.873  0.8551  2.9192 -1.0332
 6111SOL    HW229796   0.896   1.718   5.940  1.3473 -0.0104  0.6216
 6112SOL     OW29797   2.455   3.535  17.466 -0.6764 -0.1550  0.0397
 6112SOL    HW129798   2.515   3.563  17.536  0.1615  0.2015 -0.8118
 6112SOL    HW229799   2.430   3.451  17.505  2.8095 -0.5109  1.5159
 6113SOL     OW29800   3.729   0.839   1.252 -0.0219  0.1433 -0.3898
 6113SOL    HW129801   3.780   0.899   1.307  1.4009 -0.7711 -0.7144
 6113SOL    HW229802   3.715   0.886   1.170  2.1297  1.7948  0.1830
 6114SOL     OW29803   3.910   0.239   5.039 -0.2353 -0.6198  0.0675
 6114SOL    HW129804   3.950   0.326   5.039 -1.9529  0.1672  0.9359
 6114SOL    HW229805   3.894   0.230   5.133  0.7262  2.2565  0.4943
 6115SOL     OW29806   0.746   3.681   0.498 -0.1305  0.0939 -0.0004
 6115SOL    HW129807   0.820   3.742   0.499  0.3727 -0.5332  2.1005
 6115SOL    HW229808   0.789   3.596   0.492 -0.2924  0.0047  0.1200
 6116SOL     OW29809   4.474   0.340  10.349 -0.5220  0.3844 -0.1037
 6116SOL    HW129810   4.493   0.249  10.324 -2.1632 -0.1785  0.7223
 6116SOL    HW229811   4.553   0.370  10.393  0.2495 -0.0272 -1.1966
 6117SOL     OW29812   3.012   0.068  16.358  0.2796 -0.0075  0.1548
 6117SOL    HW129813   3.107   0.072  16.362  0.1720  1.3047  1.5670
 6117SOL    HW229814   3.003   4.706  16.406 -1.4598  0.6494  0.9600
 6118SOL     OW29815   3.907   1.696   7.604 -0.7133 -0.1911  0.2848
 6118SOL    HW129816   3.872   1.719   7.690 -0.1503  0.8384  0.2377
 6118SOL    HW229817   3.964   1.772   7.593 -1.0673  0.2510  1.5396
 6119SOL     OW29818   0.871   0.251   8.548  0.2881 -0.1977 -0.3930
 6119SOL    HW129819   0.895   0.178   8.605 -0.2905  0.9011  1.2552
 6119SOL    HW229820   0.937   0.247   8.479 -0.4361  2.8780 -1.2564
 6120SOL     OW29821   0.755   3.134   9.821  0.1868 -0.6225 -0.5164
 6120SOL    HW129822   0.801   3.218   9.828  1.1495 -1.2390  0.4001
 6120SOL    HW229823   0.787   3.092   9.741  0.9229 -3.3016  1.2064
 6121SOL     OW29824   1.114   3.420   4.091 -0.0003 -0.0605 -0.2019
 6121SOL    HW129825   1.090   3.354   4.156  2.0236 -1.4948 -0.9051
 6121SOL    HW229826   1.054   3.397   4.020  0.1814 -0.3591 -0.2572
 6122SOL     OW29827   1.230   0.617   0.562  0.0714  0.2629  0.3603
 6122SOL    HW129828   1.314   0.639   0.522 -0.7825  1.4054 -0.8080
 6122SOL    HW229829   1.195   0.549   0.504  1.5837  0.1488 -0.4166
 6123SOL     OW29830   3.166   1.568  13.007 -0.3547 -0.3573 -0.2687
 6123SOL    HW129831   3.187   1.602  12.919 -1.2514 -0.7161 -0.6209
 6123SOL    HW229832   3.253   1.568  13.047 -1.2430 -1.1846  1.6562
 6124SOL     OW29833   0.241   2.286   3.551  0.5598 -0.3438 -0.3389
 6124SOL    HW129834   0.182   2.298   3.625 -0.6857 -1.2156 -1.2020
 6124SOL    HW229835   0.269   2.195   3.559  0.1083 -0.2771  2.0001
 6125SOL     OW29836   1.662   0.572  17.150 -0.2692  0.0263  0.0526
 6125SOL    HW129837   1.583   0.589  17.098  0.1014  0.1446 -0.4636
 6125SOL    HW229838   1.721   0.637  17.114  0.8338 -1.1557 -0.2860
 6126SOL     OW29839   2.126   0.201  10.458 -0.2508 -0.4179  0.2701
 6126SOL    HW129840   2.071   0.173  10.531 -1.8718 -0.2824 -0.8949
 6126SOL    HW229841   2.202   0.228  10.511 -0.1699 -1.4242  0.6631
 6127SOL     OW29842   0.771   4.617  12.579 -0.2119  0.0185 -0.1821
 6127SOL    HW129843   0.779   4.711  12.563  2.0911 -0.2508 -0.4976
 6127SOL    HW229844   0.688   4.604  12.531 -1.3591  4.3253  0.6613
 6128SOL     OW29845   4.263   1.812   6.447 -0.1729  0.1071 -0.3087
 6128SOL    HW129846   4.351   1.820   6.411 -0.2783  1.7368 -0.2362
 6128SOL    HW229847   4.233   1.727   6.415  1.5128 -0.3522 -0.6746
 6129SOL     OW29848   2.860   3.644   4.119  0.2798 -0.2986 -0.3553
 6129SOL    HW129849   2.805   3.711   4.160  0.2237 -0.7001  0.2291
 6129SOL    HW229850   2.903   3.611   4.198 -0.0296 -0.9274 -0.4453
 6130SOL     OW29851   2.221   3.416   8.465  0.0085  0.2890  0.1544
 6130SOL    HW129852   2.129   3.389   8.473 -0.7371  2.4672 -1.0340
 6130SOL    HW229853   2.258   3.340   8.420 -0.1800  1.0186 -1.2177
 6131SOL     OW29854   4.256   0.996   1.577  0.0617  0.1225  0.2690
 6131SOL    HW129855   4.217   1.027   1.659  1.7386 -1.9562  1.8685
 6131SOL    HW229856   4.242   0.902   1.586 -1.9107  0.6346  2.7585
 6132SOL     OW29857   1.007   0.540   8.514 -0.0762 -0.4915 -0.2969
 6132SOL    HW129858   0.993   0.456   8.557  0.0672  0.0093  0.7211
 6132SOL    HW229859   1.095   0.564   8.542  0.7674 -1.1510 -2.4019
 6133SOL     OW29860   3.206   3.108   6.419 -0.3662 -0.6926  0.4085
 6133SOL    HW129861   3.222   3.174   6.487  0.0728 -0.9046  0.5103
 6133SOL    HW229862   3.269   3.139   6.355  1.2975 -1.1850  1.7997
 6134SOL     OW29863   0.262   1.489   6.143  0.1452 -0.2010  0.0353
 6134SOL    HW129864   0.181   1.516   6.186 -0.0382 -3.7848  1.8655
 6134SOL    HW229865   0.302   1.576   6.138  1.9463 -0.8880  2.7291
 6135SOL     OW29866   1.139   4.424   3.900  0.2845 -0.0142 -0.1076
 6135SOL    HW129867   1.101   4.339   3.922 -0.0621  0.0979 -0.2581
 6135SOL    HW229868   1.149   4.420   3.805  1.9544  1.3922  0.0060
 6136SOL     OW29869   0.653   3.422   8.021 -0.2441 -0.2310 -0.2635
 6136SOL    HW129870   0.577   3.479   8.037  1.5153  2.0717 -0.0515
 6136SOL    HW229871   0.674   3.463   7.937  2.2806  0.0906  0.5234
 6137SOL     OW29872   2.518   2.011  17.306 -0.3503  0.1524 -0.0418
 6137SOL    HW129873   2.466   1.960  17.368 -1.6132 -0.6668 -1.7751
 6137SOL    HW229874   2.479   1.970  17.229  0.0871  1.1040 -0.7776
 6138SOL     OW29875   2.257   0.502   4.534 -0.4205  0.1571  0.0171
 6138SOL    HW129876   2.337   0.510   4.483  0.1914  0.0450  0.9622
 6138SOL    HW229877   2.188   0.484   4.470 -0.7159 -1.1809  0.7000
 6139SOL     OW29878   2.648   1.237   9.059 -0.5105  0.9120 -0.0882
 6139SOL    HW129879   2.597   1.173   9.009  2.5688 -0.6428 -1.2856
 6139SOL    HW229880   2.697   1.180   9.119 -0.9901  0.4400 -0.1453
 6140SOL     OW29881   2.973   4.045   5.322 -0.1832 -0.2923  0.2056
 6140SOL    HW129882   2.913   4.102   5.273 -1.5722 -1.5330  0.4659
 6140SOL    HW229883   2.995   4.097   5.400 -1.8649  2.0215 -0.8564
 6141SOL     OW29884   3.111   1.614  14.185  0.2823  0.3988  0.2320
 6141SOL    HW129885   3.118   1.701  14.226  1.3306 -0.6132  2.1749
 6141SOL    HW229886   3.063   1.569  14.254  0.4619 -1.5589 -0.9389
 6142SOL     OW29887   4.212   1.146   4.013 -0.0482 -0.0202 -0.0662
 6142SOL    HW129888   4.149   1.137   4.084  0.8779 -1.2752  0.5997
 6142SOL    HW229889   4.191   1.077   3.950 -0.9978 -0.7873  1.0848
 6143SOL     OW29890   1.227   1.957  15.967 -0.7967  0.4349 -1.0005
 6143SOL    HW129891   1.317   1.963  15.936 -0.8522  1.0775 -1.0393
 6143SOL    HW229892   1.174   2.021  15.919 -1.8995  0.1673 -0.1501
 6144SOL     OW29893   4.455   4.189  13.736 -0.4019  0.3746  0.2653
 6144SOL    HW129894   4.430   4.222  13.822  0.3462  1.1242  0.1934
 6144SOL    HW229895   4.508   4.266  13.715  0.9818 -0.0352  2.3023
 6145SOL     OW29896   4.372   3.124  15.922  0.3239 -0.1701  0.1040
 6145SOL    HW129897   4.350   3.043  15.876 -1.0956  0.8209 -0.9510
 6145SOL    HW229898   4.427   3.161  15.852 -1.3870  1.4684 -0.3808
 6146SOL     OW29899   0.982   3.131   1.332 -0.0342 -0.4899 -0.7509
 6146SOL    HW129900   0.974   3.167   1.421 -2.1366 -1.3782 -0.5872
 6146SOL    HW229901   1.070   3.095   1.342 -0.7068 -2.7154 -2.9566
 6147SOL     OW29902   3.920   2.494   7.793  0.3307 -0.1258 -0.6093
 6147SOL    HW129903   3.935   2.449   7.710 -0.5167  0.2517 -0.9673
 6147SOL    HW229904   3.898   2.581   7.760 -0.2330  0.4574  1.2821
 6148SOL     OW29905   3.718   4.366   8.492  0.2180 -0.5516  0.3344
 6148SOL    HW129906   3.769   4.421   8.433 -1.1125 -0.0054 -0.3013
 6148SOL    HW229907   3.732   4.393   8.583 -0.4772 -1.1012  0.6116
 6149SOL     OW29908   4.292   2.955   3.986 -0.7426 -0.2280 -0.5125
 6149SOL    HW129909   4.240   3.031   3.962  0.5322 -0.0262 -2.5940
 6149SOL    HW229910   4.302   2.908   3.904 -1.2831  0.0235 -0.7253
 6150SOL     OW29911   2.159   0.789   8.635 -0.2537 -0.4159  0.2477
 6150SOL    HW129912   2.244   0.760   8.667 -0.2674 -0.8262 -0.0817
 6150SOL    HW229913   2.144   0.865   8.691  4.2720  0.8334 -0.2318
 6151SOL     OW29914   1.219   1.962  10.198 -0.0146 -0.1049  0.2110
 6151SOL    HW129915   1.267   1.929  10.274 -0.2443 -0.4743  0.1916
 6151SOL    HW229916   1.260   2.048  10.184 -1.8564  0.8137  0.5144
 6152SOL     OW29917   4.003   2.701  13.515 -0.1896 -0.2107 -0.0435
 6152SOL    HW129918   4.007   2.793  13.542 -1.3934  0.0890 -0.8703
 6152SOL    HW229919   3.936   2.708  13.447 -0.4184 -0.7901  0.1251
 6153SOL     OW29920   3.904   1.282  13.347 -0.4492 -0.3853  0.0765
 6153SOL    HW129921   3.864   1.254  13.265 -4.1085  3.6539  0.5060
 6153SOL    HW229922   3.998   1.269  13.332 -0.4131  0.5499 -0.5274
 6154SOL     OW29923   2.525   1.164   9.865  0.0422 -0.7913 -0.1858
 6154SOL    HW129924   2.580   1.139   9.791 -1.4044 -2.2032 -0.7719
 6154SOL    HW229925   2.561   1.250   9.884 -1.9332  0.3854 -1.7629
 6155SOL     OW29926   0.550   4.452  10.613 -0.0366 -0.4618  0.5440
 6155SOL    HW129927   0.533   4.361  10.637 -0.0986 -0.2355  1.3774
 6155SOL    HW229928   0.472   4.494  10.650 -0.2257  1.2171 -1.7669
 6156SOL     OW29929   4.242   0.491   8.153  0.0618  0.1709 -0.1179
 6156SOL    HW129930   4.293   0.479   8.234  0.7655 -0.6478 -0.6798
 6156SOL    HW229931   4.302   0.479   8.080 -1.6396  0.2675 -1.5318
 6157SOL     OW29932   0.768   1.132  10.369  0.0665 -0.0918  0.7308
 6157SOL    HW129933   0.792   1.040  10.383  0.0152 -0.5999 -2.4034
 6157SOL    HW229934   0.686   1.141  10.418 -0.4081 -1.0697  0.1132
 6158SOL     OW29935   0.241   1.314   4.869  0.3837 -0.0262  0.2467
 6158SOL    HW129936   0.330   1.343   4.852 -0.2376  1.7453  0.0413
 6158SOL    HW229937   0.244   1.228   4.912  0.2803 -0.0812  0.1484
 6159SOL     OW29938   4.280   2.409  13.184  0.1050  0.3079 -0.4170
 6159SOL    HW129939   4.296   2.335  13.243 -0.4088  0.7722  0.3047
 6159SOL    HW229940   4.364   2.456  13.175  1.2987 -1.5217  1.1001
 6160SOL     OW29941   4.549   1.876   2.969  0.3644 -0.1468  0.2036
 6160SOL    HW129942   4.638   1.896   2.938  0.2541 -0.1742 -0.1227
 6160SOL    HW229943   4.528   1.793   2.927  0.3887  0.7797 -1.6607
 6161SOL     OW29944   2.320   1.997   0.981  0.1067  0.0640  0.0575
 6161SOL    HW129945   2.380   2.025   1.050 -0.0642  0.6900 -0.0446
 6161SOL    HW229946   2.370   2.016   0.902  2.4787 -2.3992  0.9461
 6162SOL     OW29947   1.962   3.024   6.444  0.4309 -0.0163 -0.2851
 6162SOL    HW129948   1.871   2.998   6.428 -0.3104  1.6529  1.1407
 6162SOL    HW229949   1.956   3.086   6.517  2.4540 -1.1174  0.7914
 6163SOL     OW29950   1.950   2.968   8.118  0.2197  1.2933  0.5036
 6163SOL    HW129951   2.028   2.956   8.063 -0.2714 -2.8123  0.7303
 6163SOL    HW229952   1.930   2.878   8.143 -0.6123  1.3756  0.1266
 6164SOL     OW29953   2.637   0.204   9.101  0.8560 -0.2574  0.7928
 6164SOL    HW129954   2.702   0.136   9.121  0.1661 -0.0690  3.6853
 6164SOL    HW229955   2.555   0.158   9.115  1.8201 -1.1836  3.4721
 6165SOL     OW29956   0.493   1.176   9.950 -0.2398 -0.0776  0.7768
 6165SOL    HW129957   0.541   1.147  10.027  0.8091 -2.9462 -0.9698
 6165SOL    HW229958   0.469   1.265   9.975 -1.3309 -0.1896  0.1240
 6166SOL     OW29959   2.398   0.091   4.890 -0.0240 -0.1619 -0.0569
 6166SOL    HW129960   2.388   0.186   4.894  0.2849 -0.0593 -1.9507
 6166SOL    HW229961   2.460   0.088   4.817  2.4397  0.9608  2.0016
 6167SOL     OW29962   2.492   2.948   3.159  0.4653  0.0668  0.2156
 6167SOL    HW129963   2.414   2.919   3.111  1.1180  0.8113 -1.2818
 6167SOL    HW229964   2.455   2.959   3.247  1.7887 -0.3095  0.8061
 6168SOL     OW29965   0.421   3.180   6.364 -0.0821  0.1717  0.1024
 6168SOL    HW129966   0.459   3.249   6.419 -0.3814 -0.1769  0.7555
 6168SOL    HW229967   0.415   3.104   6.423  0.9943  0.3888  0.4935
 6169SOL     OW29968   1.818   0.471  16.789 -0.5043  0.6452 -0.0612
 6169SOL    HW129969   1.847   0.558  16.815 -0.3087  0.1645  1.3142
 6169SOL    HW229970   1.856   0.416  16.857 -0.6038  0.5160 -0.1101
 6170SOL     OW29971   4.017   2.216   8.103 -0.4571  0.2416 -0.2520
 6170SOL    HW129972   3.995   2.139   8.155 -0.5630  1.8255  2.0264
 6170SOL    HW229973   4.026   2.169   8.020  2.4408 -1.7956  1.2028
 6171SOL     OW29974   4.522   0.339   6.211 -0.0110 -0.2067  0.6142
 6171SOL    HW129975   4.521   0.422   6.259 -0.2015 -0.2741  0.7277
 6171SOL    HW229976   4.493   0.370   6.124  0.0981 -0.3996  0.5101
 6172SOL     OW29977   0.060   1.933   6.301  0.3749  0.3388  0.4850
 6172SOL    HW129978   0.073   1.942   6.206 -1.5083 -1.9783  0.0151
 6172SOL    HW229979   0.074   2.021   6.337  2.0699  0.7299 -1.0689
 6173SOL     OW29980   0.476   2.581   8.117 -0.1070 -0.3384  0.0981
 6173SOL    HW129981   0.428   2.526   8.178  1.5752 -0.3321  1.4518
 6173SOL    HW229982   0.404   2.635   8.086  1.0502  0.1179 -1.8127
 6174SOL     OW29983   4.637   1.027   4.004  0.4154  0.6837  0.4711
 6174SOL    HW129984   4.661   0.957   3.944 -0.9030 -0.1699  0.9354
 6174SOL    HW229985   4.583   0.970   4.059  0.1667  0.1693 -0.3150
 6175SOL     OW29986   0.458   2.393   6.638 -0.2704 -0.0761 -0.2248
 6175SOL    HW129987   0.440   2.395   6.732  0.8122 -1.3910  0.0127
 6175SOL    HW229988   0.400   2.461   6.605 -1.5744 -1.4812 -0.8143
 6176SOL     OW29989   0.906   2.071   7.872  0.3547  0.3314  0.5231
 6176SOL    HW129990   0.826   2.081   7.820  0.1079 -1.5648  0.5402
 6176SOL    HW229991   0.879   2.096   7.960  1.4873  2.1366  0.3493
 6177SOL     OW29992   0.192   0.329  11.915  0.4231 -0.0348 -0.2159
 6177SOL    HW129993   0.256   0.399  11.901  1.1453 -0.2480  1.8581
 6177SOL    HW229994   0.193   0.335  12.011  1.9437  1.7246 -0.3337
 6178SOL     OW29995   0.028   0.443   8.537 -0.2246  0.2312  0.7105
 6178SOL    HW129996   4.704   0.526   8.553  0.4151  1.0394 -1.7283
 6178SOL    HW229997   0.096   0.451   8.603  1.4607  0.1754 -1.0253
 6179SOL     OW29998   2.082   3.121  13.436 -0.4260 -0.2087  0.0723
 6179SOL    HW129999   2.063   3.028  13.424 -1.5131  0.2857 -2.0767
 6179SOL    HW230000   2.069   3.130  13.530 -0.8215 -0.0438  0.0040
 6180SOL     OW30001   1.665   4.112  15.982  0.1471 -0.2768 -0.0118
 6180SOL    HW130002   1.596   4.141  15.922 -0.0884 -0.5300  0.1401
 6180SOL    HW230003   1.743   4.137  15.931 -1.0331  1.2981 -1.0318
 6181SOL     OW30004   3.891   1.720   8.831 -0.6867  0.2347 -0.0118
 6181SOL    HW130005   3.953   1.656   8.798 -0.1018  1.2519 -0.8682
 6181SOL    HW230006   3.936   1.761   8.904  0.7774 -0.9850 -0.2314
 6182SOL     OW30007   2.885   4.687   8.593 -0.3693 -0.5334 -0.3437
 6182SOL    HW130008   2.925   4.608   8.629  1.0219  1.4575  2.4742
 6182SOL    HW230009   2.839   4.711   8.673 -1.7532  0.8827 -1.5719
 6183SOL     OW30010   2.217   4.561   7.551  0.1069  0.3336  0.2379
 6183SOL    HW130011   2.237   4.473   7.582  0.9697  0.0314 -1.1634
 6183SOL    HW230012   2.226   4.563   7.456 -0.4936 -0.2875  0.1669
 6184SOL     OW30013   3.812   3.302   7.679  0.8118  0.1311 -0.5868
 6184SOL    HW130014   3.848   3.360   7.746  0.5171 -1.9414  1.3533
 6184SOL    HW230015   3.821   3.353   7.598  3.8306 -0.4822 -0.6308
 6185SOL     OW30016   0.960   0.574  10.576 -0.1374  0.2390 -0.4660
 6185SOL    HW130017   1.008   0.548  10.655 -0.5947 -1.1994 -0.6563
 6185SOL    HW230018   0.921   0.488  10.560 -3.2335  1.6472 -0.5409
 6186SOL     OW30019   4.181   2.012   6.625 -0.3623 -0.1926  0.3830
 6186SOL    HW130020   4.139   1.978   6.704 -1.2411 -0.4633 -0.1933
 6186SOL    HW230021   4.197   1.930   6.577 -1.7995 -0.7443  0.8156
 6187SOL     OW30022   2.440   1.428  13.568  0.4437  0.4969 -0.3603
 6187SOL    HW130023   2.454   1.416  13.662 -1.6411  2.0627  0.1496
 6187SOL    HW230024   2.489   1.353  13.534  0.5875  0.8468 -0.9124
 6188SOL     OW30025   0.760   1.318   2.975  0.3487  0.4822  0.1520
 6188SOL    HW130026   0.691   1.301   2.910 -0.3805  0.0832  1.0243
 6188SOL    HW230027   0.751   1.230   3.013  2.2430 -0.5234 -1.7637
 6189SOL     OW30028   2.566   4.303   0.918 -0.2316 -0.0161 -0.0017
 6189SOL    HW130029   2.598   4.212   0.917  3.6651  1.2618  3.7453
 6189SOL    HW230030   2.547   4.310   1.012  1.4387 -1.8348  0.5016
 6190SOL     OW30031   2.767   1.925   8.859  0.6210  0.5138  0.1888
 6190SOL    HW130032   2.696   1.893   8.914  1.4449  2.1095  2.1909
 6190SOL    HW230033   2.751   1.900   8.768  0.2662 -1.9150  0.9321
 6191SOL     OW30034   4.045   2.812   1.748 -0.5739 -0.2791  0.0950
 6191SOL    HW130035   4.050   2.905   1.727 -1.1406  0.5448  3.6298
 6191SOL    HW230036   4.063   2.776   1.661  0.4029  2.1217 -0.6925
 6192SOL     OW30037   0.861   2.779   3.373 -0.3109 -0.0525 -0.5233
 6192SOL    HW130038   0.793   2.823   3.424 -0.2137  0.0855 -0.5144
 6192SOL    HW230039   0.908   2.848   3.326  0.8292 -1.2128 -1.0777
 6193SOL     OW30040   3.405   4.186   3.277  0.5276 -0.1007 -0.0340
 6193SOL    HW130041   3.476   4.190   3.212  1.6683  0.9775  1.2810
 6193SOL    HW230042   3.454   4.156   3.353 -0.7811 -0.9201  0.4631
 6194SOL     OW30043   1.067   4.443   8.180  0.2994  0.2659 -0.2929
 6194SOL    HW130044   1.125   4.420   8.252  0.0485  0.1133 -0.1374
 6194SOL    HW230045   0.978   4.437   8.216 -0.0305  2.0406 -0.8414
 6195SOL     OW30046   3.478   2.648  12.731 -0.3747  0.4204  0.1649
 6195SOL    HW130047   3.522   2.643  12.815 -0.4465 -0.7366  0.1414
 6195SOL    HW230048   3.504   2.560  12.704  1.3960  1.0482 -0.1849
 6196SOL     OW30049   4.659   3.537   7.031  0.0866 -0.4750 -0.2574
 6196SOL    HW130050   4.648   3.611   7.091  2.9220  0.2862 -0.6624
 6196SOL    HW230051   4.589   3.556   6.969  0.6618  0.6049 -0.5723
 6197SOL     OW30052   1.833   3.329   6.297  0.1806  0.4078 -0.2270
 6197SOL    HW130053   1.804   3.262   6.359 -2.0662  0.3724 -1.3204
 6197SOL    HW230054   1.775   3.401   6.323  0.7536  1.5262 -2.0748
 6198SOL     OW30055   4.097   4.332   2.187 -0.2050  0.6166 -0.1466
 6198SOL    HW130056   4.131   4.270   2.123 -0.3901 -0.9458  1.2417
 6198SOL    HW230057   4.013   4.293   2.209 -0.8979  1.6514 -0.9764
 6199SOL     OW30058   0.519   3.952   0.897 -0.3142  0.6263 -0.2889
 6199SOL    HW130059   0.469   3.933   0.976  2.5899  1.1720  1.7099
 6199SOL    HW230060   0.577   4.021   0.931  0.3218  0.4735 -1.0563
 6200SOL     OW30061   2.361   3.492   6.349 -0.3675  0.2561 -0.4122
 6200SOL    HW130062   2.399   3.492   6.261 -1.0013  0.6832 -0.6903
 6200SOL    HW230063   2.437   3.453   6.391 -1.5607 -1.0031  0.5779
 6201SOL     OW30064   0.949   3.227   7.940 -0.3372  0.2301  0.5561
 6201SOL    HW130065   0.964   3.134   7.957 -0.9419 -0.0015 -0.1634
 6201SOL    HW230066   0.913   3.256   8.024 -3.4589 -1.4152 -0.2008
 6202SOL     OW30067   3.413   4.370   5.623 -0.6245 -0.4383  0.0249
 6202SOL    HW130068   3.499   4.412   5.617 -1.3607  1.0042 -0.5307
 6202SOL    HW230069   3.356   4.445   5.642  0.6456 -0.0729  2.3756
 6203SOL     OW30070   2.395   2.272   7.069  0.7533 -0.0525 -0.6497
 6203SOL    HW130071   2.365   2.316   7.148  0.1478 -1.1039 -0.2853
 6203SOL    HW230072   2.349   2.190   7.088 -0.6519  0.8653 -0.0496
 6204SOL     OW30073   3.428   1.782   2.149 -0.1775 -0.3333 -0.1045
 6204SOL    HW130074   3.368   1.726   2.198 -0.2345  0.3135  0.5740
 6204SOL    HW230075   3.388   1.868   2.159  0.5124  0.0529 -0.6664
 6205SOL     OW30076   0.421   4.577   4.037  0.3419 -0.6074  0.2283
 6205SOL    HW130077   0.475   4.500   4.017  1.9964  0.4750  0.4851
 6205SOL    HW230078   0.401   4.565   4.129  3.4376  1.5710  1.2134
 6206SOL     OW30079   0.428   0.669   8.222  0.2996 -0.0457  0.1793
 6206SOL    HW130080   0.412   0.577   8.243  2.1581  0.1445  2.5056
 6206SOL    HW230081   0.495   0.656   8.155 -1.0200 -2.8977 -0.5569
 6207SOL     OW30082   3.798   3.810   0.162  0.5056  0.0265 -0.1362
 6207SOL    HW130083   3.726   3.870   0.180 -0.9059 -2.3685  2.2410
 6207SOL    HW230084   3.871   3.863   0.131  0.6506 -0.2961 -0.3492
 6208SOL     OW30085   3.402   1.462   1.923  0.0030 -0.2029  0.3599
 6208SOL    HW130086   3.347   1.404   1.976  0.2543  0.0091  0.8567
 6208SOL    HW230087   3.492   1.445   1.950  0.5748  1.8269 -0.2094
 6209SOL     OW30088   1.951   2.913   1.417  0.2586 -0.0205 -0.3051
 6209SOL    HW130089   1.990   2.954   1.494  0.3224  0.1974 -0.4563
 6209SOL    HW230090   1.971   2.821   1.439  0.2673  0.1882  0.5816
 6210SOL     OW30091   0.515   3.630  16.201  0.1692 -0.1542 -0.3594
 6210SOL    HW130092   0.505   3.541  16.235 -1.7783  0.7298  1.3169
 6210SOL    HW230093   0.482   3.615  16.112  2.0849 -1.7124 -0.8185
 6211SOL     OW30094   3.365   1.012  12.382  0.3159  0.4138  0.4948
 6211SOL    HW130095   3.361   0.996  12.477  1.0320  1.1200  0.6372
 6211SOL    HW230096   3.446   0.967  12.358 -0.1514 -1.2874  2.0790
 6212SOL     OW30097   4.478   3.430   3.561 -0.1871  0.2694  0.0263
 6212SOL    HW130098   4.389   3.406   3.535  0.9232 -0.7702 -2.7752
 6212SOL    HW230099   4.488   3.523   3.539 -0.3600  0.2304 -0.2269
 6213SOL     OW30100   0.971   0.625   0.153  0.1468 -0.2532  0.1167
 6213SOL    HW130101   0.942   0.687   0.086  1.4410  0.7533  0.5047
 6213SOL    HW230102   1.044   0.671   0.194 -1.4091  1.0540  1.4497
 6214SOL     OW30103   1.051   0.199  12.461 -0.0543  0.4941  0.0053
 6214SOL    HW130104   1.042   0.172  12.369  2.0895 -1.3780  0.3391
 6214SOL    HW230105   0.969   0.156  12.484  1.6915 -2.6152  0.4899
 6215SOL     OW30106   2.462   2.044   3.806  0.0160  0.0118 -0.4833
 6215SOL    HW130107   2.444   2.071   3.896  2.2312 -2.4093  0.6668
 6215SOL    HW230108   2.386   1.990   3.783  0.9351 -1.3681 -0.2627
 6216SOL     OW30109   1.343   3.869  11.474  0.1491 -0.2468 -0.2787
 6216SOL    HW130110   1.386   3.799  11.523  0.9667 -2.2165 -3.7664
 6216SOL    HW230111   1.366   3.951  11.519 -1.1927 -1.6512  2.9160
 6217SOL     OW30112   0.157   2.370  15.369  0.2351 -0.8013  0.1887
 6217SOL    HW130113   0.216   2.311  15.415  0.3330 -0.0895  0.9785
 6217SOL    HW230114   0.094   2.383  15.440  0.8129  0.1725  0.5232
 6218SOL     OW30115   3.854   3.604   1.744 -0.9207 -0.3227  0.0014
 6218SOL    HW130116   3.797   3.680   1.756  0.6976  0.8755  0.1884
 6218SOL    HW230117   3.846   3.589   1.650  0.8464 -1.1303 -0.0186
 6219SOL     OW30118   2.022   4.597   3.825  0.2331 -0.4004  0.4870
 6219SOL    HW130119   2.098   4.546   3.797  0.1461 -0.2023 -0.1077
 6219SOL    HW230120   2.041   4.688   3.806 -0.1112 -0.9042 -2.2128
 6220SOL     OW30121   4.100   3.024   0.242 -0.2709  0.4481  0.2998
 6220SOL    HW130122   4.044   2.946   0.247 -0.6128  0.7418  1.0663
 6220SOL    HW230123   4.176   3.002   0.297 -2.3193 -2.7456  1.8636
 6221SOL     OW30124   1.410   3.397   2.309  0.0773  0.2371 -0.5396
 6221SOL    HW130125   1.421   3.313   2.265  0.7729  0.1470 -0.1954
 6221SOL    HW230126   1.441   3.381   2.398  3.7731 -0.0779 -1.8713
 6222SOL     OW30127   4.004   3.024   3.162 -0.9735  0.1163  0.0009
 6222SOL    HW130128   4.075   3.024   3.098 -0.0076 -1.6873  1.0621
 6222SOL    HW230129   3.942   3.090   3.133  0.4537  1.5784  0.3072
 6223SOL     OW30130   4.182   0.814  11.555  0.0956 -0.2812 -0.6795
 6223SOL    HW130131   4.243   0.880  11.587 -0.2057 -0.6576  0.6710
 6223SOL    HW230132   4.249   0.756  11.519 -1.8785 -0.4787 -4.0371
 6224SOL     OW30133   1.519   4.501   7.699 -0.1355 -0.1348  0.4451
 6224SOL    HW130134   1.449   4.558   7.666 -0.2902 -2.0114 -2.5062
 6224SOL    HW230135   1.597   4.556   7.690 -1.7727  2.3605  1.3508
 6225SOL     OW30136   2.388   1.372   1.369  0.2086 -0.2075  0.0761
 6225SOL    HW130137   2.455   1.313   1.334  0.2146 -1.1871  1.7402
 6225SOL    HW230138   2.356   1.424   1.295 -2.9599 -0.5134  1.2424
 6226SOL     OW30139   2.632   0.831  11.395  0.2934 -0.2216  0.2356
 6226SOL    HW130140   2.699   0.894  11.423  0.2561 -0.1688  0.2037
 6226SOL    HW230141   2.572   0.856  11.466  2.3237 -0.6025  2.1074
 6227SOL     OW30142   4.460   1.668  10.204 -0.0877  0.3410 -0.2884
 6227SOL    HW130143   4.410   1.661  10.122  0.7008  1.3501 -0.8563
 6227SOL    HW230144   4.395   1.618  10.253 -0.5137  0.6246 -0.5574
 6228SOL     OW30145   2.338   0.309   7.845 -0.1407 -0.0762  0.2385
 6228SOL    HW130146   2.344   0.304   7.749  3.6665 -1.1248  0.5266
 6228SOL    HW230147   2.386   0.232   7.876  2.5060  0.9632 -1.3160
 6229SOL     OW30148   1.301   3.054   9.124  0.1255  0.1526 -0.3062
 6229SOL    HW130149   1.254   3.130   9.160 -3.1949 -1.9070 -0.2368
 6229SOL    HW230150   1.373   3.049   9.187 -0.0583 -2.2037 -0.2576
 6230SOL     OW30151   4.455   4.551   4.530  0.3186 -0.2221  0.2703
 6230SOL    HW130152   4.521   4.525   4.466 -1.2231  0.6020 -1.6505
 6230SOL    HW230153   4.414   4.621   4.480 -0.9980 -0.8960  0.4265
 6231SOL     OW30154   3.056   3.483   5.728  0.1606  0.1919 -0.5320
 6231SOL    HW130155   2.962   3.467   5.739  0.2374 -1.1381 -1.8265
 6231SOL    HW230156   3.067   3.576   5.747  1.9419  0.0172 -0.6870
 6232SOL     OW30157   4.114   1.409   9.494  0.0573  0.0994 -0.0087
 6232SOL    HW130158   4.034   1.459   9.477 -0.5508 -0.6313  0.7287
 6232SOL    HW230159   4.155   1.471   9.554  2.3914 -0.6739 -0.7718
 6233SOL     OW30160   2.050   0.603   9.188 -0.4573 -0.2011  0.0115
 6233SOL    HW130161   2.109   0.652   9.131  0.1484 -1.7414 -0.6757
 6233SOL    HW230162   1.991   0.573   9.119 -1.2991  1.4529  0.0099
 6234SOL     OW30163   1.950   2.775   8.487 -0.4384  0.1534  0.3974
 6234SOL    HW130164   2.018   2.715   8.519 -0.4454 -1.2491 -2.1972
 6234SOL    HW230165   1.899   2.706   8.443 -0.7605 -1.5071  3.3647
 6235SOL     OW30166   1.447   1.403   7.659 -0.2654  0.4287  0.1329
 6235SOL    HW130167   1.459   1.496   7.638  3.1136  0.0707  0.4632
 6235SOL    HW230168   1.415   1.360   7.580  0.1112 -1.0540  0.7803
 6236SOL     OW30169   2.724   4.543   8.922 -0.0743 -0.4212  0.5088
 6236SOL    HW130170   2.659   4.477   8.944 -1.0805  0.5590  0.4876
 6236SOL    HW230171   2.668   4.613   8.888  1.9438  0.9564  0.0131
 6237SOL     OW30172   1.398   2.645   3.153 -0.3296 -0.6435 -0.7819
 6237SOL    HW130173   1.473   2.696   3.121  0.2159 -0.9887 -0.0536
 6237SOL    HW230174   1.402   2.573   3.090  0.7665 -1.2511 -0.0187
 6238SOL     OW30175   0.330   2.124   5.904  0.5418  0.0935  0.3692
 6238SOL    HW130176   0.333   2.106   5.810 -1.6991  0.5232  0.2005
 6238SOL    HW230177   0.291   2.039   5.926 -1.9732  0.4733 -2.6051
 6239SOL     OW30178   4.068   1.441   4.716  1.1005  0.1272 -0.3450
 6239SOL    HW130179   4.033   1.433   4.628 -0.3821 -2.8778  0.5397
 6239SOL    HW230180   4.150   1.491   4.708  0.4307  1.3718  0.5318
 6240SOL     OW30181   0.923   1.531  13.570  0.3253 -0.0558 -0.5746
 6240SOL    HW130182   0.883   1.559  13.652  1.0158 -1.4557  0.2483
 6240SOL    HW230183   0.960   1.617  13.551 -0.7789  0.3029 -1.0800
 6241SOL     OW30184   2.764   0.913  13.523  0.0713  0.1624 -0.3232
 6241SOL    HW130185   2.828   0.874  13.463 -0.0197  0.2905 -0.5038
 6241SOL    HW230186   2.784   1.002  13.491  1.6092  0.3119  1.0571
 6242SOL     OW30187   4.372   2.755  13.062  0.2192  0.6568 -0.5669
 6242SOL    HW130188   4.374   2.778  13.155 -0.1223  1.4789 -0.7574
 6242SOL    HW230189   4.281   2.763  13.033  0.3958  0.2035 -1.2575
 6243SOL     OW30190   0.344   2.175   0.384 -0.1127 -0.0750  0.2897
 6243SOL    HW130191   0.419   2.130   0.421  0.0683  0.9483  1.1593
 6243SOL    HW230192   0.273   2.161   0.446  1.4321 -1.4327  1.7199
 6244SOL     OW30193   4.127   0.027   5.460  0.3638  0.2367  0.8342
 6244SOL    HW130194   4.195   4.693   5.499 -0.3661 -0.5040  1.0766
 6244SOL    HW230195   4.165   0.115   5.465  2.3269 -0.5795  0.3220
 6245SOL     OW30196   3.090   0.067   1.225 -0.6529 -0.0095  0.2204
 6245SOL    HW130197   2.995   0.080   1.219 -0.2182  2.1524 -1.9437
 6245SOL    HW230198   3.101   0.116   1.307 -1.4075 -1.3896  1.1457
 6246SOL     OW30199   3.374   1.524   5.827 -0.3266 -0.3747 -0.2600
 6246SOL    HW130200   3.421   1.607   5.826 -1.2483  0.1474  0.6606
 6246SOL    HW230201   3.442   1.464   5.857  1.0186  1.1163 -0.3289
 6247SOL     OW30202   4.474   1.383  14.313  0.4072  0.5107  0.1771
 6247SOL    HW130203   4.492   1.313  14.376  0.7998 -0.6149 -1.1859
 6247SOL    HW230204   4.479   1.326  14.236 -1.2273  0.3405  0.1991
 6248SOL     OW30205   3.966   1.505   5.177  0.0455 -0.9211 -0.0868
 6248SOL    HW130206   3.947   1.531   5.087 -3.7887  1.6668  1.4642
 6248SOL    HW230207   4.047   1.455   5.176  0.9659  0.5705  0.6972
 6249SOL     OW30208   0.345   0.457   5.018 -0.7349  0.2106 -0.1524
 6249SOL    HW130209   0.353   0.526   4.952 -0.9361 -2.9034 -3.4277
 6249SOL    HW230210   0.327   0.380   4.964 -2.4267  0.0881  0.5956
 6250SOL     OW30211   2.878   3.889   3.955 -0.0150  0.2752  0.1283
 6250SOL    HW130212   2.955   3.898   3.898  0.9365  0.1087  1.3914
 6250SOL    HW230213   2.903   3.820   4.016  0.9344  2.7614  2.5347
 6251SOL     OW30214   3.716   1.932  15.695  0.2561 -0.0216  0.1411
 6251SOL    HW130215   3.665   1.916  15.775 -1.8060 -0.6117 -1.2797
 6251SOL    HW230216   3.679   2.005  15.644 -0.9748 -0.1521  0.8389
 6252SOL     OW30217   1.138   1.769   4.811  0.0566 -0.0950 -0.0178
 6252SOL    HW130218   1.148   1.859   4.780 -2.2122  0.0144 -0.4222
 6252SOL    HW230219   1.217   1.750   4.861 -0.4573 -0.2861  0.7124
 6253SOL     OW30220   2.114   0.679   4.731  0.3757 -0.2499 -0.7432
 6253SOL    HW130221   2.179   0.665   4.800  1.8747 -1.3585 -2.3601
 6253SOL    HW230222   2.125   0.592   4.691  0.2293 -0.3122 -0.6478
 6254SOL     OW30223   0.404   0.759   4.109 -0.4492 -0.2268  0.1935
 6254SOL    HW130224   0.418   0.727   4.198  0.9751  1.6645  0.6340
 6254SOL    HW230225   0.348   0.835   4.125 -1.7058 -0.8707 -1.1502
 6255SOL     OW30226   4.412   3.257   8.183 -0.6999 -0.4410  0.0675
 6255SOL    HW130227   4.397   3.218   8.269 -0.9649  0.1924  0.3107
 6255SOL    HW230228   4.449   3.179   8.142 -2.0320 -0.9305 -0.1860
 6256SOL     OW30229   0.362   4.373  10.344 -0.3385 -0.1183 -0.6923
 6256SOL    HW130230   0.450   4.347  10.316  0.0500 -0.1630  0.5845
 6256SOL    HW230231   0.341   4.428  10.268 -1.4446  0.1972 -0.1609
 6257SOL     OW30232   3.473   3.016   5.196  0.2730 -1.0314 -0.2352
 6257SOL    HW130233   3.387   3.032   5.236  1.6900  1.7258  1.7605
 6257SOL    HW230234   3.462   2.921   5.193 -0.4336 -0.9124 -1.5084
 6258SOL     OW30235   2.627   3.086   0.835 -0.0071 -0.2992  0.1421
 6258SOL    HW130236   2.540   3.122   0.817 -0.5722 -1.4603  0.5401
 6258SOL    HW230237   2.658   3.051   0.752  1.0541 -0.6408  0.6715
 6259SOL     OW30238   0.631   2.267   9.339  0.4556  0.0263  0.0709
 6259SOL    HW130239   0.560   2.221   9.383  0.8534 -0.8358 -0.1966
 6259SOL    HW230240   0.708   2.237   9.387  1.9428  2.0599 -1.0069
 6260SOL     OW30241   1.623   0.867  14.702  0.1133  0.3436  0.7083
 6260SOL    HW130242   1.654   0.952  14.732  2.3439 -0.8777  1.8773
 6260SOL    HW230243   1.680   0.807  14.751  0.8842  0.1029 -0.4677
 6261SOL     OW30244   2.647   1.458   4.062 -0.6902  0.4488  0.2942
 6261SOL    HW130245   2.594   1.516   4.117 -0.3299  1.8263 -0.8081
 6261SOL    HW230246   2.738   1.489   4.060  0.1069 -1.8432  1.0579
 6262SOL     OW30247   2.941   3.302  11.050 -0.0536  0.3718  0.2757
 6262SOL    HW130248   2.984   3.248  11.117  1.0532  0.3486 -0.4601
 6262SOL    HW230249   2.928   3.236  10.981 -1.0492  0.0884  0.7252
 6263SOL     OW30250   4.090   2.350  10.107  0.0908 -0.3919 -0.4390
 6263SOL    HW130251   3.997   2.329  10.115  0.4838 -2.6397 -1.7845
 6263SOL    HW230252   4.119   2.289  10.175 -2.5051  0.7024  1.6467
 6264SOL     OW30253   3.682   4.713  14.395 -0.0155  0.1405  0.2978
 6264SOL    HW130254   3.652   0.078  14.363 -0.2504  0.1955  0.6645
 6264SOL    HW230255   3.622   4.654  14.349  0.2381  0.9353 -1.0725
 6265SOL     OW30256   2.761   1.332   3.017 -0.0088  0.8151  0.1174
 6265SOL    HW130257   2.669   1.316   3.037  0.1699  0.3665  0.5747
 6265SOL    HW230258   2.798   1.244   3.015  2.0764  1.7433 -2.4363
 6266SOL     OW30259   2.298   4.514   4.860 -0.0397 -0.2778 -0.7280
 6266SOL    HW130260   2.279   4.525   4.953 -0.9646 -1.4114 -0.7854
 6266SOL    HW230261   2.353   4.592   4.855  1.9560 -1.7181 -1.2457
 6267SOL     OW30262   4.548   0.371  14.951 -0.1464  0.0525  0.1104
 6267SOL    HW130263   4.587   0.439  15.005 -0.9008  0.0492  0.6562
 6267SOL    HW230264   4.620   0.308  14.956  1.7002  2.2636  1.2011
 6268SOL     OW30265   2.723   3.702  11.113 -0.2957  0.2659 -0.4201
 6268SOL    HW130266   2.747   3.627  11.058 -2.2945 -1.6671  1.3452
 6268SOL    HW230267   2.636   3.711  11.075 -0.8047 -4.4553 -0.3991
 6269SOL     OW30268   2.980   0.696   9.643 -0.0944 -0.2970  0.1147
 6269SOL    HW130269   2.995   0.750   9.721  0.3646  0.5049 -0.5358
 6269SOL    HW230270   3.011   0.756   9.575 -0.9532  1.1691  1.0276
 6270SOL     OW30271   1.607   0.137   2.529 -0.3943 -0.7393 -0.1315
 6270SOL    HW130272   1.587   0.130   2.436 -0.7671  2.4964 -0.3078
 6270SOL    HW230273   1.522   0.113   2.566 -0.6338  0.5927  0.1899
 6271SOL     OW30274   3.843   1.409   8.892 -0.0665  0.1400  0.7894
 6271SOL    HW130275   3.916   1.452   8.938 -0.2238  3.2854 -1.8187
 6271SOL    HW230276   3.771   1.468   8.914  0.2396  0.1114  1.8459
 6272SOL     OW30277   3.953   0.044   0.782  0.2207  0.5820 -0.2569
 6272SOL    HW130278   4.040   0.081   0.767  0.0830  0.3846 -1.5653
 6272SOL    HW230279   3.973   4.674   0.807 -1.4438  0.4574  0.6390
 6273SOL     OW30280   3.959   2.978  12.833  0.3627 -0.3413 -0.2184
 6273SOL    HW130281   3.916   3.063  12.838 -0.7628 -0.9216  0.2248
 6273SOL    HW230282   3.894   2.917  12.796 -0.3592  1.4437 -1.8621
 6274SOL     OW30283   3.678   4.181  11.716 -1.0562  0.1132 -0.7221
 6274SOL    HW130284   3.649   4.260  11.671  0.6489  0.8133 -0.5936
 6274SOL    HW230285   3.631   4.194  11.798  1.1468 -0.5581  0.6500
 6275SOL     OW30286   3.377   0.062   2.809  0.1257  0.6062 -0.2478
 6275SOL    HW130287   3.335   4.715   2.862  1.5953 -0.1134  0.0218
 6275SOL    HW230288   3.303   0.114   2.777 -0.0576  0.7734  0.4582
 6276SOL     OW30289   0.566   3.669   9.535  0.0521 -0.4963  0.0627
 6276SOL    HW130290   0.577   3.652   9.628 -1.9758 -1.9615  0.0289
 6276SOL    HW230291   0.514   3.749   9.535  2.8020  1.2830  2.5749
 6277SOL     OW30292   1.674   3.587  11.306 -0.2115 -0.1423  0.3899
 6277SOL    HW130293   1.621   3.522  11.260  0.2226  0.3845 -0.8586
 6277SOL    HW230294   1.767   3.569  11.291 -0.0723 -0.3585  1.4822
 6278SOL     OW30295   1.392   0.232   5.858  0.3107 -0.0835  0.0180
 6278SOL    HW130296   1.401   0.157   5.799  1.0364  0.6776 -0.8224
 6278SOL    HW230297   1.305   0.214   5.894 -0.5782 -1.2896 -2.7809
 6279SOL     OW30298   2.800   1.800   5.003  0.2752 -0.3822  0.6198
 6279SOL    HW130299   2.876   1.816   4.946 -0.2952 -0.7243 -0.2344
 6279SOL    HW230300   2.741   1.754   4.944  0.7260 -1.2580  0.8638
 6280SOL     OW30301   2.888   2.405   8.966  0.1106  0.0441  0.0872
 6280SOL    HW130302   2.847   2.332   8.919  0.5721 -0.4014  0.3795
 6280SOL    HW230303   2.895   2.472   8.898  3.6604  0.3415  0.7693
 6281SOL     OW30304   1.668   4.348   8.500  0.4463 -0.3392 -0.2012
 6281SOL    HW130305   1.763   4.347   8.498  0.4437  0.2496 -0.9432
 6281SOL    HW230306   1.652   4.370   8.591  2.4601  2.4156 -0.5201
 6282SOL     OW30307   4.007   1.996   9.551  0.2867  1.7058 -0.0101
 6282SOL    HW130308   3.962   2.054   9.490 -1.7323 -0.4950 -0.6192
 6282SOL    HW230309   4.093   2.035   9.537  0.9943  0.5360  1.0660
 6283SOL     OW30310   0.623   4.356   0.180 -0.4244 -0.7245  0.2720
 6283SOL    HW130311   0.693   4.365   0.245 -0.5456  0.6036  0.1999
 6283SOL    HW230312   0.652   4.303   0.106 -2.0716  1.1611 -1.6764
 6284SOL     OW30313   3.069   3.108   0.757 -0.4840 -0.1874 -0.2113
 6284SOL    HW130314   3.010   3.048   0.803 -0.0929  0.1663  0.7519
 6284SOL    HW230315   3.010   3.168   0.711  1.5355  2.1661  0.2579
 6285SOL     OW30316   0.371   3.983  14.785  0.3345 -0.1490  0.3721
 6285SOL    HW130317   0.328   3.950  14.864 -0.3591 -1.8698 -0.7405
 6285SOL    HW230318   0.339   3.915  14.726 -2.1709  1.2353  0.1361
 6286SOL     OW30319   1.568   3.139   1.521 -0.1891 -0.0687 -0.1936
 6286SOL    HW130320   1.524   3.176   1.598  1.7943  0.8920  0.4625
 6286SOL    HW230321   1.645   3.194   1.511  0.0704 -0.4036 -0.0492
 6287SOL     OW30322   1.156   3.037   8.463  0.4189  0.1379  0.0256
 6287SOL    HW130323   1.196   2.995   8.387  1.1965 -0.1483  0.6086
 6287SOL    HW230324   1.106   3.096   8.405 -0.8320 -0.0968  0.8659
 6288SOL     OW30325   4.515   0.789   5.755  0.0005 -0.2264  0.0227
 6288SOL    HW130326   4.479   0.712   5.711 -0.1226  0.3237 -0.8378
 6288SOL    HW230327   4.601   0.761   5.786 -1.0624 -3.0952  0.3476
 6289SOL     OW30328   4.415   4.483   7.260  0.3235 -0.0705 -0.8077
 6289SOL    HW130329   4.384   4.572   7.275 -2.4752 -0.9254 -1.4032
 6289SOL    HW230330   4.367   4.450   7.336 -1.0134  3.3126 -0.2200
 6290SOL     OW30331   2.978   0.068  12.408  0.1861 -0.1926  0.1567
 6290SOL    HW130332   3.074   0.070  12.413  0.1689 -2.9590  1.5227
 6290SOL    HW230333   2.964   0.047  12.501 -0.1783 -2.0731 -0.3330
 6291SOL     OW30334   2.603   0.965   6.591  0.2837 -0.3262 -0.1570
 6291SOL    HW130335   2.668   1.028   6.560 -0.2207  0.5904  0.6312
 6291SOL    HW230336   2.568   0.933   6.508  2.3693  2.4369 -2.0744
 6292SOL     OW30337   4.049   2.849   9.512  0.3615  0.1489  0.0529
 6292SOL    HW130338   4.005   2.870   9.429  0.0050  1.2372  0.5134
 6292SOL    HW230339   4.098   2.930   9.529 -1.8871  1.1679  1.7001
 6293SOL     OW30340   2.926   1.138   2.068  0.8344 -0.1942 -0.3658
 6293SOL    HW130341   2.979   1.180   2.001  0.0818 -1.4180 -1.7256
 6293SOL    HW230342   2.927   1.045   2.048  0.8913 -0.6520  1.7446
 6294SOL     OW30343   1.316   0.577   1.600  0.4939 -0.5411 -0.0611
 6294SOL    HW130344   1.312   0.484   1.576 -0.1719 -0.7566  0.8658
 6294SOL    HW230345   1.326   0.621   1.516 -1.5766 -2.8909 -1.5591
 6295SOL     OW30346   0.793   2.697   4.319 -0.0085  0.0036  0.3412
 6295SOL    HW130347   0.730   2.687   4.248  0.1301  0.3051  0.1776
 6295SOL    HW230348   0.733   2.706   4.393 -1.3454  1.2065 -0.8898
 6296SOL     OW30349   2.280   2.109   5.740 -0.5141  0.6529 -0.0185
 6296SOL    HW130350   2.268   2.015   5.753  1.1547  0.7746  2.4216
 6296SOL    HW230351   2.334   2.124   5.817  0.6876 -2.0618 -0.3203
 6297SOL     OW30352   0.444   1.347  15.748 -0.3244  0.2983  0.0756
 6297SOL    HW130353   0.466   1.267  15.796 -0.3629  0.1515 -0.1513
 6297SOL    HW230354   0.444   1.406  15.823 -0.5738 -1.8913  1.7904
 6298SOL     OW30355   2.517   3.439   5.159  0.3965  0.1506  0.1317
 6298SOL    HW130356   2.523   3.506   5.226  0.3318  0.6963 -0.4035
 6298SOL    HW230357   2.422   3.432   5.147  0.2671  1.7839  0.2046
 6299SOL     OW30358   2.615   4.297  11.148  0.0825 -0.3853 -0.4655
 6299SOL    HW130359   2.700   4.260  11.172 -0.3021 -0.6623  0.4714
 6299SOL    HW230360   2.632   4.391  11.145  1.1696 -0.5595  0.3400
 6300SOL     OW30361   0.611   2.211   5.272  0.2566 -0.1153  0.6891
 6300SOL    HW130362   0.554   2.147   5.230  0.9504  0.9577 -1.9130
 6300SOL    HW230363   0.557   2.252   5.340 -1.7264 -1.7788  0.1196
 6301SOL     OW30364   1.982   4.182   1.922  0.7514 -0.0490  0.0509
 6301SOL    HW130365   2.008   4.244   1.855 -0.3639 -0.4316 -0.7329
 6301SOL    HW230366   2.054   4.121   1.934 -1.1803 -2.4566 -0.4292
 6302SOL     OW30367   4.186   4.233  17.290  0.5148 -0.1129 -0.1417
 6302SOL    HW130368   4.241   4.177  17.235  1.5263  1.4236 -0.6918
 6302SOL    HW230369   4.166   4.309  17.236 -0.1898  0.1304  0.4526
 6303SOL     OW30370   0.870   2.465   2.499 -0.2157 -0.0261 -0.0625
 6303SOL    HW130371   0.864   2.375   2.468  3.0702  1.1322 -3.9733
 6303SOL    HW230372   0.879   2.513   2.416  0.0490  0.3766  0.1998
 6304SOL     OW30373   2.287   1.738   5.525  0.4111 -0.1633  0.3027
 6304SOL    HW130374   2.288   1.822   5.479 -2.0607  0.2339  0.9536
 6304SOL    HW230375   2.226   1.759   5.596 -0.0260  1.2554 -0.4978
 6305SOL     OW30376   1.645   1.566  13.541  0.3935 -0.3083  0.1355
 6305SOL    HW130377   1.675   1.475  13.534 -1.3657 -0.7587 -1.8080
 6305SOL    HW230378   1.602   1.566  13.627  0.5389  0.9004  0.2023
 6306SOL     OW30379   3.762   1.150   7.242 -0.0733  0.3488  0.1626
 6306SOL    HW130380   3.765   1.241   7.272  0.2085  0.2434  0.4629
 6306SOL    HW230381   3.833   1.112   7.295 -1.6931 -1.3450  1.0954
 6307SOL     OW30382   0.337   4.127   4.485 -0.0152 -0.4145 -0.0465
 6307SOL    HW130383   0.299   4.052   4.531  0.1064 -0.3408  0.1691
 6307SOL    HW230384   0.354   4.084   4.401 -4.2702  1.5279 -1.8852
 6308SOL     OW30385   1.345   2.868  17.315  0.7237 -0.5727  0.0550
 6308SOL    HW130386   1.334   2.926  17.390 -1.0473  0.3207 -0.8844
 6308SOL    HW230387   1.284   2.794  17.323 -2.5698  1.9891 -1.1796
 6309SOL     OW30388   1.355   0.455   5.211  0.1079 -0.2466  0.3399
 6309SOL    HW130389   1.323   0.538   5.177 -2.4516 -0.3223  2.5707
 6309SOL    HW230390   1.297   0.393   5.166  0.3713  0.5944 -1.1649
 6310SOL     OW30391   1.498   1.761   3.555  0.1625 -0.2240 -0.2739
 6310SOL    HW130392   1.479   1.813   3.476  1.1451 -1.1998 -1.1413
 6310SOL    HW230393   1.532   1.817   3.625 -3.8998 -0.7910  2.1536
 6311SOL     OW30394   1.971   2.057  16.437  0.3322 -0.8645  0.3753
 6311SOL    HW130395   1.934   2.098  16.359  1.0145  1.8028  1.4483
 6311SOL    HW230396   1.895   2.005  16.464  0.9997 -1.0353  1.9666
 6312SOL     OW30397   3.702   2.205   5.398 -0.2429  0.3843  0.3389
 6312SOL    HW130398   3.709   2.171   5.487 -0.9378 -0.5136  0.0419
 6312SOL    HW230399   3.775   2.162   5.354 -1.2011 -2.7953  1.8414
 6313SOL     OW30400   2.396   2.215   5.205  0.5032  0.6523 -0.5049
 6313SOL    HW130401   2.333   2.170   5.149 -0.1707  0.4527  0.4132
 6313SOL    HW230402   2.352   2.299   5.215 -2.9160 -1.2877  0.7109
 6314SOL     OW30403   0.575   1.109   4.707  0.4614 -0.0266  0.1147
 6314SOL    HW130404   0.511   1.142   4.771  0.8264  0.5496  0.1824
 6314SOL    HW230405   0.609   1.040   4.764 -1.2295 -0.0879  1.0593
 6315SOL     OW30406   2.331   1.911   5.336  0.0831  0.3155 -0.4978
 6315SOL    HW130407   2.420   1.918   5.303  0.2997 -3.4433 -0.7080
 6315SOL    HW230408   2.316   2.005   5.345 -0.7210  0.3158 -1.8339
 6316SOL     OW30409   3.592   0.494   5.173  0.1576 -0.7060 -0.3512
 6316SOL    HW130410   3.612   0.529   5.087 -1.2532 -0.8880 -0.7515
 6316SOL    HW230411   3.509   0.537   5.195 -0.3033 -1.0025 -1.5582
 6317SOL     OW30412   2.321   4.166   8.820 -0.3679 -0.2685 -0.6128
 6317SOL    HW130413   2.390   4.106   8.791  3.2967  2.6525  2.0165
 6317SOL    HW230414   2.286   4.113   8.892 -0.6075 -2.6588 -2.4977
 6318SOL     OW30415   4.676   2.294  15.185 -0.3090 -0.2560  0.1180
 6318SOL    HW130416   4.609   2.238  15.227 -2.6398  1.5594 -1.2154
 6318SOL    HW230417   0.030   2.293  15.246 -0.2222 -0.9838  0.0082
 6319SOL     OW30418   0.458   4.539   1.157  0.6130 -0.8695 -0.3976
 6319SOL    HW130419   0.394   4.567   1.223  0.1728  0.7151 -1.4820
 6319SOL    HW230420   0.400   4.525   1.083 -0.5385 -0.3149  0.3989
 6320SOL     OW30421   0.697   1.714   5.051  0.2110  0.4435  0.3665
 6320SOL    HW130422   0.766   1.780   5.062  0.2935  0.6502 -1.4289
 6320SOL    HW230423   0.733   1.648   4.992 -1.3606  0.7785 -0.9467
 6321SOL     OW30424   2.065   0.160   4.606 -0.4747  0.4873 -0.1769
 6321SOL    HW130425   2.001   0.231   4.611 -2.5886 -1.2152 -2.7380
 6321SOL    HW230426   2.149   0.204   4.616  0.3377 -1.0605 -0.2001
 6322SOL     OW30427   3.907   1.721   7.229 -0.0272 -0.5417 -0.2216
 6322SOL    HW130428   3.881   1.800   7.277 -0.3959 -0.7403 -0.0936
 6322SOL    HW230429   3.823   1.678   7.213 -0.7273 -0.3302  2.8955
 6323SOL     OW30430   3.831   3.534   8.828  0.4035  0.0854 -0.5692
 6323SOL    HW130431   3.874   3.590   8.893  2.3384 -0.8204 -1.0665
 6323SOL    HW230432   3.778   3.599   8.784 -2.2350 -0.9401  1.0676
 6324SOL     OW30433   1.486   0.031  17.236  0.3061  0.2792 -0.6617
 6324SOL    HW130434   1.580   0.013  17.227  0.1953 -0.5289 -0.2912
 6324SOL    HW230435   1.455   4.666  17.205  3.1148 -2.3159  3.5598
 6325SOL     OW30436   1.757   2.537  11.869 -0.6361  0.4060 -0.0994
 6325SOL    HW130437   1.662   2.531  11.864 -0.6290 -0.0936  0.4357
 6325SOL    HW230438   1.764   2.632  11.861 -0.8971  0.2997 -1.7347
 6326SOL     OW30439   2.048   4.034   2.495 -0.1952  0.1084  0.8634
 6326SOL    HW130440   2.100   4.075   2.563  1.0076  1.1587 -0.6860
 6326SOL    HW230441   2.094   4.064   2.417  1.1072 -1.8017  0.8879
 6327SOL     OW30442   2.010   2.312   4.717  0.0036 -0.3026 -0.0704
 6327SOL    HW130443   1.988   2.388   4.772  0.5584 -2.0933  2.6146
 6327SOL    HW230444   2.097   2.286   4.746  0.9657  1.9003 -1.0125
 6328SOL     OW30445   3.507   0.542   6.422 -0.4375  0.0643  0.2524
 6328SOL    HW130446   3.444   0.503   6.484 -0.7033  2.1714  1.3262
 6328SOL    HW230447   3.512   0.632   6.453  1.0640  0.8423 -2.3198
 6329SOL     OW30448   1.030   0.212   7.165  0.6921 -0.6405  0.0074
 6329SOL    HW130449   1.078   0.294   7.167 -0.0110 -0.2348  0.2597
 6329SOL    HW230450   0.991   0.212   7.252 -0.0066  1.4495 -0.2852
 6330SOL     OW30451   4.053   0.748   4.919 -0.6659 -0.2119  0.4235
 6330SOL    HW130452   4.140   0.771   4.887 -0.5381  1.4584  1.9668
 6330SOL    HW230453   4.082   0.697   4.995 -1.1694 -0.5925  0.3615
 6331SOL     OW30454   0.094   4.443  12.169  0.4779  0.5430  0.4429
 6331SOL    HW130455   0.158   4.387  12.125  0.1546  1.9880 -1.8406
 6331SOL    HW230456   0.022   4.386  12.142 -0.2113  0.6674  2.0403
 6332SOL     OW30457   2.561   1.718   8.914  0.2100 -0.4032  0.0016
 6332SOL    HW130458   2.471   1.699   8.885 -0.8216  1.8373  1.7189
 6332SOL    HW230459   2.588   1.633   8.949  0.8018 -0.3746 -0.3887
 6333SOL     OW30460   0.691   4.704  16.293 -0.3411  0.0115 -0.5416
 6333SOL    HW130461   0.707   0.016  16.204 -1.4061 -0.3969 -0.8904
 6333SOL    HW230462   0.682   0.068  16.338  2.0264  0.7773 -1.5318
 6334SOL     OW30463   3.402   2.253   9.354  0.5323 -0.7445 -1.3256
 6334SOL    HW130464   3.459   2.290   9.286 -0.4674 -1.9511 -2.8432
 6334SOL    HW230465   3.438   2.293   9.433 -1.8661  0.7212 -0.9927
 6335SOL     OW30466   2.430   0.657   5.549  0.0926 -0.7807 -0.2947
 6335SOL    HW130467   2.436   0.753   5.553 -1.0295 -0.6401 -1.9199
 6335SOL    HW230468   2.428   0.646   5.644 -1.8721  0.5865 -0.1833
 6336SOL     OW30469   1.727   2.254   4.541  0.0998 -0.1519  0.7828
 6336SOL    HW130470   1.794   2.318   4.518 -1.2890  1.7058  1.8281
 6336SOL    HW230471   1.752   2.179   4.488  0.8152  1.5712 -1.2944
 6337SOL     OW30472   2.866   1.557   0.542  0.5020  0.0279 -0.2964
 6337SOL    HW130473   2.857   1.652   0.550 -2.0108 -0.4813  2.8017
 6337SOL    HW230474   2.860   1.524   0.631 -0.5698 -0.3905 -0.5248
 6338SOL     OW30475   0.714   3.779  13.548  0.4094  0.0438  0.8167
 6338SOL    HW130476   0.670   3.699  13.520  2.4690 -0.9023  0.3224
 6338SOL    HW230477   0.798   3.769  13.504  0.0862 -1.3911  0.5183
 6339SOL     OW30478   0.958   0.318   6.061  0.6951 -0.2805  0.0789
 6339SOL    HW130479   0.915   0.309   6.146  2.8479  2.8659  1.5029
 6339SOL    HW230480   0.909   0.392   6.024 -0.5005 -1.8737 -1.4900
 6340SOL     OW30481   2.977   3.581  11.596  0.3040 -0.2736  0.0593
 6340SOL    HW130482   2.927   3.575  11.514 -0.2993  1.4099  0.3062
 6340SOL    HW230483   3.040   3.650  11.573 -0.6389 -0.3331 -2.6735
 6341SOL     OW30484   0.975   0.129   7.413  0.7688 -0.7223  0.1891
 6341SOL    HW130485   0.963   0.079   7.494 -0.2465 -0.9887 -0.1327
 6341SOL    HW230486   1.055   0.089   7.379  0.8047 -0.5253  0.0420
 6342SOL     OW30487   2.547   1.177   3.349  0.0435 -0.9289 -0.1849
 6342SOL    HW130488   2.638   1.205   3.340 -0.2666 -0.3056 -1.3017
 6342SOL    HW230489   2.541   1.165   3.444 -0.7161 -1.8155 -0.3329
 6343SOL     OW30490   4.430   0.048   4.288  0.0111 -0.0391  0.6306
 6343SOL    HW130491   4.446   0.015   4.200 -0.7439 -0.9309  0.8343
 6343SOL    HW230492   4.521   0.051   4.319  0.6038 -3.8298 -0.7733
 6344SOL     OW30493   1.794   1.280  10.682 -0.3069 -0.2873  0.4418
 6344SOL    HW130494   1.750   1.249  10.761 -0.2918 -0.8075  0.2455
 6344SOL    HW230495   1.791   1.375  10.682 -0.2003 -0.2845 -1.6747
 6345SOL     OW30496   0.679   0.353   3.250 -0.6195  0.0249  0.3490
 6345SOL    HW130497   0.741   0.283   3.229 -0.0431  0.1448  1.6353
 6345SOL    HW230498   0.685   0.349   3.346 -0.4561  0.4386  0.3567
 6346SOL     OW30499   0.984   3.241   0.270 -0.0775  0.1113 -0.1765
 6346SOL    HW130500   1.042   3.165   0.259 -0.1378 -0.1897  1.5233
 6346SOL    HW230501   1.044   3.288   0.327 -1.4154  2.6726 -0.8902
 6347SOL     OW30502   1.131   1.946   3.416  0.0871 -0.1972 -0.1399
 6347SOL    HW130503   1.050   1.895   3.417  0.1637 -0.3055  0.7497
 6347SOL    HW230504   1.144   1.949   3.321 -1.5453 -0.2603 -0.3607
 6348SOL     OW30505   0.384   2.327   5.365  0.1277 -0.3736 -0.1505
 6348SOL    HW130506   0.289   2.338   5.364 -0.0963 -2.4754 -0.7990
 6348SOL    HW230507   0.415   2.412   5.334 -0.7230 -0.5165 -1.3887
 6349SOL     OW30508   1.260   0.556   0.861  0.8120  0.1714 -0.0379
 6349SOL    HW130509   1.167   0.564   0.879  0.2414 -1.2279 -2.3976
 6349SOL    HW230510   1.257   0.573   0.767  0.7401  0.1435 -0.0405
 6350SOL     OW30511   2.808   3.412   5.766 -0.6997 -0.6136 -0.2575
 6350SOL    HW130512   2.785   3.444   5.853 -1.2407 -2.2595  0.2045
 6350SOL    HW230513   2.734   3.447   5.716 -1.4695  0.4136  1.6283
 6351SOL     OW30514   1.974   3.116  12.908 -0.0495  0.2452 -0.1506
 6351SOL    HW130515   1.884   3.092  12.931  0.4779 -1.0142  0.6013
 6351SOL    HW230516   1.999   3.140  12.997 -1.6039  1.4847 -0.0360
 6352SOL     OW30517   3.108   2.594   8.688 -0.1574 -0.1873 -0.4118
 6352SOL    HW130518   3.157   2.520   8.727 -0.5655  1.0142  2.4092
 6352SOL    HW230519   3.124   2.652   8.762  0.9337  0.4619 -1.1755
 6353SOL     OW30520   2.784   1.582  10.953 -0.0681  0.1342  0.4888
 6353SOL    HW130521   2.760   1.525  11.027  1.2664  0.2383  0.9941
 6353SOL    HW230522   2.825   1.657  10.996 -0.5371  1.6326 -1.6807
 6354SOL     OW30523   2.098   0.346   7.699  0.4882  0.3668  0.2920
 6354SOL    HW130524   2.189   0.362   7.672  0.0094 -0.0778 -1.5731
 6354SOL    HW230525   2.102   0.261   7.742  2.1512  1.2114  1.7798
 6355SOL     OW30526   0.229   4.700  13.964  0.3132  0.2818  0.0386
 6355SOL    HW130527   0.245   4.621  14.016  1.5357  0.9638  0.6789
 6355SOL    HW230528   0.318   0.015  13.962 -0.7763  3.0041  0.0629
 6356SOL     OW30529   0.922   2.296   8.733  0.4547  0.5914  0.5694
 6356SOL    HW130530   0.976   2.375   8.741  2.0329 -0.2362 -1.8442
 6356SOL    HW230531   0.908   2.267   8.823 -2.0690 -1.5879 -0.5099
 6357SOL     OW30532   1.920   1.518   7.724 -0.1300  0.1674 -0.6809
 6357SOL    HW130533   1.969   1.593   7.758 -0.4380 -0.3558  0.9060
 6357SOL    HW230534   1.958   1.498   7.638  2.6503  1.7211  0.1928
 6358SOL     OW30535   1.501   4.098   3.096  0.0483 -0.4736 -0.3322
 6358SOL    HW130536   1.556   4.176   3.087 -0.0583 -0.4623 -0.9179
 6358SOL    HW230537   1.548   4.033   3.044 -0.0696  0.0704 -1.1348
 6359SOL     OW30538   0.369   0.171   3.850  0.4741  0.0895  0.6494
 6359SOL    HW130539   0.325   0.233   3.792  0.2736  0.6775  1.4289
 6359SOL    HW230540   0.435   0.130   3.795  0.8148  0.4395  0.8019
 6360SOL     OW30541   3.286   3.132   9.449 -0.6169  0.0491 -0.7132
 6360SOL    HW130542   3.313   3.185   9.373  1.2498 -1.4054 -1.0728
 6360SOL    HW230543   3.195   3.159   9.463  0.2571  3.0845 -0.7796
 6361SOL     OW30544   2.123   1.532   5.115  0.4293  0.0488  0.0117
 6361SOL    HW130545   2.061   1.498   5.179 -0.0278  0.6779 -0.0997
 6361SOL    HW230546   2.089   1.619   5.094 -0.3458 -0.3315 -0.3049
 6362SOL     OW30547   3.906   3.576   4.213 -0.2672 -0.1820 -0.3695
 6362SOL    HW130548   3.922   3.662   4.250 -1.0507 -0.2863  0.2039
 6362SOL    HW230549   3.913   3.523   4.292 -2.1999  0.1078 -0.0141
 6363SOL     OW30550   1.487   1.831   7.895 -0.0078  0.0707 -0.4483
 6363SOL    HW130551   1.520   1.913   7.859 -0.1456 -0.6003 -2.1046
 6363SOL    HW230552   1.545   1.807   7.967  1.3198  0.5374 -1.3673
 6364SOL     OW30553   1.112   1.426   8.543 -0.2374  0.3900  0.3721
 6364SOL    HW130554   1.103   1.463   8.455 -0.3980  1.0367  0.6630
 6364SOL    HW230555   1.056   1.490   8.586  0.7575  0.8090  1.0184
 6365SOL     OW30556   2.756   4.640  15.718 -0.0400 -0.2303  0.0089
 6365SOL    HW130557   2.748   4.553  15.757 -0.4221 -0.9419 -1.6552
 6365SOL    HW230558   2.702   4.697  15.774 -1.2776 -0.1719 -1.2513
 6366SOL     OW30559   0.003   3.076   3.348 -0.4298  0.4789  0.5587
 6366SOL    HW130560   4.660   3.007   3.329 -2.1439  1.5433  2.5211
 6366SOL    HW230561   0.057   3.030   3.412  0.2469  0.3386 -0.1128
 6367SOL     OW30562   2.994   4.687   6.006 -0.2683 -0.3381 -0.2108
 6367SOL    HW130563   3.069   4.702   5.949 -0.4301  2.2271  0.2792
 6367SOL    HW230564   2.922   4.696   5.944 -1.5356  1.5371  1.5591
 6368SOL     OW30565   3.695   3.757   7.700 -0.3506 -0.3833 -0.2965
 6368SOL    HW130566   3.766   3.815   7.727  1.3917 -2.0557 -1.2391
 6368SOL    HW230567   3.699   3.691   7.770 -2.2062 -2.0476 -1.7574
 6369SOL     OW30568   3.401   0.094   3.543 -0.4435  0.2522 -0.6117
 6369SOL    HW130569   3.391   4.720   3.532  0.2977  0.0798  0.2422
 6369SOL    HW230570   3.411   0.128   3.454 -0.8968  1.1929 -0.3058
 6370SOL     OW30571   3.597   0.623   8.945 -0.5080  0.0497  0.1893
 6370SOL    HW130572   3.599   0.680   8.868 -2.3038  1.1890  0.9959
 6370SOL    HW230573   3.688   0.603   8.967 -0.1697  1.3459 -0.0136
 6371SOL     OW30574   4.321   3.669  15.930  0.0342 -0.3349  0.0967
 6371SOL    HW130575   4.311   3.755  15.971 -0.7606  0.3205 -1.4968
 6371SOL    HW230576   4.335   3.691  15.838  1.2652 -0.7704  0.1802
 6372SOL     OW30577   0.190   1.452   8.179 -0.0345 -0.0023  0.4972
 6372SOL    HW130578   0.107   1.434   8.135 -0.4732 -0.0677  1.3543
 6372SOL    HW230579   0.219   1.363   8.199 -3.6838 -1.0884  0.9822
 6373SOL     OW30580   4.574   2.353   7.641  0.3890 -0.5490  0.2044
 6373SOL    HW130581   4.496   2.339   7.587 -1.2490 -0.9754  2.6824
 6373SOL    HW230582   4.589   2.446   7.625  0.1400 -0.4860  0.3255
 6374SOL     OW30583   0.869   0.006   1.903 -0.2487 -0.0989  0.1672
 6374SOL    HW130584   0.891   0.061   1.828  0.7243  0.3979  0.8233
 6374SOL    HW230585   0.847   4.644   1.860 -0.1390 -0.5875  1.0669
 6375SOL     OW30586   2.312   4.571   3.779 -0.2460  0.4327 -0.5336
 6375SOL    HW130587   2.275   4.631   3.715  0.7770  2.3186  0.6542
 6375SOL    HW230588   2.321   4.637   3.848 -2.6439 -0.4742  0.6398
 6376SOL     OW30589   3.403   3.582  14.728  0.6884  0.1759  0.1358
 6376SOL    HW130590   3.496   3.576  14.707  0.7128  2.4626 -0.5128
 6376SOL    HW230591   3.382   3.490  14.716 -0.3704  0.5832 -1.1941
 6377SOL     OW30592   0.765   3.182   8.779  0.1316 -0.3689  0.2120
 6377SOL    HW130593   0.795   3.252   8.836  1.3098  1.4115 -2.6017
 6377SOL    HW230594   0.692   3.224   8.733 -0.3885 -1.0581  0.3985
 6378SOL     OW30595   2.774   0.187   3.102 -0.1942  0.3407  0.4635
 6378SOL    HW130596   2.731   0.258   3.150  0.9932  1.8570 -0.7173
 6378SOL    HW230597   2.713   0.121   3.134 -1.1866 -0.5939 -3.3506
 6379SOL     OW30598   1.256   3.606  14.925 -0.1208 -0.8274  0.8091
 6379SOL    HW130599   1.347   3.579  14.908 -0.8065  0.1873 -4.6619
 6379SOL    HW230600   1.242   3.637  14.835  0.7106 -1.0064  0.6123
 6380SOL     OW30601   2.365   0.302   3.245 -0.1999  0.0877 -0.1936
 6380SOL    HW130602   2.376   0.388   3.206  0.2478 -0.7387 -1.8855
 6380SOL    HW230603   2.351   0.242   3.172  0.7778  0.6124 -0.8065
 6381SOL     OW30604   2.215   0.787   1.846  0.3289 -0.1855  0.2501
 6381SOL    HW130605   2.121   0.799   1.829  0.7722 -1.8452 -3.2756
 6381SOL    HW230606   2.243   0.878   1.838 -1.6773  0.5679  1.7619
 6382SOL     OW30607   1.146   4.613  15.390  0.3899 -0.0541 -0.4811
 6382SOL    HW130608   1.103   4.699  15.384  1.2369  0.5321  1.8601
 6382SOL    HW230609   1.137   4.591  15.298  1.0842  3.3511 -1.3552
 6383SOL     OW30610   2.683   4.491   8.014 -0.0067 -0.1414 -0.2374
 6383SOL    HW130611   2.758   4.469   8.071 -0.1950 -0.3368 -0.0652
 6383SOL    HW230612   2.724   4.547   7.948 -0.1420 -0.8209 -0.8879
 6384SOL     OW30613   1.490   2.644   6.810  0.4233  0.3033  0.2922
 6384SOL    HW130614   1.445   2.589   6.874 -1.2206  0.5649 -0.6267
 6384SOL    HW230615   1.581   2.619   6.824  0.3727  0.7369  1.4157
 6385SOL     OW30616   1.520   0.987   7.262  0.1502  0.1814 -0.2479
 6385SOL    HW130617   1.468   0.967   7.184 -0.4964 -2.4681  0.8308
 6385SOL    HW230618   1.523   1.082   7.252  1.8230  0.0530 -0.8729
 6386SOL     OW30619   2.553   2.799   4.040  0.3068  0.4638 -0.6342
 6386SOL    HW130620   2.472   2.797   3.989  1.1590 -0.1412 -1.9683
 6386SOL    HW230621   2.619   2.784   3.972  1.9258  0.4533  0.9584
 6387SOL     OW30622   4.574   0.685   6.620  0.2571  0.5317 -0.3841
 6387SOL    HW130623   4.496   0.636   6.595  0.0906  0.0198  1.1212
 6387SOL    HW230624   4.603   0.617   6.680  1.2303  0.4905 -0.8979
 6388SOL     OW30625   2.137   1.587   9.584 -0.0320  0.5778 -0.0330
 6388SOL    HW130626   2.149   1.499   9.549  0.1949  0.6060 -0.0268
 6388SOL    HW230627   2.171   1.641   9.512 -1.0691  1.6580  0.2898
 6389SOL     OW30628   1.630   0.436  12.373  0.3192  0.3917  0.4737
 6389SOL    HW130629   1.620   0.341  12.366 -0.4631  0.3570  2.0368
 6389SOL    HW230630   1.573   0.459  12.446  0.2259  0.5738  0.3439
 6390SOL     OW30631   3.883   2.462   5.904 -0.0226  0.0582 -0.3219
 6390SOL    HW130632   3.900   2.533   5.841  1.0846 -0.6374 -0.8146
 6390SOL    HW230633   3.967   2.416   5.903  1.4261  2.6922 -1.0041
 6391SOL     OW30634   2.532   0.901   9.378  0.8364  0.0399 -0.3398
 6391SOL    HW130635   2.522   0.884   9.471  1.5400 -0.0971 -0.2840
 6391SOL    HW230636   2.608   0.848   9.354  0.0299 -0.9536 -0.6920
 6392SOL     OW30637   3.725   4.124   0.752 -0.0196  0.1965 -0.5707
 6392SOL    HW130638   3.650   4.112   0.810 -0.3609 -0.8077 -1.2120
 6392SOL    HW230639   3.765   4.037   0.751  0.8599  0.5958  0.1712
 6393SOL     OW30640   0.473   2.082   2.874  0.0112 -0.2111 -0.2412
 6393SOL    HW130641   0.463   2.037   2.790  1.7881 -2.0173  0.5105
 6393SOL    HW230642   0.432   2.167   2.860 -2.0778 -0.8609  1.8195
 6394SOL     OW30643   1.205   4.159   8.507  0.8343 -0.7041  0.5728
 6394SOL    HW130644   1.175   4.246   8.479 -0.7368 -1.0596  1.1572
 6394SOL    HW230645   1.279   4.178   8.564 -1.8732  2.6490  2.9448
 6395SOL     OW30646   1.693   4.666   6.889  0.1812  0.1313 -0.2768
 6395SOL    HW130647   1.753   0.019   6.872  2.9647 -1.7212  1.5087
 6395SOL    HW230648   1.760   4.598   6.891  1.2365  1.1205 -2.3326
 6396SOL     OW30649   1.749   4.704   5.618  0.5004 -0.1541  0.5700
 6396SOL    HW130650   1.731   4.635   5.554 -0.3156 -0.8135  1.5237
 6396SOL    HW230651   1.790   0.061   5.577 -0.5571 -0.9086 -1.9041
 6397SOL     OW30652   2.420   3.852   2.293  0.0570 -0.2494  0.0189
 6397SOL    HW130653   2.410   3.897   2.376  2.2433 -2.2759  1.3945
 6397SOL    HW230654   2.400   3.922   2.231  0.7298 -3.2277 -3.5732
 6398SOL     OW30655   3.500   4.585   2.615  0.7920  0.0871  0.3664
 6398SOL    HW130656   3.440   4.593   2.541  0.3588  0.3499  0.7449
 6398SOL    HW230657   3.472   4.654   2.676 -0.7516 -0.4640  0.2784
 6399SOL     OW30658   1.381   4.443   3.461  0.1717  0.3849 -0.0884
 6399SOL    HW130659   1.390   4.527   3.415 -0.6366  0.3323 -0.3405
 6399SOL    HW230660   1.462   4.450   3.511  0.7772  2.0756 -1.2931
 6400SOL     OW30661   3.779   0.070   3.921  0.0086  0.0225  0.0639
 6400SOL    HW130662   3.712   0.131   3.889 -0.6971  0.3725  2.1639
 6400SOL    HW230663   3.730   4.711   3.944 -2.2552  0.7790 -2.2310
 6401SOL     OW30664   1.099   0.020  13.040  0.5631 -0.1876 -0.1465
 6401SOL    HW130665   1.054   0.013  12.956  0.2140 -0.8843  0.0979
 6401SOL    HW230666   1.025   0.056  13.088  0.1021 -0.8508 -0.3635
 6402SOL     OW30667   2.373   1.757  11.911 -0.1925  0.4309 -0.0156
 6402SOL    HW130668   2.357   1.713  11.828 -1.1108 -0.3079  0.5538
 6402SOL    HW230669   2.378   1.685  11.974 -0.4110  0.5270  0.1135
 6403SOL     OW30670   2.489   0.244   6.176 -0.1950  0.0020  0.1702
 6403SOL    HW130671   2.435   0.235   6.255 -0.7829  1.1478 -0.0992
 6403SOL    HW230672   2.416   0.266   6.118  0.0242  1.5835  0.5059
 6404SOL     OW30673   1.793   4.210   5.069  0.4623  0.0786  0.0263
 6404SOL    HW130674   1.790   4.123   5.029 -0.0147 -0.1737  0.6090
 6404SOL    HW230675   1.886   4.230   5.075  0.0453  2.3316 -1.1990
 6405SOL     OW30676   2.762   0.150   8.130  0.5334 -0.7626 -0.8530
 6405SOL    HW130677   2.692   0.214   8.117  1.4611  0.6133  0.8306
 6405SOL    HW230678   2.774   0.156   8.225 -1.1011  0.2968 -0.7121
 6406SOL     OW30679   4.601   3.645  12.538 -0.2971 -0.5029  0.0456
 6406SOL    HW130680   4.549   3.634  12.458 -1.3660 -0.0701  0.6805
 6406SOL    HW230681   4.550   3.707  12.590  0.2122  0.3139 -0.4337
 6407SOL     OW30682   4.458   4.657   9.024 -0.0383 -0.2750  0.3822
 6407SOL    HW130683   4.434   4.664   9.116  1.5937  0.3002  0.7548
 6407SOL    HW230684   4.534   4.714   9.016 -0.9223  0.5395 -2.2128
 6408SOL     OW30685   1.735   3.310  14.352 -0.1442 -0.2883 -0.3140
 6408SOL    HW130686   1.698   3.397  14.360  1.5342  0.3248  0.6914
 6408SOL    HW230687   1.821   3.330  14.388 -0.1509 -2.9260  1.1817
 6409SOL     OW30688   3.519   3.315  16.587  0.3385  0.0686  0.0573
 6409SOL    HW130689   3.561   3.396  16.617 -1.2093  1.6599 -2.1066
 6409SOL    HW230690   3.474   3.285  16.666  1.2558  0.8020  0.8662
 6410SOL     OW30691   4.088   3.585   7.044  0.1582 -0.1833  0.0642
 6410SOL    HW130692   4.170   3.536   7.055 -0.6257 -1.1631  1.5579
 6410SOL    HW230693   4.110   3.628   6.962 -1.9322  1.7800  0.5337
 6411SOL     OW30694   2.260   3.283   8.109 -0.5348  0.6452  0.6633
 6411SOL    HW130695   2.313   3.319   8.181  0.4109  0.1460  0.2229
 6411SOL    HW230696   2.258   3.353   8.044 -0.3815  1.2716  1.3245
 6412SOL     OW30697   0.445   3.012   7.303 -0.4124 -0.6388 -0.0138
 6412SOL    HW130698   0.373   3.043   7.248 -1.3196 -0.2107  1.4197
 6412SOL    HW230699   0.486   3.091   7.336  0.5149 -1.7229  1.4302
 6413SOL     OW30700   4.224   1.469  14.179  0.3165 -0.3982  0.0590
 6413SOL    HW130701   4.298   1.466  14.240  2.9309  2.0831 -2.9712
 6413SOL    HW230702   4.161   1.410  14.221  0.9042 -0.1617  1.2894
 6414SOL     OW30703   1.270   0.699   7.110 -0.9234  0.3661  0.2093
 6414SOL    HW130704   1.305   0.782   7.080  1.0597 -1.3306 -2.1888
 6414SOL    HW230705   1.212   0.669   7.039  1.7656 -0.8222 -1.4569
 6415SOL     OW30706   1.099   1.454  12.182  0.3474  0.6259  0.0774
 6415SOL    HW130707   1.180   1.483  12.224  0.8058 -3.6059  2.2125
 6415SOL    HW230708   1.067   1.532  12.137 -1.3451  0.1685  0.4873
 6416SOL     OW30709   3.805   4.469   5.520  0.3763 -0.2172  0.1891
 6416SOL    HW130710   3.755   4.465   5.602 -1.0647  0.4292 -0.6698
 6416SOL    HW230711   3.775   4.389   5.476 -2.2682  1.1226 -0.4306
 6417SOL     OW30712   4.435   1.967   4.789 -0.0290 -0.3682 -0.2538
 6417SOL    HW130713   4.417   1.891   4.844 -0.0333 -0.2986 -0.1579
 6417SOL    HW230714   4.497   1.934   4.725 -2.0224 -0.8656 -1.9313
 6418SOL     OW30715   4.552   0.041   3.652 -0.4522 -0.1729 -0.2682
 6418SOL    HW130716   4.636   4.719   3.634  0.1108  0.7378  0.2127
 6418SOL    HW230717   4.568   0.083   3.737 -3.0005  1.5256 -0.6267
 6419SOL     OW30718   4.110   3.766   4.783 -0.1046 -0.0715  0.2662
 6419SOL    HW130719   4.205   3.772   4.774 -0.2221  0.0644 -0.8528
 6419SOL    HW230720   4.092   3.787   4.875  1.6104  1.1175  0.3131
 6420SOL     OW30721   0.345   1.150   6.885 -0.1500 -0.2639 -0.0084
 6420SOL    HW130722   0.341   1.246   6.879 -1.6745 -0.2697  0.9953
 6420SOL    HW230723   0.439   1.140   6.900 -0.1694  0.5524  0.6881
 6421SOL     OW30724   4.713   1.752   7.480 -0.1972  0.0732 -0.1350
 6421SOL    HW130725   4.645   1.770   7.416 -0.0124 -0.4311 -0.4741
 6421SOL    HW230726   0.057   1.823   7.476  0.0607 -0.2743 -1.8228
 6422SOL     OW30727   0.123   2.371   1.719  1.1034 -0.4157  0.0642
 6422SOL    HW130728   0.175   2.450   1.706  0.2848  0.1832  0.4784
 6422SOL    HW230729   0.063   2.388   1.646 -1.0768 -0.6905  1.7980
 6423SOL     OW30730   4.200   1.395  16.557  0.8365  0.0971  0.4791
 6423SOL    HW130731   4.286   1.434  16.567  0.5415  0.6592  0.8120
 6423SOL    HW230732   4.148   1.456  16.609  0.0385  0.3487 -0.6122
 6424SOL     OW30733   2.063   4.167   2.264 -0.3739 -0.3507  0.0671
 6424SOL    HW130734   2.091   4.231   2.329  0.7598  0.2313 -0.9935
 6424SOL    HW230735   1.968   4.178   2.261 -0.6222 -2.7786 -0.7824
 6425SOL     OW30736   2.893   1.864   9.287  0.7916  0.3933 -0.1076
 6425SOL    HW130737   2.959   1.917   9.244  1.4324 -0.2604  0.0820
 6425SOL    HW230738   2.937   1.780   9.297 -1.0293 -0.3631  1.7773
 6426SOL     OW30739   0.383   4.260  16.273  0.2910  0.8803  0.0292
 6426SOL    HW130740   0.385   4.347  16.234 -2.3455  0.1943 -1.6465
 6426SOL    HW230741   0.435   4.266  16.353  0.6480  1.3702 -0.2394
 6427SOL     OW30742   2.112   2.310   7.760  0.0433  0.1221  0.2945
 6427SOL    HW130743   2.064   2.298   7.842  0.3814  0.7063  0.5744
 6427SOL    HW230744   2.038   2.315   7.700  0.4326  0.4363 -0.1605
 6428SOL     OW30745   1.554   4.140  13.790 -0.1873  0.4234 -0.5422
 6428SOL    HW130746   1.541   4.056  13.833 -1.3597  0.6548 -0.4478
 6428SOL    HW230747   1.647   4.145  13.814 -0.8796  1.1045  2.0944
 6429SOL     OW30748   1.144   0.137   5.986 -1.0887  0.4669  0.2256
 6429SOL    HW130749   1.190   0.108   6.064 -2.9557 -1.6211  0.5588
 6429SOL    HW230750   1.085   0.206   6.015  0.3164  2.1911 -1.0191
 6430SOL     OW30751   0.501   0.422   1.886  0.0456 -0.2623  0.1798
 6430SOL    HW130752   0.535   0.488   1.826  1.2106 -0.4585  0.6171
 6430SOL    HW230753   0.547   0.462   1.960 -0.9028  0.9433  0.1119
 6431SOL     OW30754   3.733   2.821   4.752  0.0646  0.5236  0.7223
 6431SOL    HW130755   3.660   2.821   4.814 -0.9928  0.7383 -0.5258
 6431SOL    HW230756   3.719   2.888   4.685 -0.2362 -0.9406 -0.6758
 6432SOL     OW30757   3.589   1.468  12.439  0.3777  0.3221 -0.0774
 6432SOL    HW130758   3.566   1.467  12.531  0.4412 -0.7947 -0.0711
 6432SOL    HW230759   3.536   1.396  12.404  0.4176 -0.6632  1.9076
 6433SOL     OW30760   4.332   1.070   8.244 -0.1294 -0.2155  0.3410
 6433SOL    HW130761   4.343   1.014   8.167 -0.8882 -1.8783  1.4488
 6433SOL    HW230762   4.249   1.113   8.222  1.0277  2.9786  2.2443
 6434SOL     OW30763   2.049   4.247   3.806  0.1431 -0.3384 -0.3958
 6434SOL    HW130764   2.090   4.164   3.832 -1.2049 -1.2960 -1.3047
 6434SOL    HW230765   2.083   4.305   3.873 -0.0797  2.3367 -2.6112
 6435SOL     OW30766   2.858   3.542   3.513 -0.0165  0.1312  0.4049
 6435SOL    HW130767   2.866   3.466   3.571 -0.6002 -0.6865 -0.5861
 6435SOL    HW230768   2.950   3.558   3.493 -1.3937  1.7589 -4.5193
 6436SOL     OW30769   3.029   1.730   7.847  0.2930  0.2343 -0.1004
 6436SOL    HW130770   2.978   1.650   7.859  0.5891  0.0820  0.1531
 6436SOL    HW230771   3.077   1.727   7.930  1.7155  1.2888 -0.8802
 6437SOL     OW30772   2.649   2.534   8.015 -0.1695 -0.2953  0.3882
 6437SOL    HW130773   2.634   2.628   8.019  1.7480  0.0893 -1.2714
 6437SOL    HW230774   2.561   2.498   8.027 -0.7738  0.7367 -0.9608
 6438SOL     OW30775   1.862   1.690   3.057  0.0786 -0.0677  0.3513
 6438SOL    HW130776   1.926   1.621   3.077  0.0316 -0.7382 -1.7782
 6438SOL    HW230777   1.904   1.742   2.988  0.8149 -1.0595  0.0405
 6439SOL     OW30778   0.686   1.807   9.283  0.5227  0.3953  0.5996
 6439SOL    HW130779   0.746   1.849   9.345  0.6326 -1.6885  1.8848
 6439SOL    HW230780   0.706   1.718   9.312  0.4310 -0.4608 -1.9175
 6440SOL     OW30781   4.160   0.523   7.107 -0.0713  0.4173 -0.0055
 6440SOL    HW130782   4.177   0.429   7.120  0.7861  0.6637  0.6453
 6440SOL    HW230783   4.199   0.567   7.182 -1.0508 -0.8071  1.2230
 6441SOL     OW30784   3.748   1.610  13.698 -0.0344  0.1514 -0.5399
 6441SOL    HW130785   3.771   1.525  13.735 -1.3164 -0.3467 -0.8812
 6441SOL    HW230786   3.798   1.593  13.618  1.1569  0.1222  0.2189
 6442SOL     OW30787   4.157   0.732   9.923 -0.1845 -0.0622 -0.1300
 6442SOL    HW130788   4.226   0.707   9.985 -0.2526  1.2872  0.4968
 6442SOL    HW230789   4.126   0.649   9.886  0.3884 -0.4611  0.2856
 6443SOL     OW30790   2.688   2.602   3.810 -0.3825  0.2420  0.7769
 6443SOL    HW130791   2.633   2.546   3.756  2.6957 -2.2435  0.2293
 6443SOL    HW230792   2.668   2.689   3.776 -1.3755  0.3259  1.5738
 6444SOL     OW30793   4.044   1.243   6.323  0.0447  0.4226  0.0653
 6444SOL    HW130794   4.124   1.263   6.276 -0.4508 -1.2845 -1.4851
 6444SOL    HW230795   3.981   1.222   6.254  0.3346  1.5814 -0.5465
 6445SOL     OW30796   2.184   4.032   3.904  0.5181  0.1439 -0.0367
 6445SOL    HW130797   2.216   3.977   3.833 -0.2368 -1.0605  0.5725
 6445SOL    HW230798   2.225   3.997   3.983 -0.4047  0.3281  0.5300
 6446SOL     OW30799   2.951   3.393   2.186  0.1573 -0.0004 -0.5294
 6446SOL    HW130800   2.907   3.308   2.196 -0.5230  0.6277  1.7959
 6446SOL    HW230801   3.030   3.384   2.239 -1.1404 -3.4491  0.8474
 6447SOL     OW30802   2.761   2.003   7.254 -0.0246 -0.1685  0.2026
 6447SOL    HW130803   2.773   1.956   7.172 -1.1998 -0.5711  0.2634
 6447SOL    HW230804   2.685   1.955   7.287 -1.9368  2.0035 -0.9889
 6448SOL     OW30805   4.257   1.971  10.667  0.5722  0.0484 -0.6635
 6448SOL    HW130806   4.241   1.917  10.590 -0.6093  0.8035 -0.9341
 6448SOL    HW230807   4.236   2.057  10.632 -2.7231 -0.2423  0.6046
 6449SOL     OW30808   0.488   1.571  10.805  0.0906 -0.1974  0.1977
 6449SOL    HW130809   0.401   1.532  10.801  0.5500 -1.2817  0.6014
 6449SOL    HW230810   0.532   1.522  10.875  2.1565 -1.1430 -1.7496
 6450SOL     OW30811   4.397   2.365   8.605  0.2403  0.3188  0.7236
 6450SOL    HW130812   4.466   2.396   8.546  0.1991  0.4356  0.7354
 6450SOL    HW230813   4.450   2.313   8.666 -0.1489  1.9014  2.4248
 6451SOL     OW30814   3.996   1.322   1.289 -0.0061  0.6100  0.0439
 6451SOL    HW130815   4.075   1.269   1.278 -0.6266  0.0340 -1.7277
 6451SOL    HW230816   4.020   1.378   1.362 -1.2799  1.4460 -0.1738
 6452SOL     OW30817   2.683   0.083   6.848  0.4661 -0.0006 -0.1471
 6452SOL    HW130818   2.633   0.009   6.813  2.3574 -1.0290 -0.6878
 6452SOL    HW230819   2.756   0.082   6.786  0.1570 -1.5256 -0.4949
 6453SOL     OW30820   3.998   4.415   8.085 -0.3695 -0.7377 -0.1290
 6453SOL    HW130821   4.005   4.326   8.050 -0.1704 -0.4562 -0.8078
 6453SOL    HW230822   3.983   4.472   8.009 -1.3790 -1.3621 -0.4027
 6454SOL     OW30823   3.480   4.123  17.124  0.2835 -0.0751  0.1759
 6454SOL    HW130824   3.521   4.101  17.040  0.6348  0.5575  0.1841
 6454SOL    HW230825   3.482   4.039  17.170  0.6790  0.1387  0.5513
 6455SOL     OW30826   0.658   1.873   8.327 -0.3918 -0.6678 -0.0509
 6455SOL    HW130827   0.629   1.836   8.244 -0.1943  0.1103 -0.4693
 6455SOL    HW230828   0.578   1.909   8.365 -1.4830  0.9996 -3.9566
 6456SOL     OW30829   4.145   0.281   3.102  0.1495 -0.3783  0.0087
 6456SOL    HW130830   4.071   0.225   3.125  0.7943 -0.5077  1.7732
 6456SOL    HW230831   4.117   0.303   3.013  0.1858 -1.0731 -0.1684
 6457SOL     OW30832   0.265   0.924   7.629  0.4327 -0.4450  0.3062
 6457SOL    HW130833   0.311   0.953   7.550  2.5424  1.0721  2.0783
 6457SOL    HW230834   0.178   0.916   7.590  1.3747  2.3385 -2.4202
 6458SOL     OW30835   1.630   4.351   5.255  0.0137 -0.2943  0.0353
 6458SOL    HW130836   1.679   4.316   5.181  0.3803  0.1550  0.0620
 6458SOL    HW230837   1.552   4.385   5.211  0.0988  0.8717  0.7867
 6459SOL     OW30838   3.465   2.647  13.421  0.1529  0.2915 -0.4076
 6459SOL    HW130839   3.430   2.583  13.482  1.2710  0.2673  0.2225
 6459SOL    HW230840   3.537   2.676  13.478  2.0177 -0.9202 -2.1689
 6460SOL     OW30841   1.927   0.681  16.602 -0.3013 -0.5232 -0.2257
 6460SOL    HW130842   1.985   0.713  16.534  1.7721 -1.5354  1.0833
 6460SOL    HW230843   1.863   0.626  16.556  3.5177 -3.5178 -1.9124
 6461SOL     OW30844   2.358   3.236   6.643  0.2240 -0.1138  0.0642
 6461SOL    HW130845   2.401   3.294   6.580  3.2392 -0.9511  1.3211
 6461SOL    HW230846   2.440   3.197   6.675  0.9148  0.0948 -1.4335
 6462SOL     OW30847   1.252   4.255  10.548  0.1326  0.4997  0.3334
 6462SOL    HW130848   1.278   4.172  10.509 -0.7951  0.0718  0.6188
 6462SOL    HW230849   1.181   4.298  10.500  0.8282  1.2706 -0.0023
 6463SOL     OW30850   1.192   4.007   7.045  0.7332  0.0205 -0.0876
 6463SOL    HW130851   1.281   3.995   7.014  0.4791  4.7768 -2.5934
 6463SOL    HW230852   1.146   3.994   6.962  0.4465 -0.3897  0.1308
 6464SOL     OW30853   1.405   0.317  15.800 -0.0628  0.2625  0.3101
 6464SOL    HW130854   1.402   0.314  15.896 -0.1589  0.0563  0.3015
 6464SOL    HW230855   1.420   0.223  15.791 -2.0096 -0.1724  1.5449
 6465SOL     OW30856   2.631   3.890   6.585  0.3670 -0.6559 -0.2470
 6465SOL    HW130857   2.714   3.901   6.538  1.3424  0.2727  1.6670
 6465SOL    HW230858   2.585   3.962   6.541 -0.4321 -0.5305  0.8052
 6466SOL     OW30859   0.741   0.296   7.344 -0.5990  0.1305  0.6344
 6466SOL    HW130860   0.681   0.228   7.376  0.1522 -0.6030  0.4771
 6466SOL    HW230861   0.818   0.265   7.391 -0.3321 -1.8839 -1.1078
 6467SOL     OW30862   4.640   3.759   3.144  0.7289 -0.0722 -0.2572
 6467SOL    HW130863   4.630   3.818   3.219  0.1934 -0.8642  0.2880
 6467SOL    HW230864   0.014   3.774   3.136  0.8465 -0.0149  1.1384
 6468SOL     OW30865   1.847   4.164   8.849 -0.1728  0.0460  0.2614
 6468SOL    HW130866   1.926   4.156   8.796 -0.5097 -0.8418 -0.1070
 6468SOL    HW230867   1.889   4.167   8.935  0.7430  4.7887 -0.3784
 6469SOL     OW30868   1.600   2.491   2.147 -0.2229 -0.1368  0.6913
 6469SOL    HW130869   1.671   2.505   2.084 -1.3928 -0.4692 -0.7000
 6469SOL    HW230870   1.535   2.528   2.087  0.3419 -0.7927 -0.3297
 6470SOL     OW30871   4.647   3.936   6.777  0.4137  0.2372  0.4168
 6470SOL    HW130872   0.021   3.950   6.778  0.4825 -0.5157  3.2890
 6470SOL    HW230873   4.612   4.010   6.826  0.8264  1.3102 -0.9194
 6471SOL     OW30874   2.906   1.641   6.075 -0.4175 -0.1098  1.3410
 6471SOL    HW130875   2.901   1.558   6.027  1.8450  0.1041  0.7319
 6471SOL    HW230876   2.970   1.689   6.022  1.0892 -2.6559  0.8504
 6472SOL     OW30877   4.241   2.859   1.965  0.0445 -0.4115 -0.2592
 6472SOL    HW130878   4.176   2.838   2.033 -0.9611  2.5080 -0.3254
 6472SOL    HW230879   4.214   2.803   1.892 -3.3993 -1.2666  1.6298
 6473SOL     OW30880   2.069   0.882   3.162  0.4211 -0.3327  0.0895
 6473SOL    HW130881   2.150   0.933   3.161  0.2706 -0.0084  2.8746
 6473SOL    HW230882   2.082   0.829   3.083  0.4753 -0.9098  0.4858
 6474SOL     OW30883   2.621   2.401  17.495 -0.0536  0.9140  0.2951
 6474SOL    HW130884   2.527   2.391  17.480  0.0751 -0.0526  0.1294
 6474SOL    HW230885   2.654   2.337  17.431 -0.3987 -0.2810  1.3233
 6475SOL     OW30886   2.508   4.533   2.097  0.1754 -0.6387 -0.2948
 6475SOL    HW130887   2.561   4.613   2.103  0.9452 -1.1015 -0.8632
 6475SOL    HW230888   2.500   4.525   2.002 -2.0564 -0.6497 -0.1086
 6476SOL     OW30889   0.271   0.110   4.315  0.6647  0.6334  0.0371
 6476SOL    HW130890   0.298   0.020   4.297 -2.7898 -0.2105 -1.0150
 6476SOL    HW230891   0.300   0.138   4.402  1.7447  0.9198 -0.4128
 6477SOL     OW30892   2.089   4.138   6.128 -0.3861  0.3910 -0.5301
 6477SOL    HW130893   2.026   4.104   6.192 -0.4408 -2.0240 -1.8465
 6477SOL    HW230894   2.166   4.152   6.184 -0.5753 -0.8769  0.0655
 6478SOL     OW30895   2.995   0.174   5.609  0.7344  0.1769  0.3864
 6478SOL    HW130896   3.081   0.198   5.643  1.9712 -0.7432 -2.0504
 6478SOL    HW230897   2.991   0.098   5.665  2.9579 -0.2404 -0.0496
 6479SOL     OW30898   1.356   4.216   4.809  0.3421 -0.4248 -0.1074
 6479SOL    HW130899   1.277   4.176   4.845  0.8524 -2.4665 -1.2421
 6479SOL    HW230900   1.344   4.310   4.819 -1.4220 -0.7707  0.9445
 6480SOL     OW30901   3.566   3.396  11.922  0.2207 -0.6560 -0.0323
 6480SOL    HW130902   3.517   3.474  11.897 -1.0834 -1.1024  1.1018
 6480SOL    HW230903   3.494   3.334  11.916 -0.1480 -0.0760 -1.4886
 6481SOL     OW30904   1.501   3.529   7.408  0.3377 -0.3020  0.0985
 6481SOL    HW130905   1.515   3.572   7.492  1.7607 -1.5306  0.5001
 6481SOL    HW230906   1.492   3.438   7.436  1.4483 -0.1379  0.9987
 6482SOL     OW30907   2.528   3.935  17.232 -0.7468  0.5376  0.1195
 6482SOL    HW130908   2.455   3.993  17.211 -0.6278  0.9890  0.9357
 6482SOL    HW230909   2.506   3.931  17.325 -0.1026  1.1839  0.3038
 6483SOL     OW30910   3.152   2.731   5.633  0.9488  0.1173  0.1180
 6483SOL    HW130911   3.089   2.802   5.623  1.2088 -0.1188 -3.3754
 6483SOL    HW230912   3.100   2.656   5.663  2.0940 -0.9140 -0.4415
 6484SOL     OW30913   2.592   0.503   1.708 -0.7199 -0.2684 -0.4372
 6484SOL    HW130914   2.629   0.568   1.648  0.8671  0.4855  1.3856
 6484SOL    HW230915   2.627   0.420   1.677  1.0347 -0.0901  1.0809
 6485SOL     OW30916   2.680   3.908  17.673  0.5129 -0.5739  0.1183
 6485SOL    HW130917   2.697   3.859  17.593  2.1158 -3.2131  2.0625
 6485SOL    HW230918   2.585   3.919  17.662  0.5086 -0.8461 -0.1090
 6486SOL     OW30919   1.705   2.304   2.993 -0.3761 -0.3927 -0.5305
 6486SOL    HW130920   1.765   2.351   2.934  2.0730 -1.3332  1.2569
 6486SOL    HW230921   1.687   2.376   3.054 -1.9353 -1.4677  0.2782
 6487SOL     OW30922   1.580   0.121   4.142 -0.0403  0.3588 -0.1953
 6487SOL    HW130923   1.593   0.049   4.081 -3.0927 -1.9330  1.8394
 6487SOL    HW230924   1.488   0.103   4.164  0.1134  0.8251  0.8717
 6488SOL     OW30925   1.401   3.394   3.507 -0.6690 -0.5874 -1.0927
 6488SOL    HW130926   1.388   3.488   3.517 -0.8349 -0.8518  1.3441
 6488SOL    HW230927   1.315   3.359   3.530 -0.0473  0.2524  2.6098
 6489SOL     OW30928   3.835   1.972   1.100 -0.0394 -0.0758 -0.6451
 6489SOL    HW130929   3.745   1.975   1.067 -0.0704 -1.8272 -0.7149
 6489SOL    HW230930   3.837   1.893   1.154 -1.6044 -0.1950 -0.7616
 6490SOL     OW30931   1.573   0.198   5.368 -0.1004 -0.1726 -0.1905
 6490SOL    HW130932   1.662   0.213   5.401  0.5173 -1.2615 -1.3633
 6490SOL    HW230933   1.523   0.257   5.424  3.0446  1.8923  0.4806
 6491SOL     OW30934   4.055   0.375   6.237  0.3623 -0.2148  0.4427
 6491SOL    HW130935   4.004   0.407   6.312 -1.2321 -1.6722 -0.0304
 6491SOL    HW230936   4.121   0.314   6.271  1.8431 -0.2577 -2.5156
 6492SOL     OW30937   0.142   4.227  14.168 -0.2171  0.3511  0.2344
 6492SOL    HW130938   0.048   4.216  14.152 -0.8126  4.1292  1.1556
 6492SOL    HW230939   0.172   4.180  14.090 -1.8442 -0.7460  0.2908
 6493SOL     OW30940   0.582   3.128  16.324  0.0777 -0.1121 -0.2007
 6493SOL    HW130941   0.526   3.146  16.400  0.9185  1.9478 -0.0686
 6493SOL    HW230942   0.548   3.193  16.263 -0.0097 -0.3268 -0.3806
 6494SOL     OW30943   2.887   3.531   3.888  0.3263  0.1333 -0.0555
 6494SOL    HW130944   2.882   3.580   3.970 -1.2694  0.5827 -0.4377
 6494SOL    HW230945   2.958   3.575   3.841  1.1024 -0.4099  0.6006
 6495SOL     OW30946   3.479   0.434   4.720  0.3375 -0.5058  0.6708
 6495SOL    HW130947   3.463   0.397   4.807 -3.8468  0.5267  0.3106
 6495SOL    HW230948   3.497   0.354   4.669 -0.8017 -0.8902  0.8637
 6496SOL     OW30949   0.161   3.674   9.074  0.0420 -0.2125  0.3221
 6496SOL    HW130950   0.102   3.685   9.148 -0.6180 -0.9674 -0.0971
 6496SOL    HW230951   0.152   3.580   9.057  0.7392 -0.7159  2.7407
 6497SOL     OW30952   4.212   4.366   5.251  0.4075 -0.2016 -0.2034
 6497SOL    HW130953   4.273   4.361   5.178  0.7205  4.2146 -0.2303
 6497SOL    HW230954   4.172   4.280   5.262  1.8137 -0.7794  0.4046
 6498SOL     OW30955   2.805   0.609  10.969  0.0280  0.3075  0.6490
 6498SOL    HW130956   2.882   0.632  11.021  0.5272 -0.3867  0.2191
 6498SOL    HW230957   2.743   0.658  11.022 -0.0068  0.8324  0.1178
 6499SOL     OW30958   3.738   0.214   9.533 -0.0753  0.4326  0.5010
 6499SOL    HW130959   3.818   0.210   9.586  1.7088  1.5592 -2.1116
 6499SOL    HW230960   3.761   0.273   9.461 -3.1083  2.6341  1.3376
 6500SOL     OW30961   1.291   0.865  11.637 -0.6776  0.1416  0.0790
 6500SOL    HW130962   1.312   0.900  11.724 -1.7177  0.9847 -0.0092
 6500SOL    HW230963   1.313   0.774  11.655 -2.9579  0.2063  3.4034
 6501SOL     OW30964   3.880   0.617  10.174 -0.5091 -0.1294  0.4656
 6501SOL    HW130965   3.797   0.588  10.137  0.8880 -3.1697 -0.3172
 6501SOL    HW230966   3.843   0.690  10.224 -1.1653  0.5688 -1.0499
 6502SOL     OW30967   3.788   2.172  16.827 -0.4096 -0.1723 -0.3015
 6502SOL    HW130968   3.820   2.239  16.887 -2.0747  0.6995 -0.3711
 6502SOL    HW230969   3.845   2.170  16.751 -2.3686 -0.7638 -1.7685
 6503SOL     OW30970   1.687   2.971   9.613 -0.3403 -0.1549 -0.0591
 6503SOL    HW130971   1.775   2.987   9.647 -0.2467  0.6394 -0.6889
 6503SOL    HW230972   1.683   3.021   9.532 -2.1918 -0.4111 -0.1392
 6504SOL     OW30973   3.864   1.963   7.359 -0.1066  0.3039 -0.2588
 6504SOL    HW130974   3.840   2.055   7.349  0.3838  0.3852 -0.6890
 6504SOL    HW230975   3.915   1.991   7.435 -0.7080  2.0682 -0.5145
 6505SOL     OW30976   2.846   1.836  11.049  0.4881  0.6454 -0.0544
 6505SOL    HW130977   2.895   1.909  11.086  2.0057  0.2417 -1.2891
 6505SOL    HW230978   2.763   1.870  11.015  0.4514 -0.3718 -0.9932
 6506SOL     OW30979   4.305   1.539   0.424 -0.0880  0.2907 -0.3271
 6506SOL    HW130980   4.237   1.605   0.406 -1.6186 -1.4332 -0.8925
 6506SOL    HW230981   4.384   1.591   0.412 -0.3839  0.2369 -2.4967
 6507SOL     OW30982   4.688   2.539   3.736 -0.1575 -0.3201  0.0674
 6507SOL    HW130983   4.678   2.510   3.645 -0.0267 -1.6147  0.4626
 6507SOL    HW230984   4.675   2.633   3.733  3.1150  0.0950 -0.8381
 6508SOL     OW30985   1.912   1.055   4.748  0.4802 -0.4404  0.1697
 6508SOL    HW130986   1.873   0.995   4.684  0.3084 -0.6693  0.4922
 6508SOL    HW230987   1.899   1.135   4.697  1.7076  0.3581  1.0893
 6509SOL     OW30988   3.731   4.667   8.595  0.2330  0.7017 -0.0549
 6509SOL    HW130989   3.826   4.668   8.607  0.1237  0.9705  0.8019
 6509SOL    HW230990   3.728   4.694   8.504  0.6944  3.2086  0.6883
 6510SOL     OW30991   0.744   1.268  15.834  0.0585 -0.2541  0.2169
 6510SOL    HW130992   0.652   1.243  15.842  0.0353  0.2917  1.6754
 6510SOL    HW230993   0.740   1.364  15.833 -0.7182 -0.3101 -2.1797
 6511SOL     OW30994   1.399   0.806  14.990 -0.0040 -0.0025  0.3446
 6511SOL    HW130995   1.442   0.722  15.004 -0.5339 -0.8545 -3.1463
 6511SOL    HW230996   1.360   0.822  15.077  1.0195 -1.4701  1.0636
 6512SOL     OW30997   1.543   1.976  14.241 -0.2400 -0.1658 -1.0585
 6512SOL    HW130998   1.576   1.886  14.238 -0.8374 -0.4048 -0.5787
 6512SOL    HW230999   1.450   1.952  14.249 -0.0656 -0.9867 -1.5035
 6513SOL     OW31000   3.429   4.082  15.597 -0.1213  0.2868  0.5131
 6513SOL    HW131001   3.421   4.130  15.680  2.0255  2.0073 -0.3019
 6513SOL    HW231002   3.420   3.993  15.632  2.5297 -0.0931  0.1790
 6514SOL     OW31003   1.505   2.295   5.502 -0.1298  0.8816 -0.2800
 6514SOL    HW131004   1.456   2.323   5.579 -0.6747 -1.8688  0.3774
 6514SOL    HW231005   1.429   2.259   5.455 -0.2373  0.1308  0.4673
 6515SOL     OW31006   2.925   2.214   1.317  0.0550 -0.4759 -0.2583
 6515SOL    HW131007   2.860   2.225   1.386  1.6675  2.8511  0.7143
 6515SOL    HW231008   2.871   2.223   1.239  0.5478 -2.1721 -0.8032
 6516SOL     OW31009   1.661   2.914   4.471  0.3916 -0.5316 -0.1164
 6516SOL    HW131010   1.713   2.954   4.402 -0.2462 -0.3067 -0.4626
 6516SOL    HW231011   1.585   2.971   4.462 -0.7983 -1.7757  1.9512
 6517SOL     OW31012   2.547   4.068   9.944  0.3117  0.0505  0.6921
 6517SOL    HW131013   2.581   4.129   9.878  3.8314 -1.4541  1.1041
 6517SOL    HW231014   2.508   4.123  10.012 -1.9519  0.3958 -0.8665
 6518SOL     OW31015   3.629   4.149   1.685  0.0706  0.2070  0.5070
 6518SOL    HW131016   3.693   4.218   1.670 -0.1292 -0.0122 -1.3732
 6518SOL    HW231017   3.585   4.188   1.760 -2.1713 -0.3136 -0.5167
 6519SOL     OW31018   4.333   2.971  14.263 -0.2790  0.0156 -0.2402
 6519SOL    HW131019   4.327   3.025  14.185 -1.7413 -2.1245 -1.6050
 6519SOL    HW231020   4.427   2.983  14.273 -0.3964  0.9751 -0.3260
 6520SOL     OW31021   2.428   1.098  10.110 -0.2075 -1.2144  0.2026
 6520SOL    HW131022   2.341   1.136  10.104  0.7639  0.8249 -0.7951
 6520SOL    HW231023   2.466   1.098  10.023 -0.4703 -2.6810  0.0889
 6521SOL     OW31024   2.990   0.610  10.423 -0.6586  0.2134  0.3992
 6521SOL    HW131025   2.982   0.615  10.518  0.3521 -0.7224  0.5406
 6521SOL    HW231026   3.019   0.519  10.413  3.4991  1.6423 -0.2910
 6522SOL     OW31027   2.786   0.436   6.419 -0.5466 -0.2860  0.8316
 6522SOL    HW131028   2.709   0.488   6.396 -2.4441 -3.6905 -0.5493
 6522SOL    HW231029   2.795   0.368   6.352 -0.6651  1.6853 -1.1887
 6523SOL     OW31030   4.501   2.525  13.114  0.0846  0.1902 -0.2846
 6523SOL    HW131031   4.572   2.581  13.146 -0.2627  1.2007 -1.2845
 6523SOL    HW231032   4.450   2.590  13.066  1.0255  0.6562 -0.6595
 6524SOL     OW31033   3.718   0.653   7.729  0.2579 -0.4449  0.1889
 6524SOL    HW131034   3.694   0.577   7.783 -1.0261 -0.0379  0.2082
 6524SOL    HW231035   3.634   0.699   7.739 -0.3592 -1.5368  0.0934
 6525SOL     OW31036   2.601   0.039   1.255 -0.3476 -0.3062  0.5945
 6525SOL    HW131037   2.638   4.671   1.247  1.0107  0.3312 -0.1850
 6525SOL    HW231038   2.676   0.097   1.246  0.6676 -1.3155  2.6934
 6526SOL     OW31039   0.736   3.709   4.978  0.1012  0.4372 -0.4346
 6526SOL    HW131040   0.681   3.669   4.910  0.8043  2.4984 -2.2118
 6526SOL    HW231041   0.709   3.648   5.047  1.0789 -1.0219 -1.3288
 6527SOL     OW31042   4.215   0.313   6.917 -0.2689  0.1090  0.3062
 6527SOL    HW131043   4.198   0.338   6.827 -0.2309  0.0800  0.2908
 6527SOL    HW231044   4.289   0.369   6.941 -0.4380 -0.3767  1.9496
 6528SOL     OW31045   3.184   0.292   7.813 -0.0785 -0.0457  0.3953
 6528SOL    HW131046   3.231   0.210   7.797 -0.1254 -0.1019  0.5472
 6528SOL    HW231047   3.168   0.318   7.722 -0.3678 -0.1057  0.4284
 6529SOL     OW31048   2.299   1.135   4.952 -0.0163  0.7480 -0.0195
 6529SOL    HW131049   2.376   1.118   4.897  1.0695  1.3006  1.3167
 6529SOL    HW231050   2.269   1.217   4.913  1.8977  1.5017  0.0624
 6530SOL     OW31051   2.518   1.930  14.658 -0.3483 -0.1608  0.5440
 6530SOL    HW131052   2.526   1.881  14.575  0.2328  0.0824  0.4540
 6530SOL    HW231053   2.581   1.891  14.719  0.3754  1.5947  0.9200
 6531SOL     OW31054   0.036   2.160   7.664 -0.9261  0.1220  0.1262
 6531SOL    HW131055   4.701   2.235   7.641  0.3321  0.5370 -1.5183
 6531SOL    HW231056   4.695   2.110   7.718  0.6467 -2.2540 -0.2623
 6532SOL     OW31057   4.205   1.819   4.093 -0.3982  0.0827  0.3350
 6532SOL    HW131058   4.283   1.765   4.078 -0.7545  0.0469 -1.3229
 6532SOL    HW231059   4.179   1.788   4.180  1.3092  1.6587  1.4059
 6533SOL     OW31060   0.869   2.127   6.092 -0.4492  0.1285 -0.2599
 6533SOL    HW131061   0.942   2.188   6.102  1.1234 -2.1278  2.1439
 6533SOL    HW231062   0.912   2.050   6.129 -1.9166 -0.4416  0.2401
 6534SOL     OW31063   1.003   0.730   1.143 -0.0357  0.4879 -0.1552
 6534SOL    HW131064   0.949   0.683   1.207  1.9617 -0.7444  0.6069
 6534SOL    HW231065   0.991   0.661   1.076  1.3068 -0.5256  0.6650
 6535SOL     OW31066   1.697   2.321   9.749  0.5524 -0.1517  0.0767
 6535SOL    HW131067   1.625   2.258   9.738 -0.1690  0.5717  0.6675
 6535SOL    HW231068   1.771   2.278   9.705  1.4659  1.0113  0.4794
 6536SOL     OW31069   3.120   3.794   8.315  0.5589 -0.3722 -0.9778
 6536SOL    HW131070   3.059   3.782   8.389  3.2826 -2.1936  0.9540
 6536SOL    HW231071   3.082   3.878   8.287  1.1996 -0.5768 -2.4424
 6537SOL     OW31072   4.469   0.762   5.220 -0.1311  0.0036 -0.2369
 6537SOL    HW131073   4.486   0.847   5.260 -0.2610 -0.2726  0.4153
 6537SOL    HW231074   4.533   0.765   5.149  1.4137  0.3722  1.1875
 6538SOL     OW31075   2.876   3.097   0.945 -0.1010  0.2560  0.0521
 6538SOL    HW131076   2.862   3.182   0.987  2.3071  1.8218 -2.3448
 6538SOL    HW231077   2.787   3.092   0.910 -0.0223  0.6808 -0.2167
 6539SOL     OW31078   0.346   0.285   9.116  0.2590  0.1098 -0.0665
 6539SOL    HW131079   0.365   0.191   9.111  2.2954  0.4511  1.1945
 6539SOL    HW231080   0.372   0.302   9.207 -2.0622  2.9178  0.0705
 6540SOL     OW31081   0.123   0.884   5.345  0.2078  0.2870 -0.2213
 6540SOL    HW131082   0.095   0.826   5.416 -0.5311  1.1415  0.1955
 6540SOL    HW231083   0.168   0.827   5.283  0.4004 -1.0317  1.1279
 6541SOL     OW31084   3.604   3.184   7.210 -0.3972 -0.4684  0.5725
 6541SOL    HW131085   3.528   3.192   7.268 -0.3752  1.0629  0.4085
 6541SOL    HW231086   3.612   3.271   7.169  1.6183 -0.8398  0.1579
 6542SOL     OW31087   0.959   3.097  17.147 -0.3869 -0.4843 -0.6206
 6542SOL    HW131088   0.988   3.032  17.084  2.3603 -0.0776  0.2094
 6542SOL    HW231089   1.037   3.113  17.201  0.1104 -1.1248 -1.1456
 6543SOL     OW31090   4.267   4.148  13.432 -0.3875 -0.2528 -0.5658
 6543SOL    HW131091   4.358   4.154  13.403 -0.0148 -0.3784  0.5482
 6543SOL    HW231092   4.215   4.178  13.358  0.8261 -1.7428 -2.0140
 6544SOL     OW31093   2.160   0.815   2.664 -0.5530  0.0960  0.2605
 6544SOL    HW131094   2.238   0.869   2.679 -0.1521  0.2714 -2.3511
 6544SOL    HW231095   2.104   0.872   2.610 -0.8424 -0.7411 -0.3236
 6545SOL     OW31096   2.285   0.934   6.588  0.3789 -0.2547  0.8068
 6545SOL    HW131097   2.366   0.983   6.580 -1.1918  2.3462  0.7327
 6545SOL    HW231098   2.269   0.954   6.680  2.5916  2.8273  0.5331
 6546SOL     OW31099   0.244   0.613   6.713  0.6545  0.5385 -0.8814
 6546SOL    HW131100   0.215   0.619   6.622  0.6652  1.1082 -0.8495
 6546SOL    HW231101   0.157   0.619   6.752  1.2055  1.2806  0.2307
 6547SOL     OW31102   1.019   1.054   2.758 -0.7064  0.3995  0.1919
 6547SOL    HW131103   1.041   1.147   2.768  1.2528 -0.3383  2.6114
 6547SOL    HW231104   0.923   1.052   2.754 -0.6815  3.2169 -2.1704
 6548SOL     OW31105   1.552   2.240   7.013  0.2987 -0.5477  0.0002
 6548SOL    HW131106   1.465   2.201   7.017  0.4567 -1.1008 -2.0430
 6548SOL    HW231107   1.549   2.272   7.103  0.1555 -0.5494 -0.0044
 6549SOL     OW31108   1.133   4.358   8.904 -0.3627  0.1717 -0.0608
 6549SOL    HW131109   1.225   4.382   8.915 -0.8107  1.9716 -0.1727
 6549SOL    HW231110   1.135   4.263   8.903 -2.1379  0.1363 -0.4536
 6550SOL     OW31111   2.955   3.703   9.832 -0.3107  0.4944 -0.2623
 6550SOL    HW131112   3.004   3.652   9.768  1.7233  0.1431  1.5766
 6550SOL    HW231113   2.868   3.680   9.798 -0.4659 -0.4991  0.8070
 6551SOL     OW31114   4.098   1.625   3.781  0.9322 -0.0381  0.1013
 6551SOL    HW131115   4.126   1.547   3.829 -1.3524  0.9239  3.0610
 6551SOL    HW231116   4.050   1.597   3.703  0.3317 -0.7122  0.7100
 6552SOL     OW31117   1.524   4.593   3.061  0.0198  0.6339  0.3178
 6552SOL    HW131118   1.580   4.534   3.112 -2.4066 -1.1506  0.8794
 6552SOL    HW231119   1.591   4.647   3.020 -0.5776  0.9628 -0.2155
 6553SOL     OW31120   4.053   2.659   9.145  0.1371  0.0691 -0.2144
 6553SOL    HW131121   4.095   2.605   9.212 -1.8104 -0.4062  0.6347
 6553SOL    HW231122   4.027   2.737   9.194  1.6269 -0.4370  1.3822
 6554SOL     OW31123   4.521   0.298  13.880 -0.6438 -0.1814  0.3898
 6554SOL    HW131124   4.498   0.298  13.973  1.4363 -1.1361  0.9174
 6554SOL    HW231125   4.610   0.261  13.885 -0.1907  0.8758  0.0735
 6555SOL     OW31126   1.617   1.902  10.435 -0.7719 -0.8037  0.7456
 6555SOL    HW131127   1.628   1.981  10.382 -1.9467 -0.5675  0.8550
 6555SOL    HW231128   1.619   1.942  10.522 -0.3033 -0.0915  0.3995
 6556SOL     OW31129   4.258   0.598   3.460 -0.0495  0.7993  0.2494
 6556SOL    HW131130   4.216   0.679   3.429 -3.1675 -0.3891  1.4096
 6556SOL    HW231131   4.314   0.580   3.385 -1.7241 -2.6943 -0.1710
 6557SOL     OW31132   4.434   2.675  12.408 -0.0468  0.4486 -0.2293
 6557SOL    HW131133   4.403   2.690  12.497  2.0006  3.0866  0.0387
 6557SOL    HW231134   4.426   2.756  12.358  3.0956 -0.3055 -1.9427
 6558SOL     OW31135   0.926   3.148   1.611  0.1842  0.2709  0.3715
 6558SOL    HW131136   0.855   3.087   1.590  2.1181 -1.7947 -0.1560
 6558SOL    HW231137   0.880   3.223   1.650  0.6913 -0.5636  2.5207
 6559SOL     OW31138   1.859   2.669   4.204 -0.5759  0.4293  0.4123
 6559SOL    HW131139   1.920   2.743   4.209  0.7528 -0.6347 -0.0952
 6559SOL    HW231140   1.838   2.659   4.297 -0.8649  2.2940  0.5566
 6560SOL     OW31141   3.642   1.377   1.584 -0.1726  0.8336  0.5720
 6560SOL    HW131142   3.684   1.463   1.590  2.0552 -0.1912 -0.7341
 6560SOL    HW231143   3.552   1.409   1.581 -0.6994 -0.7956 -1.0867
 6561SOL     OW31144   4.476   2.070   5.728  0.2115  0.0925 -0.4591
 6561SOL    HW131145   4.393   2.113   5.710  0.9656  2.2044  1.0718
 6561SOL    HW231146   4.513   2.114   5.805  1.1656  0.9630 -1.4053
 6562SOL     OW31147   1.021   3.435   6.254  0.4072 -0.2503  0.0148
 6562SOL    HW131148   1.019   3.519   6.209 -1.0716  2.3140  4.9501
 6562SOL    HW231149   1.033   3.381   6.175 -1.4266  1.9833 -1.7960
 6563SOL     OW31150   2.723   1.546   7.601 -0.1327  0.3670  0.7042
 6563SOL    HW131151   2.813   1.520   7.618  1.0063  3.5030 -0.6534
 6563SOL    HW231152   2.686   1.575   7.684 -2.3152 -1.1804  0.2883
 6564SOL     OW31153   3.146   3.777   2.755  0.2521  0.1931  0.2257
 6564SOL    HW131154   3.080   3.826   2.706  0.3410  2.0307  1.9831
 6564SOL    HW231155   3.146   3.829   2.835 -2.1401 -1.1817  1.1239
 6565SOL     OW31156   2.005   4.230   3.017 -0.4705  0.3267  0.1360
 6565SOL    HW131157   1.913   4.256   3.025 -0.6419 -0.6502  1.2389
 6565SOL    HW231158   2.028   4.174   3.090 -0.2096 -0.4077 -0.5085
 6566SOL     OW31159   4.079   1.019   0.118  0.4264 -0.6419 -0.4214
 6566SOL    HW131160   3.990   1.043   0.146  2.1876  4.2850  0.9537
 6566SOL    HW231161   4.086   1.078   0.043  1.1490  0.1534  0.2865
 6567SOL     OW31162   1.103   0.858   7.315  0.6187 -0.4808 -0.1184
 6567SOL    HW131163   1.170   0.841   7.382  0.1825 -1.5992  0.0454
 6567SOL    HW231164   1.113   0.777   7.264  0.3847 -1.1338  0.8623
 6568SOL     OW31165   1.850   0.123   7.610  0.6802 -0.6059  0.0296
 6568SOL    HW131166   1.886   0.149   7.695  2.8513 -1.0893 -0.7371
 6568SOL    HW231167   1.906   0.173   7.551 -0.3739  0.9806  0.3421
 6569SOL     OW31168   3.730   3.771   1.407  0.1118  0.1627 -0.4897
 6569SOL    HW131169   3.744   3.795   1.499 -1.5550  1.8720 -0.6880
 6569SOL    HW231170   3.823   3.767   1.382  0.6247  0.6686  1.3215
 6570SOL     OW31171   4.238   2.574   2.173  0.8374  0.1354 -0.0284
 6570SOL    HW131172   4.225   2.661   2.136  1.1363  0.6193  1.0008
 6570SOL    HW231173   4.155   2.530   2.156  0.4733  0.4665  0.8638
 6571SOL     OW31174   1.155   1.614  17.016 -0.2499  0.1205 -0.3626
 6571SOL    HW131175   1.090   1.676  17.048 -1.1604 -0.4841 -1.0636
 6571SOL    HW231176   1.120   1.528  17.037  2.9666 -1.4145 -1.2366
 6572SOL     OW31177   1.595   0.363   3.786 -0.0026  0.3142  0.5486
 6572SOL    HW131178   1.580   0.454   3.811  1.7357  0.1935  2.0006
 6572SOL    HW231179   1.641   0.330   3.863 -0.8884  0.3123  1.0769
 6573SOL     OW31180   3.698   2.053  11.498 -0.5137  0.2938 -0.1483
 6573SOL    HW131181   3.707   2.108  11.576  0.3068 -0.2661  0.1569
 6573SOL    HW231182   3.783   2.076  11.460 -1.5049  0.3631 -2.2670
 6574SOL     OW31183   3.187   1.907   8.491  0.9591  0.0861  0.0892
 6574SOL    HW131184   3.131   1.921   8.416  0.3799 -2.2688  0.0912
 6574SOL    HW231185   3.129   1.878   8.561 -1.5132  1.1860 -1.5267
 6575SOL     OW31186   2.524   0.947   5.531 -0.5965  0.2405  0.6450
 6575SOL    HW131187   2.577   0.957   5.452  2.2337 -1.3434  2.3691
 6575SOL    HW231188   2.456   1.012   5.509 -0.8114 -0.3768 -0.5212
 6576SOL     OW31189   1.485   3.242   6.710  0.3149 -0.5651 -0.0859
 6576SOL    HW131190   1.578   3.218   6.716  0.2078 -0.9655 -0.0457
 6576SOL    HW231191   1.481   3.328   6.753  1.5749 -1.8522  2.6634
 6577SOL     OW31192   1.554   2.552  13.324 -0.0202 -0.1520 -0.3106
 6577SOL    HW131193   1.493   2.513  13.386 -2.3303  1.0009 -1.8433
 6577SOL    HW231194   1.509   2.521  13.246 -1.1727  0.0493  0.2783
 6578SOL     OW31195   2.127   4.477   3.028 -0.0805  0.1646  0.0058
 6578SOL    HW131196   2.086   4.391   3.026 -3.8802  1.9820  1.3543
 6578SOL    HW231197   2.113   4.510   3.117 -1.0633 -2.1064  0.6809
 6579SOL     OW31198   1.434   3.071  10.451  0.6498 -0.4516  0.2808
 6579SOL    HW131199   1.378   3.074  10.374 -1.6048 -2.2349  1.8383
 6579SOL    HW231200   1.509   3.117  10.413  0.8238  0.2664  1.4934
 6580SOL     OW31201   3.878   0.180   2.206  0.4098  0.3954 -0.0277
 6580SOL    HW131202   3.859   0.092   2.174 -0.0848  0.9781 -1.3734
 6580SOL    HW231203   3.848   0.236   2.133 -2.1069  0.5607  1.1135
 6581SOL     OW31204   4.423   1.907   8.944  0.4929 -0.0596  0.4355
 6581SOL    HW131205   4.411   1.926   8.851 -0.2886  0.1734  0.5793
 6581SOL    HW231206   4.513   1.876   8.943  0.2159 -0.8724  0.9681
 6582SOL     OW31207   1.643   4.390   2.753  0.4266  0.2743  0.4564
 6582SOL    HW131208   1.675   4.324   2.692  0.0481  1.0492 -0.5732
 6582SOL    HW231209   1.687   4.469   2.721 -1.5492  1.3569  0.4367
 6583SOL     OW31210   3.369   0.268   3.858 -0.0432  0.1351  0.1525
 6583SOL    HW131211   3.397   0.208   3.927  4.2131  3.4764  1.3612
 6583SOL    HW231212   3.438   0.263   3.792  1.0921  3.2833  1.0926
 6584SOL     OW31213   3.647   0.832   3.092  0.2542  0.0199  0.6022
 6584SOL    HW131214   3.739   0.819   3.114  0.2420 -1.7432 -0.3767
 6584SOL    HW231215   3.613   0.744   3.073 -0.3252  0.3339  0.1532
 6585SOL     OW31216   0.606   2.063   7.076  0.1703  0.1159  0.5162
 6585SOL    HW131217   0.603   2.008   7.154  0.0392 -0.3464  0.1815
 6585SOL    HW231218   0.579   1.988   7.023  2.7208 -0.7581  0.4689
 6586SOL     OW31219   0.829   2.705   4.701 -0.3145 -0.7226 -0.1753
 6586SOL    HW131220   0.825   2.792   4.662 -1.2677 -0.4568  0.5253
 6586SOL    HW231221   0.918   2.707   4.738 -1.5193 -1.0177  2.6979
 6587SOL     OW31222   1.451   0.821   2.429 -0.5433  0.3720  0.0912
 6587SOL    HW131223   1.446   0.732   2.464  0.0729 -0.1751 -1.1893
 6587SOL    HW231224   1.365   0.858   2.445 -0.8558  0.8280 -2.4989
 6588SOL     OW31225   1.339   1.387   5.411 -0.0913 -0.1988 -0.2255
 6588SOL    HW131226   1.258   1.364   5.364  0.1780 -0.4727 -0.5540
 6588SOL    HW231227   1.402   1.328   5.369  0.6196  0.2340  0.2425
 6589SOL     OW31228   0.269   3.891   5.518  0.1170  0.1997 -0.6767
 6589SOL    HW131229   0.239   3.980   5.540  0.8376 -0.0005  1.1230
 6589SOL    HW231230   0.204   3.832   5.557  0.9785 -1.0590 -1.1825
 6590SOL     OW31231   4.014   4.280   7.574 -0.5353  0.2835  0.1808
 6590SOL    HW131232   3.998   4.374   7.582  2.0582  0.6955  0.5853
 6590SOL    HW231233   4.006   4.264   7.480 -0.6791  0.5274  0.1522
 6591SOL     OW31234   0.639   1.592   3.546  0.6644 -0.3392  1.1363
 6591SOL    HW131235   0.713   1.592   3.608  1.0689 -2.8985  0.6721
 6591SOL    HW231236   0.669   1.535   3.475 -1.0564  1.0962 -0.7417
 6592SOL     OW31237   1.638   3.451   8.194  0.1224 -0.4528 -0.0646
 6592SOL    HW131238   1.678   3.396   8.261  2.5520  3.0873  1.3697
 6592SOL    HW231239   1.602   3.521   8.248  0.9826 -0.3580  0.3867
 6593SOL     OW31240   1.331   0.286   3.530 -0.1503 -0.2247  0.2746
 6593SOL    HW131241   1.241   0.258   3.517 -0.1982 -1.0076  2.2320
 6593SOL    HW231242   1.338   0.298   3.625  0.6102 -0.0854  0.2024
 6594SOL     OW31243   4.590   2.755   1.307  0.4286  0.0177  0.2068
 6594SOL    HW131244   4.528   2.684   1.291  1.5720 -0.9096 -0.1078
 6594SOL    HW231245   4.579   2.789   1.396  0.4219 -0.0670  0.2386
 6595SOL     OW31246   2.125   1.110   7.824  0.1834  0.0624 -0.3217
 6595SOL    HW131247   2.215   1.079   7.823  0.9982  2.4073 -0.2054
 6595SOL    HW231248   2.119   1.157   7.907  0.2004  1.0079 -0.8483
 6596SOL     OW31249   2.595   2.813   6.615 -0.0555  0.0192 -0.2646
 6596SOL    HW131250   2.607   2.736   6.559 -1.4425  1.0176 -1.9413
 6596SOL    HW231251   2.689   2.824   6.627 -0.3603  0.2864  1.7739
 6597SOL     OW31252   1.622   2.298   4.839  0.4152 -0.0331  0.0134
 6597SOL    HW131253   1.673   2.271   4.915  1.0362  2.5160  0.5064
 6597SOL    HW231254   1.683   2.352   4.789  0.6296  1.9676  2.4628
 6598SOL     OW31255   1.597   0.805   2.200  0.0016 -0.0090  0.4341
 6598SOL    HW131256   1.678   0.826   2.245  0.1217 -0.5010  0.4487
 6598SOL    HW231257   1.541   0.798   2.278 -1.0201 -1.3801 -0.4118
 6599SOL     OW31258   0.879   0.170  11.555 -0.0694 -0.1258 -0.7454
 6599SOL    HW131259   0.796   0.202  11.521  1.8364  1.4501 -3.9769
 6599SOL    HW231260   0.928   0.176  11.473 -0.3793  0.5864 -0.8814
 6600SOL     OW31261   1.453   4.171   5.694 -0.7298 -0.2613 -0.4149
 6600SOL    HW131262   1.547   4.155   5.685 -0.1748  2.1596  1.1222
 6600SOL    HW231263   1.439   4.129   5.780  0.6884  0.1333  0.0204
 6601SOL     OW31264   1.857   2.363   4.224  0.3594  0.3607 -0.4573
 6601SOL    HW131265   1.885   2.452   4.242  0.3630  0.1439  0.6005
 6601SOL    HW231266   1.840   2.371   4.130 -1.2542 -0.1425 -0.2142
 6602SOL     OW31267   4.135   2.039  12.177 -0.1615 -0.0266  0.1296
 6602SOL    HW131268   4.204   2.076  12.232  0.2294 -2.0072  0.9904
 6602SOL    HW231269   4.054   2.055  12.225 -0.1951 -0.2246  0.1392
 6603SOL     OW31270   0.121   3.001   3.101  0.6084 -0.1196 -0.4455
 6603SOL    HW131271   0.100   3.039   3.186 -0.0781 -1.1273 -0.1649
 6603SOL    HW231272   0.192   3.061   3.075 -0.5060  1.8741  1.0988
 6604SOL     OW31273   3.550   1.086  16.546  0.2308  0.1755 -0.2800
 6604SOL    HW131274   3.604   1.006  16.545  1.1333  0.7514  1.6324
 6604SOL    HW231275   3.617   1.149  16.572  0.0936  0.3974 -0.4649
 6605SOL     OW31276   0.856   4.618   9.025  0.2754 -0.0127  0.6046
 6605SOL    HW131277   0.803   4.538   9.020 -0.7180  0.7936 -1.7852
 6605SOL    HW231278   0.941   4.586   8.994  0.4349 -0.0925  1.1356
 6606SOL     OW31279   2.909   0.278   1.759 -0.0962 -0.0830  0.1144
 6606SOL    HW131280   2.850   0.283   1.834  1.5625  1.3701  1.3085
 6606SOL    HW231281   2.984   0.327   1.791  0.4240 -1.2000  0.6142
 6607SOL     OW31282   2.530   3.861   7.897  0.4951 -0.0969 -0.5723
 6607SOL    HW131283   2.515   3.814   7.815  0.0851  0.1665 -0.6438
 6607SOL    HW231284   2.518   3.789   7.960  0.0292 -1.1697 -1.8942
 6608SOL     OW31285   3.766   1.416  12.824  0.0965  0.7148  0.7704
 6608SOL    HW131286   3.772   1.500  12.870  1.2416  0.4381  1.1335
 6608SOL    HW231287   3.837   1.371  12.870  2.0265  0.7622 -2.1625
 6609SOL     OW31288   3.072   2.134   0.819 -0.0394  0.8218  0.1637
 6609SOL    HW131289   3.027   2.056   0.787  1.7882  0.5295 -1.7119
 6609SOL    HW231290   3.032   2.213   0.783  0.4127  0.8519 -0.2759
 6610SOL     OW31291   0.828   3.586   6.582  0.2630 -0.2348  0.5677
 6610SOL    HW131292   0.867   3.518   6.637 -0.2522 -0.1823  1.0027
 6610SOL    HW231293   0.905   3.632   6.549 -0.2752 -0.5348 -1.0767
 6611SOL     OW31294   1.930   4.390  15.931 -0.1498 -0.2235  0.0407
 6611SOL    HW131295   1.954   4.474  15.893  3.2380 -2.3740 -2.5649
 6611SOL    HW231296   1.963   4.401  16.021  1.9641  0.8212 -0.8479
 6612SOL     OW31297   1.203   2.984   3.478 -0.6947 -0.0679  0.3769
 6612SOL    HW131298   1.284   2.933   3.484 -1.8772 -2.0447 -0.4277
 6612SOL    HW231299   1.143   2.909   3.479 -0.3517 -0.3397  1.0853
 6613SOL     OW31300   0.641   1.026  12.321 -0.5070  0.2059  0.0585
 6613SOL    HW131301   0.732   0.997  12.332 -0.2499  1.5953  1.5181
 6613SOL    HW231302   0.657   1.116  12.348 -1.9955  0.5362 -0.1783
 6614SOL     OW31303   0.341   1.555   1.409  0.8819 -0.5535 -0.5126
 6614SOL    HW131304   0.317   1.509   1.329 -1.5821  0.8223 -0.5641
 6614SOL    HW231305   0.407   1.615   1.373  0.5393 -0.1129 -0.4102
 6615SOL     OW31306   2.689   4.529   2.377  0.0514  0.3761 -0.2011
 6615SOL    HW131307   2.689   4.464   2.448 -0.4242  1.5406  0.8670
 6615SOL    HW231308   2.661   4.604   2.430 -0.3142  1.3319 -1.7326
 6616SOL     OW31309   0.376   4.518   6.250  0.4525 -0.1297  0.0480
 6616SOL    HW131310   0.301   4.468   6.217  0.1672  1.5548 -1.8816
 6616SOL    HW231311   0.385   4.564   6.166  0.8781 -0.0628  0.1311
 6617SOL     OW31312   0.497   2.422   4.241  0.0343 -0.1593 -0.5181
 6617SOL    HW131313   0.584   2.392   4.219  0.0982 -0.7984  0.6320
 6617SOL    HW231314   0.497   2.514   4.212  0.5114  0.8079  2.4989
 6618SOL     OW31315   4.269   4.346   4.170  0.0666  0.1293 -0.4506
 6618SOL    HW131316   4.313   4.284   4.228  1.4001  1.0022 -0.5264
 6618SOL    HW231317   4.326   4.337   4.093  1.3871  0.5115  0.4879
 6619SOL     OW31318   1.723   3.866   7.957 -0.1534  0.9291  0.2422
 6619SOL    HW131319   1.743   3.774   7.972 -0.0162  0.8307 -0.5463
 6619SOL    HW231320   1.800   3.884   7.903 -0.8416  0.8552 -0.7435
 6620SOL     OW31321   0.628   0.978  10.125  0.2845 -0.2467 -0.4621
 6620SOL    HW131322   0.712   1.016  10.101 -0.6413  2.4327  0.4497
 6620SOL    HW231323   0.654   0.888  10.143  0.1187 -0.4158 -1.0925
 6621SOL     OW31324   2.954   2.831  14.278 -0.3959  0.3280  0.1808
 6621SOL    HW131325   3.044   2.801  14.267 -0.2731  1.6648 -2.5351
 6621SOL    HW231326   2.955   2.904  14.215 -1.8459  1.3545  1.3662
 6622SOL     OW31327   2.435   2.668  12.756  0.0829  0.4473 -0.4341
 6622SOL    HW131328   2.453   2.758  12.730 -0.9560  0.6000 -0.6034
 6622SOL    HW231329   2.459   2.675  12.848  1.4852 -2.0695 -0.6021
 6623SOL     OW31330   3.723   1.834   9.122 -0.2154 -0.0378 -0.3655
 6623SOL    HW131331   3.747   1.904   9.061  0.5097 -0.8374 -1.0000
 6623SOL    HW231332   3.694   1.883   9.199 -2.1655  3.0593 -3.0407
 6624SOL     OW31333   3.146   2.102  12.576 -0.6609 -0.5621 -0.1706
 6624SOL    HW131334   3.147   2.152  12.658 -0.1161 -0.1727 -0.4067
 6624SOL    HW231335   3.055   2.074  12.571 -1.3736  1.4553  1.5268
 6625SOL     OW31336   3.497   1.751   3.465 -0.5106 -0.1896 -0.2670
 6625SOL    HW131337   3.432   1.770   3.533 -0.9295  0.7486 -0.9376
 6625SOL    HW231338   3.468   1.667   3.429 -2.3068 -0.4716  1.8554
 6626SOL     OW31339   4.158   1.608  10.167  0.1540 -0.1698  0.3718
 6626SOL    HW131340   4.098   1.614  10.092  1.8029 -0.6847 -0.9695
 6626SOL    HW231341   4.097   1.637  10.235 -1.1630 -0.7914 -0.5297
 6627SOL     OW31342   2.250   0.998   6.882 -0.8406  0.4082  0.1989
 6627SOL    HW131343   2.265   1.072   6.941  2.2362  0.0184 -0.0973
 6627SOL    HW231344   2.215   0.937   6.946  1.7936 -0.5543  0.7171
 6628SOL     OW31345   1.412   2.298   6.182  0.2979 -0.1331  0.2377
 6628SOL    HW131346   1.395   2.332   6.270  1.4703 -0.7915  0.7143
 6628SOL    HW231347   1.481   2.360   6.160 -0.5042  0.7107  0.0929
 6629SOL     OW31348   3.649   0.324   6.375  0.5569  0.0429 -0.2034
 6629SOL    HW131349   3.567   0.295   6.414  0.9527 -1.2816 -0.3398
 6629SOL    HW231350   3.633   0.415   6.352  0.7765  0.0656 -0.2740
 6630SOL     OW31351   3.825   1.067   4.484  0.4038 -0.1339 -0.5486
 6630SOL    HW131352   3.913   1.106   4.485  0.0603  0.5715  1.4745
 6630SOL    HW231353   3.765   1.138   4.464  1.0208  0.1926 -1.2473
 6631SOL     OW31354   2.885   1.093   8.115  0.2278  0.4844  0.3111
 6631SOL    HW131355   2.839   1.063   8.037  0.0876 -1.4696  1.1260
 6631SOL    HW231356   2.886   1.021   8.179 -2.7336  0.2582  0.1040
 6632SOL     OW31357   2.233   1.883   3.818 -0.0958 -0.7653  0.5432
 6632SOL    HW131358   2.207   1.796   3.789 -4.1463  0.0014  1.7728
 6632SOL    HW231359   2.148   1.908   3.855 -0.9809 -1.3110 -1.0931
 6633SOL     OW31360   4.410   3.042   6.117 -0.6200  0.2327 -0.0453
 6633SOL    HW131361   4.368   2.997   6.044  2.0739 -0.3464 -1.2408
 6633SOL    HW231362   4.345   3.030   6.187  0.1489 -0.5749  0.5319
 6634SOL     OW31363   4.394   0.694   3.854  0.1247  0.4427 -0.3169
 6634SOL    HW131364   4.403   0.770   3.796  1.2611 -0.0379 -0.7667
 6634SOL    HW231365   4.320   0.641   3.823 -0.1309 -0.5112  1.9450
 6635SOL     OW31366   1.063   2.532   8.718  0.5396 -0.1344 -0.5499
 6635SOL    HW131367   1.048   2.526   8.813  0.5296  0.9609 -0.4853
 6635SOL    HW231368   1.127   2.603   8.714  0.0685  0.3333  0.2707
 6636SOL     OW31369   3.702   0.940   1.820 -1.0529 -0.1030  0.0960
 6636SOL    HW131370   3.714   0.996   1.744 -0.8210 -1.5026 -0.9131
 6636SOL    HW231371   3.647   0.996   1.873  1.3520  2.2589  0.0740
 6637SOL     OW31372   4.301   0.981   0.833 -0.2934 -0.4769  0.0277
 6637SOL    HW131373   4.279   0.901   0.881  0.0068 -0.3317  0.4054
 6637SOL    HW231374   4.265   1.044   0.895 -0.2886 -3.2185  2.8331
 6638SOL     OW31375   2.052   2.585   7.360  0.1786 -0.4154 -0.3090
 6638SOL    HW131376   2.047   2.620   7.449 -0.8272 -2.8054  0.5717
 6638SOL    HW231377   2.034   2.669   7.319  0.2982 -1.0032 -1.5663
 6639SOL     OW31378   0.067   3.777   5.263 -0.4295 -0.1709  0.2377
 6639SOL    HW131379   0.091   3.869   5.256  0.9522 -0.6379 -1.0247
 6639SOL    HW231380   0.153   3.737   5.256  0.4141  1.8708 -0.8358
 6640SOL     OW31381   4.548   3.331  12.986 -0.2646  0.0294 -0.0029
 6640SOL    HW131382   4.616   3.334  13.054  1.2719  0.0380 -1.5449
 6640SOL    HW231383   4.521   3.240  12.991  0.1334 -0.0369  0.8149
 6641SOL     OW31384   0.033   1.925   6.013  0.2900 -0.0136  0.2008
 6641SOL    HW131385   0.111   1.903   5.963  0.4591 -0.9884  0.8946
 6641SOL    HW231386   0.014   2.016   5.989  1.3989  0.2795  0.4422
 6642SOL     OW31387   1.537   1.650   2.811 -0.0461 -0.7509  0.3356
 6642SOL    HW131388   1.527   1.730   2.759 -0.2499 -0.4800  0.7920
 6642SOL    HW231389   1.602   1.600   2.761  1.3537  1.0832  0.2848
 6643SOL     OW31390   4.415   2.563   7.813  0.3135  0.0153  0.2110
 6643SOL    HW131391   4.382   2.591   7.898  1.5069  1.7493  0.1190
 6643SOL    HW231392   4.491   2.510   7.837  0.3548  0.6228  1.4121
 6644SOL     OW31393   0.517   4.344  15.501  0.3518 -0.2606 -0.1471
 6644SOL    HW131394   0.488   4.341  15.410 -0.2139  1.5204 -0.0330
 6644SOL    HW231395   0.438   4.386  15.535  0.2567 -0.2209 -0.4182
 6645SOL     OW31396   1.290   0.782   3.410 -0.3367 -0.2810  0.1724
 6645SOL    HW131397   1.273   0.777   3.504 -0.5891  1.3123  0.2011
 6645SOL    HW231398   1.260   0.692   3.393  0.1334 -0.3785 -0.1329
 6646SOL     OW31399   1.353   4.572   2.199  0.2433  0.5129  0.2204
 6646SOL    HW131400   1.299   4.496   2.218  0.6657  0.6035  1.7767
 6646SOL    HW231401   1.307   4.617   2.128 -0.8777 -1.4341 -0.2835
 6647SOL     OW31402   2.097   3.184  12.416 -0.4750 -0.2210 -0.4685
 6647SOL    HW131403   2.102   3.107  12.473  0.0748 -0.4113 -0.7766
 6647SOL    HW231404   2.056   3.135  12.344 -0.6647 -1.1111  0.2526
 6648SOL     OW31405   2.051   4.245   6.965 -0.2553 -0.3529  0.3102
 6648SOL    HW131406   2.142   4.273   6.980 -0.5302  0.3250  0.6923
 6648SOL    HW231407   2.060   4.166   6.911 -0.2505  0.4429 -0.8712
 6649SOL     OW31408   1.650   0.286   6.970  0.6047 -0.1775  0.0698
 6649SOL    HW131409   1.644   0.191   6.973  0.3788 -0.1958 -0.9381
 6649SOL    HW231410   1.733   0.302   7.014  2.5898 -0.1769 -3.6714
 6650SOL     OW31411   1.348   2.750   5.043 -0.1615  0.8701 -0.3223
 6650SOL    HW131412   1.255   2.775   5.043 -0.5223 -0.5140  0.5360
 6650SOL    HW231413   1.370   2.777   5.132 -2.4922  2.1460 -0.1153
 6651SOL     OW31414   1.777   1.478   4.217 -0.0731 -0.1004  0.3306
 6651SOL    HW131415   1.802   1.404   4.162 -0.2546  0.6324 -0.7465
 6651SOL    HW231416   1.846   1.540   4.192 -0.0365  0.0836  0.8968
 6652SOL     OW31417   2.596   2.000   4.205  0.2529 -0.4905  0.3523
 6652SOL    HW131418   2.555   1.989   4.119 -0.3262  0.0392  0.5691
 6652SOL    HW231419   2.687   1.971   4.193  0.7440  0.7972  1.0296
 6653SOL     OW31420   3.333   3.336  11.523 -0.2858  0.2097 -0.2828
 6653SOL    HW131421   3.400   3.342  11.592 -2.5680  0.8923  1.8658
 6653SOL    HW231422   3.255   3.323  11.576  0.7973 -0.1261  1.2554
 6654SOL     OW31423   0.663   3.121   2.801 -0.2804  0.3166 -0.0379
 6654SOL    HW131424   0.705   3.035   2.808  0.6042  0.5863 -2.1291
 6654SOL    HW231425   0.658   3.150   2.892  1.7820  0.3467  0.0580
 6655SOL     OW31426   2.739   3.305  16.242 -0.0181  0.5743  0.3170
 6655SOL    HW131427   2.820   3.255  16.231 -0.3615  0.1172 -0.1098
 6655SOL    HW231428   2.695   3.305  16.156 -0.2408 -2.7248  0.4353
 6656SOL     OW31429   4.015   3.562   5.920  0.7540 -0.0904 -0.1283
 6656SOL    HW131430   4.013   3.621   5.995  1.0566 -1.6277  1.0816
 6656SOL    HW231431   3.949   3.598   5.860  0.6456  0.5736  0.3853
 6657SOL     OW31432   0.758   2.104   5.471  0.0837  0.3887 -0.0318
 6657SOL    HW131433   0.727   2.157   5.397 -1.0217  0.9072  0.8187
 6657SOL    HW231434   0.682   2.127   5.524  0.2066 -2.1633  1.2512
 6658SOL     OW31435   3.167   1.606   5.984 -0.3211  0.0981  0.6500
 6658SOL    HW131436   3.222   1.571   5.915 -0.5534  2.0837 -0.5296
 6658SOL    HW231437   3.190   1.545   6.055 -0.0511  0.6981  1.0845
 6659SOL     OW31438   2.718   0.824  10.575  0.1140  0.1965  0.0594
 6659SOL    HW131439   2.698   0.905  10.622 -3.0846 -2.2213  2.9200
 6659SOL    HW231440   2.811   0.813  10.595 -0.4987 -1.3889  2.0859
 6660SOL     OW31441   4.281   0.031   0.787  0.6218 -0.3449  0.7529
 6660SOL    HW131442   4.296   4.720   0.876  0.5876  1.2667  1.3209
 6660SOL    HW231443   4.245   4.671   0.749 -1.9345 -0.5787  3.6261
 6661SOL     OW31444   0.144   0.472   6.133 -0.4656 -0.0421 -0.0633
 6661SOL    HW131445   0.120   0.525   6.208 -2.5421  1.1585 -1.5642
 6661SOL    HW231446   0.103   0.387   6.146  2.0248 -1.3316 -0.4926
 6662SOL     OW31447   0.869   1.233   3.525 -1.1005 -0.0095  0.0820
 6662SOL    HW131448   0.836   1.254   3.437 -1.1342  0.9028  0.3178
 6662SOL    HW231449   0.924   1.156   3.511 -1.0444  0.0485 -0.0190
 6663SOL     OW31450   3.991   1.069  11.297 -0.0226  0.7794 -0.2896
 6663SOL    HW131451   3.905   1.060  11.256 -0.4476 -1.5564  1.1376
 6663SOL    HW231452   4.055   1.070  11.226  0.8874 -0.4334  0.5122
 6664SOL     OW31453   4.237   1.174  14.563 -0.5361  0.0635  0.4603
 6664SOL    HW131454   4.218   1.266  14.548 -0.2306  0.1932  0.8733
 6664SOL    HW231455   4.332   1.175  14.550 -0.6071 -0.5107 -0.1446
 6665SOL     OW31456   4.037   0.490   5.019  0.7186  0.3559  0.3209
 6665SOL    HW131457   4.132   0.485   5.030  0.6491  1.7442  1.5206
 6665SOL    HW231458   4.031   0.465   4.927  0.4465 -0.0873  0.4599
 6666SOL     OW31459   3.871   4.570  14.514  0.1296  0.1246 -0.2175
 6666SOL    HW131460   3.858   4.484  14.475 -2.7613  0.0944  0.8286
 6666SOL    HW231461   3.793   4.613  14.478 -0.5084 -0.5090  0.4101
 6667SOL     OW31462   0.316   0.721   6.939  0.0988 -0.1151 -0.3944
 6667SOL    HW131463   0.308   0.670   6.859 -1.4888 -2.1787  1.0625
 6667SOL    HW231464   0.320   0.658   7.010 -1.9935 -0.6043 -0.7160
 6668SOL     OW31465   3.495   0.366   4.341  0.1301  0.1836  0.0251
 6668SOL    HW131466   3.487   0.460   4.321  1.4192  0.5996  1.4879
 6668SOL    HW231467   3.423   0.338   4.285  1.8490 -1.3346 -1.4074
 6669SOL     OW31468   2.235   4.370   2.749 -0.0073  0.4395  0.0565
 6669SOL    HW131469   2.195   4.455   2.768 -0.5778 -0.5721  3.3366
 6669SOL    HW231470   2.321   4.403   2.724 -0.2858 -1.7971 -3.8564
 6670SOL     OW31471   2.950   1.282   3.684  0.5836  0.4439 -0.2652
 6670SOL    HW131472   2.916   1.248   3.601  3.4397  0.2048 -1.3414
 6670SOL    HW231473   2.868   1.290   3.732  0.1451  0.9523 -1.1022
 6671SOL     OW31474   0.560   0.913   8.906  0.0236 -0.5060  0.7996
 6671SOL    HW131475   0.589   0.878   8.990  2.7818 -0.2225 -0.0425
 6671SOL    HW231476   0.465   0.915   8.919  0.3540 -0.0733  3.0876
 6672SOL     OW31477   4.669   3.050  16.795  0.1389 -0.3873  0.3342
 6672SOL    HW131478   4.719   3.013  16.868  0.1921  1.4630  1.2525
 6672SOL    HW231479   0.020   3.055  16.732 -0.1066 -1.4178 -0.0154
 6673SOL     OW31480   1.315   4.337  12.925 -0.0108  0.2139 -0.1798
 6673SOL    HW131481   1.380   4.344  12.995 -0.3460 -2.7671  0.4431
 6673SOL    HW231482   1.317   4.426  12.890 -1.9934  0.0771 -0.6682
 6674SOL     OW31483   0.387   2.099  13.176  0.4228  0.2423  0.4126
 6674SOL    HW131484   0.463   2.045  13.199 -0.0973 -0.0726  1.4021
 6674SOL    HW231485   0.404   2.103  13.082 -1.5880  0.7193  0.0891
 6675SOL     OW31486   3.237   1.440   5.135  0.2387  0.4943  0.4289
 6675SOL    HW131487   3.261   1.351   5.161  1.6812 -0.1780 -3.2424
 6675SOL    HW231488   3.241   1.484   5.220 -2.4564 -0.9541  1.3267
 6676SOL     OW31489   1.274   2.453   9.034 -0.3020 -1.0145  0.1075
 6676SOL    HW131490   1.196   2.496   8.997 -0.9970 -1.7024  0.7693
 6676SOL    HW231491   1.247   2.372   9.076 -1.2599 -0.8347 -0.1468
 6677SOL     OW31492   0.375   4.113   3.959 -0.2991 -0.6176  0.4528
 6677SOL    HW131493   0.312   4.161   3.905  0.8717  2.0058  1.3905
 6677SOL    HW231494   0.318   4.044   3.993  0.3902 -1.5339 -0.2559
 6678SOL     OW31495   2.014   0.183  16.283 -0.2196 -0.1393  0.2147
 6678SOL    HW131496   2.064   0.122  16.229  0.5754  0.6176  0.0899
 6678SOL    HW231497   1.926   0.185  16.246 -0.7875 -3.4623  1.3420
 6679SOL     OW31498   3.699   3.696   5.214  0.3698  0.1965  0.2770
 6679SOL    HW131499   3.666   3.626   5.270  0.4703 -1.7333 -2.0704
 6679SOL    HW231500   3.657   3.777   5.244  1.0164  0.7646 -0.3411
 6680SOL     OW31501   1.738   4.483   6.160 -0.4080  0.1484  0.1726
 6680SOL    HW131502   1.818   4.534   6.145 -1.5484  2.1374  0.9061
 6680SOL    HW231503   1.681   4.518   6.092  0.8279 -0.2971 -1.1183
 6681SOL     OW31504   4.115   4.698   3.358 -0.3342 -0.5472  0.5515
 6681SOL    HW131505   4.049   4.629   3.344 -0.1134 -0.2788 -1.7049
 6681SOL    HW231506   4.116   0.028   3.277 -1.8178 -0.9275  0.2897
 6682SOL     OW31507   2.814   3.063   6.592 -0.1197  1.0636  0.4937
 6682SOL    HW131508   2.820   3.071   6.496  2.4230  0.8853  0.6372
 6682SOL    HW231509   2.858   2.978   6.602 -1.5777  0.4333  1.4023
 6683SOL     OW31510   4.216   4.438   0.790 -0.4628 -0.8024  0.0201
 6683SOL    HW131511   4.260   4.354   0.780  0.7364 -0.2333  0.4804
 6683SOL    HW231512   4.141   4.417   0.845  0.2222  2.7596  2.3673
 6684SOL     OW31513   2.841   0.315  12.994  0.6345 -0.0005 -0.1145
 6684SOL    HW131514   2.935   0.332  12.989  1.0215 -1.2162  2.6714
 6684SOL    HW231515   2.810   0.353  12.912  0.0342  0.8980  0.5206
 6685SOL     OW31516   3.497   1.002   0.951  0.3475 -0.6076  0.5369
 6685SOL    HW131517   3.485   0.988   0.857  0.5121 -0.9251  0.5614
 6685SOL    HW231518   3.424   0.947   0.980  0.0260 -0.9903 -1.0226
 6686SOL     OW31519   3.084   4.491   3.434  0.3178  0.2657  0.2299
 6686SOL    HW131520   2.990   4.479   3.421  0.8272 -2.2592 -1.1440
 6686SOL    HW231521   3.106   4.410   3.480  0.8868 -0.0356 -0.5786
 6687SOL     OW31522   1.344   2.560   7.047 -0.1711 -0.1994  0.0860
 6687SOL    HW131523   1.273   2.616   7.080 -0.4980 -0.4845 -0.1233
 6687SOL    HW231524   1.309   2.470   7.049  0.9185 -0.6020  0.5734
 6688SOL     OW31525   1.300   4.285   2.436 -0.6548 -0.4596  0.3068
 6688SOL    HW131526   1.213   4.322   2.451  0.6288  1.0399  3.9437
 6688SOL    HW231527   1.306   4.294   2.341 -1.5087 -0.8321  0.2155
 6689SOL     OW31528   1.100   3.418   2.772  0.2358  0.3273 -0.0147
 6689SOL    HW131529   1.134   3.328   2.776 -0.9182 -0.1213 -0.1884
 6689SOL    HW231530   1.154   3.460   2.838  0.4143 -0.2133  0.1865
 6690SOL     OW31531   2.992   3.536  12.925 -0.1929  0.5449  0.5959
 6690SOL    HW131532   3.020   3.594  12.854 -2.8657 -1.6256 -2.2556
 6690SOL    HW231533   3.078   3.508  12.955 -0.6701 -1.1327  0.4094
 6691SOL     OW31534   1.668   0.717   4.260 -0.8050  0.1414  0.7869
 6691SOL    HW131535   1.597   0.777   4.238 -2.9283 -1.9667  1.9360
 6691SOL    HW231536   1.675   0.720   4.356 -1.1856  0.2314  0.8102
 6692SOL     OW31537   2.858   4.158   7.386  0.5083 -0.2678 -0.7734
 6692SOL    HW131538   2.950   4.179   7.405  0.7812 -1.8583 -0.3650
 6692SOL    HW231539   2.854   4.064   7.400 -0.6570 -0.2682 -1.1445
 6693SOL     OW31540   3.137   0.881   6.242  0.2081 -0.6142  0.1534
 6693SOL    HW131541   3.089   0.949   6.195  0.7860 -0.2680  0.0636
 6693SOL    HW231542   3.227   0.899   6.216 -0.0411  1.4187  0.7294
 6694SOL     OW31543   0.138   1.653   6.448  0.4939 -0.1293  0.5218
 6694SOL    HW131544   0.091   1.625   6.369  0.5368 -0.4026  0.5936
 6694SOL    HW231545   0.139   1.747   6.427 -1.2186 -0.4690 -1.0518
 6695SOL     OW31546   2.818   1.566  16.848 -0.3557 -0.2638 -0.7709
 6695SOL    HW131547   2.898   1.524  16.815 -0.5025 -0.6548 -0.6289
 6695SOL    HW231548   2.849   1.581  16.937  0.7622  2.4970 -1.6015
 6696SOL     OW31549   3.523   0.044   1.918  0.8732  0.1105  0.2258
 6696SOL    HW131550   3.536   4.693   1.856  0.2705  0.8708 -0.7769
 6696SOL    HW231551   3.532   0.118   1.859  0.5258 -1.4040 -1.7148
 6697SOL     OW31552   1.367   0.448   4.705 -0.5965  0.3720  0.4456
 6697SOL    HW131553   1.340   0.500   4.630  0.0655 -0.6829 -0.5268
 6697SOL    HW231554   1.277   0.434   4.734 -0.4034  1.2025  1.4408
 6698SOL     OW31555   0.112   2.207   9.439  0.3779  0.0099 -0.2862
 6698SOL    HW131556   0.191   2.242   9.481  0.1499 -0.9600  0.9333
 6698SOL    HW231557   0.050   2.226   9.510 -2.9151 -0.2162 -3.1105
 6699SOL     OW31558   3.828   0.719   9.041 -0.7864 -0.2105 -0.4890
 6699SOL    HW131559   3.895   0.773   8.999  1.0407 -1.3246  1.0123
 6699SOL    HW231560   3.855   0.718   9.133 -0.5133  2.0258 -0.5414
 6700SOL     OW31561   2.023   3.090  12.044 -0.3635  0.2815  0.5275
 6700SOL    HW131562   1.976   3.054  12.120  0.3150 -1.2135  0.2414
 6700SOL    HW231563   1.950   3.131  11.998 -0.7023 -1.1834 -0.2324
 6701SOL     OW31564   3.553   2.758   7.013 -0.3998  0.0289  0.2921
 6701SOL    HW131565   3.606   2.700   7.066  1.8985  1.5276 -0.3776
 6701SOL    HW231566   3.499   2.789   7.086 -0.5705 -1.0132  0.6072
 6702SOL     OW31567   2.744   2.424   2.973 -0.2111 -0.5867 -0.1979
 6702SOL    HW131568   2.773   2.376   2.895  0.0310  0.9854 -1.0724
 6702SOL    HW231569   2.651   2.416   2.952 -0.4338 -2.0377  1.3876
 6703SOL     OW31570   0.825   3.704  10.309  0.1758 -0.1377 -0.4573
 6703SOL    HW131571   0.734   3.676  10.297  0.4225 -1.3104  0.3259
 6703SOL    HW231572   0.865   3.668  10.229  1.0793 -0.3125  0.0781
 6704SOL     OW31573   3.472   3.634  16.322 -0.3543 -0.4013 -0.0936
 6704SOL    HW131574   3.522   3.659  16.400 -1.2028  0.0427  0.3107
 6704SOL    HW231575   3.540   3.573  16.295  3.3685  3.9914 -0.5788
 6705SOL     OW31576   1.024   1.325   7.007  0.0844 -0.1501  0.0954
 6705SOL    HW131577   0.973   1.346   7.086 -1.7348  1.6415 -1.5400
 6705SOL    HW231578   1.049   1.236   7.030 -1.1837  0.0095  2.1252
 6706SOL     OW31579   0.836   1.488   9.143 -0.2368  0.0316 -0.0838
 6706SOL    HW131580   0.824   1.517   9.233  0.8509  0.1004  0.0434
 6706SOL    HW231581   0.833   1.392   9.142  1.5373  0.0078 -2.6759
 6707SOL     OW31582   0.024   3.979   4.664 -0.0158 -0.1479 -0.1181
 6707SOL    HW131583   0.114   3.947   4.661  0.0875 -0.0056  1.3707
 6707SOL    HW231584   0.030   4.001   4.757  0.6227  1.3005 -0.5036
 6708SOL     OW31585   2.197   4.526   9.092 -0.0264  0.4264 -0.0061
 6708SOL    HW131586   2.138   4.494   9.023  0.7753  0.9688 -0.9467
 6708SOL    HW231587   2.270   4.470   9.066 -0.0036  1.2347 -1.7398
 6709SOL     OW31588   1.371   2.407   2.289  0.0603  0.0017  0.3621
 6709SOL    HW131589   1.332   2.321   2.277  0.3206 -0.3198  1.9016
 6709SOL    HW231590   1.449   2.402   2.233 -0.1595  0.4970  0.0088
 6710SOL     OW31591   2.203   3.374  10.039 -0.2016 -0.3474 -0.0486
 6710SOL    HW131592   2.166   3.418  10.116 -0.9245 -2.3468  0.7636
 6710SOL    HW231593   2.151   3.293  10.046 -2.9927  1.5394  1.1553
 6711SOL     OW31594   1.877   3.572   8.423  0.3705 -0.2764 -0.4662
 6711SOL    HW131595   1.935   3.559   8.349  0.5033  1.7576 -0.7202
 6711SOL    HW231596   1.912   3.647   8.470 -0.7195  0.4753 -0.8591
 6712SOL     OW31597   3.515   4.712   6.303  0.5623 -0.0323 -0.7222
 6712SOL    HW131598   3.603   0.027   6.298 -0.2704  2.1853  0.4254
 6712SOL    HW231599   3.484   0.018   6.390 -0.2037  1.9780 -1.5921
 6713SOL     OW31600   0.535   4.581   7.385  0.6180 -0.5430 -0.1700
 6713SOL    HW131601   0.461   4.600   7.328 -0.0056 -1.7882  0.2134
 6713SOL    HW231602   0.570   4.670   7.396  1.3112 -0.8044 -0.2534
 6714SOL     OW31603   3.548   2.621   8.053 -0.2329  0.0404 -0.0689
 6714SOL    HW131604   3.541   2.534   8.014  0.2333  0.1637 -0.4262
 6714SOL    HW231605   3.456   2.631   8.079 -0.1249  1.3447 -0.1861
 6715SOL     OW31606   2.842   2.233  16.931 -0.5072  0.1931 -0.6186
 6715SOL    HW131607   2.907   2.303  16.925 -0.3228 -0.0465 -1.3507
 6715SOL    HW231608   2.896   2.156  16.947  1.1253  1.1599 -1.4809
 6716SOL     OW31609   0.726   3.567   7.347 -1.0351 -0.2383 -0.1388
 6716SOL    HW131610   0.693   3.656   7.361 -0.8760  0.0176 -1.3931
 6716SOL    HW231611   0.778   3.552   7.426 -1.3066  0.3561  0.1462
 6717SOL     OW31612   2.161   3.354   2.464 -0.6625  1.0698  0.1201
 6717SOL    HW131613   2.159   3.358   2.368  0.9956 -2.4608 -0.0716
 6717SOL    HW231614   2.111   3.276   2.490 -1.1408  0.9089 -1.2589
 6718SOL     OW31615   1.821   0.890   1.520  0.2058 -0.2860  0.1854
 6718SOL    HW131616   1.732   0.872   1.552 -0.9202  1.2754 -2.0757
 6718SOL    HW231617   1.848   0.954   1.586 -2.0600 -0.9684  1.7978
 6719SOL     OW31618   0.868   2.380   2.927 -0.1754  0.4024  0.4875
 6719SOL    HW131619   0.813   2.302   2.915 -1.2003  1.1956  0.0459
 6719SOL    HW231620   0.914   2.355   3.007 -0.9290  2.3861  1.5374
 6720SOL     OW31621   1.769   3.722  16.888  0.1774 -0.1443  0.0667
 6720SOL    HW131622   1.863   3.732  16.903 -0.1924  1.7983  0.9749
 6720SOL    HW231623   1.723   3.759  16.963  0.2842 -0.2264  0.1715
 6721SOL     OW31624   1.753   2.967   7.390  0.1966 -0.1517 -0.0526
 6721SOL    HW131625   1.818   3.003   7.329 -0.8102 -1.1574 -1.7160
 6721SOL    HW231626   1.681   2.953   7.329  1.0301  0.7137 -1.2395
 6722SOL     OW31627   1.571   0.166  12.274  0.3997  0.1130  0.1045
 6722SOL    HW131628   1.589   0.073  12.289 -0.1265 -0.2627 -1.5927
 6722SOL    HW231629   1.480   0.175  12.302  0.9531  1.5916  1.4818
 6723SOL     OW31630   3.481   3.271   5.988 -0.1838 -0.3240 -0.4900
 6723SOL    HW131631   3.426   3.326   5.934 -1.6729  0.1973  1.5523
 6723SOL    HW231632   3.557   3.268   5.929  0.8277  0.5762  0.7719
 6724SOL     OW31633   3.299   2.444  14.830  1.1131  0.0062  0.6413
 6724SOL    HW131634   3.274   2.469  14.919  1.1630 -0.7272  0.8645
 6724SOL    HW231635   3.378   2.395  14.853  1.8919  0.5673 -0.8460
 6725SOL     OW31636   3.835   4.647   2.102  0.0253 -0.0994 -0.1323
 6725SOL    HW131637   3.894   4.572   2.105  2.6999  2.0337  0.1040
 6725SOL    HW231638   3.757   4.611   2.145 -1.3698  1.1906 -1.5918
 6726SOL     OW31639   3.780   2.864   5.840  0.7460  0.2726 -0.1634
 6726SOL    HW131640   3.784   2.811   5.760  0.6574  0.6753 -0.4351
 6726SOL    HW231641   3.774   2.794   5.905 -0.6399  2.8880  2.5232
 6727SOL     OW31642   2.217   0.186   1.025 -0.0720  0.1719 -0.2217
 6727SOL    HW131643   2.260   0.130   1.090  0.1039  1.1584  0.5170
 6727SOL    HW231644   2.124   0.172   1.045  0.8232 -1.5612  2.6402
 6728SOL     OW31645   1.576   2.857  17.622 -0.2298  0.4821  0.1702
 6728SOL    HW131646   1.610   2.809  17.546  1.0095  0.0785  0.9759
 6728SOL    HW231647   1.653   2.857  17.679 -0.6803 -0.1784  0.7686
 6729SOL     OW31648   4.502   3.411   4.722 -0.1391 -0.6545 -0.2018
 6729SOL    HW131649   4.433   3.400   4.787  0.0098  0.1387  0.0872
 6729SOL    HW231650   4.536   3.495   4.755 -2.1684  0.1355 -0.1518
 6730SOL     OW31651   2.414   0.722   7.102  0.0889 -0.2730  0.2328
 6730SOL    HW131652   2.387   0.718   7.194  1.1037 -1.0322  0.4961
 6730SOL    HW231653   2.507   0.700   7.107  0.3513  0.1496 -2.5504
 6731SOL     OW31654   2.950   1.287   9.034 -0.2984  0.4567 -0.5059
 6731SOL    HW131655   2.899   1.287   8.954 -1.0186 -1.7717 -0.0685
 6731SOL    HW231656   2.973   1.194   9.046 -2.5547 -0.1362 -0.8749
 6732SOL     OW31657   2.281   2.472   7.569  0.3463  0.3971 -0.1357
 6732SOL    HW131658   2.213   2.422   7.613  0.3278 -1.0328 -1.8041
 6732SOL    HW231659   2.355   2.423   7.605 -0.3904  1.0618  2.3027
 6733SOL     OW31660   1.862   1.804   8.446  0.4579 -0.2423  0.3652
 6733SOL    HW131661   1.778   1.850   8.457  0.8529  0.3593  0.8770
 6733SOL    HW231662   1.870   1.777   8.537  0.3233 -0.8163  0.2029
 6734SOL     OW31663   0.443   3.506   7.203  0.3785  0.1432  0.0284
 6734SOL    HW131664   0.535   3.507   7.177  0.3850  1.4131  0.1036
 6734SOL    HW231665   0.405   3.546   7.125 -0.6866 -1.5116 -0.2982
 6735SOL     OW31666   3.509   1.361   4.648  0.4945  0.0429  0.2950
 6735SOL    HW131667   3.524   1.322   4.734  2.1998 -0.1061 -0.0847
 6735SOL    HW231668   3.433   1.307   4.624  0.5742  0.6801 -1.4040
 6736SOL     OW31669   1.908   3.106   0.129 -0.0298  0.1769  0.1992
 6736SOL    HW131670   1.827   3.157   0.131 -1.0503 -1.4296  0.2230
 6736SOL    HW231671   1.952   3.122   0.046 -0.3578 -0.3077 -0.0675
 6737SOL     OW31672   4.051   1.466  12.624 -0.1495  0.1458  0.4108
 6737SOL    HW131673   4.119   1.502  12.566 -1.2488 -0.6307 -1.3694
 6737SOL    HW231674   3.981   1.456  12.559 -0.2234 -1.3615  0.7215
 6738SOL     OW31675   0.326   1.347  12.336  0.8014 -0.1447 -0.0664
 6738SOL    HW131676   0.244   1.347  12.385  0.7043  3.6798 -0.2248
 6738SOL    HW231677   0.394   1.301  12.386  0.3380  0.3536  1.0099
 6739SOL     OW31678   1.226   0.595  15.110  0.3965 -0.3715  0.2398
 6739SOL    HW131679   1.225   0.500  15.125  0.2658 -0.1589  1.5943
 6739SOL    HW231680   1.173   0.606  15.031  1.8817  1.6122 -0.4727
 6740SOL     OW31681   3.552   0.746   3.386 -0.0362  0.9576  0.3713
 6740SOL    HW131682   3.553   0.812   3.317  1.2387  0.8695  0.3017
 6740SOL    HW231683   3.474   0.695   3.363  0.0201  1.4500 -0.8996
 6741SOL     OW31684   4.546   3.491   1.253  0.1903  0.0332 -1.0911
 6741SOL    HW131685   4.635   3.512   1.282 -0.2114 -1.7623  1.3850
 6741SOL    HW231686   4.518   3.582   1.255  0.7201  0.1935 -0.8484
 6742SOL     OW31687   2.941   4.510   6.601  0.3324  0.6280 -0.0260
 6742SOL    HW131688   2.925   4.508   6.695  5.0852 -1.5257  0.7414
 6742SOL    HW231689   2.892   4.589   6.577  1.6753  1.7241  0.8786
 6743SOL     OW31690   3.234   2.777  17.057  0.1790 -0.1479  0.0587
 6743SOL    HW131691   3.147   2.818  17.059  0.3422  0.1286  1.7849
 6743SOL    HW231692   3.279   2.837  17.116 -0.0291 -0.0939  0.1629
 6744SOL     OW31693   3.758   1.834  11.658 -0.6305 -0.5054 -0.3695
 6744SOL    HW131694   3.726   1.747  11.633 -1.2899  0.3754 -2.5240
 6744SOL    HW231695   3.708   1.897  11.607 -2.3714 -1.1796  0.4967
 6745SOL     OW31696   0.601   3.938   3.895  0.0621  0.1191 -0.1306
 6745SOL    HW131697   0.522   3.991   3.889  1.8852  2.9331  0.7322
 6745SOL    HW231698   0.662   3.976   3.831  1.0677 -3.7713 -1.4819
 6746SOL     OW31699   0.235   0.361   3.088  0.8113  0.2125  0.4613
 6746SOL    HW131700   0.273   0.282   3.127 -1.5067 -1.8247 -1.4877
 6746SOL    HW231701   0.302   0.390   3.026  1.1554  1.2446  1.3200
 6747SOL     OW31702   4.267   0.658   8.530  0.1233 -0.3078 -0.1302
 6747SOL    HW131703   4.242   0.600   8.602  0.9321 -0.1158  0.3127
 6747SOL    HW231704   4.280   0.742   8.574  1.5701 -0.3264 -0.5167
 6748SOL     OW31705   0.234   0.339   3.673 -0.2483  0.2356  0.7649
 6748SOL    HW131706   0.314   0.391   3.686  1.1593 -2.0687  1.2153
 6748SOL    HW231707   0.174   0.412   3.690 -0.2977  0.4827 -0.4585
 6749SOL     OW31708   1.611   1.910   5.885 -0.2886  0.7622 -0.0922
 6749SOL    HW131709   1.572   1.961   5.814 -2.1261  1.5502  1.4648
 6749SOL    HW231710   1.584   1.961   5.962 -3.8284 -0.2397 -0.6673
 6750SOL     OW31711   0.608   2.550   7.101 -0.6987  0.0957  0.2435
 6750SOL    HW131712   0.670   2.533   7.030  0.8042 -1.8786  2.0393
 6750SOL    HW231713   0.608   2.645   7.101 -3.9556  0.0810 -1.5327
 6751SOL     OW31714   1.094   2.710   2.590  0.1381 -0.0601 -0.0300
 6751SOL    HW131715   1.030   2.658   2.639  0.3172 -0.4031 -0.1633
 6751SOL    HW231716   1.129   2.766   2.659 -2.1116 -1.2585  2.1175
 6752SOL     OW31717   2.112   4.315   5.895  0.1825  0.1282 -0.2749
 6752SOL    HW131718   2.104   4.267   5.977  0.2744 -0.3832 -0.5623
 6752SOL    HW231719   2.019   4.330   5.879 -0.3156 -3.1774 -0.4885
 6753SOL     OW31720   2.518   1.612   0.304 -0.5841  0.2437  0.0890
 6753SOL    HW131721   2.529   1.695   0.259 -2.5852  0.8231  0.6850
 6753SOL    HW231722   2.424   1.600   0.296 -0.2879 -0.6245 -2.1020
 6754SOL     OW31723   1.342   4.030   4.161  0.0372  0.1284 -0.3555
 6754SOL    HW131724   1.407   4.049   4.228 -0.5019 -1.9909  0.7475
 6754SOL    HW231725   1.406   4.023   4.090  0.7429  2.1831  0.0926
 6755SOL     OW31726   3.037   2.098   2.433  0.1583 -0.1649  0.1407
 6755SOL    HW131727   2.965   2.145   2.392 -0.5538 -0.6294  0.8648
 6755SOL    HW231728   3.103   2.140   2.378 -1.4830  1.1903 -0.7673
 6756SOL     OW31729   3.320   2.423  12.523  0.2054  0.2210 -0.3182
 6756SOL    HW131730   3.406   2.437  12.561  1.0333  0.3175 -2.2234
 6756SOL    HW231731   3.263   2.406  12.598 -0.6660 -0.0872 -1.0449
 6757SOL     OW31732   1.531   2.420  15.050  0.0314  0.3171  0.0981
 6757SOL    HW131733   1.597   2.401  14.984  1.4405 -0.3936  1.7285
 6757SOL    HW231734   1.483   2.495  15.014  2.0331  0.6151 -1.8942
 6758SOL     OW31735   2.139   2.219   0.899  0.0205  0.2039  0.2092
 6758SOL    HW131736   2.212   2.169   0.935  1.6599  1.3714 -1.5314
 6758SOL    HW231737   2.170   2.309   0.908 -0.3034  0.2287  1.1137
 6759SOL     OW31738   1.886   1.111   1.670  0.3318  0.3860 -0.1616
 6759SOL    HW131739   1.926   1.141   1.589  1.8708 -1.7578 -0.2013
 6759SOL    HW231740   1.795   1.142   1.662 -0.9965 -3.0550  1.6058
 6760SOL     OW31741   4.075   0.215  12.853  0.6123  0.1389  0.1393
 6760SOL    HW131742   4.145   0.206  12.917  1.1180 -2.5197 -0.7867
 6760SOL    HW231743   4.038   0.127  12.850  0.0366  0.3890 -0.0843
 6761SOL     OW31744   0.001   0.526   2.831  0.0341 -0.0373  0.6558
 6761SOL    HW131745   4.639   0.576   2.831  0.7430  1.1352  1.4212
 6761SOL    HW231746   0.063   0.593   2.859 -0.6527  0.9000 -0.0823
 6762SOL     OW31747   0.929   2.653   8.118  0.6501 -0.2406 -0.6516
 6762SOL    HW131748   0.885   2.728   8.158  2.6391  0.4715  0.2024
 6762SOL    HW231749   0.865   2.599   8.072 -1.1979  1.1307  0.2769
 6763SOL     OW31750   4.691   1.155  17.287  0.3443 -0.1488 -0.4948
 6763SOL    HW131751   0.047   1.129  17.235 -0.2163 -0.4022 -1.1814
 6763SOL    HW231752   4.622   1.099  17.253  1.3111 -1.2124 -0.7282
 6764SOL     OW31753   0.763   2.845   6.082 -0.1359  0.1467 -0.7455
 6764SOL    HW131754   0.842   2.790   6.078  0.3692  0.8716 -0.8111
 6764SOL    HW231755   0.784   2.900   6.157 -0.5414 -0.3074 -0.2982
 6765SOL     OW31756   0.917   4.601  15.643 -0.0519  0.7945 -0.0380
 6765SOL    HW131757   0.933   4.679  15.695 -1.6155  0.6885  0.5808
 6765SOL    HW231758   0.938   4.612  15.550 -2.2244  0.5047 -0.5648
 6766SOL     OW31759   1.049   1.766  13.520  0.0521 -0.3644 -0.1022
 6766SOL    HW131760   0.998   1.815  13.585  1.3541 -1.4404  1.7135
 6766SOL    HW231761   1.075   1.836  13.460 -0.7408 -0.5451 -0.6549
 6767SOL     OW31762   2.167   3.884   2.789  0.1472  0.0631 -0.0661
 6767SOL    HW131763   2.160   3.876   2.884 -0.6954 -0.0743 -0.1396
 6767SOL    HW231764   2.173   3.976   2.764  0.9806  0.1267  0.3535
 6768SOL     OW31765   1.252   2.554   7.635  0.0044  0.0375  0.1184
 6768SOL    HW131766   1.339   2.588   7.655  1.2411 -2.9626 -0.2256
 6768SOL    HW231767   1.239   2.487   7.702  0.4366 -0.8292 -0.6672
 6769SOL     OW31768   3.482   3.003   6.609 -0.6290  0.1874  0.6813
 6769SOL    HW131769   3.563   2.973   6.652  2.1942  2.3429 -3.1667
 6769SOL    HW231770   3.488   2.955   6.527 -1.6098  1.3664 -0.0713
 6770SOL     OW31771   3.011   1.091   7.396 -0.3381 -0.3370  0.2187
 6770SOL    HW131772   3.085   1.135   7.438 -1.2697  0.4102  1.0781
 6770SOL    HW231773   2.966   1.053   7.472  0.9262 -0.5033  0.9027
 6771SOL     OW31774   2.141   2.197   6.075 -0.2131 -0.5191 -0.5481
 6771SOL    HW131775   2.069   2.220   6.015 -1.0571 -0.4026  0.5119
 6771SOL    HW231776   2.117   2.115   6.118 -1.3370 -0.3746 -0.8921
 6772SOL     OW31777   1.895   1.431   8.210 -0.3860 -0.1918 -0.6130
 6772SOL    HW131778   1.822   1.379   8.244 -0.1876  0.5530  0.9650
 6772SOL    HW231779   1.862   1.486   8.139  0.6956 -0.8073 -1.5957
 6773SOL     OW31780   3.604   2.023   9.310  0.0711  0.0775 -0.0952
 6773SOL    HW131781   3.690   2.058   9.332  1.9345 -4.0738 -0.7968
 6773SOL    HW231782   3.553   2.104   9.302  0.3211  0.3443  0.9646
 6774SOL     OW31783   1.001   1.816  17.114 -0.0128  0.3632 -0.0239
 6774SOL    HW131784   1.019   1.907  17.138  0.7830  0.4661 -1.0285
 6774SOL    HW231785   0.906   1.804  17.110  0.0304  0.0763 -0.1773
 6775SOL     OW31786   4.090   1.289   5.706  0.2564  0.1762  0.2797
 6775SOL    HW131787   4.031   1.254   5.772  0.2365 -0.6213 -0.1617
 6775SOL    HW231788   4.036   1.331   5.639 -1.0100 -0.3317  0.9767
 6776SOL     OW31789   3.619   1.154   7.875  0.0128  0.1429 -0.3203
 6776SOL    HW131790   3.586   1.233   7.919  0.2007 -1.2860  2.4093
 6776SOL    HW231791   3.615   1.102   7.955  1.2779 -0.1446 -0.4533
 6777SOL     OW31792   2.898   1.628  11.258  0.0712 -0.1313 -0.3832
 6777SOL    HW131793   2.891   1.697  11.325 -1.9320 -1.2581  0.5535
 6777SOL    HW231794   2.912   1.683  11.181 -2.2549  1.3430  0.2631
 6778SOL     OW31795   0.825   0.980   3.842 -0.5587  0.2437  0.0701
 6778SOL    HW131796   0.770   1.053   3.814 -1.2068 -0.0101  0.6790
 6778SOL    HW231797   0.769   0.954   3.914 -0.2264 -1.0852 -0.1458
 6779SOL     OW31798   3.309   1.416   8.180  0.0410  0.0176 -0.1629
 6779SOL    HW131799   3.293   1.471   8.257  0.4753  1.3454 -1.0123
 6779SOL    HW231800   3.275   1.337   8.221  0.1060  0.2287  0.3013
 6780SOL     OW31801   4.414   1.202   2.994 -0.0511  0.2523  0.0877
 6780SOL    HW131802   4.389   1.279   3.045 -1.3683  0.4048 -0.7909
 6780SOL    HW231803   4.485   1.171   3.050 -0.3330 -1.9615 -0.7579
 6781SOL     OW31804   3.153   2.162   0.384  0.3468 -0.1501  0.9082
 6781SOL    HW131805   3.202   2.240   0.360 -1.3653  0.0058 -2.1598
 6781SOL    HW231806   3.093   2.145   0.310  0.4549  1.5149  0.4466
 6782SOL     OW31807   1.361   4.003   2.460  0.1188  0.1768  0.4814
 6782SOL    HW131808   1.349   3.992   2.366 -2.8411  2.4178  0.5982
 6782SOL    HW231809   1.346   4.097   2.471 -0.9690 -0.1142  1.4603
 6783SOL     OW31810   3.203   4.013   4.628  0.6764 -0.0316 -0.2094
 6783SOL    HW131811   3.257   4.027   4.705  0.1645  1.1009 -0.0577
 6783SOL    HW231812   3.261   3.974   4.562  4.0490  1.8734  1.6473
 6784SOL     OW31813   4.567   3.053   8.055 -0.4731  0.5100  0.2397
 6784SOL    HW131814   4.550   2.960   8.041 -0.7375  0.4861  0.7119
 6784SOL    HW231815   4.643   3.047   8.113  0.4849  1.0716 -0.9598
 6785SOL     OW31816   1.659   0.667  16.050 -0.4056 -0.1280  0.0929
 6785SOL    HW131817   1.647   0.710  15.965  1.0568 -1.8158 -0.9440
 6785SOL    HW231818   1.672   0.576  16.024 -0.3615  0.1912 -1.0048
 6786SOL     OW31819   2.595   2.030   6.317 -0.5578  0.0510 -0.0738
 6786SOL    HW131820   2.532   1.975   6.270 -1.7142  1.1363  0.2002
 6786SOL    HW231821   2.628   2.100   6.261 -1.9988  0.9672  0.2317
 6787SOL     OW31822   2.800   2.574   7.081 -0.1736  0.0499  0.0076
 6787SOL    HW131823   2.808   2.580   7.176  0.9853  0.6707 -0.1267
 6787SOL    HW231824   2.758   2.652   7.046  2.5978  1.4614 -0.1692
 6788SOL     OW31825   3.142   0.461   5.370  0.1034 -0.2385 -0.0054
 6788SOL    HW131826   3.146   0.383   5.315  0.5437  1.3599 -2.2640
 6788SOL    HW231827   3.056   0.458   5.413  0.9325  3.6128  1.9445
 6789SOL     OW31828   1.676   0.909   7.832 -0.1967  0.0841 -0.2557
 6789SOL    HW131829   1.617   0.964   7.882  1.2124  1.5693 -0.2091
 6789SOL    HW231830   1.744   0.969   7.798 -0.3851  1.7423  2.3169
 6790SOL     OW31831   2.849   0.897   5.186  0.1576  0.2727  0.3137
 6790SOL    HW131832   2.939   0.929   5.191  0.0953  0.6097 -0.7652
 6790SOL    HW231833   2.826   0.928   5.099 -0.3388 -1.0967 -0.0450
 6791SOL     OW31834   1.666   1.221   4.795 -0.0286 -0.0764 -0.4609
 6791SOL    HW131835   1.682   1.315   4.805 -0.9468 -0.0258  0.5745
 6791SOL    HW231836   1.712   1.175   4.864  1.1307 -0.5565 -1.5628
 6792SOL     OW31837   0.783   4.433   1.948 -0.1997  0.1171  0.3818
 6792SOL    HW131838   0.811   4.342   1.958 -2.7742 -0.8316 -1.1420
 6792SOL    HW231839   0.828   4.452   1.866 -0.4912 -0.8866 -0.0076
 6793SOL     OW31840   0.286   2.696  11.243 -0.5356  0.0972 -0.1003
 6793SOL    HW131841   0.256   2.671  11.330  1.7818 -0.4103  0.5501
 6793SOL    HW231842   0.309   2.787  11.259  0.8822 -0.5335  1.3752
 6794SOL     OW31843   1.835   2.744  14.216 -0.0361  0.7521 -0.3198
 6794SOL    HW131844   1.776   2.820  14.213 -0.5790  0.3451 -0.0317
 6794SOL    HW231845   1.851   2.744  14.121  0.2106  0.4701 -0.2775
 6795SOL     OW31846   0.688   3.035   4.286  0.3922  0.3019 -0.2690
 6795SOL    HW131847   0.630   3.076   4.222  0.1476  1.0571  0.4254
 6795SOL    HW231848   0.634   3.056   4.363 -2.2315 -0.8039 -1.8123
 6796SOL     OW31849   0.651   2.582   8.699 -0.1989 -0.0614  0.0238
 6796SOL    HW131850   0.718   2.561   8.634 -0.0005  0.7817 -0.0525
 6796SOL    HW231851   0.587   2.633   8.649 -1.4687 -0.8853  0.8261
 6797SOL     OW31852   3.371   2.479  13.616 -0.1543  0.4824 -0.2370
 6797SOL    HW131853   3.281   2.466  13.646 -0.7108  2.9117 -0.8438
 6797SOL    HW231854   3.409   2.510  13.698 -3.2141  0.9569  1.0038
 6798SOL     OW31855   1.147   0.906  17.575  0.5079  0.7227 -0.0915
 6798SOL    HW131856   1.068   0.885  17.624  0.2874  0.5778 -0.5064
 6798SOL    HW231857   1.179   0.821  17.545 -1.5352  0.0625 -0.3669
 6799SOL     OW31858   1.855   1.852   4.462 -0.1133  0.5593 -0.3091
 6799SOL    HW131859   1.788   1.830   4.398  0.0927 -1.8626  0.3218
 6799SOL    HW231860   1.887   1.931   4.418  0.6209  0.6093  0.3119
 6800SOL     OW31861   3.451   0.867   7.070  0.7404 -0.4296  0.4026
 6800SOL    HW131862   3.519   0.856   7.137 -0.2244 -1.5721  1.1811
 6800SOL    HW231863   3.419   0.957   7.080 -1.1248 -0.9179 -1.3529
 6801SOL     OW31864   3.882   2.149   9.375 -0.0631 -0.2259  0.5279
 6801SOL    HW131865   3.967   2.167   9.337  0.2790  0.4890  1.6394
 6801SOL    HW231866   3.825   2.226   9.369 -2.1996 -2.1273 -3.6969
 6802SOL     OW31867   0.049   1.645  15.298 -0.1663 -0.0299  0.1735
 6802SOL    HW131868   0.090   1.578  15.353  1.3706 -1.4657 -2.7279
 6802SOL    HW231869   0.097   1.725  15.316 -1.8507  1.1006 -0.3148
 6803SOL     OW31870   3.073   0.252   0.848 -0.2292  0.1827  0.7582
 6803SOL    HW131871   3.044   0.171   0.888 -0.9170  0.0344 -0.0408
 6803SOL    HW231872   2.995   0.264   0.793  0.6244  0.9987 -0.2877
 6804SOL     OW31873   4.402   3.928  16.415  0.4548  0.2501  0.1047
 6804SOL    HW131874   4.472   3.926  16.481  3.0723  1.6492 -2.5918
 6804SOL    HW231875   4.441   3.875  16.345 -0.5033 -1.4193  0.8477
 6805SOL     OW31876   0.084   3.533   3.539 -0.2522  0.0588 -0.4357
 6805SOL    HW131877   0.100   3.613   3.490 -0.9787  0.2578 -0.3493
 6805SOL    HW231878   0.086   3.466   3.471 -0.1422 -0.9552  0.5651
 6806SOL     OW31879   1.919   0.716   1.802  0.8243 -0.4374 -0.2549
 6806SOL    HW131880   1.907   0.630   1.761  1.0950 -1.2716  1.3963
 6806SOL    HW231881   1.844   0.771   1.781 -0.8937 -2.6038  0.1999
 6807SOL     OW31882   2.297   1.150   5.489 -0.2567  0.1767 -0.0215
 6807SOL    HW131883   2.294   1.140   5.394  0.1996  1.6676 -0.2013
 6807SOL    HW231884   2.226   1.213   5.501  0.2951  0.9890 -1.0720
 6808SOL     OW31885   1.023   0.416  17.448  0.0552  0.2069  0.3503
 6808SOL    HW131886   1.066   0.420  17.534 -0.2617  1.2758  0.4705
 6808SOL    HW231887   0.932   0.424  17.477 -0.7649 -2.1830 -1.5699
 6809SOL     OW31888   4.482   2.838   7.460 -0.0812  0.1617 -0.2561
 6809SOL    HW131889   4.466   2.886   7.541 -3.0446  1.6123 -1.7232
 6809SOL    HW231890   4.558   2.888   7.429 -0.8335  1.5352  0.1439
 6810SOL     OW31891   1.718   0.000   7.244  0.1329 -0.1961 -0.0849
 6810SOL    HW131892   1.647   0.055   7.278  0.9885  1.0010 -0.2553
 6810SOL    HW231893   1.785   0.063   7.218  0.0816  0.2428  0.8285
 6811SOL     OW31894   4.420   2.197   4.968  0.5731 -0.0163 -0.3099
 6811SOL    HW131895   4.431   2.107   4.936 -0.9247 -0.1337 -0.5323
 6811SOL    HW231896   4.375   2.237   4.894  0.2498  0.4041  0.1167
 6812SOL     OW31897   2.646   1.001  10.773 -0.7979  0.4359 -0.1901
 6812SOL    HW131898   2.583   1.065  10.806 -0.7000  0.5687 -0.2596
 6812SOL    HW231899   2.591   0.924  10.784  1.9580 -1.4814  0.2874
 6813SOL     OW31900   4.477   1.729   1.889 -0.0714 -0.0327 -0.1569
 6813SOL    HW131901   4.532   1.656   1.860 -0.3169  0.6825 -2.4933
 6813SOL    HW231902   4.453   1.783   1.814 -0.3778  0.7891  0.5422
 6814SOL     OW31903   0.313   4.402  16.996 -0.2889 -0.1871  0.0199
 6814SOL    HW131904   0.235   4.430  17.044  0.0438 -0.1144  0.5237
 6814SOL    HW231905   0.326   4.313  17.029  1.1802 -0.2884 -0.8269
 6815SOL     OW31906   0.930   4.641   4.438  0.1935  0.1200 -0.7543
 6815SOL    HW131907   0.848   4.619   4.481  2.2200 -3.8546  1.0722
 6815SOL    HW231908   0.984   4.575   4.481 -0.8869 -0.7202 -0.7069
 6816SOL     OW31909   3.605   0.272  14.398  0.0357 -0.2772  0.5882
 6816SOL    HW131910   3.547   0.312  14.333  0.6331 -0.6563 -0.1714
 6816SOL    HW231911   3.690   0.315  14.388  0.4554 -0.4978  3.0308
 6817SOL     OW31912   2.896   1.655  12.519  0.9130 -0.0826 -0.0276
 6817SOL    HW131913   2.905   1.725  12.453  1.9628  0.2666  0.4819
 6817SOL    HW231914   2.944   1.696  12.591 -1.9279  1.1693  1.1190
 6818SOL     OW31915   2.519   3.533   6.130  0.3931  0.5371  0.0790
 6818SOL    HW131916   2.541   3.492   6.046 -1.0902  1.5912 -0.8155
 6818SOL    HW231917   2.535   3.625   6.111  0.1864  0.5506 -0.0312
 6819SOL     OW31918   4.345   0.365   5.703  0.1571  0.2672  0.2011
 6819SOL    HW131919   4.341   0.441   5.762 -1.8239  0.8470 -0.6541
 6819SOL    HW231920   4.268   0.313   5.725 -0.2318  0.1483 -1.4438
 6820SOL     OW31921   0.005   0.257   9.265  0.5357 -0.6620 -0.1092
 6820SOL    HW131922   4.631   0.261   9.283  0.6442  0.0399  0.2974
 6820SOL    HW231923   4.715   0.218   9.178  0.3969 -0.6895 -0.0803
 6821SOL     OW31924   1.803   0.737   2.697 -0.0077 -0.5494 -0.0981
 6821SOL    HW131925   1.764   0.654   2.669 -0.6523 -0.9292  1.8903
 6821SOL    HW231926   1.787   0.806   2.633  0.0222  0.9366  1.5095
 6822SOL     OW31927   3.737   0.095   0.345 -0.3124 -0.3733  0.1236
 6822SOL    HW131928   3.797   0.076   0.272 -0.2492  0.0815  0.0595
 6822SOL    HW231929   3.652   0.083   0.303 -1.0218  0.9070  1.2063
 6823SOL     OW31930   0.179   1.118  17.115 -0.1022 -0.7009 -0.0129
 6823SOL    HW131931   0.202   1.179  17.045 -1.4980 -2.0880 -1.6651
 6823SOL    HW231932   0.251   1.056  17.110  0.8310  0.5705 -2.1982
 6824SOL     OW31933   3.609   1.776   7.522 -0.9706 -0.2492  0.2166
 6824SOL    HW131934   3.703   1.787   7.515 -0.9191  0.4162  1.9054
 6824SOL    HW231935   3.586   1.852   7.576  0.4385 -0.9018  1.7343
 6825SOL     OW31936   2.399   2.420   8.749  0.1672 -0.1667 -0.3686
 6825SOL    HW131937   2.400   2.467   8.832 -2.1313  1.2817 -1.1648
 6825SOL    HW231938   2.347   2.346   8.782 -0.1722  0.2083 -0.0730
 6826SOL     OW31939   2.189   2.047   3.545  0.1824  0.2700  0.3283
 6826SOL    HW131940   2.272   2.009   3.515 -0.7832 -0.6793 -1.1548
 6826SOL    HW231941   2.146   1.963   3.557  2.2804 -0.7593  0.6035
 6827SOL     OW31942   1.422   0.491   3.224  0.2835 -0.5358 -0.4112
 6827SOL    HW131943   1.496   0.526   3.174  0.3033 -1.3628 -0.9582
 6827SOL    HW231944   1.368   0.450   3.157  0.7167 -1.7550 -0.0050
 6828SOL     OW31945   1.698   1.588   0.539  0.4843  0.3894  0.1662
 6828SOL    HW131946   1.623   1.540   0.503  1.1167 -1.1631  0.9544
 6828SOL    HW231947   1.739   1.606   0.455 -0.8299 -2.1915 -1.0267
 6829SOL     OW31948   3.443   1.424   0.079  0.2450 -0.2791  0.4158
 6829SOL    HW131949   3.395   1.501   0.111  0.9351  1.3751 -2.5386
 6829SOL    HW231950   3.450   1.445  17.669 -1.8949 -1.1465  0.0553
 6830SOL     OW31951   0.126   1.158   4.113 -0.5609 -0.0458  0.5053
 6830SOL    HW131952   0.050   1.101   4.124 -1.5694  1.7720  2.8144
 6830SOL    HW231953   0.125   1.180   4.020  0.3381 -0.1031  0.4857
 6831SOL     OW31954   2.492   2.086   0.273 -0.1180 -0.2530 -0.3488
 6831SOL    HW131955   2.493   2.133   0.189  0.0664 -0.7310 -0.6168
 6831SOL    HW231956   2.535   2.013   0.228 -0.1589 -0.1556 -0.5470
 6832SOL     OW31957   3.891   0.627   2.814 -0.2243  0.7715 -0.4649
 6832SOL    HW131958   3.828   0.633   2.742  0.6652  0.2958 -1.2826
 6832SOL    HW231959   3.967   0.635   2.756 -0.3987 -2.1679 -1.0696
 6833SOL     OW31960   4.100   1.883   3.595  0.4778  0.2121  0.5385
 6833SOL    HW131961   4.112   1.809   3.656  0.6807 -0.5968 -0.4839
 6833SOL    HW231962   4.134   1.955   3.648  0.9454 -0.8417  1.6900
 6834SOL     OW31963   1.372   3.254  10.683 -0.1898  0.1739  0.6847
 6834SOL    HW131964   1.441   3.215  10.630 -0.1015 -1.1352  1.7424
 6834SOL    HW231965   1.304   3.244  10.617 -1.0672  0.7444  1.5094
 6835SOL     OW31966   4.126   0.710   8.297  0.1217  0.7015 -0.2121
 6835SOL    HW131967   4.173   0.656   8.233 -0.5354  1.9238 -1.7226
 6835SOL    HW231968   4.190   0.720   8.368  0.1581 -0.5090 -0.0899
 6836SOL     OW31969   0.747   2.794   2.719 -0.1355 -0.2821 -0.3141
 6836SOL    HW131970   0.709   2.814   2.804 -0.2706 -2.1368  0.0757
 6836SOL    HW231971   0.816   2.730   2.737 -0.1095 -0.1287  0.1246
 6837SOL     OW31972   1.862   3.027   3.616 -0.3889  0.1786  0.0134
 6837SOL    HW131973   1.856   3.123   3.615 -0.1161  0.1869 -0.6530
 6837SOL    HW231974   1.835   3.016   3.707 -1.8202 -1.5926 -0.6264
 6838SOL     OW31975   1.667   4.650   3.982 -0.7792 -0.2213  0.0591
 6838SOL    HW131976   1.720   0.000   3.944 -3.9917  1.9245 -0.4276
 6838SOL    HW231977   1.729   4.577   3.984 -0.3472  0.1945  1.6113
 6839SOL     OW31978   4.305   1.095   3.336  0.4156 -0.3391  0.2182
 6839SOL    HW131979   4.329   1.183   3.365 -2.0256  0.2988  0.3200
 6839SOL    HW231980   4.392   1.059   3.321  0.7144  0.2908  0.4078
 6840SOL     OW31981   0.217   3.930   6.830 -0.5495  0.2128  0.3840
 6840SOL    HW131982   0.222   3.972   6.916 -2.7320 -3.3464  2.2460
 6840SOL    HW231983   0.287   3.970   6.779 -1.1857  0.8013 -0.0219
 6841SOL     OW31984   3.340   2.667  12.410  0.3112  0.5730 -0.2158
 6841SOL    HW131985   3.323   2.585  12.457  0.8760  0.6010  0.0479
 6841SOL    HW231986   3.435   2.672  12.425  0.5321 -2.2426 -0.6459
 6842SOL     OW31987   1.758   1.865   7.299 -0.0723  0.2733  0.3086
 6842SOL    HW131988   1.693   1.932   7.321  0.1949  0.3910  0.7478
 6842SOL    HW231989   1.767   1.883   7.206  1.1129  0.4489  0.4662
 6843SOL     OW31990   3.694   0.861   0.793  0.4098  0.1226 -0.4134
 6843SOL    HW131991   3.690   0.927   0.724  1.1817  0.4353 -0.1632
 6843SOL    HW231992   3.681   0.919   0.868  1.2487  0.3582 -0.4434
 6844SOL     OW31993   2.297   3.624   3.510 -0.6417 -0.0372  0.1876
 6844SOL    HW131994   2.284   3.635   3.604  0.1357 -0.4916  0.3461
 6844SOL    HW231995   2.388   3.654   3.504 -0.7302  0.3258  0.7441
 6845SOL     OW31996   0.768   4.372   7.455 -0.7159 -0.5383 -0.3699
 6845SOL    HW131997   0.717   4.445   7.420  0.2552  0.4970  0.3940
 6845SOL    HW231998   0.860   4.399   7.451 -1.0144  0.4823 -0.3617
 6846SOL     OW31999   2.780   1.018   4.287  0.2792  0.3014  0.1625
 6846SOL    HW132000   2.814   1.089   4.341  0.8851  0.1288  0.0067
 6846SOL    HW232001   2.709   1.063   4.241 -0.5005  2.1415  3.2209
 6847SOL     OW32002   3.666   4.251  14.266  0.1525 -0.2745 -0.0914
 6847SOL    HW132003   3.669   4.299  14.183  0.4312 -0.8429 -0.4089
 6847SOL    HW232004   3.658   4.160  14.237 -1.5472 -0.6742  1.6521
 6848SOL     OW32005   2.618   3.226   3.378  0.2972  0.1092 -0.4738
 6848SOL    HW132006   2.554   3.250   3.445  2.2593  2.7572  0.4685
 6848SOL    HW232007   2.611   3.303   3.323 -0.7398  1.9783  2.2587
 6849SOL     OW32008   0.014   1.523   7.951  0.1471  0.2070  0.2660
 6849SOL    HW132009   4.699   1.434   7.953  0.1598  0.1699 -1.0918
 6849SOL    HW232010   0.041   1.533   7.860  2.6256  0.1414  1.0015
 6850SOL     OW32011   3.331   2.301   5.146 -0.0554 -0.0076 -0.4209
 6850SOL    HW132012   3.319   2.209   5.169  1.0921 -0.0758 -0.0522
 6850SOL    HW232013   3.426   2.314   5.140 -0.0898  1.3597  2.0483
 6851SOL     OW32014   1.942   1.662  15.654 -0.4582  0.0362  0.1673
 6851SOL    HW132015   1.923   1.600  15.724  1.1502  1.5161  1.8890
 6851SOL    HW232016   1.920   1.597  15.587 -0.5063 -0.9684  1.1708
 6852SOL     OW32017   3.741   3.615  15.705  0.1675 -0.3868 -0.2411
 6852SOL    HW132018   3.762   3.568  15.786  2.5561  3.5982  1.4656
 6852SOL    HW232019   3.737   3.705  15.737  1.4682 -0.4245  0.0170
 6853SOL     OW32020   3.529   0.739  10.055 -0.0941 -0.2566 -0.3373
 6853SOL    HW132021   3.600   0.796  10.082  1.4153 -2.8391  1.2113
 6853SOL    HW232022   3.500   0.779   9.973 -2.9293 -1.4533  0.0778
 6854SOL     OW32023   2.879   1.062   1.083  0.0951  0.1888  0.3689
 6854SOL    HW132024   2.876   1.127   1.013 -0.4286  0.7814  0.9436
 6854SOL    HW232025   2.936   1.001   1.036  0.4196  0.2526  0.6752
 6855SOL     OW32026   0.577   4.225   2.298  0.0451 -0.6658 -0.1797
 6855SOL    HW132027   0.670   4.205   2.284 -0.0498 -0.3702 -1.2560
 6855SOL    HW232028   0.545   4.233   2.208  0.9045 -0.7565 -0.4924
 6856SOL     OW32029   3.923   4.640  11.385  0.6068 -0.2447 -0.1151
 6856SOL    HW132030   4.008   4.672  11.354  0.2611  0.7265 -0.0523
 6856SOL    HW232031   3.881   0.005  11.389  0.7461 -0.1349 -1.0731
 6857SOL     OW32032   1.480   3.571   8.818  0.5901 -0.4002  0.2831
 6857SOL    HW132033   1.520   3.557   8.732 -1.2328  1.5345 -0.8648
 6857SOL    HW232034   1.387   3.575   8.798  0.6120  0.8701  0.4624
 6858SOL     OW32035   1.303   0.855   5.554  0.2777  0.0500 -0.2443
 6858SOL    HW132036   1.225   0.818   5.595  2.2890 -1.0118  2.6040
 6858SOL    HW232037   1.271   0.904   5.478  1.8513  1.8781  0.2919
 6859SOL     OW32038   3.746   4.388  11.300  0.2583 -0.5392 -0.8649
 6859SOL    HW132039   3.694   4.432  11.232 -1.7212  0.2943  1.1453
 6859SOL    HW232040   3.778   4.315  11.248 -0.5587 -1.9360  0.5900
 6860SOL     OW32041   3.568   4.484  15.898 -0.4966 -0.4964  0.3529
 6860SOL    HW132042   3.514   4.466  15.821 -0.9346  1.9553  0.0886
 6860SOL    HW232043   3.603   4.567  15.866 -0.7770 -0.4874  0.0678
 6861SOL     OW32044   4.256   1.591  13.937  0.2277  0.0110 -0.3580
 6861SOL    HW132045   4.246   1.548  14.022 -1.0805  0.9155 -0.0583
 6861SOL    HW232046   4.334   1.643  13.953 -0.0737  0.3911 -0.1148
 6862SOL     OW32047   0.821   3.367   3.247  0.2411  0.2644 -0.4023
 6862SOL    HW132048   0.797   3.275   3.261  3.1679 -0.7648 -2.0761
 6862SOL    HW232049   0.748   3.407   3.294  0.2416  2.7877 -2.5340
 6863SOL     OW32050   2.048   2.740   4.954 -0.0898 -0.3049  0.4046
 6863SOL    HW132051   2.074   2.757   5.045  0.2449 -0.2176  0.2927
 6863SOL    HW232052   2.004   2.824   4.940  0.9297  0.3817  1.2622
 6864SOL     OW32053   1.946   2.283   7.973  0.2125 -0.6785  0.2393
 6864SOL    HW132054   1.935   2.317   8.062  0.8357 -0.3343  0.1801
 6864SOL    HW232055   1.949   2.190   7.997 -0.5242 -1.1660 -1.6259
 6865SOL     OW32056   0.157   1.510   5.401 -0.1210 -0.4575 -0.5013
 6865SOL    HW132057   0.162   1.549   5.489 -0.7916 -0.3284 -0.5197
 6865SOL    HW232058   0.247   1.501   5.369 -0.2759  0.6731 -1.2675
 6866SOL     OW32059   4.469   1.395   9.929 -0.0745  0.3323 -0.2188
 6866SOL    HW132060   4.468   1.385  10.025 -0.5546  0.8778 -0.1716
 6866SOL    HW232061   4.400   1.335   9.901  0.1651 -0.2059  0.3435
 6867SOL     OW32062   1.638   3.789   8.982  0.1239  0.4855  0.1473
 6867SOL    HW132063   1.713   3.731   8.988  0.0877  0.1961 -2.0916
 6867SOL    HW232064   1.567   3.728   8.963  1.9738 -1.9300  1.0148
 6868SOL     OW32065   0.530   1.136  17.547  0.5259 -0.0234  0.5990
 6868SOL    HW132066   0.542   1.212  17.489  1.3141 -0.5891  0.0243
 6868SOL    HW232067   0.436   1.121  17.536  0.8659 -1.5945 -0.1156
 6869SOL     OW32068   2.781   4.562   5.233 -0.2495  0.1108 -0.4170
 6869SOL    HW132069   2.776   4.548   5.328  1.9750 -0.4317 -0.3922
 6869SOL    HW232070   2.858   4.513   5.204 -0.9153 -1.5036  0.5306
 6870SOL     OW32071   2.965   2.106   5.259  0.3119  0.1278  0.6498
 6870SOL    HW132072   3.028   2.044   5.295 -0.7881 -0.7903  0.9755
 6870SOL    HW232073   2.975   2.176   5.324 -1.2441  2.0264 -1.1772
 6871SOL     OW32074   4.401   2.174  16.256  0.0914  0.0421 -0.0254
 6871SOL    HW132075   4.329   2.138  16.204 -0.2442  0.7511 -0.0541
 6871SOL    HW232076   4.406   2.264  16.225 -1.1081  0.3407  0.6204
 6872SOL     OW32077   0.120   3.301  12.357  0.1760  0.5372 -0.1903
 6872SOL    HW132078   0.069   3.294  12.276 -1.3177 -1.4973  0.9281
 6872SOL    HW232079   0.117   3.395  12.374  0.2662  0.6524 -0.8149
 6873SOL     OW32080   1.211   2.863   9.557  0.8270 -0.2759 -0.9803
 6873SOL    HW132081   1.211   2.793   9.622 -1.4836 -1.5332 -2.3506
 6873SOL    HW232082   1.234   2.814   9.478 -1.5993  0.9842 -2.4645
 6874SOL     OW32083   0.974   3.570   7.001  0.2005  0.3019  0.1843
 6874SOL    HW132084   0.971   3.664   6.983  2.0317  0.6963  1.9559
 6874SOL    HW232085   1.019   3.574   7.085 -0.4605  0.1438  0.5420
 6875SOL     OW32086   4.012   2.393   3.976 -0.4083 -0.8186  0.5416
 6875SOL    HW132087   3.999   2.357   3.888  3.5127 -1.0512  0.0656
 6875SOL    HW232088   4.099   2.360   3.995 -0.1567  0.5355  1.6861
 6876SOL     OW32089   1.568   4.410  15.216 -0.2145  0.1900 -0.4026
 6876SOL    HW132090   1.596   4.472  15.148 -2.3046 -0.7638 -2.1439
 6876SOL    HW232091   1.523   4.471  15.275  1.6863 -0.8796  2.1512
 6877SOL     OW32092   2.243   1.374   0.026  0.0090 -0.5304  0.0151
 6877SOL    HW132093   2.316   1.323   0.061  0.5522  1.1987  1.3996
 6877SOL    HW232094   2.194   1.322  17.645 -2.0908  2.3371 -0.7227
 6878SOL     OW32095   3.336   0.482   9.220  0.1250 -0.8510 -0.6081
 6878SOL    HW132096   3.330   0.417   9.150  0.9314 -0.5475 -0.9577
 6878SOL    HW232097   3.427   0.511   9.209 -1.0965  2.8268 -0.8709
 6879SOL     OW32098   2.861   3.600   2.009 -0.6075  0.6771 -0.1936
 6879SOL    HW132099   2.886   3.562   2.093 -1.4613 -0.0602 -0.2676
 6879SOL    HW232100   2.767   3.582   2.006 -0.5287  0.3722 -0.9932
 6880SOL     OW32101   1.081   4.124  17.016 -0.5085  0.0608 -0.6104
 6880SOL    HW132102   1.159   4.133  17.070 -2.7250  2.1240  2.1984
 6880SOL    HW232103   1.105   4.054  16.954  2.2798 -1.4486  2.1996
 6881SOL     OW32104   3.440   1.950   1.534 -0.3391  0.3741 -0.2536
 6881SOL    HW132105   3.487   2.033   1.538 -0.2504  0.3345 -0.4489
 6881SOL    HW232106   3.446   1.935   1.440  2.5575 -0.8604  0.1150
 6882SOL     OW32107   2.004   2.780  10.673 -0.2473 -0.6846 -0.4919
 6882SOL    HW132108   1.976   2.761  10.584  0.7771  0.9468 -1.1699
 6882SOL    HW232109   1.925   2.811  10.717 -1.0842 -1.3191 -1.5811
 6883SOL     OW32110   4.453   0.160   8.046  0.0232  0.3612  0.1225
 6883SOL    HW132111   4.423   0.081   8.092  0.7070 -1.5336 -2.6492
 6883SOL    HW232112   4.476   0.206   8.126  3.9169  1.4958 -1.6330
 6884SOL     OW32113   3.598   1.578   0.521  0.3553  0.0166 -0.3279
 6884SOL    HW132114   3.633   1.615   0.440  1.0082  0.4949  0.1785
 6884SOL    HW232115   3.580   1.486   0.500 -0.1039 -0.1450  0.7736
 6885SOL     OW32116   0.421   3.034   3.635  0.1843 -0.8106  0.2631
 6885SOL    HW132117   0.340   3.083   3.617 -0.0590 -1.6893 -1.0235
 6885SOL    HW232118   0.422   3.051   3.729 -0.9348  0.3264  0.0831
 6886SOL     OW32119   1.612   1.944   8.569 -0.3030  0.6522 -0.5916
 6886SOL    HW132120   1.642   2.032   8.592  1.7395  0.1582 -1.3091
 6886SOL    HW232121   1.523   1.935   8.602  0.0874 -0.7837  0.0483
 6887SOL     OW32122   0.597   0.131   1.078  0.3092  0.1580  0.6073
 6887SOL    HW132123   0.628   0.088   0.998  0.1532  2.6780 -0.8102
 6887SOL    HW232124   0.630   0.220   1.064 -0.1472 -0.0042 -1.5380
 6888SOL     OW32125   3.039   0.853   9.414  0.1962 -0.2357  0.3696
 6888SOL    HW132126   3.117   0.826   9.366  0.1208  0.0440  0.0916
 6888SOL    HW232127   3.071   0.924   9.469  3.0406 -0.9287 -0.3835
 6889SOL     OW32128   4.571   3.373  14.169 -0.0190  0.1068  0.6065
 6889SOL    HW132129   4.632   3.303  14.145  1.8456  1.0434  2.5473
 6889SOL    HW232130   4.501   3.358  14.105 -1.0530 -0.0306  1.7864
 6890SOL     OW32131   4.195   0.055  10.517 -0.0551  0.0150  0.3662
 6890SOL    HW132132   4.263   4.708  10.528  0.8258  0.6932 -0.9984
 6890SOL    HW232133   4.225   0.087  10.432 -1.1223  1.0982  0.4060
 6891SOL     OW32134   0.149   0.769   8.020  0.1879 -0.3896  0.1928
 6891SOL    HW132135   0.121   0.680   8.042  0.3090 -0.6230 -0.5795
 6891SOL    HW232136   0.069   0.821   8.028 -0.4446 -1.5568  1.2756
 6892SOL     OW32137   0.989   2.235   5.540  0.2640  0.4503  0.1317
 6892SOL    HW132138   0.903   2.195   5.528 -0.1172  1.1296  0.5661
 6892SOL    HW232139   0.988   2.302   5.472 -1.9463  0.7005  0.4108
 6893SOL     OW32140   2.965   0.854   2.069 -0.1350 -0.4245  0.0057
 6893SOL    HW132141   2.985   0.868   1.977 -0.9118 -1.8757 -0.3815
 6893SOL    HW232142   3.020   0.779   2.094  0.2116 -0.0753  0.2779
 6894SOL     OW32143   1.230   1.512   9.121  0.6160  0.3384  0.6352
 6894SOL    HW132144   1.234   1.598   9.163  1.0911 -0.3912  2.0885
 6894SOL    HW232145   1.160   1.524   9.057 -0.8833  0.4800  2.2858
 6895SOL     OW32146   1.169   3.797   4.300  0.3847  0.3156  0.1410
 6895SOL    HW132147   1.216   3.847   4.233 -0.5897 -0.1900 -0.9118
 6895SOL    HW232148   1.200   3.851   4.372  2.1911 -0.7808  0.1785
 6896SOL     OW32149   3.149   3.110   5.592  0.1464  0.0278  0.0587
 6896SOL    HW132150   3.099   3.187   5.620  1.0343  0.8775 -0.7015
 6896SOL    HW232151   3.116   3.038   5.646  0.7176 -1.8616 -2.0650
 6897SOL     OW32152   4.286   0.028   3.074 -1.0816  0.1566  0.0914
 6897SOL    HW132153   4.238   0.110   3.080  0.1132  0.8083  0.6766
 6897SOL    HW232154   4.365   0.062   3.033 -1.1057  0.0008 -0.0895
 6898SOL     OW32155   3.144   4.104  17.219 -0.4612 -0.0323 -0.2086
 6898SOL    HW132156   3.175   4.080  17.306  2.5246 -0.7911 -1.4782
 6898SOL    HW232157   3.072   4.159  17.250  0.2417 -0.0484  1.4163
 6899SOL     OW32158   4.185   0.095   5.993 -0.2294 -0.7283  0.0335
 6899SOL    HW132159   4.280   0.108   5.994 -0.0605 -2.1974  1.8247
 6899SOL    HW232160   4.163   0.121   5.903 -0.7287 -0.8701  0.1125
 6900SOL     OW32161   4.245   0.302  16.862 -0.1278 -0.1180 -0.2452
 6900SOL    HW132162   4.335   0.332  16.853 -0.0682 -0.5191 -1.0251
 6900SOL    HW232163   4.245   0.248  16.941  0.0573 -2.4630 -1.8394
 6901SOL     OW32164   3.953   3.614   6.213  0.0984  0.2116 -0.8582
 6901SOL    HW132165   3.962   3.519   6.214 -0.3445  0.1992  0.8351
 6901SOL    HW232166   3.870   3.623   6.260 -0.3016  0.9569 -1.6936
 6902SOL     OW32167   0.094   0.475  16.790 -0.2290  0.1729  0.1453
 6902SOL    HW132168   0.019   0.525  16.822 -0.2476 -0.2784  0.8248
 6902SOL    HW232169   0.133   0.557  16.760  2.5837 -1.2069  0.0358
 6903SOL     OW32170   2.731   4.245   5.462  0.5179 -0.7428 -0.0634
 6903SOL    HW132171   2.811   4.246   5.515  1.5595  2.4848 -1.6432
 6903SOL    HW232172   2.722   4.339   5.445  0.2456 -0.6598  0.5663
 6904SOL     OW32173   4.112   1.520   7.519  0.5739  0.0309 -0.1247
 6904SOL    HW132174   4.048   1.584   7.549 -0.3216 -0.8063 -0.2504
 6904SOL    HW232175   4.071   1.482   7.441  4.0291 -1.0037 -1.4544
 6905SOL     OW32176   4.097   3.221   7.189 -0.7761  0.7437 -0.6709
 6905SOL    HW132177   4.020   3.193   7.239 -2.0504  0.6924 -2.6897
 6905SOL    HW232178   4.156   3.149   7.211 -0.1458  1.5544  0.3295
 6906SOL     OW32179   0.444   0.356   9.367  0.1703 -0.1816  0.0849
 6906SOL    HW132180   0.529   0.361   9.323 -0.0556  0.5805 -0.2590
 6906SOL    HW232181   0.440   0.437   9.417 -0.0790 -1.2735  1.8387
 6907SOL     OW32182   2.765   1.340   2.180  0.1536  0.1029  0.1771
 6907SOL    HW132183   2.812   1.306   2.256 -1.9882  2.3200  2.5036
 6907SOL    HW232184   2.771   1.268   2.118 -0.0073  1.1553 -1.0681
 6908SOL     OW32185   3.172   0.073   5.829  0.5453 -0.1109  1.0444
 6908SOL    HW132186   3.223   0.051   5.907  2.5349  0.7937 -0.0010
 6908SOL    HW232187   3.215   0.154   5.801  1.0558 -1.0423 -0.8671
 6909SOL     OW32188   2.145   3.078   1.318 -0.4179 -0.3422 -0.2576
 6909SOL    HW132189   2.193   3.091   1.400  1.8320  0.6408 -1.7084
 6909SOL    HW232190   2.068   3.026   1.341 -1.5306  0.9137 -1.1463
 6910SOL     OW32191   3.761   3.571   3.990  0.6688  0.2435  0.3065
 6910SOL    HW132192   3.793   3.485   3.964 -0.7873  0.8481 -3.5506
 6910SOL    HW232193   3.812   3.578   4.070 -2.8091  0.9972  2.4765
 6911SOL     OW32194   3.747   0.414   5.823 -0.5981  0.4312  0.3557
 6911SOL    HW132195   3.718   0.382   5.738  0.3865  0.7045 -0.0723
 6911SOL    HW232196   3.668   0.408   5.877 -0.3134 -1.3572  0.5730
 6912SOL     OW32197   2.314   2.394   3.924 -0.2831  0.2583  0.5048
 6912SOL    HW132198   2.254   2.378   3.851 -1.2784 -1.0852  1.6256
 6912SOL    HW232199   2.276   2.473   3.964 -3.1901  0.5147 -2.7601
 6913SOL     OW32200   1.136   0.393   8.124  0.1743 -0.2875  0.5364
 6913SOL    HW132201   1.186   0.351   8.194 -1.6668 -2.0547  0.8069
 6913SOL    HW232202   1.181   0.366   8.044  0.0772  1.1322 -0.0020
 6914SOL     OW32203   1.576   0.477   4.897 -0.1132  0.0670  0.0629
 6914SOL    HW132204   1.489   0.457   4.863  1.4383 -2.9998 -2.0445
 6914SOL    HW232205   1.612   0.532   4.828 -0.0614 -0.2101 -0.1284
 6915SOL     OW32206   0.325   2.306   2.769 -0.3142  0.1389 -0.3754
 6915SOL    HW132207   0.397   2.317   2.707  1.4135  0.9888  1.7787
 6915SOL    HW232208   0.290   2.393   2.789  0.5836  0.3645  0.2053
 6916SOL     OW32209   4.379   0.547   6.344  0.3730  0.1218  0.2515
 6916SOL    HW132210   4.319   0.479   6.314  0.0448  0.2523  0.6145
 6916SOL    HW232211   4.324   0.604   6.398  1.2763  0.3514  0.9412
 6917SOL     OW32212   2.674   1.671   3.000  0.0712  0.6122 -0.3427
 6917SOL    HW132213   2.639   1.596   2.950 -1.0008  0.3826  0.7617
 6917SOL    HW232214   2.647   1.749   2.952 -0.2944 -0.0458 -1.2202
 6918SOL     OW32215   4.345   1.482   1.081  0.2082  0.0555 -0.2462
 6918SOL    HW132216   4.383   1.561   1.041  0.2799  0.6982  1.1085
 6918SOL    HW232217   4.420   1.423   1.084  0.7014  0.6036 -1.6214
 6919SOL     OW32218   4.373   2.105   6.846  0.4102 -0.2687  0.7559
 6919SOL    HW132219   4.297   2.133   6.896  1.1680  0.1252  1.7070
 6919SOL    HW232220   4.350   2.097   6.754 -1.1040  1.1972  1.0229
 6920SOL     OW32221   3.431   3.768   2.561  0.0908 -0.1526  0.0944
 6920SOL    HW132222   3.416   3.841   2.500  2.3695 -1.1968 -1.7144
 6920SOL    HW232223   3.427   3.809   2.647 -1.1871  1.9537 -0.9586
 6921SOL     OW32224   3.744   0.300   8.046 -0.0078  0.2471  0.2226
 6921SOL    HW132225   3.673   0.346   8.002  2.5461  3.4613 -0.5522
 6921SOL    HW232226   3.747   0.355   8.124  0.1981 -1.6053  1.5195
 6922SOL     OW32227   0.357   0.299   6.601  0.0662 -0.0664  0.1092
 6922SOL    HW132228   0.319   0.288   6.687  1.0631 -0.1714  0.5402
 6922SOL    HW232229   0.280   0.303   6.544 -0.3452  0.8775  0.7533
 6923SOL     OW32230   0.027   0.110   7.730 -0.7324  0.1462  0.0722
 6923SOL    HW132231   4.707   0.049   7.793 -0.3916  0.6545  0.7785
 6923SOL    HW232232   0.038   0.185   7.788 -1.5021  0.5853 -0.3428
 6924SOL     OW32233   2.093   1.793   7.120  0.0566  0.2962  0.1894
 6924SOL    HW132234   2.070   1.793   7.028  3.2987  2.6938 -0.6124
 6924SOL    HW232235   2.181   1.756   7.115 -0.4771 -1.0797  0.9221
 6925SOL     OW32236   0.042   3.840   7.832 -0.3101 -0.3710  0.1294
 6925SOL    HW132237   4.679   3.842   7.879  0.2727  2.6802  1.0419
 6925SOL    HW232238   0.098   3.860   7.906 -1.6408  1.5275  0.6341
 6926SOL     OW32239   1.561   1.869   3.790  0.4436 -0.0665  0.3526
 6926SOL    HW132240   1.534   1.785   3.827  0.1700 -0.2307 -0.2252
 6926SOL    HW232241   1.507   1.926   3.845 -0.9289  0.4389 -1.5518
 6927SOL     OW32242   1.193   0.957   5.288  0.2604 -0.3141 -0.2622
 6927SOL    HW132243   1.251   0.907   5.231 -0.4737 -0.2604 -1.0638
 6927SOL    HW232244   1.210   1.042   5.247 -0.9399  0.5962  1.0989
 6928SOL     OW32245   2.532   2.920   2.658  0.4019  0.3663 -0.0806
 6928SOL    HW132246   2.531   2.950   2.567 -0.5286  0.1660 -0.1378
 6928SOL    HW232247   2.516   3.002   2.705  0.6952  0.2468  0.2235
 6929SOL     OW32248   0.819   4.010  14.213 -0.1018  0.5759  0.3308
 6929SOL    HW132249   0.729   3.980  14.214 -0.2854  1.0920 -0.5568
 6929SOL    HW232250   0.857   3.925  14.235 -1.7048 -0.2509 -0.0938
 6930SOL     OW32251   0.635   3.101  10.061  0.3458 -0.0475 -0.0706
 6930SOL    HW132252   0.703   3.053  10.107 -0.9344 -0.7384  1.0809
 6930SOL    HW232253   0.669   3.098   9.971  1.4128  0.1605  0.3328
 6931SOL     OW32254   2.685   4.054  15.183  0.2893 -0.3658 -0.5248
 6931SOL    HW132255   2.749   4.104  15.234 -1.6071  2.2582 -0.7153
 6931SOL    HW232256   2.695   4.087  15.094  1.2222 -2.3161 -1.1520
 6932SOL     OW32257   1.047   3.245  11.563  0.5642 -0.6116  0.2355
 6932SOL    HW132258   1.028   3.151  11.564 -0.4688 -0.3754  1.4747
 6932SOL    HW232259   1.137   3.241  11.596  0.3483 -0.8523  0.7993
 6933SOL     OW32260   2.220   0.451   5.605  0.3745  0.3785  0.3514
 6933SOL    HW132261   2.222   0.479   5.514  0.4916  2.1176  0.8800
 6933SOL    HW232262   2.199   0.534   5.649  2.3106  0.3046  1.4307
 6934SOL     OW32263   3.889   3.524   4.821  0.3462 -0.0306  0.3451
 6934SOL    HW132264   3.855   3.456   4.879  1.6589 -0.7033  0.3321
 6934SOL    HW232265   3.914   3.601   4.873  2.1311 -2.6728  3.4616
 6935SOL     OW32266   3.957   0.870   2.181 -0.7721 -0.0669  0.2229
 6935SOL    HW132267   3.941   0.964   2.173 -2.1081 -0.4201 -1.1595
 6935SOL    HW232268   4.050   0.872   2.205 -0.2341 -0.5432 -1.8631
 6936SOL     OW32269   3.739   0.029   2.687  0.6295  0.2366 -0.0791
 6936SOL    HW132270   3.672   4.711   2.629  1.1923 -1.5937  0.4860
 6936SOL    HW232271   3.820   4.708   2.660  1.0674  0.3289  1.0824
 6937SOL     OW32272   2.876   4.204   2.810 -0.7919 -0.5721 -0.2582
 6937SOL    HW132273   2.845   4.152   2.884 -1.4495  0.0782 -0.0746
 6937SOL    HW232274   2.970   4.193   2.824 -0.2570  1.0899 -2.6280
 6938SOL     OW32275   1.657   3.918  17.054  0.6028  0.6888  0.5547
 6938SOL    HW132276   1.690   4.002  17.086  1.2236  1.3632 -1.8587
 6938SOL    HW232277   1.636   3.942  16.963  1.1671  0.4194  0.3568
 6939SOL     OW32278   1.832   2.419   3.963  0.3474  0.1198  0.5489
 6939SOL    HW132279   1.789   2.357   3.905  1.2322  0.4122 -0.4105
 6939SOL    HW232280   1.901   2.437   3.900 -0.2316 -2.5169 -0.8083
 6940SOL     OW32281   2.410   4.380  15.003  0.3582 -0.2114 -0.1601
 6940SOL    HW132282   2.476   4.435  15.046 -0.4757  0.0474  0.8083
 6940SOL    HW232283   2.439   4.393  14.913 -1.2880  0.4738 -0.5824
 6941SOL     OW32284   0.836   0.321   4.735 -0.2824 -0.4262  0.5131
 6941SOL    HW132285   0.745   0.310   4.705  0.7575 -0.6199 -2.5839
 6941SOL    HW232286   0.861   0.400   4.687 -0.2545 -0.6127  0.2219
 6942SOL     OW32287   0.074   2.067   4.908 -0.2972  0.4727 -0.0083
 6942SOL    HW132288   0.136   2.028   4.969 -0.5714 -0.6642 -0.4493
 6942SOL    HW232289   4.712   2.058   4.956  0.2999  0.7737  1.0702
 6943SOL     OW32290   4.502   1.119   2.729 -0.0655  0.1492  0.1698
 6943SOL    HW132291   4.576   1.178   2.742 -1.4414  1.8959  0.0641
 6943SOL    HW232292   4.482   1.095   2.819 -1.2825 -1.2056 -0.4557
 6944SOL     OW32293   1.767   4.617   7.717 -0.1711 -0.0916  0.0184
 6944SOL    HW132294   1.770   4.627   7.812  0.5839  1.0613 -0.1316
 6944SOL    HW232295   1.809   4.696   7.685  0.5763 -1.2188 -1.8017
 6945SOL     OW32296   1.031   1.407   3.793 -0.3361 -0.2327 -0.1903
 6945SOL    HW132297   1.062   1.452   3.714 -1.2339  1.7768  0.5950
 6945SOL    HW232298   1.101   1.341   3.798 -1.5952 -1.5049  0.4270
 6946SOL     OW32299   0.964   4.291   7.832 -0.0209 -1.0172 -0.5824
 6946SOL    HW132300   1.034   4.288   7.767 -1.1623 -0.0180 -1.8449
 6946SOL    HW232301   0.890   4.256   7.782 -0.1331  1.4531 -2.1146
 6947SOL     OW32302   3.978   2.504   2.664  0.5380  0.6959  0.0055
 6947SOL    HW132303   4.004   2.459   2.584  1.1587 -0.1708  0.6868
 6947SOL    HW232304   4.032   2.583   2.663  0.8660  0.4573 -0.9603
 6948SOL     OW32305   3.137   1.295  14.518 -0.3748  0.3031  0.0732
 6948SOL    HW132306   3.125   1.303  14.423 -1.4838 -1.8909  0.0347
 6948SOL    HW232307   3.211   1.234  14.520 -1.8486 -1.5225 -1.0250
 6949SOL     OW32308   3.647   1.425  15.080  0.2880  0.0157 -0.2808
 6949SOL    HW132309   3.688   1.492  15.025 -0.9351 -0.1796 -1.4174
 6949SOL    HW232310   3.668   1.346  15.031 -0.9369  1.4606 -3.1484
 6950SOL     OW32311   2.840   1.369  16.392 -0.2114  0.4471 -0.2739
 6950SOL    HW132312   2.752   1.342  16.365 -0.6162  0.8423  0.6249
 6950SOL    HW232313   2.890   1.295  16.358 -0.3155  0.1124  0.2912
 6951SOL     OW32314   2.892   3.622  14.115  0.0605 -0.2218 -0.0033
 6951SOL    HW132315   2.812   3.654  14.157  0.2538 -0.1569  0.3175
 6951SOL    HW232316   2.943   3.700  14.137  0.6276 -0.6421  0.1873
 6952SOL     OW32317   2.103   2.302   5.642  0.3375 -0.5084 -0.0863
 6952SOL    HW132318   2.173   2.254   5.688  0.8955  0.6537  0.2684
 6952SOL    HW232319   2.081   2.245   5.568  2.0983 -1.5424  0.1777
 6953SOL     OW32320   0.932   3.647   1.398  0.3364  0.3071  0.3335
 6953SOL    HW132321   0.989   3.712   1.439 -0.6940  2.0068 -0.9341
 6953SOL    HW232322   0.979   3.619   1.320 -0.5392 -1.9028  0.5979
 6954SOL     OW32323   1.064   4.283   1.456  0.2031 -0.5907 -0.4538
 6954SOL    HW132324   1.006   4.302   1.382 -2.1614  0.8740  1.7664
 6954SOL    HW232325   1.003   4.230   1.508 -0.0961  2.0216  1.8888
 6955SOL     OW32326   1.646   4.532  14.980 -0.3156 -0.2716  0.1124
 6955SOL    HW132327   1.690   4.604  15.025 -0.9101 -0.5951  1.2312
 6955SOL    HW232328   1.611   4.568  14.899 -0.9487  2.3680  1.5357
 6956SOL     OW32329   2.687   3.016   0.578 -0.3810  0.9580 -0.4389
 6956SOL    HW132330   2.638   3.057   0.506 -1.2067  1.4755  0.4274
 6956SOL    HW232331   2.776   3.020   0.543 -0.2581 -2.7180 -0.5631
 6957SOL     OW32332   2.117   2.913   9.237 -0.2681 -0.4746  0.0255
 6957SOL    HW132333   2.168   2.895   9.316 -0.4588 -0.0564  0.2442
 6957SOL    HW232334   2.024   2.910   9.258 -0.5976  2.7141 -1.0573
 6958SOL     OW32335   3.303   2.562  16.889  0.5033  0.0944  0.5804
 6958SOL    HW132336   3.299   2.627  16.960  0.0368 -0.2490  0.8698
 6958SOL    HW232337   3.349   2.492  16.936  0.7429  0.5230  0.9879
 6959SOL     OW32338   0.285   3.208   5.222  0.9331 -1.1697  0.2311
 6959SOL    HW132339   0.297   3.161   5.305 -1.2719 -1.4991  0.3571
 6959SOL    HW232340   0.191   3.212   5.207  1.0535 -0.4991 -0.3308
 6960SOL     OW32341   1.962   0.194   0.696 -0.3764 -0.3503 -0.0554
 6960SOL    HW132342   1.971   0.226   0.785  0.5436  3.2030 -1.4349
 6960SOL    HW232343   2.004   0.109   0.710  0.5437  0.5519  2.7528
 6961SOL     OW32344   2.931   2.680   4.502  0.6328  0.1610 -0.6043
 6961SOL    HW132345   2.891   2.667   4.416 -1.8751  0.3763  0.5330
 6961SOL    HW232346   3.023   2.659   4.482 -0.0148 -0.4927 -2.8691
 6962SOL     OW32347   3.018   1.868  14.297 -0.7306 -0.4009 -0.3573
 6962SOL    HW132348   2.996   1.943  14.240 -1.0701 -0.7491 -0.6849
 6962SOL    HW232349   2.942   1.848  14.351  0.3536  0.8600  1.6186
 6963SOL     OW32350   1.600   2.749   0.279  0.0449 -0.2171  0.5319
 6963SOL    HW132351   1.682   2.769   0.234 -0.8132  2.0459  0.0205
 6963SOL    HW232352   1.602   2.653   0.279  1.6468 -0.1824 -1.5489
 6964SOL     OW32353   1.823   3.955  14.153  0.8263  0.2852 -0.3408
 6964SOL    HW132354   1.739   3.939  14.197  0.1013  0.2983 -1.7138
 6964SOL    HW232355   1.880   3.975  14.227  1.4050  0.5401 -0.8599
 6965SOL     OW32356   3.758   0.626  17.006  0.0180 -0.3482  0.3567
 6965SOL    HW132357   3.842   0.583  16.989  0.6827  0.3255  1.9003
 6965SOL    HW232358   3.708   0.557  17.050  1.4829 -0.8662  1.1878
 6966SOL     OW32359   3.714   1.646   1.651  0.2714  0.8444 -0.4582
 6966SOL    HW132360   3.654   1.661   1.724 -0.3199  1.4078 -1.0626
 6966SOL    HW232361   3.720   1.735   1.616 -1.3526  0.8462 -0.7335
 6967SOL     OW32362   4.594   3.135   1.277  0.0463 -0.1288  0.1538
 6967SOL    HW132363   4.541   3.170   1.348  1.4906  0.6439  0.8645
 6967SOL    HW232364   4.525   3.109   1.216 -0.3296 -0.4309  0.7111
 6968SOL     OW32365   0.030   1.065   5.056 -0.1528  0.4620 -0.1299
 6968SOL    HW132366   0.116   1.028   5.077  0.9185  2.5571 -0.7566
 6968SOL    HW232367   0.026   1.122   5.133  0.0014  0.0286  0.1983
 6969SOL     OW32368   0.128   2.006   4.129  0.0980 -0.0343 -0.2644
 6969SOL    HW132369   0.202   1.951   4.154  0.9480  0.9052 -0.6931
 6969SOL    HW232370   0.168   2.093   4.134  0.8686 -0.4026 -0.0461
 6970SOL     OW32371   0.902   2.537   5.395  0.1696  0.6275 -0.4212
 6970SOL    HW132372   0.863   2.613   5.351 -0.4321  0.9554  0.6856
 6970SOL    HW232373   0.968   2.578   5.451  0.8557 -0.2627 -0.5732
 6971SOL     OW32374   1.592   0.784  11.570 -0.0359  0.0629 -0.4514
 6971SOL    HW132375   1.527   0.752  11.507 -3.3447  1.8571  2.0677
 6971SOL    HW232376   1.609   0.865  11.522 -1.3885  0.4518 -0.2756
 6972SOL     OW32377   3.766   0.842  10.276 -0.4392  0.1784  0.5627
 6972SOL    HW132378   3.751   0.930  10.240 -1.9321 -0.5856 -0.6378
 6972SOL    HW232379   3.771   0.866  10.369 -0.3431 -0.3348  0.6890
 6973SOL     OW32380   4.325   1.583   4.655  0.2909  0.1503  0.0234
 6973SOL    HW132381   4.406   1.535   4.671  0.4335  0.1666 -0.6622
 6973SOL    HW232382   4.347   1.621   4.570 -0.3120  1.3748  0.4020
 6974SOL     OW32383   4.196   1.449  14.565  0.3828  0.0313  0.1113
 6974SOL    HW132384   4.137   1.505  14.514 -1.9258 -1.3424  1.2853
 6974SOL    HW232385   4.248   1.518  14.607 -0.4817  0.0547  1.1383
 6975SOL     OW32386   0.508   4.352   4.479  0.7735  0.1644 -0.1642
 6975SOL    HW132387   0.428   4.302   4.490  0.6010  0.5009  0.1167
 6975SOL    HW232388   0.565   4.309   4.543 -1.1573 -2.6075 -0.3420
 6976SOL     OW32389   1.644   3.040  10.974 -0.1924 -0.2442  0.2445
 6976SOL    HW132390   1.671   2.951  10.999  2.8686  0.9056  1.0891
 6976SOL    HW232391   1.708   3.083  11.031 -0.0867  0.6404 -0.5520
 6977SOL     OW32392   1.257   2.229   5.637  0.0576  0.1877  0.8328
 6977SOL    HW132393   1.176   2.219   5.587  1.3838 -2.5559 -0.7717
 6977SOL    HW232394   1.221   2.247   5.724 -2.6949  0.8053 -0.4107
 6978SOL     OW32395   0.886   2.913   4.160 -0.1978  0.0261 -0.2346
 6978SOL    HW132396   0.820   2.959   4.211 -0.1165 -0.4794  0.3287
 6978SOL    HW232397   0.871   2.832   4.209 -1.0808  1.1656  1.3517
 6979SOL     OW32398   2.126   0.770   3.965  0.0595 -0.1601 -0.1761
 6979SOL    HW132399   2.219   0.764   3.942  0.2611  0.8816  0.3713
 6979SOL    HW232400   2.086   0.705   3.907 -0.9714 -0.1444  0.5089
 6980SOL     OW32401   4.515   2.127   3.069  0.1069  0.7235  0.0738
 6980SOL    HW132402   4.510   2.036   3.041  2.6076  1.0801 -1.5073
 6980SOL    HW232403   4.605   2.116   3.102 -1.4411 -0.1024  3.9939
 6981SOL     OW32404   2.288   0.844   4.262 -0.0198  0.2248  0.2857
 6981SOL    HW132405   2.296   0.819   4.354  2.0066  0.4153  0.1618
 6981SOL    HW232406   2.194   0.861   4.257 -0.0836 -1.2920 -3.0829
 6982SOL     OW32407   1.902   3.265   3.318 -0.0432 -0.1144  0.3465
 6982SOL    HW132408   1.906   3.283   3.412 -0.6935  0.8442  0.1884
 6982SOL    HW232409   1.847   3.335   3.284 -1.0199 -0.4027  1.3386
 6983SOL     OW32410   1.142   1.568  17.413  0.0779  0.3700 -0.0443
 6983SOL    HW132411   1.092   1.577  17.331  0.9855  0.6418 -0.5747
 6983SOL    HW232412   1.133   1.479  17.445  0.6783  0.9270  1.6408
 6984SOL     OW32413   3.374   0.937   5.128  0.3586 -0.2330  0.0502
 6984SOL    HW132414   3.392   0.886   5.207  0.2003  2.1913  1.6498
 6984SOL    HW232415   3.453   0.910   5.082  0.9348  1.6888 -0.0847
 6985SOL     OW32416   1.257   0.826  15.221  0.5231  0.5513  0.3235
 6985SOL    HW132417   1.162   0.831  15.213  0.9122  0.9556 -3.9253
 6985SOL    HW232418   1.256   0.732  15.204 -0.4421  0.5019  0.6592
 6986SOL     OW32419   0.790   1.291   3.780  0.1930 -0.3711  0.2274
 6986SOL    HW132420   0.873   1.331   3.807  0.5851 -0.4697 -0.8217
 6986SOL    HW232421   0.796   1.305   3.686 -0.6188  1.7526  0.4910
 6987SOL     OW32422   4.559   0.383   4.574  0.0099 -0.4547 -0.1961
 6987SOL    HW132423   4.543   0.291   4.595 -2.1215  0.2864  1.4281
 6987SOL    HW232424   4.628   0.374   4.508 -1.1535 -3.6310 -1.0073
 6988SOL     OW32425   2.862   3.541  10.932 -0.2061 -0.4384 -0.4444
 6988SOL    HW132426   2.910   3.468  10.970 -1.0053 -2.5824 -3.5629
 6988SOL    HW232427   2.923   3.589  10.876 -0.1993  0.4702  0.3384
 6989SOL     OW32428   0.181   4.680   8.228  0.0474 -0.1229  0.2550
 6989SOL    HW132429   0.239   0.004   8.290  0.1039  1.0596 -0.6397
 6989SOL    HW232430   0.143   0.038   8.189  0.1585  0.2976  0.9981
 6990SOL     OW32431   4.557   1.134   2.137  0.7383  0.3133  0.7585
 6990SOL    HW132432   4.463   1.124   2.148  0.7512 -0.6556  0.0126
 6990SOL    HW232433   4.579   1.169   2.224  3.8666  1.7377 -0.6000
 6991SOL     OW32434   3.624   4.438   1.422 -0.5605  0.0073 -0.1251
 6991SOL    HW132435   3.698   4.392   1.460 -2.2239 -1.6346  1.1235
 6991SOL    HW232436   3.556   4.392   1.472 -1.8055 -0.5739 -2.3815
 6992SOL     OW32437   0.794   2.556   8.428  0.4945  0.0132  0.5668
 6992SOL    HW132438   0.856   2.620   8.464  0.4978 -0.3671  1.2398
 6992SOL    HW232439   0.739   2.614   8.375  1.8857  1.3244  0.5567
 6993SOL     OW32440   0.634   4.279   5.753 -0.0847 -0.0752 -0.6633
 6993SOL    HW132441   0.624   4.279   5.848  4.7496  0.7150 -0.1904
 6993SOL    HW232442   0.543   4.291   5.727  0.0170  2.9925  0.4650
 6994SOL     OW32443   3.453   3.586   5.707 -0.1855 -0.3911  0.1693
 6994SOL    HW132444   3.475   3.676   5.734 -0.8427 -0.3071  0.4262
 6994SOL    HW232445   3.540   3.553   5.685  0.3366  0.5702  0.7337
 6995SOL     OW32446   4.041   4.050  12.482 -0.2963  0.2078 -0.8860
 6995SOL    HW132447   3.984   3.973  12.483 -0.6649  0.4973  0.5084
 6995SOL    HW232448   3.990   4.104  12.421 -1.1515 -2.4987 -2.5638
 6996SOL     OW32449   4.472   2.869  10.480  0.2518  0.3597 -0.3894
 6996SOL    HW132450   4.437   2.927  10.547 -0.8973  0.6193 -1.2217
 6996SOL    HW232451   4.427   2.898  10.401 -0.2361  0.0338 -0.2310
 6997SOL     OW32452   0.703   4.229  17.610 -0.2305  0.1932 -0.0260
 6997SOL    HW132453   0.756   4.296  17.567  0.3568  0.6452  1.4272
 6997SOL    HW232454   0.680   4.174  17.535 -0.2197 -3.1490  2.4478
 6998SOL     OW32455   3.369   3.060   8.955  0.0511 -0.0185 -0.2032
 6998SOL    HW132456   3.348   2.967   8.950 -0.0824  0.0554 -0.9239
 6998SOL    HW232457   3.464   3.062   8.965 -0.2366  0.6664  2.6382
 6999SOL     OW32458   1.558   2.725   3.585  0.6474 -0.4122 -0.2162
 6999SOL    HW132459   1.508   2.799   3.619  0.0019 -2.1081  2.5760
 6999SOL    HW232460   1.608   2.766   3.515  1.1645  2.2499  1.7148
 7000SOL     OW32461   2.466   3.773   7.593 -0.2895  0.0897 -0.2366
 7000SOL    HW132462   2.423   3.851   7.628 -1.5828 -0.3374 -0.8922
 7000SOL    HW232463   2.490   3.805   7.506  0.1402 -0.3685 -0.2838
 7001SOL     OW32464   2.344   1.877   2.185 -0.0630  0.3188 -0.1460
 7001SOL    HW132465   2.382   1.802   2.139 -0.2192  0.9661 -1.3204
 7001SOL    HW232466   2.291   1.920   2.118 -0.8787  1.6844  1.3800
 7002SOL     OW32467   3.678   0.100  15.627  0.0181 -0.3589  0.2177
 7002SOL    HW132468   3.763   0.056  15.632  1.0127  1.7181  1.5646
 7002SOL    HW232469   3.670   0.100  15.532 -2.4667 -1.1706  0.4321
 7003SOL     OW32470   1.849   0.388   3.008  0.6152 -0.0397  0.2538
 7003SOL    HW132471   1.902   0.381   2.929  1.7402 -2.1536  1.2188
 7003SOL    HW232472   1.910   0.440   3.060  0.2912 -0.3781  0.9666
 7004SOL     OW32473   4.590   1.290   1.072 -0.0857  0.3008  0.1428
 7004SOL    HW132474   4.593   1.284   0.977  1.0547 -3.7559  0.4609
 7004SOL    HW232475   4.683   1.270   1.082 -0.4439 -2.7089 -2.7948
 7005SOL     OW32476   0.013   0.172   8.515  0.2932 -0.7430 -0.0829
 7005SOL    HW132477   0.028   0.265   8.532 -1.5416  0.0981 -3.0235
 7005SOL    HW232478   0.007   0.134   8.602 -1.5553  0.5038  0.3206
 7006SOL     OW32479   1.786   2.583   3.023  0.2645  0.3806 -0.0985
 7006SOL    HW132480   1.713   2.645   3.021  0.2829  0.4527  1.8824
 7006SOL    HW232481   1.863   2.639   3.015 -0.6245  1.6979  0.4587
 7007SOL     OW32482   4.026   1.769   4.570  0.0200 -0.4543 -0.3623
 7007SOL    HW132483   3.993   1.681   4.552  0.5564 -0.5867 -0.6938
 7007SOL    HW232484   3.953   1.826   4.545  0.7495  0.7460  0.2163
 7008SOL     OW32485   1.746   0.625  10.686  0.0851 -0.3352 -0.0122
 7008SOL    HW132486   1.660   0.655  10.716  1.3069  1.5225  1.5791
 7008SOL    HW232487   1.741   0.534  10.716  2.2801 -1.0518 -1.8419
 7009SOL     OW32488   1.128   3.604   5.258  0.0108 -0.7999  0.1704
 7009SOL    HW132489   1.145   3.512   5.278  0.6333 -0.5137  0.9608
 7009SOL    HW232490   1.160   3.609   5.168  0.8667 -0.4212  0.4916
 7010SOL     OW32491   4.540   3.587   6.586  0.0898 -0.2717  0.4483
 7010SOL    HW132492   4.598   3.595   6.510 -0.5026 -0.0589  0.0169
 7010SOL    HW232493   4.522   3.493   6.590  2.4115 -0.6765  1.1872
 7011SOL     OW32494   3.540   4.222   6.289  0.2541  0.5036  0.1187
 7011SOL    HW132495   3.579   4.198   6.373 -0.3644 -2.2283 -0.3642
 7011SOL    HW232496   3.594   4.296   6.262 -0.4908  0.0519 -2.5808
 7012SOL     OW32497   0.445   4.649  16.965  0.1567 -0.4065  0.5896
 7012SOL    HW132498   0.527   4.610  16.997  0.2132 -0.8894 -0.1199
 7012SOL    HW232499   0.378   4.595  17.007 -1.2152 -0.8240 -2.1370
 7013SOL     OW32500   3.775   0.971  12.258 -0.5358 -0.3340 -0.4783
 7013SOL    HW132501   3.768   1.005  12.169  2.9042  2.9861  0.5164
 7013SOL    HW232502   3.730   1.037  12.311 -0.8062 -0.5778 -0.4039
 7014SOL     OW32503   1.860   3.533  16.710 -0.6861  0.3989  0.3492
 7014SOL    HW132504   1.817   3.596  16.768 -0.8911  1.5958 -1.0974
 7014SOL    HW232505   1.900   3.594  16.648  1.1307  0.3856  1.4934
 7015SOL     OW32506   0.168   3.175  11.910 -0.0836  0.7443 -0.3556
 7015SOL    HW132507   0.105   3.213  11.971  0.5265  1.9653 -0.4677
 7015SOL    HW232508   0.102   3.134  11.854 -0.3535 -1.2193  1.4036
 7016SOL     OW32509   3.220   0.440   3.109 -0.0116  0.5345  0.0878
 7016SOL    HW132510   3.249   0.422   3.020  0.3371  1.8953 -0.0749
 7016SOL    HW232511   3.158   0.368   3.123  0.8757 -0.3992 -0.8518
 7017SOL     OW32512   1.040   2.132   6.740  0.4035  0.8732  0.1129
 7017SOL    HW132513   1.021   2.038   6.736 -0.9869  1.0985  1.3772
 7017SOL    HW232514   0.956   2.161   6.776  0.4450  0.9189  0.1715
 7018SOL     OW32515   2.410   4.635   0.598  0.2209 -0.0928 -0.6581
 7018SOL    HW132516   2.420   4.591   0.683 -0.4501  0.7913 -0.1271
 7018SOL    HW232517   2.400   0.005   0.626 -1.3071 -1.0169  1.7599
 7019SOL     OW32518   3.722   4.416   6.207  0.5421  0.0996 -0.2300
 7019SOL    HW132519   3.776   4.486   6.170 -0.1805  1.9776  2.2511
 7019SOL    HW232520   3.778   4.413   6.284  2.3461  0.6292 -1.5065
 7020SOL     OW32521   0.906   4.281  10.546  0.2288 -0.0516 -0.7775
 7020SOL    HW132522   0.886   4.207  10.488  1.8995 -1.2343  0.1408
 7020SOL    HW232523   0.969   4.331  10.494  0.8625  2.1172  2.0568
 7021SOL     OW32524   3.884   1.602   7.881 -0.3039 -0.3798  0.1354
 7021SOL    HW132525   3.797   1.628   7.913  0.2112  0.7591  0.5821
 7021SOL    HW232526   3.937   1.664   7.930 -0.6810 -1.1641  1.5649
 7022SOL     OW32527   2.541   1.400  12.771  0.1113  0.6930 -0.1051
 7022SOL    HW132528   2.625   1.408  12.816  0.8007 -2.0236 -0.8743
 7022SOL    HW232529   2.552   1.316  12.725  2.8314  0.2941  1.2518
 7023SOL     OW32530   2.417   1.827  13.388 -0.0120  0.1077 -0.2742
 7023SOL    HW132531   2.367   1.747  13.371  1.8608 -0.7695 -1.5974
 7023SOL    HW232532   2.370   1.849  13.468 -2.4314 -1.2417 -1.3003
 7024SOL     OW32533   0.812   4.046   6.483 -0.2401 -0.0445 -0.0612
 7024SOL    HW132534   0.749   4.078   6.417  0.6981 -0.5862 -1.2213
 7024SOL    HW232535   0.848   3.970   6.437 -2.8068 -1.5438  0.3913
 7025SOL     OW32536   1.240   4.266   1.937 -0.2698 -0.3188 -0.2095
 7025SOL    HW132537   1.259   4.300   1.850 -1.7553  0.1179 -0.3737
 7025SOL    HW232538   1.215   4.174   1.924  0.8323 -0.6849  0.3157
 7026SOL     OW32539   0.197   2.805   6.379 -0.0856 -0.4717 -0.0863
 7026SOL    HW132540   0.166   2.864   6.310 -2.2481 -2.8950 -1.2123
 7026SOL    HW232541   0.120   2.748   6.384 -0.7845  0.4721  0.1200
 7027SOL     OW32542   0.631   2.566   1.250 -0.5612  0.0833 -0.1717
 7027SOL    HW132543   0.637   2.473   1.271  0.7461  0.5434  1.5091
 7027SOL    HW232544   0.549   2.587   1.293  0.8896  2.0976  1.6040
 7028SOL     OW32545   3.903   0.536   7.011  0.3490  0.1713  0.9705
 7028SOL    HW132546   3.896   0.455   6.959  1.0228  0.2169  0.8006
 7028SOL    HW232547   3.995   0.535   7.039  0.5202  0.4308  0.4231
 7029SOL     OW32548   0.188   0.773   9.185 -0.4549 -0.2396  0.1556
 7029SOL    HW132549   0.159   0.682   9.180 -0.9387 -0.0714 -0.0512
 7029SOL    HW232550   0.283   0.756   9.190 -0.8858 -1.9499  2.3562
 7030SOL     OW32551   2.705   3.524   7.191 -0.0713  0.3490  0.3624
 7030SOL    HW132552   2.789   3.555   7.225 -0.5749  3.0811 -0.8394
 7030SOL    HW232553   2.710   3.566   7.105 -1.1597 -2.2306 -0.9712
 7031SOL     OW32554   1.648   1.169  10.898  0.1275 -0.3920 -0.1297
 7031SOL    HW132555   1.641   1.223  10.977 -1.0804  0.0374 -0.5274
 7031SOL    HW232556   1.640   1.080  10.932 -0.9467 -0.1152  0.3437
 7032SOL     OW32557   1.570   0.878   6.408 -0.3905  0.2913  0.2886
 7032SOL    HW132558   1.597   0.944   6.472  2.2853  0.2175 -0.7453
 7032SOL    HW232559   1.516   0.829   6.470 -1.6669 -0.5675 -1.5079
 7033SOL     OW32560   0.873   1.623  10.182 -0.1558  0.6992  0.6690
 7033SOL    HW132561   0.793   1.620  10.129  1.5031  4.0351 -1.9975
 7033SOL    HW232562   0.884   1.529  10.200  0.4512  0.6346 -0.0088
 7034SOL     OW32563   1.803   0.578   5.284  0.2092 -0.0478  0.3007
 7034SOL    HW132564   1.758   0.519   5.225  0.8979  1.0500 -1.3131
 7034SOL    HW232565   1.774   0.545   5.369  1.0621 -1.4573  0.0520
 7035SOL     OW32566   0.160   1.632   5.678  0.9723  0.6722  0.2166
 7035SOL    HW132567   0.232   1.658   5.735  1.9588 -1.6483  0.0276
 7035SOL    HW232568   0.120   1.569   5.738  0.8477  0.7419  0.2067
 7036SOL     OW32569   3.388   1.223   0.265  0.4410  0.4291 -0.1620
 7036SOL    HW132570   3.318   1.171   0.226  0.6876  0.3330 -0.4693
 7036SOL    HW232571   3.416   1.283   0.196  1.4895  2.0444  1.6682
 7037SOL     OW32572   0.570   0.074   4.247  0.6698  0.6436  0.6062
 7037SOL    HW132573   0.621   0.060   4.168 -3.6978 -1.0653 -1.8476
 7037SOL    HW232574   0.489   0.025   4.234  0.2343  0.5467  3.5175
 7038SOL     OW32575   2.280   2.390   9.225  0.5697 -0.1278  0.1429
 7038SOL    HW132576   2.259   2.413   9.134 -0.6391 -1.5779  0.0554
 7038SOL    HW232577   2.197   2.344   9.239 -0.8822  2.7563  0.9262
 7039SOL     OW32578   2.124   4.488  11.201  0.4881 -0.0069  0.8009
 7039SOL    HW132579   2.130   4.570  11.248  3.9817  1.0756 -1.5127
 7039SOL    HW232580   2.156   4.423  11.264  2.4754  0.9388  0.7778
 7040SOL     OW32581   1.983   0.300   5.640  0.5065  0.0949  0.3868
 7040SOL    HW132582   1.933   0.339   5.712  2.0553  0.1453  1.4440
 7040SOL    HW232583   2.067   0.345   5.637  0.7757 -0.2873  2.2123
 7041SOL     OW32584   1.924   0.437  16.328 -0.9149  0.1175 -0.3506
 7041SOL    HW132585   1.960   0.477  16.249  2.1824  1.1005  1.5581
 7041SOL    HW232586   1.970   0.354  16.311 -0.2328  0.6623 -1.1471
 7042SOL     OW32587   4.367   1.055   4.887 -0.1506  0.5848 -0.0965
 7042SOL    HW132588   4.305   1.125   4.869  1.2744  1.8648 -0.0032
 7042SOL    HW232589   4.365   1.056   4.983 -1.6953 -1.3319 -0.1117
 7043SOL     OW32590   2.959   2.722   5.398  0.2548  0.5264  0.0108
 7043SOL    HW132591   2.919   2.679   5.474  1.3994 -1.4873 -0.5217
 7043SOL    HW232592   2.923   2.662   5.333 -0.3511  0.3398  0.5142
 7044SOL     OW32593   2.565   3.093   3.844  0.0331 -0.1973 -0.4107
 7044SOL    HW132594   2.472   3.096   3.822 -0.5280 -2.4532  1.6942
 7044SOL    HW232595   2.591   3.159   3.780  1.0046  1.8011  2.0729
 7045SOL     OW32596   1.403   2.784   2.795  0.0706 -0.9218 -0.1462
 7045SOL    HW132597   1.451   2.791   2.713 -0.5261 -1.6710 -0.5572
 7045SOL    HW232598   1.313   2.813   2.777  0.1784  0.1302  0.9686
 7046SOL     OW32599   2.208   1.389   7.189 -0.0075  0.4603  0.2245
 7046SOL    HW132600   2.285   1.419   7.238 -0.5044  1.8898  0.1537
 7046SOL    HW232601   2.140   1.428   7.245 -0.7193  0.6963 -0.7923
 7047SOL     OW32602   4.262   1.361   3.827 -0.1116  0.2140  0.6901
 7047SOL    HW132603   4.255   1.375   3.921 -0.8416  0.9303  0.5259
 7047SOL    HW232604   4.345   1.312   3.828 -0.9273 -1.1646  0.2241
 7048SOL     OW32605   4.441   0.797   1.225  0.2012  0.5582  0.1377
 7048SOL    HW132606   4.498   0.777   1.299  0.6147 -2.4279 -1.0133
 7048SOL    HW232607   4.492   0.866   1.185 -1.2506  0.7910 -1.3101
 7049SOL     OW32608   1.628   1.036   8.554 -0.0891  0.1534 -0.5751
 7049SOL    HW132609   1.609   1.073   8.640 -1.6652 -1.3758 -0.2633
 7049SOL    HW232610   1.637   0.943   8.571 -0.6539  0.2719  0.3973
 7050SOL     OW32611   0.067   2.486   9.597  0.1230 -0.3754 -0.0691
 7050SOL    HW132612   0.154   2.447   9.593  0.1446 -0.2051 -1.4664
 7050SOL    HW232613   0.010   2.409   9.599 -1.2645  0.5985 -1.3184
 7051SOL     OW32614   2.001   2.421  16.536  0.3013  0.0060  0.3530
 7051SOL    HW132615   2.077   2.363  16.528  1.0255  1.1763 -1.3234
 7051SOL    HW232616   1.949   2.388  16.463 -1.2818 -0.2013  1.5850
 7052SOL     OW32617   1.926   3.557  11.190  0.5859 -0.1058  0.3724
 7052SOL    HW132618   1.973   3.479  11.160  0.6595  0.3983 -0.8654
 7052SOL    HW232619   1.992   3.589  11.251 -0.6829  0.0521  1.6524
 7053SOL     OW32620   1.757   1.250   5.076 -0.1002  0.0877 -0.6557
 7053SOL    HW132621   1.842   1.290   5.057 -0.8231  1.7725 -0.3154
 7053SOL    HW232622   1.706   1.310   5.022 -1.8536 -0.0413  0.8516
 7054SOL     OW32623   2.657   2.805   9.288  0.0164 -0.1352  0.2377
 7054SOL    HW132624   2.708   2.870   9.240 -1.1303  1.2377  0.8668
 7054SOL    HW232625   2.704   2.722   9.280 -1.4800 -0.8875 -0.8871
 7055SOL     OW32626   3.223   0.775  12.771  0.0451  0.2475  0.0041
 7055SOL    HW132627   3.235   0.754  12.864 -0.4070 -1.2196 -0.2627
 7055SOL    HW232628   3.130   0.754  12.760 -0.0811  0.8683 -0.1243
 7056SOL     OW32629   2.629   1.262   8.046  0.4642  0.4407 -0.0210
 7056SOL    HW132630   2.643   1.178   8.002  1.0509  0.4942  0.0655
 7056SOL    HW232631   2.582   1.315   7.981 -0.9950  2.8511  2.9882
 7057SOL     OW32632   1.017   0.368   3.850 -0.1459 -0.9050  0.0598
 7057SOL    HW132633   1.024   0.302   3.919 -0.7605  0.4094  1.3844
 7057SOL    HW232634   1.090   0.332   3.799 -0.7009 -0.7665 -0.8317
 7058SOL     OW32635   0.609   0.681   7.925 -0.4338  0.6178 -0.2102
 7058SOL    HW132636   0.534   0.627   7.899 -0.9896  0.6581  1.3142
 7058SOL    HW232637   0.569   0.767   7.916 -1.1475  0.4119  1.0582
 7059SOL     OW32638   1.486   4.039   7.265  0.3311  0.7804  0.1539
 7059SOL    HW132639   1.457   4.020   7.354  1.4645 -1.9119 -0.0355
 7059SOL    HW232640   1.512   3.949   7.242 -0.0781  0.7566 -0.2072
 7060SOL     OW32641   4.512   2.694   9.618 -0.5848 -0.0449  0.1364
 7060SOL    HW132642   4.480   2.766   9.672 -0.7843 -0.4341  0.5424
 7060SOL    HW232643   4.468   2.620   9.660 -0.6599 -1.0033 -1.6221
 7061SOL     OW32644   1.620   0.434  12.107 -0.1156  0.0566 -0.5233
 7061SOL    HW132645   1.605   0.435  12.201  0.7885 -0.0820 -0.3771
 7061SOL    HW232646   1.626   0.339  12.097  0.6240 -0.0809  1.2986
 7062SOL     OW32647   1.053   2.966   7.972  0.0795 -0.1057  0.2798
 7062SOL    HW132648   1.134   2.993   8.014 -0.1112 -0.0298  0.5981
 7062SOL    HW232649   1.076   2.954   7.880 -0.3754 -0.7325  0.2516
 7063SOL     OW32650   4.244   4.456   4.639 -0.3471 -0.2644  0.3362
 7063SOL    HW132651   4.237   4.368   4.678 -1.6101 -0.8790 -1.2631
 7063SOL    HW232652   4.337   4.459   4.618 -0.1055 -1.7571  1.1571
 7064SOL     OW32653   1.327   2.650   3.408  0.7703 -0.1269 -0.4472
 7064SOL    HW132654   1.386   2.666   3.482 -0.4535  0.5180  0.3930
 7064SOL    HW232655   1.381   2.663   3.330  1.6676 -0.7505  0.0734
 7065SOL     OW32656   3.766   1.217  16.059 -0.3553 -0.7019  0.4311
 7065SOL    HW132657   3.684   1.262  16.081 -0.2581 -0.2547 -0.1179
 7065SOL    HW232658   3.785   1.268  15.980 -0.3060 -1.7213 -0.2094
 7066SOL     OW32659   3.145   1.057  10.473 -0.7415 -0.4896 -0.2715
 7066SOL    HW132660   3.228   1.010  10.477 -0.8557 -0.7758 -1.3588
 7066SOL    HW232661   3.109   1.015  10.395  0.8548  0.0880 -1.3184
 7067SOL     OW32662   4.528   3.903  11.719 -0.2802 -0.1969 -0.7338
 7067SOL    HW132663   4.567   3.838  11.661  1.0591 -0.1203  0.0733
 7067SOL    HW232664   4.438   3.873  11.734  0.2532 -0.7506  1.4423
 7068SOL     OW32665   3.287   0.223   7.269 -0.1932  0.2267 -0.2290
 7068SOL    HW132666   3.309   0.205   7.177 -1.3445  1.4462 -0.7400
 7068SOL    HW232667   3.195   0.199   7.277 -0.0276 -0.2506  0.2619
 7069SOL     OW32668   4.377   0.757   0.210  0.3961  0.0445 -0.6078
 7069SOL    HW132669   4.316   0.760   0.136  0.2677 -0.6287 -0.5300
 7069SOL    HW232670   4.321   0.701   0.264  2.1766 -0.1172  1.0579
 7070SOL     OW32671   0.427   1.914   9.267  0.1775  0.3667 -0.0275
 7070SOL    HW132672   0.423   1.959   9.352  0.2845 -0.8659  0.6283
 7070SOL    HW232673   0.503   1.859   9.284  0.5270  0.7483 -0.3731
 7071SOL     OW32674   0.910   1.142   7.957 -0.6004 -0.3054 -0.7241
 7071SOL    HW132675   0.970   1.185   7.896  1.0286 -0.3687  0.8660
 7071SOL    HW232676   0.900   1.204   8.028  2.1007 -1.0995  0.3210
 7072SOL     OW32677   1.660   0.919   5.148  0.3280  0.3836 -0.1162
 7072SOL    HW132678   1.674   1.007   5.183  0.7799  0.0910  0.4456
 7072SOL    HW232679   1.712   0.867   5.209  0.6183 -0.3444 -0.9917
 7073SOL     OW32680   3.997   2.676   3.034 -0.4394  0.2790 -0.5609
 7073SOL    HW132681   3.989   2.692   3.128  0.3931 -1.5851 -0.1706
 7073SOL    HW232682   3.910   2.638   3.024 -0.4628 -0.4481  2.3102
 7074SOL     OW32683   3.438   2.608   3.175 -0.1875 -1.1619 -0.2045
 7074SOL    HW132684   3.500   2.538   3.197  2.3304  0.7929 -1.0404
 7074SOL    HW232685   3.360   2.554   3.185 -0.6322 -0.5949 -0.5888
 7075SOL     OW32686   1.943   4.360   6.603 -0.2784  0.2580 -0.0224
 7075SOL    HW132687   1.949   4.321   6.516  0.0860  0.2154  0.0205
 7075SOL    HW232688   1.970   4.275   6.639 -2.3211 -0.3942 -0.0320
 7076SOL     OW32689   0.276   2.049   4.504 -0.2471  0.8687 -0.0732
 7076SOL    HW132690   0.342   2.099   4.454  1.2809  1.0710  2.1210
 7076SOL    HW232691   0.312   1.961   4.495 -1.4038  0.1971  1.7520
 7077SOL     OW32692   0.415   0.148  16.790  0.2123  0.5024  0.4242
 7077SOL    HW132693   0.421   0.073  16.849  0.6837  1.4267  1.5569
 7077SOL    HW232694   0.493   0.201  16.806  0.9403 -0.4608  0.0797
 7078SOL     OW32695   0.173   2.765   8.092  0.6993  0.1978 -0.3611
 7078SOL    HW132696   0.251   2.777   8.147  1.2036 -1.8340 -0.6510
 7078SOL    HW232697   0.156   2.859   8.093 -0.8567 -0.1043  2.6140
 7079SOL     OW32698   3.033   3.731   5.792  0.7279  0.3281  0.5103
 7079SOL    HW132699   2.962   3.764   5.846  0.9730  1.4154  0.1646
 7079SOL    HW232700   3.107   3.761   5.845 -1.1052  1.2673  2.5492
 7080SOL     OW32701   4.516   1.503  16.682 -0.1794 -0.2359  0.0433
 7080SOL    HW132702   4.431   1.487  16.724  0.8943  0.0847  2.3533
 7080SOL    HW232703   4.483   1.566  16.618  0.8327  0.0989 -0.1437
 7081SOL     OW32704   1.554   1.862  16.435  0.0086  0.6352  0.4809
 7081SOL    HW132705   1.517   1.805  16.503 -0.4590 -1.3308 -1.4243
 7081SOL    HW232706   1.648   1.849  16.438  0.0556  1.2874  1.9404
 7082SOL     OW32707   1.914   0.687  11.413  0.1526 -0.0277  0.2248
 7082SOL    HW132708   1.923   0.676  11.508 -0.2961 -0.4227  0.2206
 7082SOL    HW232709   1.874   0.774  11.416 -0.5991 -0.3396 -0.9636
 7083SOL     OW32710   4.348   1.839  13.491  0.4210  0.2138  0.5391
 7083SOL    HW132711   4.361   1.767  13.552 -0.0605 -0.2557  0.0845
 7083SOL    HW232712   4.427   1.819  13.441  0.4365  2.5347 -0.3978
 7084SOL     OW32713   4.403   3.210   3.020 -0.6412 -0.1744 -0.5860
 7084SOL    HW132714   4.464   3.248   2.956  0.1042  1.7269  1.2682
 7084SOL    HW232715   4.408   3.268   3.096 -0.5985 -1.0520  0.0840
 7085SOL     OW32716   4.339   2.929   3.524  0.3087  0.1484 -0.4073
 7085SOL    HW132717   4.262   2.911   3.469 -1.3403 -0.2835  2.0459
 7085SOL    HW232718   4.306   2.888   3.604  0.5185 -0.9098 -0.8641
 7086SOL     OW32719   0.198   4.159   5.554 -0.0486  0.2558  0.0054
 7086SOL    HW132720   0.216   4.186   5.464 -0.6381 -2.0444 -0.8023
 7086SOL    HW232721   0.103   4.143   5.553  0.0748 -0.2276 -3.3745
 7087SOL     OW32722   1.640   3.251   8.762 -0.4765 -0.3823  0.1184
 7087SOL    HW132723   1.562   3.254   8.707 -1.3831 -0.0070  1.4327
 7087SOL    HW232724   1.604   3.223   8.846  0.0600 -0.9892  0.1493
 7088SOL     OW32725   1.280   2.240  14.498  0.5416  0.1165 -1.0630
 7088SOL    HW132726   1.350   2.225  14.562 -0.3926 -2.3244 -0.6206
 7088SOL    HW232727   1.333   2.274  14.427  0.0600 -1.3215 -2.1024
 7089SOL     OW32728   3.441   3.302   7.955  0.1165  0.4009  0.0617
 7089SOL    HW132729   3.368   3.256   7.996  0.5761 -0.9178 -0.6164
 7089SOL    HW232730   3.515   3.281   8.012  1.0502  0.5158 -1.1043
 7090SOL     OW32731   0.674   3.656   8.313  0.0227 -0.0799 -0.4636
 7090SOL    HW132732   0.760   3.697   8.329 -0.0498  0.3749 -1.2646
 7090SOL    HW232733   0.679   3.573   8.361 -2.3102 -0.9871 -1.8273
 7091SOL     OW32734   0.512   4.161   0.450 -0.4743  0.3276  0.2101
 7091SOL    HW132735   0.574   4.150   0.522  0.4885 -1.0688 -0.8408
 7091SOL    HW232736   0.543   4.251   0.438  2.4326 -0.6475  0.5168
 7092SOL     OW32737   1.874   0.843   8.575 -0.2426  0.1372  0.5199
 7092SOL    HW132738   1.917   0.776   8.522  1.1889  0.3188  1.4459
 7092SOL    HW232739   1.943   0.887   8.625  0.3369 -2.7174  2.2344
 7093SOL     OW32740   0.009   1.554   6.229  0.4206  0.0715  0.2863
 7093SOL    HW132741   4.689   1.602   6.157 -1.0099 -0.6414  0.6095
 7093SOL    HW232742   4.668   1.480   6.233 -0.8294  1.1845  1.2276
 7094SOL     OW32743   3.644   2.778   2.434  0.3629 -0.3380  0.1256
 7094SOL    HW132744   3.637   2.868   2.402  0.0495 -0.5932 -0.5406
 7094SOL    HW232745   3.576   2.734   2.382  0.1358 -0.4264  0.4975
 7095SOL     OW32746   4.422   1.841   0.641 -0.2623 -0.1665  0.0440
 7095SOL    HW132747   4.493   1.784   0.670  2.9026  3.0444 -1.3066
 7095SOL    HW232748   4.437   1.833   0.547 -0.6104 -0.5571  0.0240
 7096SOL     OW32749   1.169   2.427   3.464 -0.5743 -0.2332 -0.2607
 7096SOL    HW132750   1.223   2.382   3.399 -1.0092 -1.3452  0.1465
 7096SOL    HW232751   1.215   2.510   3.454 -0.9509 -0.0467 -0.4112
 7097SOL     OW32752   4.577   2.317   5.521  0.0785 -0.0036  0.1379
 7097SOL    HW132753   4.601   2.257   5.591 -0.2655 -1.1064 -0.6947
 7097SOL    HW232754   4.515   2.366   5.576  0.0969 -1.1864  1.1989
 7098SOL     OW32755   4.222   3.396   2.119 -0.4507 -0.1336 -0.0714
 7098SOL    HW132756   4.233   3.318   2.064 -2.1549  0.1233 -0.7865
 7098SOL    HW232757   4.305   3.392   2.167  0.3321  1.3490 -1.2695
 7099SOL     OW32758   1.265   0.662   8.541 -0.1380  0.2301 -0.1671
 7099SOL    HW132759   1.256   0.730   8.474  2.2030  1.4358  0.7579
 7099SOL    HW232760   1.345   0.613   8.518  0.3817  0.6049  0.8375
 7100SOL     OW32761   0.889   0.193   4.383  0.3734 -0.6790 -0.4759
 7100SOL    HW132762   0.894   0.103   4.415 -1.1468 -0.3711  0.5734
 7100SOL    HW232763   0.969   0.227   4.423  0.0137  1.1933 -1.3662
 7101SOL     OW32764   1.666   4.413  16.974  0.1498  0.0762  0.4908
 7101SOL    HW132765   1.699   4.335  16.929 -0.1486  0.0799  0.2588
 7101SOL    HW232766   1.741   4.439  17.027 -0.9026 -2.6265  3.2993
 7102SOL     OW32767   0.836   3.077   4.935  0.3968 -0.6158 -0.6237
 7102SOL    HW132768   0.836   3.140   5.007 -1.2712 -2.2340  0.7749
 7102SOL    HW232769   0.872   3.130   4.864  1.8428 -1.4896 -0.5442
 7103SOL     OW32770   2.214   4.294   2.452 -0.0167 -0.3789  0.0615
 7103SOL    HW132771   2.257   4.377   2.473 -0.1990 -0.0516 -0.8343
 7103SOL    HW232772   2.286   4.233   2.465 -1.9051 -2.8359 -0.9664
 7104SOL     OW32773   3.414   3.926  12.242  0.0930  0.2392  0.1526
 7104SOL    HW132774   3.411   3.961  12.330  0.5395 -1.4173  0.8362
 7104SOL    HW232775   3.390   4.003  12.191  1.0976  0.1414 -0.4893
 7105SOL     OW32776   2.869   3.391   4.733 -0.1853  0.1837 -0.2573
 7105SOL    HW132777   2.883   3.305   4.693 -0.7170  0.0398 -0.1299
 7105SOL    HW232778   2.789   3.368   4.780 -1.4632 -0.7098 -2.8731
 7106SOL     OW32779   0.575   2.198   8.903 -0.8108 -0.0225  0.0845
 7106SOL    HW132780   0.557   2.291   8.900 -2.2816 -0.3699 -2.0393
 7106SOL    HW232781   0.601   2.177   8.993 -2.1222 -1.8233  0.0476
 7107SOL     OW32782   3.381   2.854   2.684 -0.0323  0.1252  0.3564
 7107SOL    HW132783   3.359   2.770   2.724 -2.8551  0.7950  0.2145
 7107SOL    HW232784   3.301   2.905   2.690  1.2247  2.7066 -4.9531
 7108SOL     OW32785   4.030   4.435   9.792 -0.2007  0.1517  0.2912
 7108SOL    HW132786   4.073   4.365   9.841  1.6112  0.0887 -1.3651
 7108SOL    HW232787   4.085   4.415   9.716  0.1220 -0.9976  0.8215
 7109SOL     OW32788   2.636   2.996   8.678 -0.6818  0.2803 -0.1000
 7109SOL    HW132789   2.559   3.042   8.710 -0.0426  1.3190 -0.0595
 7109SOL    HW232790   2.635   2.913   8.727  0.9214 -0.3430 -1.1079
 7110SOL     OW32791   0.329   3.698   9.328  0.1768  0.4839  0.7507
 7110SOL    HW132792   0.336   3.605   9.350  0.6081  0.6853  1.4643
 7110SOL    HW232793   0.308   3.681   9.236 -0.3328 -1.6243  1.2455
 7111SOL     OW32794   0.252   3.314   8.091  0.2208  0.6715 -0.3846
 7111SOL    HW132795   0.310   3.346   8.021  3.8076 -0.5512  2.0627
 7111SOL    HW232796   0.321   3.263   8.132  1.7706  1.5322 -1.9186
 7112SOL     OW32797   4.343   0.609   7.364  0.0920  0.2126  0.1020
 7112SOL    HW132798   4.312   0.610   7.455  1.4099  0.8088  0.5452
 7112SOL    HW232799   4.384   0.523   7.365 -1.7814 -0.6710 -0.3946
 7113SOL     OW32800   2.954   2.700   7.738  0.2707 -0.2566  0.0587
 7113SOL    HW132801   2.962   2.605   7.731 -4.4352 -0.8225  2.6252
 7113SOL    HW232802   2.859   2.703   7.742  0.2527  0.1844 -0.9583
 7114SOL     OW32803   0.907   4.134  15.304  0.7790 -0.1171  0.6922
 7114SOL    HW132804   0.901   4.205  15.368  0.6909  0.4864  0.0097
 7114SOL    HW232805   0.835   4.157  15.245  1.1419 -2.5776 -0.6824
 7115SOL     OW32806   4.027   0.190   7.402  0.1603 -0.3319 -0.3910
 7115SOL    HW132807   3.962   0.258   7.385  0.3061  0.0240  0.4563
 7115SOL    HW232808   4.011   0.176   7.496  1.0225  0.2256 -0.1592
 7116SOL     OW32809   0.119   3.429   0.297 -0.2051  0.1363  0.2362
 7116SOL    HW132810   0.121   3.338   0.324 -0.5760  0.0127 -0.1699
 7116SOL    HW232811   0.106   3.419   0.203  0.2672  2.4181 -0.0824
 7117SOL     OW32812   3.563   4.406  17.160  0.2768  0.0590  0.4060
 7117SOL    HW132813   3.626   4.415  17.087 -0.7054 -2.6662 -0.7687
 7117SOL    HW232814   3.543   4.313  17.156  1.0779 -0.1319  0.7893
 7118SOL     OW32815   4.427   4.367   3.950 -0.6266  0.1164  0.7158
 7118SOL    HW132816   4.478   4.447   3.967  0.5300 -0.3843 -0.4594
 7118SOL    HW232817   4.345   4.395   3.909 -0.2591 -1.3882 -1.0154
 7119SOL     OW32818   0.845   3.375  10.057  0.0394 -0.3058 -0.7252
 7119SOL    HW132819   0.879   3.353   9.970 -1.5617 -0.5886 -1.2670
 7119SOL    HW232820   0.871   3.467  10.064 -0.1952 -0.2468 -0.6167
 7120SOL     OW32821   1.219   2.514   5.289 -0.3138 -0.4587 -0.0227
 7120SOL    HW132822   1.209   2.432   5.241 -1.3895  0.2276 -0.9746
 7120SOL    HW232823   1.149   2.560   5.243 -1.0632  0.0012  1.5606
 7121SOL     OW32824   2.164   2.510   3.580 -0.5093 -0.5004 -0.1103
 7121SOL    HW132825   2.229   2.578   3.595 -0.1949 -0.9630  0.6064
 7121SOL    HW232826   2.205   2.443   3.525  0.9946 -0.3995  0.9069
 7122SOL     OW32827   2.934   3.632   3.129  0.1319  0.1979  0.2149
 7122SOL    HW132828   2.872   3.616   3.058  1.2383  1.7832 -1.1169
 7122SOL    HW232829   2.966   3.548   3.162 -0.4732  0.3212  1.1296
 7123SOL     OW32830   0.206   2.937   3.826 -0.1621  0.1838  0.4407
 7123SOL    HW132831   0.233   2.858   3.779 -0.2803 -0.0139  0.7055
 7123SOL    HW232832   0.282   2.954   3.881 -2.2922  2.6799  2.6693
 7124SOL     OW32833   4.346   0.171   7.786  0.1586  0.4091 -0.3785
 7124SOL    HW132834   4.363   0.175   7.880  0.9261 -0.4968 -0.4728
 7124SOL    HW232835   4.430   0.195   7.747 -0.4851 -0.1133 -2.1015
 7125SOL     OW32836   3.584   2.591   4.049  0.0340 -0.7005 -0.1281
 7125SOL    HW132837   3.562   2.683   4.067  0.6477 -0.0727 -2.6489
 7125SOL    HW232838   3.670   2.591   4.090  0.0138  0.3873 -0.0936
 7126SOL     OW32839   2.366   0.440  10.806  0.2373  0.6322 -0.1830
 7126SOL    HW132840   2.428   0.507  10.777 -0.0164  1.9364  2.1957
 7126SOL    HW232841   2.289   0.496  10.797 -0.1958  0.2282  0.9296
 7127SOL     OW32842   0.601   0.119   2.956  0.3092 -0.0643  0.6209
 7127SOL    HW132843   0.667   0.064   2.998 -1.3082 -0.5194  2.5396
 7127SOL    HW232844   0.556   0.057   2.900  0.9723  0.5221 -0.5674
 7128SOL     OW32845   4.093   3.614   7.894  0.0856  0.8879 -0.2357
 7128SOL    HW132846   4.091   3.707   7.874  0.6040  0.7671 -0.8303
 7128SOL    HW232847   4.181   3.600   7.928 -0.1280 -0.7476 -0.3336
 7129SOL     OW32848   3.639   4.632  17.589  0.3650 -0.4037  0.0681
 7129SOL    HW132849   3.551   4.670  17.591  0.8717  0.7787  0.3386
 7129SOL    HW232850   3.660   4.634  17.495 -1.3271 -0.3577 -0.3127
 7130SOL     OW32851   3.654   1.950   8.498  0.1271  0.0123 -0.0652
 7130SOL    HW132852   3.729   1.977   8.551 -0.3303 -0.0462  0.6200
 7130SOL    HW232853   3.582   1.987   8.550  1.0835  1.0555  0.5053
 7131SOL     OW32854   3.091   3.502  10.515  0.5494 -0.3234  0.3967
 7131SOL    HW132855   3.125   3.413  10.506 -0.5707 -0.8535  1.4887
 7131SOL    HW232856   3.079   3.526  10.423  1.6936 -0.2230  0.2684
 7132SOL     OW32857   3.890   2.152  17.238  0.4838 -0.2682 -0.2562
 7132SOL    HW132858   3.829   2.082  17.217  0.3309 -0.1957 -0.0572
 7132SOL    HW232859   3.882   2.223  17.174  0.5485  0.0842  0.1262
 7133SOL     OW32860   2.203   3.935   5.526  0.3804 -0.3365  0.2538
 7133SOL    HW132861   2.191   4.025   5.555 -0.1830 -1.2728  2.9370
 7133SOL    HW232862   2.120   3.894   5.552 -0.6514  0.6830 -1.4857
 7134SOL     OW32863   0.312   2.128   8.246  0.0899  0.3559  0.1746
 7134SOL    HW132864   0.391   2.125   8.191 -0.6259 -1.8216 -0.7421
 7134SOL    HW232865   0.314   2.039   8.282  0.1173  0.9518  1.6089
 7135SOL     OW32866   4.638   4.405   4.796  0.1340  0.1977  0.4095
 7135SOL    HW132867   4.567   4.346   4.772  0.2360  1.0330 -1.8771
 7135SOL    HW232868   4.692   4.407   4.717  1.4298  0.7797  1.3053
 7136SOL     OW32869   2.470   3.584   2.520  0.2242 -0.0722 -0.0329
 7136SOL    HW132870   2.558   3.611   2.491 -0.4770  2.5085  0.2159
 7136SOL    HW232871   2.428   3.668   2.540  2.4908  1.7746 -2.8974
 7137SOL     OW32872   1.294   3.573   7.186 -0.7876  0.1331  0.0340
 7137SOL    HW132873   1.213   3.610   7.221 -1.7056  0.6759 -2.6628
 7137SOL    HW232874   1.364   3.615   7.236 -1.7836  0.9894  0.7257
 7138SOL     OW32875   1.439   1.652  15.781 -0.1815  1.0583 -0.3265
 7138SOL    HW132876   1.441   1.659  15.877 -2.1990  0.5480 -0.2549
 7138SOL    HW232877   1.531   1.639  15.757 -0.9633  0.1991 -2.8554
 7139SOL     OW32878   2.051   4.410  16.178  0.1928 -0.0111  0.1730
 7139SOL    HW132879   2.010   4.476  16.233 -1.8903 -0.9282 -0.2718
 7139SOL    HW232880   2.139   4.445  16.162 -0.2428 -0.0118 -2.1760
 7140SOL     OW32881   4.021   2.030   6.351  0.4352  0.3953  0.0498
 7140SOL    HW132882   4.068   2.054   6.431  0.4006  2.5412 -0.5572
 7140SOL    HW232883   3.958   2.103   6.352 -0.5711 -0.4904  1.0345
 7141SOL     OW32884   2.768   0.625   7.878  0.6181  0.0836 -0.0004
 7141SOL    HW132885   2.810   0.598   7.960  1.2334  0.7657 -0.0918
 7141SOL    HW232886   2.737   0.713   7.899  0.1681  0.1707 -1.0360
 7142SOL     OW32887   1.251   0.994   3.235 -0.4461  0.8036  0.3694
 7142SOL    HW132888   1.326   1.023   3.183 -1.2032 -1.2817 -1.9029
 7142SOL    HW232889   1.301   0.940   3.296  1.7510  1.8421 -0.5298
 7143SOL     OW32890   1.091   1.052   3.497  0.0250  0.0786  0.7837
 7143SOL    HW132891   1.079   1.049   3.402 -0.0434 -2.3921  0.8696
 7143SOL    HW232892   1.107   0.961   3.520 -2.0260 -0.1672  1.2414
 7144SOL     OW32893   3.327   3.240   7.136  0.1374 -0.1121  0.0255
 7144SOL    HW132894   3.342   3.205   7.224 -1.3301 -0.6762  0.0495
 7144SOL    HW232895   3.325   3.333   7.162 -0.6525 -0.0952 -0.0953
 7145SOL     OW32896   3.049   2.389   5.736  0.0717  0.0388  0.1385
 7145SOL    HW132897   3.003   2.305   5.731 -1.9502  1.1828 -0.7564
 7145SOL    HW232898   3.130   2.356   5.775 -1.5537 -1.2450  2.4268
 7146SOL     OW32899   3.450   4.603   4.973  0.0590  0.0273  0.1547
 7146SOL    HW132900   3.455   4.661   5.049 -1.7232  2.1464 -1.3668
 7146SOL    HW232901   3.493   4.668   4.918  1.0716  1.0848  2.1705
 7147SOL     OW32902   1.732   1.869   5.529 -0.3349 -0.2506  0.1876
 7147SOL    HW132903   1.637   1.862   5.521 -0.3467  1.0170 -0.7786
 7147SOL    HW232904   1.749   1.875   5.435  1.1448 -2.8198  0.2865
 7148SOL     OW32905   2.584   1.207   4.213 -0.5413  0.3247 -0.6498
 7148SOL    HW132906   2.491   1.185   4.220 -0.1532 -0.7358  1.1598
 7148SOL    HW232907   2.574   1.296   4.179  2.6462  1.8359  2.3780
 7149SOL     OW32908   2.331   3.047   0.020  0.5377  0.2152  0.1703
 7149SOL    HW132909   2.326   2.990   0.097  1.2294 -1.4558 -1.0291
 7149SOL    HW232910   2.422   3.047  17.673  0.2366 -1.5435 -0.7543
 7150SOL     OW32911   1.145   3.821   1.098 -0.0878  0.0251 -0.5135
 7150SOL    HW132912   1.153   3.843   1.191 -0.0102 -0.9076 -0.2984
 7150SOL    HW232913   1.109   3.733   1.093  2.0276 -0.8081 -1.2857
 7151SOL     OW32914   3.621   4.204   3.091  0.5248  0.0550 -0.2662
 7151SOL    HW132915   3.663   4.290   3.100 -0.6843  0.8497 -2.3023
 7151SOL    HW232916   3.663   4.179   3.008  0.0911  0.1917 -0.5250
 7152SOL     OW32917   1.183   4.363  13.436  0.0383  0.1116  0.2146
 7152SOL    HW132918   1.100   4.320  13.458  0.2828  0.0958  1.0765
 7152SOL    HW232919   1.167   4.380  13.343  0.4470 -1.1149 -0.0904
 7153SOL     OW32920   3.218   1.641  10.506 -0.1820 -0.1400 -0.3319
 7153SOL    HW132921   3.173   1.557  10.509 -2.1598  0.8331 -3.0139
 7153SOL    HW232922   3.145   1.698  10.484  0.6771  1.5081  1.0649
 7154SOL     OW32923   3.350   4.057   2.674  0.3976  0.0393 -0.3123
 7154SOL    HW132924   3.351   4.150   2.653 -1.7007  0.2767  0.6350
 7154SOL    HW232925   3.392   4.022   2.595 -0.8740 -0.3545 -0.8077
 7155SOL     OW32926   1.560   3.197   3.584  0.0631 -0.1661  0.1794
 7155SOL    HW132927   1.498   3.266   3.559 -1.4673 -1.4425  0.4343
 7155SOL    HW232928   1.551   3.190   3.679 -2.9313  0.4318 -0.0414
 7156SOL     OW32929   0.855   4.129   4.460 -0.0903 -0.3440  0.2742
 7156SOL    HW132930   0.939   4.153   4.421 -0.1977 -2.0340 -1.0058
 7156SOL    HW232931   0.884   4.107   4.548  0.3393  2.2037  0.7660
 7157SOL     OW32932   1.588   0.471   6.279  0.3011 -0.5105  0.2748
 7157SOL    HW132933   1.670   0.471   6.330 -1.2645 -1.6322  2.7595
 7157SOL    HW232934   1.524   0.452   6.347  1.3474 -3.0164  0.5787
 7158SOL     OW32935   0.514   2.264  13.332  0.8002  0.0028 -0.5387
 7158SOL    HW132936   0.477   2.217  13.257 -0.6151 -0.3222  0.3549
 7158SOL    HW232937   0.491   2.201  13.401  0.6407 -0.1641 -0.7424
 7159SOL     OW32938   1.008   3.233  16.558  0.8779 -0.0453  0.2938
 7159SOL    HW132939   0.923   3.217  16.599  1.1751  0.9816  1.3272
 7159SOL    HW232940   0.985   3.218  16.467 -0.3534  1.4860  0.3429
 7160SOL     OW32941   0.996   2.455   3.965 -0.0308  0.2111  0.1825
 7160SOL    HW132942   1.069   2.462   4.026  0.3760  0.3879 -0.3232
 7160SOL    HW232943   1.032   2.522   3.905 -0.0406  0.7671  0.7968
 7161SOL     OW32944   1.338   3.712   2.450 -0.0505  0.0226  0.4978
 7161SOL    HW132945   1.299   3.735   2.365  0.8224  1.7031  0.5519
 7161SOL    HW232946   1.314   3.792   2.496  1.2729 -0.8336  2.6425
 7162SOL     OW32947   1.650   3.749   5.001 -0.1431  0.2498  0.4938
 7162SOL    HW132948   1.656   3.667   4.953  0.0518  0.4326  0.2073
 7162SOL    HW232949   1.568   3.738   5.051 -0.4377  0.5954  0.0878
 7163SOL     OW32950   2.820   2.198   8.828  0.2849  0.3033  0.3703
 7163SOL    HW132951   2.913   2.178   8.840  0.2932 -0.3257 -0.7987
 7163SOL    HW232952   2.781   2.118   8.863  1.4533 -0.5078 -0.1663
 7164SOL     OW32953   1.979   3.277   6.599 -0.5333  0.4995 -0.2084
 7164SOL    HW132954   1.980   3.372   6.612  0.6068  0.4847 -0.2289
 7164SOL    HW232955   1.896   3.251   6.639  0.6145 -1.3197  0.9853
 7165SOL     OW32956   1.636   1.157  11.222 -0.3530 -0.3571  0.2403
 7165SOL    HW132957   1.731   1.154  11.222 -0.3847 -1.6829  2.1353
 7165SOL    HW232958   1.622   1.250  11.209 -0.0319 -0.3659 -0.1563
 7166SOL     OW32959   3.185   3.915   3.006 -0.2823 -0.0285  0.3360
 7166SOL    HW132960   3.280   3.928   3.014 -0.3937  0.9896  0.0052
 7166SOL    HW232961   3.155   3.904   3.096 -1.3151  2.0747  0.2671
 7167SOL     OW32962   0.640   2.043  14.132  0.4860 -0.2930 -0.2625
 7167SOL    HW132963   0.653   2.025  14.039 -0.1221 -0.4841 -0.3140
 7167SOL    HW232964   0.555   2.087  14.129  0.1321 -0.9062  0.6605
 7168SOL     OW32965   4.058   4.330   8.560  0.8490 -0.9369 -0.5192
 7168SOL    HW132966   4.010   4.346   8.641  0.9110 -0.7190 -0.5263
 7168SOL    HW232967   4.148   4.319   8.588  0.3918 -2.2363  0.4662
 7169SOL     OW32968   2.628   1.479  11.735  0.3182  0.6910 -0.1158
 7169SOL    HW132969   2.705   1.497  11.788 -0.3861  0.8070  0.8710
 7169SOL    HW232970   2.606   1.388  11.755  1.9336  0.1500 -0.8317
 7170SOL     OW32971   4.105   2.502   8.887 -0.2348 -0.8153 -0.2016
 7170SOL    HW132972   4.094   2.565   8.959 -0.1325  0.4882 -1.3304
 7170SOL    HW232973   4.201   2.503   8.881 -0.2563  3.5138 -0.2994
 7171SOL     OW32974   0.234   2.690   3.667 -0.3158 -0.1383  0.3544
 7171SOL    HW132975   0.314   2.650   3.635 -0.9115 -1.4370  0.4969
 7171SOL    HW232976   0.187   2.615   3.703 -1.3617 -0.0040 -0.7241
 7172SOL     OW32977   1.337   1.273   4.692 -0.5277 -0.0459 -0.1990
 7172SOL    HW132978   1.381   1.339   4.637  1.4584  0.6711  2.2843
 7172SOL    HW232979   1.405   1.208   4.677 -0.1337  0.6403 -1.4526
 7173SOL     OW32980   1.767   2.261   5.490  0.0309 -0.6428 -0.8376
 7173SOL    HW132981   1.756   2.269   5.396  1.2037  0.3814 -0.8895
 7173SOL    HW232982   1.677   2.261   5.522  0.5198 -0.0348  0.5353
 7174SOL     OW32983   2.382   0.694   8.759  0.0403 -0.1295 -0.2713
 7174SOL    HW132984   2.453   0.646   8.801 -2.1296 -2.3315  0.8832
 7174SOL    HW232985   2.315   0.668   8.823  1.4361 -0.5617  1.0252
 7175SOL     OW32986   3.015   2.494   1.384  0.2664 -0.5479  0.1568
 7175SOL    HW132987   2.929   2.507   1.345  0.1830  0.9666  0.8563
 7175SOL    HW232988   3.042   2.584   1.399  2.7156 -0.7898 -2.6773
 7176SOL     OW32989   0.894   1.298  11.391  0.0664 -0.0455 -0.1786
 7176SOL    HW132990   0.970   1.248  11.362  1.4899  0.0680  3.2680
 7176SOL    HW232991   0.870   1.246  11.468 -1.1358 -0.5188 -0.8894
 7177SOL     OW32992   2.438   0.932   4.574 -0.0069 -0.3075 -0.0940
 7177SOL    HW132993   2.347   0.909   4.555  0.8991 -4.4482  0.5939
 7177SOL    HW232994   2.449   1.023   4.547 -2.5860 -0.5495 -2.0378
 7178SOL     OW32995   3.857   0.576  14.782 -0.5203  0.5883 -0.0382
 7178SOL    HW132996   3.949   0.558  14.803 -0.4996 -0.7638 -1.2928
 7178SOL    HW232997   3.874   0.590  14.689 -0.3882 -3.0672 -0.5667
 7179SOL     OW32998   0.864   2.307   5.247  0.0204 -0.8246 -0.2496
 7179SOL    HW132999   0.874   2.389   5.296  3.5751 -1.3003 -0.1684
 7179SOL    HW233000   0.769   2.301   5.243  0.0418  0.0302 -1.9947
 7180SOL     OW33001   1.936   0.517  15.083  0.1992  0.7308 -0.1073
 7180SOL    HW133002   1.868   0.554  15.139 -0.2542 -0.6670  0.2809
 7180SOL    HW233003   1.941   0.587  15.019  1.7046  1.8200  1.1925
 7181SOL     OW33004   0.962   2.307   4.992  0.2842 -0.0105 -0.0496
 7181SOL    HW133005   0.931   2.333   5.078 -1.7642 -0.5422 -0.6240
 7181SOL    HW233006   0.892   2.342   4.937  0.9567  0.9455 -0.2881
 7182SOL     OW33007   2.561   3.720   5.861 -0.4516 -0.6229  0.1314
 7182SOL    HW133008   2.499   3.787   5.891 -1.6078 -0.7426 -1.9832
 7182SOL    HW233009   2.566   3.735   5.767 -1.7845  0.8205  0.2861
 7183SOL     OW33010   4.179   3.650   1.016 -0.1134 -0.0765  0.1369
 7183SOL    HW133011   4.210   3.573   1.063 -4.3160 -0.7762  1.7498
 7183SOL    HW233012   4.094   3.664   1.059  0.1067 -2.3016  1.2732
 7184SOL     OW33013   0.256   0.213   8.393  0.1583  0.1649  0.1616
 7184SOL    HW133014   0.324   0.190   8.457  0.1060 -0.1067  0.1199
 7184SOL    HW233015   0.179   0.219   8.448 -0.2619  0.9339 -0.5041
 7185SOL     OW33016   2.979   1.663   6.345 -0.3545  0.0223 -0.2483
 7185SOL    HW133017   3.008   1.572   6.347  0.0428  0.0763 -3.1833
 7185SOL    HW233018   2.946   1.659   6.255 -2.5623  0.8518  0.5058
 7186SOL     OW33019   2.754   0.093   7.871  0.6373  0.0285  0.2910
 7186SOL    HW133020   2.774   0.106   7.964 -0.7560  1.0797  0.4317
 7186SOL    HW233021   2.735   0.181   7.838 -0.1380  1.1685  3.7857
 7187SOL     OW33022   1.368   0.312  17.109 -0.2610  0.0397 -0.3179
 7187SOL    HW133023   1.303   0.356  17.053 -1.5483 -2.3002 -0.6780
 7187SOL    HW233024   1.442   0.309  17.049  0.0825 -2.5745  0.2638
 7188SOL     OW33025   0.416   1.357   9.289 -0.0106 -0.0680  0.5391
 7188SOL    HW133026   0.473   1.350   9.366 -1.0069  2.2527  1.5063
 7188SOL    HW233027   0.464   1.314   9.218 -0.6174 -1.0352  0.7199
 7189SOL     OW33028   0.903   0.988   6.662  0.4793 -0.1655 -0.1362
 7189SOL    HW133029   0.899   0.904   6.617  2.2556 -1.6167  2.4893
 7189SOL    HW233030   0.852   1.044   6.603  0.5413  1.5159  1.4006
 7190SOL     OW33031   0.838   0.180   7.710  0.5322 -0.8642  0.1506
 7190SOL    HW133032   0.768   0.229   7.753  1.6580  1.6445 -0.8992
 7190SOL    HW233033   0.906   0.248   7.714 -0.9913  0.6205  0.8171
 7191SOL     OW33034   4.280   2.484   5.037 -0.3482  0.1314 -0.3481
 7191SOL    HW133035   4.308   2.463   4.949 -0.5659  2.1958 -0.9128
 7191SOL    HW233036   4.330   2.426   5.094 -1.4004  0.2490  0.7004
 7192SOL     OW33037   1.297   0.117  12.305 -0.0623 -0.3200  0.4756
 7192SOL    HW133038   1.306   0.046  12.369  1.7911  0.3664  0.9807
 7192SOL    HW233039   1.207   0.110  12.274  0.1764  0.8816 -0.4829
 7193SOL     OW33040   1.854   0.595  15.776 -0.2335  0.4578 -0.4369
 7193SOL    HW133041   1.768   0.638  15.772  0.2322  1.3384 -1.1468
 7193SOL    HW233042   1.914   0.652  15.727 -1.3801  1.1522 -1.0462
 7194SOL     OW33043   0.821   4.063  10.367  0.1590 -0.6447  0.5185
 7194SOL    HW133044   0.786   4.031  10.283 -0.0381  2.3111 -0.5397
 7194SOL    HW233045   0.854   3.980  10.402  2.1076 -0.3066 -0.4725
 7195SOL     OW33046   0.566   1.994  15.797 -0.3376  0.0426 -0.1990
 7195SOL    HW133047   0.553   1.900  15.813 -3.7281  0.3069 -1.5937
 7195SOL    HW233048   0.568   1.992  15.701  0.4467 -0.6311 -0.1702
 7196SOL     OW33049   1.455   4.244  10.743 -0.4574 -0.2565  0.2567
 7196SOL    HW133050   1.497   4.330  10.747 -2.3980  0.7620 -1.4826
 7196SOL    HW233051   1.383   4.264  10.683  0.5068 -0.0389 -0.8074
 7197SOL     OW33052   0.625   1.301  12.390  0.6382 -0.5409  0.2779
 7197SOL    HW133053   0.684   1.374  12.370 -0.8318  0.3524 -0.8738
 7197SOL    HW233054   0.605   1.322  12.481  0.8818 -0.2795  0.2722
 7198SOL     OW33055   1.485   3.654   7.682  0.1688 -0.5451 -0.2228
 7198SOL    HW133056   1.473   3.711   7.758 -0.2792 -1.4978  0.4219
 7198SOL    HW233057   1.556   3.596   7.709  0.6924 -0.4153 -1.2862
 7199SOL     OW33058   1.645   2.322   7.992 -0.2763 -0.2194 -0.5247
 7199SOL    HW133059   1.716   2.317   8.056 -0.6861  1.0843  0.0298
 7199SOL    HW233060   1.667   2.392   7.930 -1.4221 -0.2127 -0.9382
 7200SOL     OW33061   0.682   1.759   8.562 -0.4135 -0.3696 -0.2455
 7200SOL    HW133062   0.682   1.779   8.468 -0.6672  0.5412 -0.0514
 7200SOL    HW233063   0.633   1.833   8.598  0.7815  0.6554 -0.7340
 7201SOL     OW33064   0.524   1.925   7.300 -0.6682  0.2505  0.9777
 7201SOL    HW133065   0.593   1.862   7.318  0.8181  1.0122 -1.9288
 7201SOL    HW233066   0.519   1.962   7.388  1.7291  0.1873  1.1486
 7202SOL     OW33067   0.166   1.874   9.185 -0.3776  0.1547  0.4843
 7202SOL    HW133068   0.175   1.786   9.149 -0.6027  1.6138 -3.2102
 7202SOL    HW233069   0.257   1.898   9.202 -0.1738 -0.8256  0.7309
 7203SOL     OW33070   3.904   3.843   4.601 -0.0793 -0.3807  0.1774
 7203SOL    HW133071   3.824   3.801   4.631 -0.6774 -0.3530 -1.3603
 7203SOL    HW233072   3.969   3.804   4.659  0.8340 -0.5970 -0.9706
 7204SOL     OW33073   3.843   3.336  11.979 -0.1986 -0.5964  0.3232
 7204SOL    HW133074   3.883   3.364  11.897 -1.6994  0.6057  0.0065
 7204SOL    HW233075   3.750   3.351  11.963  0.0667 -0.2087 -0.8763
 7205SOL     OW33076   4.536   3.049  12.994  0.1177  0.4455 -0.0977
 7205SOL    HW133077   4.627   3.045  13.022 -0.4600 -0.5334  1.5848
 7205SOL    HW233078   4.517   2.970  12.944 -0.0461 -0.9581  2.2108
 7206SOL     OW33079   2.797   4.413   3.691  0.4740  0.1959  0.5012
 7206SOL    HW133080   2.893   4.411   3.692  0.4769 -0.0571 -0.1810
 7206SOL    HW233081   2.781   4.424   3.597  0.6270  1.7561  0.6649
 7207SOL     OW33082   4.066   0.239   1.454 -0.2426  0.7163 -0.1962
 7207SOL    HW133083   3.987   0.293   1.449  0.8625  2.3419  0.1471
 7207SOL    HW233084   4.080   0.204   1.366  2.3087  1.1489  0.0378
 7208SOL     OW33085   2.854   3.630  11.843  0.4136 -0.3674 -0.0792
 7208SOL    HW133086   2.883   3.620  11.752 -0.0609 -1.0926 -0.1536
 7208SOL    HW233087   2.861   3.543  11.883 -4.9683 -0.0084  1.6554
 7209SOL     OW33088   1.091   1.505   4.771 -0.5922 -0.3901 -0.4444
 7209SOL    HW133089   1.065   1.595   4.789  0.2602 -0.0596 -0.8494
 7209SOL    HW233090   1.148   1.518   4.695  0.3463  0.8619  0.4866
 7210SOL     OW33091   0.407   3.428   5.314 -0.0319 -0.8396  0.1732
 7210SOL    HW133092   0.378   3.352   5.263 -0.8853  0.8860 -1.8869
 7210SOL    HW233093   0.407   3.394   5.404 -0.5902  0.0011  0.4958
 7211SOL     OW33094   3.628   4.302   5.317 -0.1718  0.1812 -0.0480
 7211SOL    HW133095   3.577   4.356   5.256  0.3245  0.9084  0.1870
 7211SOL    HW233096   3.716   4.313   5.282 -0.9380  1.3273 -1.5870
 7212SOL     OW33097   1.191   2.982   4.836 -0.6732  0.6298 -0.3595
 7212SOL    HW133098   1.222   3.033   4.761  1.0723 -1.7513 -1.2768
 7212SOL    HW233099   1.277   2.956   4.869 -1.1285 -3.7207 -2.5490
 7213SOL     OW33100   2.143   0.150   2.920 -0.6890 -0.2473  0.1038
 7213SOL    HW133101   2.223   0.194   2.948  0.6159 -3.9646  2.1928
 7213SOL    HW233102   2.101   0.210   2.859  2.8295  2.1497  0.0349
 7214SOL     OW33103   4.595   0.734   6.046  0.5660  0.1886  0.6213
 7214SOL    HW133104   4.641   0.674   5.987 -1.2628  0.3475 -1.0028
 7214SOL    HW233105   4.624   0.819   6.014  1.0319  0.5652  2.0430
 7215SOL     OW33106   3.020   3.610   8.809 -0.1969  0.6437  0.2783
 7215SOL    HW133107   3.081   3.543   8.777 -2.5785 -1.6934  0.6455
 7215SOL    HW233108   2.987   3.564   8.887  0.4319  0.0831  0.2203
 7216SOL     OW33109   1.915   2.016  15.542 -0.3950  0.1232 -0.4848
 7216SOL    HW133110   1.921   2.092  15.484 -0.1005 -1.0260 -1.9476
 7216SOL    HW233111   1.935   1.941  15.486  1.0017  0.3111 -0.2545
 7217SOL     OW33112   0.513   2.637   5.037 -0.1019  0.4826 -0.2279
 7217SOL    HW133113   0.562   2.582   4.975  0.6409 -1.1043  1.7510
 7217SOL    HW233114   0.565   2.716   5.024  2.0324 -0.5456  2.0628
 7218SOL     OW33115   3.815   3.203   3.005 -0.0418  0.2088  0.4912
 7218SOL    HW133116   3.736   3.165   2.968 -0.6716  1.6503  0.3901
 7218SOL    HW233117   3.777   3.288   3.024 -0.4184  0.4746 -1.4363
 7219SOL     OW33118   3.732   4.086   3.314 -0.4255 -0.5751  0.2348
 7219SOL    HW133119   3.695   4.129   3.237  1.6763 -0.2940 -0.6298
 7219SOL    HW233120   3.809   4.048   3.271 -0.6417  1.5821 -2.0551
 7220SOL     OW33121   3.026   0.001   7.806 -0.2088 -0.1079  0.4000
 7220SOL    HW133122   3.038   4.706   7.900 -1.9058  0.2582  0.6770
 7220SOL    HW233123   2.931   0.001   7.816 -0.3767  1.0446 -1.1260
 7221SOL     OW33124   3.371   3.040   0.437 -0.6996  0.1676 -0.7089
 7221SOL    HW133125   3.382   3.134   0.428 -0.9018  0.2772  0.2747
 7221SOL    HW233126   3.446   3.007   0.388 -0.6455  0.5665 -0.8931
 7222SOL     OW33127   4.045   4.554  14.800 -0.7432 -0.4614  0.4463
 7222SOL    HW133128   4.026   4.461  14.811  0.4437 -0.4798  2.3159
 7222SOL    HW233129   4.051   4.549  14.704 -0.3818 -2.9003  0.5981
 7223SOL     OW33130   3.129   2.451   2.918 -0.1353 -0.0060 -0.1003
 7223SOL    HW133131   3.178   2.505   2.981  0.3458  1.5118 -1.7856
 7223SOL    HW233132   3.103   2.522   2.859  1.0370  0.4640 -0.0492
 7224SOL     OW33133   1.510   2.704  15.077 -0.0005 -0.1976  0.3272
 7224SOL    HW133134   1.600   2.710  15.045 -0.0287 -0.4708  0.1971
 7224SOL    HW233135   1.467   2.767  15.019 -0.9191 -1.1262 -0.0007
 7225SOL     OW33136   3.770   2.350  17.032  0.4863  0.2435 -0.1278
 7225SOL    HW133137   3.787   2.444  17.033 -1.6658  0.5848  3.3379
 7225SOL    HW233138   3.676   2.351  17.046  0.1657  1.6720 -2.3197
 7226SOL     OW33139   3.271   4.026   3.546  1.1060 -0.6252 -0.0857
 7226SOL    HW133140   3.275   3.974   3.627  3.0298  1.5939  1.2333
 7226SOL    HW233141   3.354   4.071   3.561  0.4020  0.2701  1.1688
 7227SOL     OW33142   0.590   1.270   4.236  0.4183  0.6386  0.5824
 7227SOL    HW133143   0.592   1.177   4.260  0.7538  0.3818 -0.4526
 7227SOL    HW233144   0.652   1.306   4.300  0.8334  1.3613 -0.2358
 7228SOL     OW33145   0.827   0.218  11.016 -0.1662 -0.2008 -0.8760
 7228SOL    HW133146   0.892   0.256  11.075  0.2429  0.0229 -1.4644
 7228SOL    HW233147   0.765   0.178  11.077  0.7809  1.1388  0.9589
 7229SOL     OW33148   2.392   4.092  14.935 -0.0117 -0.0598  0.1169
 7229SOL    HW133149   2.373   4.182  14.963  0.7942 -0.7084  2.7290
 7229SOL    HW233150   2.483   4.106  14.907  0.2882 -1.0071  0.6072
 7230SOL     OW33151   1.602   2.500  15.354 -0.0587 -0.3249 -0.2645
 7230SOL    HW133152   1.576   2.584  15.390 -0.2765  0.7923 -3.0379
 7230SOL    HW233153   1.556   2.495  15.270 -0.2958  2.3943 -0.2867
 7231SOL     OW33154   0.338   1.788  10.534  0.6423 -0.3340  0.0129
 7231SOL    HW133155   0.428   1.794  10.567  1.3517 -2.6132 -1.5092
 7231SOL    HW233156   0.282   1.830  10.599 -1.8476 -1.3638 -1.4429
 7232SOL     OW33157   3.126   0.936  11.196  0.1038  0.0472 -0.3449
 7232SOL    HW133158   3.172   0.968  11.118 -0.2701  1.6377  0.0810
 7232SOL    HW233159   3.177   0.973  11.268 -0.5310  0.6063 -0.1801
 7233SOL     OW33160   1.462   3.735   0.477 -0.2588  0.7840  0.4226
 7233SOL    HW133161   1.401   3.662   0.465 -0.4284  0.7709  1.3384
 7233SOL    HW233162   1.410   3.801   0.431  0.2999  0.2195 -1.0031
 7234SOL     OW33163   4.223   0.804   0.013  0.3874 -0.2708  0.0292
 7234SOL    HW133164   4.164   0.865   0.058  0.8487 -0.4698  0.9075
 7234SOL    HW233165   4.170   0.747  17.640  1.8027 -1.6839  0.1289
 7235SOL     OW33166   3.063   3.158   9.231  0.1025 -0.0715 -0.1564
 7235SOL    HW133167   3.073   3.230   9.292 -3.4599  0.6339 -0.4366
 7235SOL    HW233168   3.087   3.203   9.149 -0.9104  0.6807 -0.0363
 7236SOL     OW33169   3.793   0.262  14.139 -0.0089 -0.0873  0.2654
 7236SOL    HW133170   3.875   0.258  14.090 -0.1062 -1.0964  0.1933
 7236SOL    HW233171   3.811   0.322  14.211 -0.1136  1.8882 -1.3601
 7237SOL     OW33172   4.405   3.936   4.740 -0.5184 -0.5067 -0.0928
 7237SOL    HW133173   4.454   3.878   4.682  1.4088  0.2790  0.7562
 7237SOL    HW233174   4.336   3.952   4.676 -1.1459 -0.9302  0.4691
 7238SOL     OW33175   0.637   2.574  16.315  0.3868 -0.1810  0.1516
 7238SOL    HW133176   0.601   2.651  16.272  3.3074  1.0274 -0.1632
 7238SOL    HW233177   0.730   2.600  16.319  0.1707  0.5548  0.5106
 7239SOL     OW33178   2.411   3.118   8.766  0.2690 -0.3197 -0.1051
 7239SOL    HW133179   2.453   3.189   8.718  1.5931 -0.6142  0.6207
 7239SOL    HW233180   2.388   3.161   8.849 -1.3456 -2.0209  0.3347
 7240SOL     OW33181   4.650   2.882   2.626 -0.0488 -0.8179  0.0670
 7240SOL    HW133182   4.650   2.789   2.651 -1.0530 -0.5293  1.1315
 7240SOL    HW233183   0.015   2.918   2.648 -0.4052 -0.1097  0.2720
 7241SOL     OW33184   0.442   3.621   6.674 -0.1156 -0.2913 -0.2404
 7241SOL    HW133185   0.492   3.693   6.711 -2.4324  2.1131 -1.8174
 7241SOL    HW233186   0.476   3.546   6.724 -1.1649  0.1288  1.0857
 7242SOL     OW33187   0.263   1.488   8.808  0.0930  1.0751  0.0811
 7242SOL    HW133188   0.261   1.500   8.713  2.3972 -0.1289 -0.1159
 7242SOL    HW233189   0.270   1.392   8.800  0.4995  1.1480 -0.4471
 7243SOL     OW33190   3.660   2.123  16.353  0.5190 -0.9157 -0.2056
 7243SOL    HW133191   3.682   2.176  16.276 -3.4597  1.0902  0.0495
 7243SOL    HW233192   3.741   2.100  16.400  0.7460 -1.1860 -0.7286
 7244SOL     OW33193   3.931   3.358   5.567  0.5174 -0.2398  0.0292
 7244SOL    HW133194   3.987   3.375   5.491  1.3278  0.8873  0.8781
 7244SOL    HW233195   3.940   3.264   5.581 -0.5899 -0.6445 -1.9447
 7245SOL     OW33196   3.693   0.367   0.872 -0.1633  0.2161 -0.0540
 7245SOL    HW133197   3.661   0.319   0.796 -2.4982  0.5905  0.6742
 7245SOL    HW233198   3.661   0.456   0.855  1.0586  0.2741 -2.0429
 7246SOL     OW33199   2.527   2.351   7.625 -0.1022  0.5621  0.1794
 7246SOL    HW133200   2.557   2.409   7.555 -1.0041  0.6844 -0.1194
 7246SOL    HW233201   2.516   2.273   7.570 -2.5010 -0.2110  1.7311
 7247SOL     OW33202   4.185   1.313   4.303  0.2522 -0.5944  0.3281
 7247SOL    HW133203   4.098   1.290   4.272  0.6217  0.5603 -1.5576
 7247SOL    HW233204   4.171   1.273   4.389 -1.3707  0.1688  0.4200
 7248SOL     OW33205   2.230   0.127  11.604 -0.6304  0.1378 -0.4411
 7248SOL    HW133206   2.305   0.187  11.606  0.9114 -1.8404  1.1790
 7248SOL    HW233207   2.153   0.183  11.593 -0.6811  0.0511 -0.5187
 7249SOL     OW33208   4.422   3.378   7.381 -0.3310 -0.4160 -0.2429
 7249SOL    HW133209   4.387   3.305   7.431 -1.5119 -1.3384 -2.4231
 7249SOL    HW233210   4.515   3.355   7.379 -0.6565 -1.4927 -2.2002
 7250SOL     OW33211   2.552   2.442   5.356  0.1742  1.0594  0.6945
 7250SOL    HW133212   2.610   2.493   5.298  2.1452 -0.2578  1.5004
 7250SOL    HW233213   2.465   2.462   5.323 -0.5128 -2.3361  0.4793
 7251SOL     OW33214   2.321   2.225   2.940  0.3549 -0.3274  0.3755
 7251SOL    HW133215   2.265   2.283   2.888  0.7142 -0.5246 -0.2323
 7251SOL    HW233216   2.402   2.276   2.945  0.2336 -0.3440  2.5425
 7252SOL     OW33217   0.992   0.569   0.928 -0.0674 -0.1028  0.0341
 7252SOL    HW133218   0.977   0.599   0.838 -1.4200  0.3126  0.3891
 7252SOL    HW233219   0.948   0.484   0.921 -1.5504  0.9317 -3.2536
 7253SOL     OW33220   4.376   4.682   6.415  0.2383  0.0533 -0.1480
 7253SOL    HW133221   4.454   4.648   6.459 -0.1531 -0.5986  0.0464
 7253SOL    HW233222   4.327   4.603   6.393  0.5715 -0.8279  2.2862
 7254SOL     OW33223   1.215   1.672   2.815 -0.4912  0.0991 -0.0374
 7254SOL    HW133224   1.265   1.609   2.764  0.0997  0.0224  0.6289
 7254SOL    HW233225   1.216   1.744   2.753 -0.8608  1.0667  1.0733
 7255SOL     OW33226   0.690   4.624   5.022 -0.0490 -0.1397  0.5725
 7255SOL    HW133227   0.646   4.676   5.090 -0.6325 -0.5020  0.4749
 7255SOL    HW233228   0.779   4.659   5.020 -0.7262  1.5609  0.5367
 7256SOL     OW33229   4.259   2.203  13.368  0.2074  0.2982  0.2122
 7256SOL    HW133230   4.179   2.213  13.421  0.9707 -2.6297  1.9553
 7256SOL    HW233231   4.227   2.124  13.324  0.8648  0.4151 -0.4731
 7257SOL     OW33232   0.432   1.299   9.014  0.1094  0.0157 -0.4583
 7257SOL    HW133233   0.371   1.260   8.952  0.8021 -1.6515 -0.0778
 7257SOL    HW233234   0.503   1.328   8.957 -2.5845 -1.3914 -4.4747
 7258SOL     OW33235   1.447   0.676   6.537  0.2655  0.4383  0.0922
 7258SOL    HW133236   1.535   0.644   6.555  0.7268  0.7614 -1.5443
 7258SOL    HW233237   1.406   0.658   6.622  1.0372 -3.2240 -0.3088
 7259SOL     OW33238   3.286   1.925   4.014 -0.6792  0.0464 -0.8848
 7259SOL    HW133239   3.313   2.017   4.006  0.3199 -0.2670 -1.0586
 7259SOL    HW233240   3.345   1.880   3.954  1.9674 -0.4012  2.0637
 7260SOL     OW33241   3.496   0.049  10.338 -0.1269  0.1386 -0.1882
 7260SOL    HW133242   3.538   4.703  10.394 -0.4005 -1.3270 -1.7165
 7260SOL    HW233243   3.566   0.059  10.274 -0.1983  3.2951  0.2350
 7261SOL     OW33244   0.737   2.138   2.848 -0.7914  0.0812 -0.5019
 7261SOL    HW133245   0.644   2.115   2.852 -0.2607 -1.3021  3.0278
 7261SOL    HW233246   0.744   2.138   2.752 -1.6652  1.7397 -0.5776
 7262SOL     OW33247   2.813   1.337   6.002 -0.7056  0.2990  0.3136
 7262SOL    HW133248   2.853   1.289   5.929  3.8929  4.0030  0.3375
 7262SOL    HW233249   2.722   1.335   5.973 -0.8272 -2.0350  0.8411
 7263SOL     OW33250   1.845   0.876   6.226 -0.5733  0.1847 -0.0433
 7263SOL    HW133251   1.862   0.970   6.229  0.5714 -0.0809  1.6316
 7263SOL    HW233252   1.759   0.870   6.186  0.4573 -2.2184 -1.9451
 7264SOL     OW33253   1.190   3.844   1.357 -0.1395  0.0147 -0.5068
 7264SOL    HW133254   1.256   3.809   1.417  0.3448 -1.5381 -1.9440
 7264SOL    HW233255   1.140   3.890   1.425  1.8030  1.3672  0.0095
 7265SOL     OW33256   4.612   0.617  16.929 -0.2875 -0.1159  0.2232
 7265SOL    HW133257   4.620   0.712  16.936 -0.5969 -0.1931  1.5605
 7265SOL    HW233258   4.566   0.589  17.008 -1.1327 -0.5902 -0.4329
 7266SOL     OW33259   1.417   1.522  12.277 -0.1596  0.1562 -0.6821
 7266SOL    HW133260   1.434   1.608  12.314  0.5062 -0.3599  0.2328
 7266SOL    HW233261   1.481   1.478  12.334 -0.0269  0.3669 -0.6664
 7267SOL     OW33262   3.710   2.685   9.320 -0.1401 -0.6053 -0.0474
 7267SOL    HW133263   3.776   2.748   9.291 -0.2770  0.0783  1.1428
 7267SOL    HW233264   3.763   2.620   9.366  0.1081 -0.3107  0.0846
 7268SOL     OW33265   3.809   4.097   6.749  0.4303 -0.2013  0.3730
 7268SOL    HW133266   3.827   4.133   6.836 -0.8466 -1.2770  1.0979
 7268SOL    HW233267   3.794   4.006   6.776 -0.8084 -0.4142 -1.0122
 7269SOL     OW33268   0.364   2.736   9.782  0.1424 -0.2435  0.9443
 7269SOL    HW133269   0.445   2.763   9.826  1.2990  0.6501 -1.7046
 7269SOL    HW233270   0.345   2.657   9.833 -1.4130 -2.0905 -2.5010
 7270SOL     OW33271   2.006   3.094   6.142  0.5355  0.3721 -0.1030
 7270SOL    HW133272   2.100   3.075   6.139 -0.0205 -2.8949  2.6766
 7270SOL    HW233273   1.995   3.116   6.235  0.8992  3.6876 -0.8421
 7271SOL     OW33274   0.005   2.070   3.237  0.2537 -0.1392  0.3456
 7271SOL    HW133275   0.029   1.982   3.265  1.2484 -0.0586 -0.2681
 7271SOL    HW233276   0.076   2.096   3.178 -1.7307 -1.6467 -2.7287
 7272SOL     OW33277   1.544   1.071   8.036 -0.1499 -0.4421  0.2472
 7272SOL    HW133278   1.502   0.989   8.010  2.0869 -1.7919  0.9780
 7272SOL    HW233279   1.518   1.061   8.128 -1.6415 -3.0915 -0.4568
 7273SOL     OW33280   3.740   4.408   2.255  0.0441 -0.4597 -0.6933
 7273SOL    HW133281   3.772   4.371   2.173 -0.3504 -0.6661 -0.7522
 7273SOL    HW233282   3.654   4.366   2.260 -0.3712  0.2981 -1.3309
 7274SOL     OW33283   4.259   0.747   0.979 -0.4115  0.0228  0.2333
 7274SOL    HW133284   4.222   0.661   0.959  1.3237 -0.8844  0.9505
 7274SOL    HW233285   4.342   0.730   1.023 -1.0604 -0.2715  1.3427
 7275SOL     OW33286   3.501   1.657   8.392  0.1221  0.4667 -0.0117
 7275SOL    HW133287   3.426   1.712   8.370 -0.5583 -0.0525  1.0039
 7275SOL    HW233288   3.464   1.602   8.461 -0.3319  0.6308 -0.1265
 7276SOL     OW33289   3.983   0.059  16.301  0.2398  0.5788  0.2789
 7276SOL    HW133290   4.033   0.139  16.288 -0.8841  1.0164 -1.4708
 7276SOL    HW233291   3.930   0.051  16.221  0.2933 -0.5025  0.3504
 7277SOL     OW33292   3.684   1.538   0.833  0.0904  0.6005  0.6754
 7277SOL    HW133293   3.774   1.529   0.802 -0.7069  0.0374 -1.4535
 7277SOL    HW233294   3.636   1.467   0.792  2.4838 -0.5702 -0.0846
 7278SOL     OW33295   1.328   2.504   9.789  0.1726  0.2293  0.1607
 7278SOL    HW133296   1.271   2.496   9.866 -1.2339  1.2345 -0.7636
 7278SOL    HW233297   1.385   2.576   9.816  1.8618 -1.0282 -0.1216
 7279SOL     OW33298   1.971   1.001   2.066 -0.6712  0.0330 -0.6870
 7279SOL    HW133299   1.894   0.971   2.016 -1.8321  0.0210  1.1078
 7279SOL    HW233300   1.993   0.921   2.114  0.4501 -0.4208 -1.9442
 7280SOL     OW33301   3.152   1.287   8.575  0.2193 -0.0586 -0.4198
 7280SOL    HW133302   3.221   1.279   8.510  1.8165 -2.0436  1.5199
 7280SOL    HW233303   3.178   1.370   8.615 -0.7408  0.3978 -0.7214
 7281SOL     OW33304   2.572   1.912  17.681 -1.1123  0.4962  0.2592
 7281SOL    HW133305   2.480   1.890   0.007 -0.9965  0.1261  0.5107
 7281SOL    HW233306   2.577   2.007   0.006 -0.0014  0.5149 -0.6104
 7282SOL     OW33307   3.403   3.195   4.575  0.3591  0.1882 -0.5677
 7282SOL    HW133308   3.326   3.144   4.600  1.6286 -0.0232  2.9062
 7282SOL    HW233309   3.372   3.282   4.550  0.9447 -0.3138 -3.0429
 7283SOL     OW33310   3.469   1.924   2.820  0.3680  0.0998  0.1798
 7283SOL    HW133311   3.395   1.975   2.854 -0.0680 -1.4470  1.5632
 7283SOL    HW233312   3.442   1.865   2.750  3.3712 -0.9611 -0.0843
 7284SOL     OW33313   2.850   4.212  15.384  0.0698  0.2145  0.2971
 7284SOL    HW133314   2.897   4.284  15.426 -0.6082 -1.1931  3.4049
 7284SOL    HW233315   2.805   4.274  15.325 -0.0396  0.5220  0.7030
 7285SOL     OW33316   4.684   0.593  14.069  0.2627 -0.1083  0.1031
 7285SOL    HW133317   4.620   0.545  14.122 -0.2629 -1.0599 -1.4015
 7285SOL    HW233318   4.687   0.677  14.116  2.1562 -1.1026  1.7559
 7286SOL     OW33319   0.561   0.627   7.185  0.4082  0.2237 -0.4909
 7286SOL    HW133320   0.655   0.614   7.187  0.3789  0.4953  2.3604
 7286SOL    HW233321   0.525   0.553   7.135  0.7452 -0.7644  0.7451
 7287SOL     OW33322   0.495   3.934  17.481  0.7579 -0.0989 -0.0857
 7287SOL    HW133323   0.566   3.990  17.450 -0.8575  0.5417 -2.6541
 7287SOL    HW233324   0.540   3.857  17.517 -2.9913 -2.4022 -0.2624
 7288SOL     OW33325   0.829   4.274   6.194  0.1157  0.3069  0.2555
 7288SOL    HW133326   0.752   4.257   6.248  0.2134 -1.7961 -0.2254
 7288SOL    HW233327   0.897   4.252   6.257  1.1572  0.6799 -0.7356
 7289SOL     OW33328   3.164   1.988   3.502  0.1137  0.1465  0.5463
 7289SOL    HW133329   3.108   2.066   3.490  0.9092  0.5020 -0.9319
 7289SOL    HW233330   3.252   2.025   3.510 -0.4044  0.7896  3.0788
 7290SOL     OW33331   0.191   2.438   6.742  0.1473 -0.4610  0.2938
 7290SOL    HW133332   0.186   2.521   6.695 -2.8058 -0.5181  0.5134
 7290SOL    HW233333   0.174   2.459   6.834 -0.4561  2.1446 -0.4284
 7291SOL     OW33334   0.647   1.186   3.280  1.0810 -0.2399 -0.5309
 7291SOL    HW133335   0.655   1.278   3.256  0.9974 -0.8980 -3.0232
 7291SOL    HW233336   0.551   1.187   3.286  1.0932 -1.0937 -0.1354
 7292SOL     OW33337   4.165   1.795   1.002 -0.5463  0.2081 -0.5398
 7292SOL    HW133338   4.142   1.737   0.930  0.8629 -0.4839 -0.4471
 7292SOL    HW233339   4.123   1.756   1.078  0.1980  0.0932 -0.1816
 7293SOL     OW33340   4.458   4.474   9.871  0.5751 -0.6742  0.5619
 7293SOL    HW133341   4.391   4.410   9.895  1.7429 -2.3643 -0.6964
 7293SOL    HW233342   4.478   4.512   9.957  0.8027  1.2339 -0.3370
 7294SOL     OW33343   2.196   2.721   4.715  0.3677 -0.0130  0.4552
 7294SOL    HW133344   2.286   2.691   4.729 -0.1754 -1.2169  1.4835
 7294SOL    HW233345   2.169   2.732   4.806  0.3193 -3.9256  0.9147
 7295SOL     OW33346   1.312   1.026   6.796 -0.5042  0.2469  0.4193
 7295SOL    HW133347   1.295   1.114   6.764 -0.8591  0.3853  0.9846
 7295SOL    HW233348   1.240   0.969   6.771 -0.4019  0.0041  0.6733
 7296SOL     OW33349   3.164   0.513   4.737 -0.5547  0.0130 -0.4626
 7296SOL    HW133350   3.241   0.532   4.791 -0.6499  0.3233 -0.4357
 7296SOL    HW233351   3.092   0.549   4.789 -0.2406  0.1230 -0.1037
 7297SOL     OW33352   2.030   1.157   4.313  0.3658  0.6509 -0.1557
 7297SOL    HW133353   1.976   1.202   4.248 -0.2802 -0.0739 -0.1143
 7297SOL    HW233354   2.014   1.066   4.289 -0.5776  0.4633  1.2201
 7298SOL     OW33355   4.377   2.233   8.010  0.6007  0.1901 -0.6198
 7298SOL    HW133356   4.320   2.159   7.987  0.0729 -0.1395  1.7452
 7298SOL    HW233357   4.456   2.200   7.966  1.9442  3.3345 -0.5600
 7299SOL     OW33358   1.912   4.627   5.145  0.1316 -0.3565  0.0015
 7299SOL    HW133359   1.906   0.003   5.143 -2.6694 -0.5728 -2.4814
 7299SOL    HW233360   1.832   4.596   5.104 -0.4916  0.6557  0.4441
 7300SOL     OW33361   4.017   1.547   9.070 -0.2259  0.1203 -0.1477
 7300SOL    HW133362   4.027   1.572   9.162 -0.0699 -0.1816 -0.0808
 7300SOL    HW233363   4.078   1.614   9.039 -0.6671  1.3359  1.6290
 7301SOL     OW33364   1.094   0.039   6.962  0.2215 -0.3225  0.3113
 7301SOL    HW133365   1.031   4.699   7.002  2.0702 -1.7449  1.0989
 7301SOL    HW233366   1.083   0.106   7.030  0.8012  0.4147 -0.3170
 7302SOL     OW33367   1.717   2.817   2.447  0.3791  0.1862  0.3892
 7302SOL    HW133368   1.779   2.751   2.415 -0.5528  0.0404 -1.0735
 7302SOL    HW233369   1.715   2.803   2.542 -0.0057  0.2729  0.3914
 7303SOL     OW33370   4.127   2.666   4.362  0.1068 -0.2485 -0.4326
 7303SOL    HW133371   4.166   2.674   4.275  2.7426  1.0042  0.8789
 7303SOL    HW233372   4.188   2.723   4.409 -1.6754  3.2613 -2.4089
 7304SOL     OW33373   3.500   3.053   4.894 -0.2993 -0.4816 -0.6227
 7304SOL    HW133374   3.524   2.976   4.946  0.1708  0.3668  0.4297
 7304SOL    HW233375   3.425   3.011   4.852  0.3353 -1.1459 -1.1051
 7305SOL     OW33376   4.362   3.359   4.480  0.3190  0.2146  0.1016
 7305SOL    HW133377   4.449   3.387   4.450  1.1204 -2.2677  0.0834
 7305SOL    HW233378   4.367   3.355   4.575  1.9814  0.5142  0.0377
 7306SOL     OW33379   2.209   2.243   2.532 -0.2928 -0.3191  0.1502
 7306SOL    HW133380   2.268   2.187   2.481 -1.8331 -0.2853 -1.7011
 7306SOL    HW233381   2.122   2.212   2.508  0.5695 -2.1774 -0.5401
 7307SOL     OW33382   4.633   1.289   2.487  0.0687  0.6264 -0.0313
 7307SOL    HW133383   4.697   1.225   2.516  0.2209  0.0995 -1.5246
 7307SOL    HW233384   4.556   1.233   2.474 -0.5443  1.1741  1.2509
 7308SOL     OW33385   0.929   2.220   3.263 -0.3295  0.0560  0.0698
 7308SOL    HW133386   1.020   2.239   3.241  0.4301 -0.8959  2.3536
 7308SOL    HW233387   0.887   2.306   3.252  0.6665  0.5037 -0.2228
 7309SOL     OW33388   4.347   3.360  16.366 -0.1499  0.1978 -0.0166
 7309SOL    HW133389   4.324   3.268  16.379 -0.3306 -0.0596 -2.2410
 7309SOL    HW233390   4.330   3.366  16.272  0.9788  1.6898 -0.1104
 7310SOL     OW33391   0.089   0.171   3.456  0.0544  0.2567 -0.2702
 7310SOL    HW133392   0.031   0.225   3.402  0.2347 -2.1095 -2.8553
 7310SOL    HW233393   0.139   0.242   3.496 -1.1220 -0.0524  1.7178
 7311SOL     OW33394   2.910   2.644  14.494  0.7319  0.3594  0.3131
 7311SOL    HW133395   2.895   2.725  14.447 -0.8937  1.0500  2.0272
 7311SOL    HW233396   2.982   2.599  14.450  2.1206  0.2820  2.6480
 7312SOL     OW33397   3.573   0.482   3.948  0.3022 -0.1684 -0.5485
 7312SOL    HW133398   3.499   0.425   3.970 -0.1544  0.4052 -0.5971
 7312SOL    HW233399   3.578   0.476   3.853 -0.6712 -0.7169 -0.5660
 7313SOL     OW33400   3.390   0.762   3.977 -0.7377 -0.2263  0.8596
 7313SOL    HW133401   3.361   0.838   3.927 -4.0795 -1.4845  0.8630
 7313SOL    HW233402   3.479   0.792   3.995 -0.7337  0.4085 -0.2229
 7314SOL     OW33403   0.665   1.123   5.367 -0.0303 -0.1124 -0.2496
 7314SOL    HW133404   0.594   1.082   5.418 -1.4660  1.5036 -0.9592
 7314SOL    HW233405   0.703   1.191   5.423  0.5776  0.3888 -1.2854
 7315SOL     OW33406   1.550   4.084   7.688  0.3178 -0.0248  0.1678
 7315SOL    HW133407   1.622   4.145   7.673  0.5536 -1.0416 -2.9478
 7315SOL    HW233408   1.475   4.142   7.703 -0.3895 -0.5069 -1.5336
 7316SOL     OW33409   0.927   1.346   8.761  0.4719  0.1414  0.2749
 7316SOL    HW133410   0.895   1.396   8.687  0.8408 -1.1665 -0.7670
 7316SOL    HW233411   0.979   1.413   8.805  0.5037  0.5470 -0.3818
 7317SOL     OW33412   3.953   4.680   1.133 -0.0165 -0.3869 -0.1596
 7317SOL    HW133413   3.937   0.053   1.115  1.2020 -0.1282  0.1136
 7317SOL    HW233414   3.863   4.658   1.160 -0.6039  1.4053 -0.6344
 7318SOL     OW33415   1.037   2.441  17.164 -0.3828 -0.6690 -0.2682
 7318SOL    HW133416   0.951   2.415  17.132  0.2084 -2.3418 -0.5266
 7318SOL    HW233417   1.004   2.455  17.253 -0.8251 -1.7369 -0.2553
 7319SOL     OW33418   1.543   0.873   0.012  0.0341 -0.1674 -0.8359
 7319SOL    HW133419   1.567   0.917  17.614  0.5160 -0.0940 -0.6488
 7319SOL    HW233420   1.561   0.781  17.678 -0.7802 -0.3377 -0.7930
 7320SOL     OW33421   3.984   0.805   8.777 -0.1307  0.1294 -0.3452
 7320SOL    HW133422   3.948   0.733   8.725  2.4394 -1.1220 -0.3959
 7320SOL    HW233423   3.944   0.879   8.732 -2.4717  0.3360  2.0617
 7321SOL     OW33424   4.530   3.464   9.872 -0.1470  0.1707  0.4143
 7321SOL    HW133425   4.619   3.439   9.898  0.0703  0.6813  0.1737
 7321SOL    HW233426   4.551   3.526   9.802  0.3547 -1.7492 -1.1376
 7322SOL     OW33427   3.024   4.175   6.685  0.0405  0.2893  0.2594
 7322SOL    HW133428   3.065   4.235   6.748 -0.1788  1.2335 -0.4873
 7322SOL    HW233429   3.097   4.125   6.648 -0.0979 -0.1113  0.5315
 7323SOL     OW33430   4.503   3.881   8.403 -0.1461  0.1152  0.2533
 7323SOL    HW133431   4.554   3.826   8.344  0.1362 -0.2745  0.8660
 7323SOL    HW233432   4.417   3.850   8.374  0.1592 -0.1550 -0.3695
 7324SOL     OW33433   2.398   3.590  10.079 -0.1787  0.5129  0.2037
 7324SOL    HW133434   2.343   3.666  10.097  0.2873  0.7783  0.5256
 7324SOL    HW233435   2.329   3.524  10.071 -2.1622  2.7114 -0.8297
 7325SOL     OW33436   3.276   3.498   7.291 -0.5098  0.1079 -0.6841
 7325SOL    HW133437   3.264   3.570   7.229 -0.6080  1.2495  0.6627
 7325SOL    HW233438   3.192   3.492   7.336  0.6045  0.9175  1.5118
 7326SOL     OW33439   0.247   1.134  17.522  0.6503 -0.7239  0.5803
 7326SOL    HW133440   0.206   1.051  17.495  0.9273 -0.0240 -2.0304
 7326SOL    HW233441   0.203   1.154  17.604 -1.2906  2.2094 -1.2137
 7327SOL     OW33442   4.014   1.900   6.830  0.3143 -0.2853  0.0409
 7327SOL    HW133443   3.970   1.835   6.775 -1.3171 -0.6389  1.7737
 7327SOL    HW233444   4.056   1.839   6.890 -1.3421 -1.3089  0.1788
 7328SOL     OW33445   0.484   4.410   5.138  0.0510 -0.2009 -0.3626
 7328SOL    HW133446   0.533   4.417   5.220 -0.7279  2.1037 -0.0827
 7328SOL    HW233447   0.495   4.493   5.092 -0.9738  0.9260  1.4338
 7329SOL     OW33448   4.548   0.990   5.376  0.3081 -0.5481 -0.1565
 7329SOL    HW133449   4.634   0.952   5.358  0.0450 -1.8289  1.2376
 7329SOL    HW233450   4.568   1.059   5.440 -0.0067  0.3467 -1.0376
 7330SOL     OW33451   0.621   1.423   3.989  0.0436 -0.0057  0.0702
 7330SOL    HW133452   0.679   1.377   3.928 -0.8027 -0.1724 -0.5941
 7330SOL    HW233453   0.626   1.365   4.065  0.8440 -1.1991 -0.8948
 7331SOL     OW33454   1.173   0.980   8.559 -0.2289  0.6536 -0.9154
 7331SOL    HW133455   1.130   1.023   8.633 -1.6913 -1.9743 -0.2477
 7331SOL    HW233456   1.258   0.959   8.599 -2.4604  0.5451  3.7122
 7332SOL     OW33457   4.423   2.008   9.282 -0.5380  0.0900 -0.1147
 7332SOL    HW133458   4.420   1.913   9.273 -3.3919  0.1674  0.0205
 7332SOL    HW233459   4.517   2.016   9.303 -0.4044  2.8952 -1.7201
 7333SOL     OW33460   2.350   3.290  10.308  0.0560 -0.2627 -0.2166
 7333SOL    HW133461   2.273   3.348  10.301  0.8321  0.8069  0.1260
 7333SOL    HW233462   2.333   3.217  10.248  3.2950  0.4454 -1.9770
 7334SOL     OW33463   4.016   1.615  13.605  0.0463 -0.2098  0.3677
 7334SOL    HW133464   4.066   1.551  13.655 -1.4546 -2.0478 -0.5090
 7334SOL    HW233465   4.007   1.688  13.667  2.1522 -0.0572  0.5028
 7335SOL     OW33466   2.957   4.264  11.649  0.3956  0.0657 -0.5956
 7335SOL    HW133467   2.921   4.239  11.735 -2.3946 -0.9723 -2.0738
 7335SOL    HW233468   3.047   4.231  11.652  0.6055  0.8610  2.0941
 7336SOL     OW33469   1.821   4.177   7.140 -0.0200  0.3072 -0.1433
 7336SOL    HW133470   1.900   4.183   7.086  0.1165  0.5577  0.0881
 7336SOL    HW233471   1.853   4.212   7.222 -1.0915  1.4065 -0.1989
 7337SOL     OW33472   1.920   0.749   4.884  0.1028  0.2144 -0.4483
 7337SOL    HW133473   1.989   0.746   4.818 -0.2288 -1.9090 -0.7170
 7337SOL    HW233474   1.935   0.837   4.918 -0.6597  1.0886 -2.3764
 7338SOL     OW33475   1.729   2.824  11.563 -0.2355 -0.6409  0.0050
 7338SOL    HW133476   1.778   2.899  11.529 -0.1219 -0.7768 -0.1349
 7338SOL    HW233477   1.696   2.779  11.485 -3.3889 -1.6038  1.9181
 7339SOL     OW33478   2.599   2.116   0.505  0.3767  0.4506 -0.0846
 7339SOL    HW133479   2.689   2.148   0.501  1.2446 -1.8882  1.0711
 7339SOL    HW233480   2.565   2.117   0.415  1.9941 -0.3549 -0.7147
 7340SOL     OW33481   4.625   1.397   8.685 -0.5147  0.2342 -0.3800
 7340SOL    HW133482   4.664   1.343   8.616 -1.4273  1.2566 -1.6989
 7340SOL    HW233483   4.544   1.410   8.636  1.9837  3.7586 -3.5331
 7341SOL     OW33484   1.533   0.594  11.872 -0.3955 -0.4173  0.0858
 7341SOL    HW133485   1.550   0.532  11.943  2.0789  0.2753  0.0852
 7341SOL    HW233486   1.487   0.535  11.813  0.5227 -0.7646 -0.2844
 7342SOL     OW33487   4.044   4.260  10.960  0.1826 -0.0615 -0.0246
 7342SOL    HW133488   4.050   4.347  11.000 -1.0415  0.6706 -1.4554
 7342SOL    HW233489   4.119   4.266  10.901 -1.6487  1.4567 -2.1999
 7343SOL     OW33490   1.820   0.565   6.399 -0.4257 -0.9288  0.1317
 7343SOL    HW133491   1.786   0.613   6.475 -0.7448  0.5186 -0.9289
 7343SOL    HW233492   1.872   0.631   6.354  0.5430 -1.0413  1.0815
 7344SOL     OW33493   3.015   2.695  12.583 -0.7338 -0.3314  0.2602
 7344SOL    HW133494   2.979   2.643  12.656 -1.5962 -1.0037 -0.6447
 7344SOL    HW233495   2.998   2.777  12.629 -0.2197 -0.7685  1.2596
 7345SOL     OW33496   1.680   4.392   8.804 -0.4561 -0.0691 -0.0115
 7345SOL    HW133497   1.682   4.421   8.895  0.4127  3.3323 -1.1297
 7345SOL    HW233498   1.736   4.314   8.811 -1.9942 -1.0594  1.4317
 7346SOL     OW33499   3.763   1.835   5.171  0.1483 -0.3832 -0.1543
 7346SOL    HW133500   3.698   1.905   5.179  1.1011  0.4523  0.2406
 7346SOL    HW233501   3.715   1.769   5.122 -0.2590 -1.0257  1.1150
 7347SOL     OW33502   4.126   1.372   2.772 -0.3242 -0.0478  0.4587
 7347SOL    HW133503   4.144   1.292   2.820  1.3251  0.6047  0.9091
 7347SOL    HW233504   4.086   1.420   2.845 -1.6631  0.8726 -0.8703
 7348SOL     OW33505   4.363   4.110   8.504 -0.1763 -0.0208  0.7211
 7348SOL    HW133506   4.444   4.078   8.465 -0.4079 -1.5190  1.4631
 7348SOL    HW233507   4.382   4.197   8.539 -1.0573  0.4218  0.0956
 7349SOL     OW33508   2.225   1.974  16.429 -0.0873  0.2217 -0.1341
 7349SOL    HW133509   2.192   1.900  16.480 -0.9686  0.4643 -0.3615
 7349SOL    HW233510   2.144   2.017  16.403 -0.3737 -1.0756 -1.3915
 7350SOL     OW33511   0.551   4.671   1.652 -0.0364 -0.4465  0.3429
 7350SOL    HW133512   0.492   4.611   1.696  0.8047 -1.6687 -0.1960
 7350SOL    HW233513   0.565   0.013   1.724  1.6130 -0.2538 -0.1337
 7351SOL     OW33514   4.025   3.724  11.318 -0.1024  0.1218 -0.7154
 7351SOL    HW133515   3.999   3.643  11.274  0.3801  0.1713 -1.0790
 7351SOL    HW233516   4.040   3.780  11.242  1.6192  0.1838 -0.3136
 7352SOL     OW33517   4.643   2.387   7.912  0.3159 -0.4232 -0.7183
 7352SOL    HW133518   4.625   2.385   7.818 -1.8062  1.2539 -0.3578
 7352SOL    HW233519   4.680   2.300   7.926 -0.1733 -0.7323 -1.4029
 7353SOL     OW33520   0.075   2.386   5.017 -0.6213 -0.5862  0.2565
 7353SOL    HW133521   0.048   2.459   4.961  1.9099  0.9358  1.0191
 7353SOL    HW233522   0.033   2.314   4.970 -0.4607 -0.3773 -0.2108
 7354SOL     OW33523   1.665   4.554   4.955  0.0535 -0.2454 -0.1683
 7354SOL    HW133524   1.585   4.529   5.002 -0.6132 -1.1048 -1.7775
 7354SOL    HW233525   1.635   4.594   4.873  1.3461  0.8205 -0.1361
 7355SOL     OW33526   0.043   0.115  11.171  0.2496  0.3343 -0.2196
 7355SOL    HW133527   0.005   0.046  11.117  1.1139  2.7742 -3.9267
 7355SOL    HW233528   4.688   0.174  11.179 -0.5593 -1.0681  2.4109
 7356SOL     OW33529   1.590   3.939   8.243 -0.3721 -0.1255  0.0657
 7356SOL    HW133530   1.571   3.989   8.164 -2.4742  1.3856  1.5179
 7356SOL    HW233531   1.546   4.005   8.297  0.1643 -1.1433  1.7408
 7357SOL     OW33532   1.108   0.134   6.518 -0.1227  0.2177 -0.4790
 7357SOL    HW133533   1.154   0.205   6.564  0.0495  0.0524 -0.3964
 7357SOL    HW233534   1.060   0.193   6.459 -0.0028  2.0041  1.2066
 7358SOL     OW33535   1.751   3.010   3.163  0.3662  0.8066 -0.3312
 7358SOL    HW133536   1.760   3.092   3.212 -1.0407  1.6523 -1.4837
 7358SOL    HW233537   1.730   2.944   3.230  3.1776 -0.7694 -1.0263
 7359SOL     OW33538   4.422   4.257   2.958  0.2031 -0.3298 -0.2442
 7359SOL    HW133539   4.397   4.336   3.006  0.5441  1.3751 -2.8710
 7359SOL    HW233540   4.343   4.251   2.904 -0.7467  2.6451  0.8016
 7360SOL     OW33541   0.577   2.040   0.513  0.3922  0.1618 -0.2586
 7360SOL    HW133542   0.646   2.080   0.566 -0.6275  1.2134  0.2785
 7360SOL    HW233543   0.572   1.951   0.548  0.2216 -0.0244 -0.7608
 7361SOL     OW33544   0.995   2.113  14.971 -0.2232  0.1353 -0.5863
 7361SOL    HW133545   0.911   2.142  15.008 -0.2319 -0.8756  0.1847
 7361SOL    HW233546   0.966   2.043  14.913 -0.2288 -1.4095  1.2969
 7362SOL     OW33547   3.205   1.201   4.568 -0.2486 -0.1735  0.7507
 7362SOL    HW133548   3.217   1.280   4.516  0.0669  1.4879  3.3621
 7362SOL    HW233549   3.276   1.143   4.538 -0.0747 -0.4493  1.6900
 7363SOL     OW33550   4.453   3.973  14.158  0.1570 -0.4918 -0.1353
 7363SOL    HW133551   4.379   3.926  14.196  0.6282  0.3109  1.8392
 7363SOL    HW233552   4.512   3.898  14.146  0.3183 -0.0402 -2.1780
 7364SOL     OW33553   2.360   2.548  14.934 -0.6155 -0.1433 -0.1174
 7364SOL    HW133554   2.358   2.619  14.998  1.3850 -0.8638  0.7195
 7364SOL    HW233555   2.266   2.546  14.915 -0.8761  1.8050  1.0260
 7365SOL     OW33556   3.684   4.273  14.974  0.5277  0.1592  0.1796
 7365SOL    HW133557   3.659   4.360  15.005 -0.1073  0.0405 -0.0047
 7365SOL    HW233558   3.693   4.227  15.058  2.1124  0.2903  0.0805
 7366SOL     OW33559   3.046   1.691   9.794 -0.0912 -0.1523  0.3156
 7366SOL    HW133560   3.131   1.650   9.780 -0.7694 -1.6013  0.4924
 7366SOL    HW233561   3.032   1.751   9.721  0.8674  0.9233  1.0108
 7367SOL     OW33562   3.327   4.602  17.215 -0.1145 -0.0034 -0.3740
 7367SOL    HW133563   3.352   4.604  17.123 -1.4948 -0.8357 -0.7750
 7367SOL    HW233564   3.378   4.527  17.244  2.4704  2.3752  1.2729
 7368SOL     OW33565   1.621   4.694   5.957  0.3066  0.0281  0.3556
 7368SOL    HW133566   1.545   4.682   5.901 -2.0254 -0.9366  3.7389
 7368SOL    HW233567   1.690   4.678   5.893 -0.0688  0.0015 -0.0459
 7369SOL     OW33568   3.300   1.065   6.576  0.7410  0.5452 -0.5251
 7369SOL    HW133569   3.354   1.034   6.650  0.1210 -0.5976 -0.5524
 7369SOL    HW233570   3.223   1.101   6.620  0.8867 -1.1462  1.1035
 7370SOL     OW33571   2.911   1.690  12.950 -0.3438  0.4090 -0.2082
 7370SOL    HW133572   2.938   1.765  13.002  0.5166  0.9596 -1.4418
 7370SOL    HW233573   2.981   1.627  12.965 -0.5746  0.0623 -0.5840
 7371SOL     OW33574   0.903   2.553  10.077  0.5418  0.1966 -0.3346
 7371SOL    HW133575   0.873   2.590  10.160  0.6273 -0.8331  0.1534
 7371SOL    HW233576   0.876   2.635  10.035 -2.4211 -1.0342 -0.7649
 7372SOL     OW33577   3.662   1.528   5.519 -0.8679 -0.6249  0.0101
 7372SOL    HW133578   3.684   1.521   5.426  0.6241  0.3370  0.2863
 7372SOL    HW233579   3.578   1.573   5.522 -0.1255  0.7810 -0.3112
 7373SOL     OW33580   2.262   2.606   6.768  0.4861  1.0386  0.5236
 7373SOL    HW133581   2.354   2.629   6.784  0.9406  0.8833 -1.9083
 7373SOL    HW233582   2.255   2.661   6.690 -2.1693 -0.8315 -0.5571
 7374SOL     OW33583   0.573   3.016   4.553 -0.5129  0.0569  0.6215
 7374SOL    HW133584   0.574   3.099   4.600 -1.3082 -0.0165  0.7548
 7374SOL    HW233585   0.506   3.026   4.486  1.0287 -1.5531 -1.1458
 7375SOL     OW33586   2.324   2.352  12.728  0.0408 -0.4134 -0.2043
 7375SOL    HW133587   2.305   2.366  12.820 -0.0429  2.4092 -0.6398
 7375SOL    HW233588   2.260   2.410  12.687 -1.5754 -2.6002 -0.7726
 7376SOL     OW33589   3.157   1.499   4.696  0.2664  0.1566 -0.0362
 7376SOL    HW133590   3.240   1.473   4.736  0.5688  1.0875 -0.0557
 7376SOL    HW233591   3.111   1.526   4.776 -0.7643  0.4953 -0.7524
 7377SOL     OW33592   3.776   0.873  10.946 -0.0009 -0.4613 -0.0465
 7377SOL    HW133593   3.801   0.782  10.959 -0.9982 -0.9791 -1.7466
 7377SOL    HW233594   3.693   0.894  10.988 -0.3246 -2.1504  0.1658
 7378SOL     OW33595   2.948   2.466   4.649  0.0118 -0.1460 -0.0218
 7378SOL    HW133596   2.940   2.554   4.613 -2.1536 -0.0972  0.5811
 7378SOL    HW233597   2.898   2.408   4.592  1.4144  0.2635 -1.6763
 7379SOL     OW33598   0.372   2.501   0.809 -0.1929 -0.3528 -0.1036
 7379SOL    HW133599   0.460   2.462   0.816  1.1642  2.8918  1.1066
 7379SOL    HW233600   0.373   2.568   0.741 -0.1942 -0.2117  0.0343
 7380SOL     OW33601   3.402   4.295  13.836  0.4831  0.7776 -0.0534
 7380SOL    HW133602   3.420   4.384  13.866  2.1509 -0.4853  2.7585
 7380SOL    HW233603   3.483   4.275  13.790  1.0479  0.7082  0.9604
 7381SOL     OW33604   1.037   1.825   9.213 -0.1814 -0.3971  0.9534
 7381SOL    HW133605   1.125   1.809   9.179 -1.0478 -0.9588 -0.9995
 7381SOL    HW233606   0.978   1.791   9.146  2.6406 -0.4890 -1.4681
 7382SOL     OW33607   3.424   0.971  10.325 -0.0498 -0.2643  0.0644
 7382SOL    HW133608   3.427   0.881  10.293 -0.3084 -0.0743 -0.5039
 7382SOL    HW233609   3.434   0.951  10.418 -0.2924  0.7204  0.2993
 7383SOL     OW33610   0.048   0.355   7.307  0.3194 -0.8128  0.3455
 7383SOL    HW133611   0.002   0.285   7.353 -0.2420 -0.3170  0.5423
 7383SOL    HW233612   0.056   0.417   7.380 -0.3060  0.3636 -0.5832
 7384SOL     OW33613   3.016   2.896   7.546  0.3266 -0.4992  0.3594
 7384SOL    HW133614   3.070   2.942   7.611 -2.7529  1.4181  1.5796
 7384SOL    HW233615   2.971   2.829   7.597 -0.3971 -1.5038 -1.6284
 7385SOL     OW33616   2.543   0.948  13.229 -0.3737  0.9652 -0.0568
 7385SOL    HW133617   2.540   1.027  13.175 -1.6924  1.7356  1.1348
 7385SOL    HW233618   2.479   0.969  13.297  0.4446 -0.1095  1.0417
 7386SOL     OW33619   0.691   3.283   1.721  0.1088  0.6430  0.1990
 7386SOL    HW133620   0.641   3.201   1.714  1.0105  0.1241 -0.2655
 7386SOL    HW233621   0.734   3.278   1.806 -0.0033 -2.3235  0.0958
 7387SOL     OW33622   2.586   0.443   5.986  0.1332  0.1475 -0.2414
 7387SOL    HW133623   2.587   0.355   5.947 -2.3043  0.2509 -0.5556
 7387SOL    HW233624   2.555   0.414   6.071 -1.2156  1.6639 -0.2179
 7388SOL     OW33625   0.160   0.984   0.300  0.8889 -0.4764  0.8719
 7388SOL    HW133626   0.097   0.979   0.372 -0.7825 -0.6901 -0.6048
 7388SOL    HW233627   0.230   0.937   0.345  0.8029  1.4395  2.9720
 7389SOL     OW33628   4.532   2.428   5.771 -0.0806 -0.3434 -0.0917
 7389SOL    HW133629   4.593   2.480   5.825 -2.3756  0.3427  1.8657
 7389SOL    HW233630   4.454   2.450   5.822 -0.5839 -2.3017 -0.0410
 7390SOL     OW33631   0.239   2.180   6.687  0.5216 -0.1685 -0.0317
 7390SOL    HW133632   0.239   2.275   6.700 -1.8066 -0.2436  0.5177
 7390SOL    HW233633   0.162   2.162   6.741  1.5756  1.3293  1.9786
 7391SOL     OW33634   0.037   2.173   8.324 -0.0140 -0.0267  0.5754
 7391SOL    HW133635   0.006   2.141   8.239  0.4148  2.2162 -0.4269
 7391SOL    HW233636   0.129   2.153   8.309  0.2760  0.7610  1.3472
 7392SOL     OW33637   1.227   2.110   9.580  0.9775 -0.2655  0.2342
 7392SOL    HW133638   1.192   2.100   9.669 -0.3699  0.4384 -0.2198
 7392SOL    HW233639   1.157   2.080   9.522  2.7877 -1.8730 -1.1197
 7393SOL     OW33640   4.060   3.517   3.943 -0.2521 -0.3384  0.0012
 7393SOL    HW133641   4.117   3.446   3.914 -0.8205 -1.0813  0.6848
 7393SOL    HW233642   4.116   3.567   4.003  0.6634 -0.7217 -0.5272
 7394SOL     OW33643   3.591   2.520   4.377 -0.2474 -0.7941  0.1297
 7394SOL    HW133644   3.679   2.557   4.385 -0.7409  0.3521  0.3316
 7394SOL    HW233645   3.545   2.591   4.331  1.3922  0.4341  0.3861
 7395SOL     OW33646   0.214   2.609   2.172  0.1650  0.0961 -0.1433
 7395SOL    HW133647   0.159   2.610   2.251  1.1494  1.1121  0.5249
 7395SOL    HW233648   0.287   2.555   2.202 -1.0769 -0.7464  1.3304
 7396SOL     OW33649   2.805   3.429  10.361  0.2528 -0.2441 -0.2904
 7396SOL    HW133650   2.827   3.423  10.268 -0.8189 -3.8954 -0.2857
 7396SOL    HW233651   2.851   3.512  10.374  0.2816 -0.2766 -0.1930
 7397SOL     OW33652   2.483   1.970  12.057 -0.4888  0.3014  0.1107
 7397SOL    HW133653   2.465   1.935  12.144 -0.0998  2.3300  1.0044
 7397SOL    HW233654   2.448   1.885  12.032 -0.0688  0.0420  0.4076
 7398SOL     OW33655   4.556   3.251   6.035  0.2812 -0.2122 -0.2940
 7398SOL    HW133656   4.512   3.185   6.087 -2.5168  1.4905 -0.5190
 7398SOL    HW233657   4.640   3.210   6.016  0.1114 -1.4451  1.6889
 7399SOL     OW33658   2.861   2.062  15.205  0.1744 -0.2899  0.2362
 7399SOL    HW133659   2.940   2.021  15.170  1.2402  0.0858  2.1998
 7399SOL    HW233660   2.796   1.999  15.174 -0.6368  0.8177 -0.3074
 7400SOL     OW33661   2.517   3.000   5.136  0.1538 -0.3404  0.2184
 7400SOL    HW133662   2.604   2.997   5.096 -0.8132 -1.0644 -1.8588
 7400SOL    HW233663   2.525   3.047   5.219 -0.7323  0.8615 -0.3819
 7401SOL     OW33664   1.115   4.064   5.503  0.2203 -0.2496 -0.1798
 7401SOL    HW133665   1.106   3.969   5.500  0.5733 -0.3298  1.0768
 7401SOL    HW233666   1.039   4.088   5.557 -0.3565 -0.0881 -1.0622
 7402SOL     OW33667   3.342   2.066  16.249  0.0643  0.3843  0.1446
 7402SOL    HW133668   3.385   2.139  16.204  0.4150 -1.5739 -2.6411
 7402SOL    HW233669   3.260   2.062  16.201  0.6274 -1.6312 -0.6559
 7403SOL     OW33670   4.602   1.271   5.914 -0.1041  1.2275  0.2794
 7403SOL    HW133671   4.547   1.209   5.962 -0.0500  1.4273  0.6069
 7403SOL    HW233672   4.532   1.316   5.867 -0.6464  0.6991  0.5816
 7404SOL     OW33673   1.814   3.242  13.364 -0.0479 -0.1390 -0.5320
 7404SOL    HW133674   1.907   3.223  13.373  0.1909  1.7873  1.0288
 7404SOL    HW233675   1.787   3.234  13.455  2.1677  0.9156  0.2062
 7405SOL     OW33676   0.719   3.971   8.396 -0.3243  0.2637 -0.4880
 7405SOL    HW133677   0.811   3.988   8.374 -0.3129 -0.1679 -0.7621
 7405SOL    HW233678   0.682   4.031   8.331  1.9462  2.8106  0.5661
 7406SOL     OW33679   4.463   3.295   5.151 -0.4386  0.1577 -0.1206
 7406SOL    HW133680   4.391   3.237   5.127 -1.5645  1.3715  0.3251
 7406SOL    HW233681   4.423   3.375   5.187 -0.6762  0.6237 -1.4256
 7407SOL     OW33682   3.755   0.295   7.371  0.0873  0.0258  0.0417
 7407SOL    HW133683   3.706   0.340   7.303 -0.4177 -0.1507  0.2885
 7407SOL    HW233684   3.700   0.220   7.392 -1.9915  1.0153 -2.0035
 7408SOL     OW33685   0.990   1.973   5.346 -0.9937  0.3550  0.9972
 7408SOL    HW133686   0.993   2.007   5.257  1.4246  0.8607  1.2860
 7408SOL    HW233687   0.908   2.012   5.375 -0.7059 -0.0240  2.3135
 7409SOL     OW33688   2.420   0.136   7.440 -0.0093 -0.1506  0.1193
 7409SOL    HW133689   2.402   0.064   7.379 -3.1763  0.5008  0.2577
 7409SOL    HW233690   2.514   0.132   7.458 -0.1471 -0.3180  0.8129
 7410SOL     OW33691   0.928   1.916   6.240  0.4349 -0.1604 -0.4593
 7410SOL    HW133692   0.849   1.903   6.291  1.1523 -0.3831  0.6104
 7410SOL    HW233693   0.964   1.828   6.248  1.5454  0.2020 -1.4250
 7411SOL     OW33694   3.886   2.879   9.280  0.2565  0.0791 -0.0887
 7411SOL    HW133695   3.934   2.931   9.215  0.8829  2.4557  2.2743
 7411SOL    HW233696   3.810   2.931   9.306 -0.2514  0.1538 -1.6652
 7412SOL     OW33697   3.471   0.360  14.120  0.7347  0.1474 -0.4365
 7412SOL    HW133698   3.519   0.372  14.039 -0.0322  1.0243 -0.7551
 7412SOL    HW233699   3.485   0.446  14.159  2.3548 -0.7715  1.0553
 7413SOL     OW33700   3.943   0.645  14.531  0.4146 -0.5845  0.2473
 7413SOL    HW133701   3.905   0.672  14.447 -0.5334  1.8937  1.4628
 7413SOL    HW233702   4.037   0.644  14.510  0.5189  1.0173  0.5836
 7414SOL     OW33703   1.081   3.750   6.560 -0.3909  0.7044 -0.2606
 7414SOL    HW133704   1.043   3.783   6.479  1.4663  0.8666 -1.0589
 7414SOL    HW233705   1.160   3.801   6.573  0.3315 -0.7301  0.9931
 7415SOL     OW33706   1.560   0.769  12.595  0.1097 -0.3162 -0.4034
 7415SOL    HW133707   1.643   0.792  12.637  0.1167  0.1128 -0.6460
 7415SOL    HW233708   1.570   0.680  12.564  1.4300 -1.0220  2.0146
 7416SOL     OW33709   1.562   3.150  13.519  0.1291  0.4078  0.2904
 7416SOL    HW133710   1.604   3.232  13.497  0.5613 -0.7389 -3.1666
 7416SOL    HW233711   1.632   3.094  13.553  1.1882  0.7409 -1.3613
 7417SOL     OW33712   4.107   0.451   2.180 -0.3217 -0.0664 -0.1127
 7417SOL    HW133713   4.123   0.526   2.122  1.7173  0.7750  1.5481
 7417SOL    HW233714   4.050   0.394   2.129 -0.4813 -0.3698  0.4038
 7418SOL     OW33715   1.047   2.386  14.310  0.0152 -0.0986  0.1997
 7418SOL    HW133716   1.130   2.413  14.348 -1.2536  2.0635  1.4508
 7418SOL    HW233717   1.052   2.291  14.317 -0.4488 -0.0595  1.1329
 7419SOL     OW33718   3.629   0.769   6.571 -0.2306 -0.0763  0.3497
 7419SOL    HW133719   3.576   0.808   6.641 -0.1256 -1.2415  1.0732
 7419SOL    HW233720   3.703   0.733   6.619  0.1680 -0.2386 -0.3767
 7420SOL     OW33721   1.586   1.167   4.283 -1.0007 -0.6688 -0.1015
 7420SOL    HW133722   1.649   1.222   4.330 -0.3876 -1.0539 -0.4670
 7420SOL    HW233723   1.535   1.241   4.250 -1.9729 -1.1094  0.4041
 7421SOL     OW33724   0.927   4.105   0.836 -0.0561 -0.3842 -0.3664
 7421SOL    HW133725   0.938   4.124   0.930 -0.2696 -1.1223 -0.1958
 7421SOL    HW233726   0.951   4.013   0.838  1.7420  0.0487 -3.0231
 7422SOL     OW33727   0.903   3.960  17.367  0.1812  0.2508 -0.0353
 7422SOL    HW133728   0.975   3.897  17.368 -0.6313 -0.6704  0.4234
 7422SOL    HW233729   0.891   3.968  17.273  1.3759  2.3068 -0.0178
 7423SOL     OW33730   3.173   3.282   9.010  0.4100  0.4200  0.3691
 7423SOL    HW133731   3.227   3.206   8.988  0.1164  0.7173 -1.3156
 7423SOL    HW233732   3.146   3.305   8.921  0.2271  3.4597  1.2074
 7424SOL     OW33733   0.282   3.918   2.175 -0.1833  0.2717  0.0831
 7424SOL    HW133734   0.331   3.872   2.242  0.2427 -0.0621 -0.4582
 7424SOL    HW233735   0.200   3.949   2.213  0.0219  1.8658 -0.7582
 7425SOL     OW33736   0.120   0.103   5.956  0.1299  0.3361 -0.5108
 7425SOL    HW133737   0.206   0.111   5.916  1.1498  0.3994  1.6963
 7425SOL    HW233738   0.145   0.107   6.048  0.1985 -3.0781 -0.4022
 7426SOL     OW33739   2.378   0.014   7.011 -0.4122 -0.0178  0.3285
 7426SOL    HW133740   2.423   4.662   7.055 -0.0076  0.6560  1.0138
 7426SOL    HW233741   2.396   4.714   6.919 -3.9669  0.5066 -0.4593
 7427SOL     OW33742   4.312   2.361   4.048  0.4295  0.5234  0.1330
 7427SOL    HW133743   4.371   2.286   4.038 -1.5551 -1.2159  1.4758
 7427SOL    HW233744   4.327   2.414   3.970  1.6151  1.5959  1.1038
 7428SOL     OW33745   4.587   3.767  12.110  0.2288 -0.0164  0.0521
 7428SOL    HW133746   4.608   3.850  12.152  1.5485 -1.2340  1.7975
 7428SOL    HW233747   4.574   3.786  12.017 -1.2418 -1.7189 -0.1062
 7429SOL     OW33748   0.123   3.757   1.541 -0.2462  0.0649 -0.2101
 7429SOL    HW133749   0.066   3.833   1.529 -1.2425 -0.6964 -0.3007
 7429SOL    HW233750   0.205   3.788   1.503  0.3921  0.4545  1.5098
 7430SOL     OW33751   4.557   4.211  10.571 -0.6197 -0.0868  0.0347
 7430SOL    HW133752   4.604   4.156  10.633 -0.7002  2.7477  2.6012
 7430SOL    HW233753   4.507   4.262  10.635  0.2109  0.2007  0.4520
 7431SOL     OW33754   1.234   3.031  14.912  0.8906 -0.2254 -0.7639
 7431SOL    HW133755   1.285   3.110  14.928 -0.7167  1.0587 -2.0361
 7431SOL    HW233756   1.300   2.972  14.878  1.9626  0.7828 -0.4242
 7432SOL     OW33757   1.019   1.816   4.347 -0.3960 -0.3503  0.5437
 7432SOL    HW133758   0.966   1.895   4.359 -2.5468 -1.6235 -0.5179
 7432SOL    HW233759   1.098   1.840   4.395 -0.1898  2.6955 -1.2804
 7433SOL     OW33760   3.363   0.787   9.601 -0.3615 -0.3559 -0.1508
 7433SOL    HW133761   3.391   0.698   9.583 -0.3056 -1.1173  3.6379
 7433SOL    HW233762   3.379   0.822   9.513  3.6800 -1.6406  0.0572
 7434SOL     OW33763   1.346   3.897   6.457  0.0511  0.2931  0.0734
 7434SOL    HW133764   1.373   3.942   6.537  1.4818 -0.3285 -0.0581
 7434SOL    HW233765   1.323   3.978   6.411  1.3579  1.0066  0.7009
 7435SOL     OW33766   4.067   4.516   3.635 -0.3128 -0.4032  0.1107
 7435SOL    HW133767   4.005   4.587   3.652  1.6441  1.2751  0.1021
 7435SOL    HW233768   4.086   4.538   3.544  0.7591 -1.4410  0.0778
 7436SOL     OW33769   0.327   2.614   6.536 -0.3238  0.0049  0.1104
 7436SOL    HW133770   0.265   2.676   6.575  0.1846 -0.1532  1.1834
 7436SOL    HW233771   0.309   2.646   6.448  2.2725 -2.2818 -1.2399
 7437SOL     OW33772   1.530   4.590   2.409  0.0919  0.1329 -0.6069
 7437SOL    HW133773   1.472   4.594   2.333  1.5063  1.9281 -1.6275
 7437SOL    HW233774   1.477   4.634   2.475 -0.2548 -0.6712 -0.3536
 7438SOL     OW33775   2.329   4.140   4.338  0.1861 -0.4591  0.1091
 7438SOL    HW133776   2.390   4.208   4.364 -1.5732 -0.2665  3.8014
 7438SOL    HW233777   2.354   4.081   4.409 -0.5259  0.0086  0.7467
 7439SOL     OW33778   3.392   0.631   6.201 -0.4693  0.0961 -0.3729
 7439SOL    HW133779   3.402   0.586   6.285  0.2352  0.4802 -0.2486
 7439SOL    HW233780   3.483   0.657   6.184  0.0242 -1.9468 -0.9689
 7440SOL     OW33781   1.187   3.363   1.380  0.0619 -0.1565  0.4163
 7440SOL    HW133782   1.159   3.422   1.310 -0.5687  0.3348  1.0760
 7440SOL    HW233783   1.205   3.280   1.335  2.1472  0.1764  0.6479
 7441SOL     OW33784   4.260   2.721  14.127 -0.3570 -0.2136  0.1471
 7441SOL    HW133785   4.320   2.720  14.052 -1.2726 -0.2792 -0.5806
 7441SOL    HW233786   4.286   2.799  14.175  0.0167  0.6464 -1.4583
 7442SOL     OW33787   2.304   0.205   6.702  0.1697 -0.1933 -0.2528
 7442SOL    HW133788   2.314   0.298   6.724  1.7089 -0.9295  2.1129
 7442SOL    HW233789   2.272   0.199   6.611  1.1658 -1.8252 -0.4925
 7443SOL     OW33790   3.792   0.953   3.607  0.0135 -0.1800  0.0001
 7443SOL    HW133791   3.813   0.973   3.699 -1.0800 -0.2976  0.2720
 7443SOL    HW233792   3.845   0.875   3.588  0.2331 -0.3163  1.1341
 7444SOL     OW33793   3.194   2.104  14.907 -0.6645 -0.0506  0.0353
 7444SOL    HW133794   3.110   2.104  14.861 -0.8862  0.7544  0.4503
 7444SOL    HW233795   3.185   2.157  14.987  1.7923 -0.4513  0.5908
 7445SOL     OW33796   0.206   4.185   8.325 -0.1708 -0.0179 -0.4004
 7445SOL    HW133797   0.275   4.181   8.259 -1.4044  2.2241 -1.8052
 7445SOL    HW233798   0.206   4.279   8.341  0.6351  0.2059 -1.7722
 7446SOL     OW33799   4.561   1.513  17.036 -0.3396 -0.0626 -0.2280
 7446SOL    HW133800   4.635   1.471  17.079  0.2364  1.4918  0.3069
 7446SOL    HW233801   4.491   1.458  17.071 -0.0680 -1.1560 -1.4112
 7447SOL     OW33802   4.180   3.181   6.260  0.9142 -0.3602 -0.4633
 7447SOL    HW133803   4.100   3.129   6.256 -0.3315  1.5747 -0.7731
 7447SOL    HW233804   4.192   3.203   6.168  1.0212  1.4489 -0.0229
 7448SOL     OW33805   1.484   0.128  17.527 -0.3356 -0.3036 -0.0351
 7448SOL    HW133806   1.553   0.140  17.592 -1.9760 -2.3816  2.1114
 7448SOL    HW233807   1.504   0.036  17.507  0.3613 -0.3233  0.7320
 7449SOL     OW33808   4.427   1.096   3.721  0.3237  0.0378  0.2887
 7449SOL    HW133809   4.475   1.013   3.719  0.1129 -0.0730 -0.0802
 7449SOL    HW233810   4.502   1.156   3.720  0.3873 -0.0662 -0.6033
 7450SOL     OW33811   2.119   3.912  15.234 -0.0397 -0.3536  0.2406
 7450SOL    HW133812   2.095   4.004  15.238 -0.0610 -0.2521 -2.2603
 7450SOL    HW233813   2.100   3.889  15.325  1.1264 -0.7315  0.3883
 7451SOL     OW33814   0.476   3.810   5.291  0.0559  0.0677 -0.0164
 7451SOL    HW133815   0.566   3.795   5.318 -0.2868 -0.1759  0.9746
 7451SOL    HW233816   0.448   3.849   5.374 -0.7388 -0.8147  0.1160
 7452SOL     OW33817   1.158   1.984   3.150 -0.3751  0.2598  0.0985
 7452SOL    HW133818   1.201   1.899   3.140  2.0803  1.5283 -0.0571
 7452SOL    HW233819   1.099   1.994   3.075 -3.2379 -2.5653  1.9885
 7453SOL     OW33820   2.968   2.931   5.659 -0.5691  0.1159  0.3358
 7453SOL    HW133821   2.891   2.875   5.665  0.1690 -1.0458 -0.9998
 7453SOL    HW233822   2.919   3.013   5.664  0.5390  0.8382 -0.5363
 7454SOL     OW33823   3.068   1.501  13.946 -0.2197 -0.3216  0.0727
 7454SOL    HW133824   2.975   1.482  13.933 -0.7317  1.3802  1.2853
 7454SOL    HW233825   3.079   1.576  14.004  2.0258  1.3804 -2.5918
 7455SOL     OW33826   2.596   3.109   4.520  0.1080 -0.2900 -0.1408
 7455SOL    HW133827   2.665   3.148   4.467 -2.4323  4.7297  0.2620
 7455SOL    HW233828   2.633   3.023   4.538 -1.2372 -1.5120 -3.1531
 7456SOL     OW33829   2.962   2.315   0.246  0.5249  0.0256  0.4069
 7456SOL    HW133830   2.895   2.364   0.197  1.4431  0.6070 -0.2588
 7456SOL    HW233831   2.923   2.295   0.331  1.6920  1.4816  1.2850
 7457SOL     OW33832   1.446   4.067  11.667  0.6865 -0.0838  0.3288
 7457SOL    HW133833   1.540   4.051  11.671  0.3496 -1.9734  0.3490
 7457SOL    HW233834   1.424   3.990  11.718 -1.4934 -1.4013 -2.5993
 7458SOL     OW33835   2.230   0.503   7.094  0.1052 -0.1582  0.3392
 7458SOL    HW133836   2.212   0.597   7.092  0.6766 -0.0754 -1.1115
 7458SOL    HW233837   2.246   0.491   7.188  1.2466 -0.3219  0.1240
 7459SOL     OW33838   4.189   2.917  14.856  0.0434  0.1994  0.1167
 7459SOL    HW133839   4.278   2.888  14.834  0.4985  1.7469 -0.1126
 7459SOL    HW233840   4.140   2.846  14.816  1.1747  0.4392 -1.7049
 7460SOL     OW33841   2.911   1.331   2.793 -0.0143 -0.6459 -0.1434
 7460SOL    HW133842   2.848   1.323   2.722  2.7351 -1.9313 -2.4375
 7460SOL    HW233843   2.842   1.344   2.859  0.1407  0.2186 -0.1594
 7461SOL     OW33844   1.488   3.455   2.020 -0.2824  0.3116  0.4764
 7461SOL    HW133845   1.461   3.460   2.112 -0.8569 -0.6687  0.3610
 7461SOL    HW233846   1.408   3.423   1.978  0.2507 -0.6154  0.1648
 7462SOL     OW33847   2.884   2.338  11.220  0.5432  0.2818  0.0161
 7462SOL    HW133848   2.913   2.261  11.171 -0.5601 -0.3254  0.3062
 7462SOL    HW233849   2.841   2.392  11.153 -0.5421 -2.4717 -1.5248
 7463SOL     OW33850   2.100   3.198  16.613 -0.2045  0.4460 -0.6304
 7463SOL    HW133851   2.084   3.269  16.551  0.1373 -0.4573 -1.7337
 7463SOL    HW233852   2.011   3.185  16.645 -0.3300 -0.9107 -1.5320
 7464SOL     OW33853   2.437   4.241  12.273 -0.6354 -0.3800  0.0189
 7464SOL    HW133854   2.394   4.230  12.188  1.4805  1.0715 -1.2590
 7464SOL    HW233855   2.428   4.336  12.283 -1.2415 -0.5733  1.2188
 7465SOL     OW33856   3.566   2.313   7.480 -0.0040  0.2922  0.6897
 7465SOL    HW133857   3.496   2.343   7.422  1.6685  3.5683  0.3670
 7465SOL    HW233858   3.535   2.364   7.555  0.8450 -2.2854  2.7798
 7466SOL     OW33859   2.263   1.816   4.162 -0.1657 -0.1903  0.6646
 7466SOL    HW133860   2.249   1.884   4.096 -3.4610 -0.0687  1.4690
 7466SOL    HW233861   2.258   1.862   4.246  2.6195  1.4533 -0.0646
 7467SOL     OW33862   2.576   2.908   7.902  0.4223  0.4767  0.1359
 7467SOL    HW133863   2.523   2.956   7.839 -2.1969 -1.5403  0.8155
 7467SOL    HW233864   2.524   2.896   7.981  1.7064  2.0341  1.2193
 7468SOL     OW33865   3.459   0.962   6.307 -0.7209 -0.0562 -0.3519
 7468SOL    HW133866   3.396   0.972   6.378 -2.0647 -0.9524 -1.4222
 7468SOL    HW233867   3.539   0.948   6.358 -1.6941 -1.5941  0.7307
 7469SOL     OW33868   0.693   0.656   3.267  0.2605 -0.5266  0.1525
 7469SOL    HW133869   0.714   0.750   3.262 -0.6784 -0.4215 -1.8093
 7469SOL    HW233870   0.649   0.649   3.352 -1.8439 -0.6928 -0.9645
 7470SOL     OW33871   3.866   3.850  12.459 -0.1753  0.2650  0.2591
 7470SOL    HW133872   3.786   3.886  12.420  1.4662  0.8934 -2.4723
 7470SOL    HW233873   3.832   3.788  12.524 -0.8879 -0.0641 -0.4264
 7471SOL     OW33874   2.531   0.030   2.871  0.4209  0.3930 -0.2073
 7471SOL    HW133875   2.600   4.700   2.828 -0.2707  0.9926 -2.0089
 7471SOL    HW233876   2.495   4.687   2.933 -0.9457  1.5693  0.1969
 7472SOL     OW33877   3.709   2.894   3.375 -0.3139 -0.1318 -0.2086
 7472SOL    HW133878   3.673   2.837   3.443  0.6347 -0.3783  0.0881
 7472SOL    HW233879   3.758   2.961   3.423 -0.7166 -0.0480  0.0894
 7473SOL     OW33880   3.996   3.513   3.065  0.2147 -0.1338 -0.7295
 7473SOL    HW133881   3.994   3.599   3.023 -2.2948  0.5527  0.7671
 7473SOL    HW233882   3.911   3.499   3.108  0.8321 -0.0561  0.5194
 7474SOL     OW33883   3.390   0.428  10.434  0.4371 -0.0961  0.1491
 7474SOL    HW133884   3.313   0.371  10.438  1.0914 -1.0044 -0.1213
 7474SOL    HW233885   3.397   0.456  10.526 -0.6472  2.4811 -0.5733
 7475SOL     OW33886   2.417   0.575   4.288 -0.1474  0.6776  0.1834
 7475SOL    HW133887   2.485   0.515   4.259 -1.6217  0.0022 -1.8943
 7475SOL    HW233888   2.429   0.659   4.245 -0.3031  1.8870  2.5311
 7476SOL     OW33889   0.402   2.061   4.132 -0.4091  0.1425  0.1968
 7476SOL    HW133890   0.415   1.966   4.143 -2.1654 -0.1106  0.1428
 7476SOL    HW233891   0.427   2.073   4.041  1.3408  1.2980  0.8371
 7477SOL     OW33892   3.518   1.405  15.304 -0.2555 -0.2257 -0.0439
 7477SOL    HW133893   3.570   1.414  15.224 -1.1449 -0.4312 -0.6383
 7477SOL    HW233894   3.552   1.324  15.342 -1.9869  0.1331  2.2217
 7478SOL     OW33895   3.949   4.411  12.432  0.2122 -0.5360 -0.0940
 7478SOL    HW133896   4.042   4.396  12.413  0.5329 -0.5282  1.4641
 7478SOL    HW233897   3.972   4.483  12.491  0.3346 -1.0335  0.4682
 7479SOL     OW33898   3.144   1.814   4.635  0.3152  0.3619 -0.2102
 7479SOL    HW133899   3.129   1.757   4.560  0.4933  0.2737 -0.1789
 7479SOL    HW233900   3.239   1.811   4.648  0.6018  1.3751 -2.0931
 7480SOL     OW33901   3.532   4.436  10.683  0.1531 -0.0818 -0.2744
 7480SOL    HW133902   3.561   4.354  10.642  0.9387 -0.4422  1.0138
 7480SOL    HW233903   3.581   4.500  10.631 -1.3424  0.7668 -0.6219
 7481SOL     OW33904   3.836   0.251  10.109 -0.2963  0.0006 -0.1971
 7481SOL    HW133905   3.923   0.290  10.101 -0.7086  0.8089 -0.7083
 7481SOL    HW233906   3.785   0.321  10.069  1.3559 -0.5360 -3.2175
 7482SOL     OW33907   2.888   0.977  10.865  0.2351 -0.0761 -0.0294
 7482SOL    HW133908   2.886   1.024  10.948  1.5299 -0.1605  0.0435
 7482SOL    HW233909   2.797   0.987  10.837  0.2486 -0.6427 -0.2848
 7483SOL     OW33910   3.463   1.498   6.489 -0.1643 -0.2432  0.3065
 7483SOL    HW133911   3.531   1.565   6.485  2.2711 -2.7909 -1.1298
 7483SOL    HW233912   3.388   1.550   6.519 -1.0986 -1.0470 -0.6576
 7484SOL     OW33913   2.594   3.320   1.888 -0.3003 -0.1258  0.5365
 7484SOL    HW133914   2.503   3.294   1.877 -0.3700  1.3097 -2.2374
 7484SOL    HW233915   2.577   3.414   1.896  1.6924  0.6044 -3.4559
 7485SOL     OW33916   3.456   1.634   3.048  0.7011 -0.3058 -0.3979
 7485SOL    HW133917   3.381   1.694   3.055  0.9680  0.1172 -1.2183
 7485SOL    HW233918   3.428   1.563   2.990 -0.7801 -0.0332 -0.0155
 7486SOL     OW33919   1.742   3.333  13.643  0.0892 -0.0252 -0.1718
 7486SOL    HW133920   1.742   3.429  13.648  0.4987 -0.2392  3.6416
 7486SOL    HW233921   1.792   3.316  13.723 -0.9713  0.6197  0.6261
 7487SOL     OW33922   1.713   3.551  10.774 -0.1695 -0.0259 -0.5975
 7487SOL    HW133923   1.738   3.621  10.834 -0.7809  1.1513 -1.7288
 7487SOL    HW233924   1.676   3.484  10.831  0.8766  1.3376  1.6610
 7488SOL     OW33925   1.877   4.045   8.282  0.5097 -0.6348  0.0834
 7488SOL    HW133926   1.808   3.980   8.266 -0.3032  0.1542  0.3811
 7488SOL    HW233927   1.878   4.051   8.378 -0.4197  0.4112  0.0294
 7489SOL     OW33928   4.271   1.213  13.645  0.1539 -0.4668  0.8074
 7489SOL    HW133929   4.336   1.268  13.601 -2.1339 -0.3335 -2.3960
 7489SOL    HW233930   4.212   1.280  13.681 -0.6436 -0.8092  0.1360
 7490SOL     OW33931   0.625   0.164  11.199 -0.6728 -0.0849  0.1370
 7490SOL    HW133932   0.569   0.167  11.122 -0.7696  1.5348  0.2634
 7490SOL    HW233933   0.623   0.255  11.229  0.4439 -0.2528  0.7377
 7491SOL     OW33934   4.154   0.356   6.656  0.6300  0.4753 -0.1527
 7491SOL    HW133935   4.098   0.365   6.580  1.8386  2.5754 -0.7878
 7491SOL    HW233936   4.170   0.261   6.657 -0.5817  0.2741 -0.1197
 7492SOL     OW33937   2.920   1.016  14.718  0.3778  0.5349 -0.2206
 7492SOL    HW133938   2.895   0.923  14.721  4.8104 -0.7174 -1.9801
 7492SOL    HW233939   3.015   1.004  14.719  0.2238 -0.9510 -2.0904
 7493SOL     OW33940   3.739   0.158   4.851  0.0726  0.0531 -0.1962
 7493SOL    HW133941   3.788   0.187   4.928  1.0953  1.2200 -1.2702
 7493SOL    HW233942   3.804   0.156   4.781  0.5704 -4.6378  0.4030
 7494SOL     OW33943   3.718   2.415   2.946 -0.2587  0.2174 -0.6128
 7494SOL    HW133944   3.662   2.361   2.890 -1.4110 -0.6900  1.4462
 7494SOL    HW233945   3.806   2.380   2.937  0.1664  0.4944  2.5317
 7495SOL     OW33946   0.537   3.157   0.743 -0.6674  0.0742 -0.3236
 7495SOL    HW133947   0.580   3.238   0.715  2.3989 -2.1352 -2.0237
 7495SOL    HW233948   0.492   3.184   0.823  1.0987  2.9687 -0.3016
 7496SOL     OW33949   0.709   1.544  15.828 -1.0393 -0.1396 -0.6455
 7496SOL    HW133950   0.623   1.564  15.792 -1.6881 -1.1354  0.3677
 7496SOL    HW233951   0.755   1.547  15.744  2.4691 -3.4070  1.1537
 7497SOL     OW33952   2.043   2.499   8.376 -0.5320  0.2505  0.4207
 7497SOL    HW133953   2.073   2.527   8.463 -0.4553 -1.2441  0.8891
 7497SOL    HW233954   2.013   2.410   8.395  1.5842 -0.6058 -0.2228
 7498SOL     OW33955   2.566   3.335   6.476 -0.1556  0.1926 -0.2767
 7498SOL    HW133956   2.590   3.417   6.519 -0.1245 -0.7356  1.4942
 7498SOL    HW233957   2.652   3.303   6.448 -0.4434 -0.0461 -0.8828
 7499SOL     OW33958   1.442   1.264   7.254  0.5935  0.3365  0.3736
 7499SOL    HW133959   1.518   1.314   7.283 -1.0754  2.8217  0.4691
 7499SOL    HW233960   1.396   1.329   7.201 -1.4968 -1.1990  0.2748
 7500SOL     OW33961   3.118   2.387   9.123 -0.2490  0.5302 -0.3297
 7500SOL    HW133962   3.038   2.392   9.071 -1.5007  0.4336  1.5979
 7500SOL    HW233963   3.086   2.355   9.207 -1.0377  0.8226 -0.5231
 7501SOL     OW33964   3.951   0.140   4.655  0.4476  0.3741 -0.2869
 7501SOL    HW133965   4.007   0.067   4.681  0.3903  0.5036  0.1999
 7501SOL    HW233966   3.999   0.219   4.680  0.7138 -0.5459  2.0847
 7502SOL     OW33967   4.355   4.426   2.231 -0.4276 -0.0017 -1.1477
 7502SOL    HW133968   4.375   4.353   2.172  0.0736 -1.4487  0.8235
 7502SOL    HW233969   4.261   4.412   2.243 -0.5590  0.9052 -1.1048
 7503SOL     OW33970   2.487   1.494   6.823  0.3722  0.6865  0.5188
 7503SOL    HW133971   2.539   1.465   6.898 -0.3901 -1.2090  0.3058
 7503SOL    HW233972   2.447   1.412   6.795 -0.9425  1.4043  0.2799
 7504SOL     OW33973   2.328   3.860   6.207 -0.0913  0.4685 -0.3788
 7504SOL    HW133974   2.326   3.877   6.113 -0.5847 -1.3258 -0.7091
 7504SOL    HW233975   2.417   3.877   6.238  0.1147  1.5666 -1.5922
 7505SOL     OW33976   3.259   3.701   7.074  0.2434  0.0628  0.0866
 7505SOL    HW133977   3.261   3.746   6.990  1.2318  0.8818  0.5491
 7505SOL    HW233978   3.354   3.684   7.076  0.0946 -1.0075 -1.2146
 7506SOL     OW33979   0.834   1.074   5.161  0.0086 -0.0039  0.0058
 7506SOL    HW133980   0.917   1.122   5.153 -0.1762 -0.1286 -2.5984
 7506SOL    HW233981   0.779   1.144   5.196  0.6033  1.1216 -1.2970
 7507SOL     OW33982   1.413   3.021   3.940  0.8933 -0.5299 -0.1667
 7507SOL    HW133983   1.354   2.997   4.011  0.1170  1.8066 -0.0224
 7507SOL    HW233984   1.489   3.056   3.987 -0.5188  1.4668  0.6340
 7508SOL     OW33985   2.606   1.380  17.610 -0.7247 -0.4645 -0.5366
 7508SOL    HW133986   2.589   1.449  17.545 -1.7234 -1.8069 -1.7164
 7508SOL    HW233987   2.699   1.398  17.616 -0.6876  0.0425 -2.7066
 7509SOL     OW33988   3.586   3.806  16.614  0.7238 -0.4941 -0.1818
 7509SOL    HW133989   3.663   3.836  16.566  0.3904  1.5474  0.5753
 7509SOL    HW233990   3.516   3.869  16.596  1.5969  0.6582  0.5080
 7510SOL     OW33991   3.563   3.630  10.740  0.1048  0.1459 -0.6853
 7510SOL    HW133992   3.601   3.670  10.663  2.0050  1.5793  1.0206
 7510SOL    HW233993   3.589   3.538  10.727 -1.8694 -0.1104 -2.8475
 7511SOL     OW33994   0.116   0.450  14.903 -0.3706 -0.3146  0.0830
 7511SOL    HW133995   0.080   0.368  14.937 -0.8523  0.3837  1.2625
 7511SOL    HW233996   0.108   0.428  14.811  1.3000  0.3770 -0.2335
 7512SOL     OW33997   3.941   2.461   8.057 -0.4589  0.0277  0.0466
 7512SOL    HW133998   3.947   2.465   7.962 -0.5159  2.2329  0.1444
 7512SOL    HW233999   3.956   2.367   8.065  3.4530  0.6023 -0.8592
 7513SOL     OW34000   0.995   0.249   5.292  0.1339  0.5979 -0.2527
 7513SOL    HW134001   1.036   0.332   5.314  2.5990 -0.5558 -0.4537
 7513SOL    HW234002   0.921   0.245   5.353  1.5074 -0.5416  1.3405
 7514SOL     OW34003   4.443   3.656   0.430 -0.2985  0.2756  0.0998
 7514SOL    HW134004   4.442   3.729   0.368 -1.2551  0.3168  0.1586
 7514SOL    HW234005   4.436   3.703   0.513 -1.2266  2.3168 -1.1317
 7515SOL     OW34006   0.119   0.345  10.903  0.0631 -0.6920  0.0111
 7515SOL    HW134007   0.071   0.265  10.879  0.5827 -1.5781  1.8860
 7515SOL    HW234008   0.152   0.384  10.822  1.9093  0.6797  1.4339
 7516SOL     OW34009   3.700   4.272  16.707 -0.0937  0.4235  0.0570
 7516SOL    HW134010   3.664   4.189  16.738  2.5144 -0.7196  0.0735
 7516SOL    HW234011   3.685   4.260  16.613  1.5208 -1.2108  0.0126
 7517SOL     OW34012   2.728   2.640   5.209  0.1133 -0.3412  0.6502
 7517SOL    HW134013   2.792   2.590   5.159  1.4645  3.1198 -1.1368
 7517SOL    HW234014   2.666   2.646   5.135 -0.5171 -0.8942  1.1354
 7518SOL     OW34015   3.590   3.256   5.748 -0.5295 -0.4399  0.0208
 7518SOL    HW134016   3.582   3.322   5.679 -0.7751 -0.6641 -0.1679
 7518SOL    HW234017   3.655   3.202   5.703 -0.7943  0.2678 -1.2256
 7519SOL     OW34018   3.888   1.201   9.721 -0.4986  0.0183 -0.1111
 7519SOL    HW134019   3.964   1.245   9.683  0.2873 -0.3658  1.0143
 7519SOL    HW234020   3.830   1.277   9.728  1.1145  1.0041  2.3397
 7520SOL     OW34021   1.301   0.180  14.834 -0.4459  0.5966  0.3744
 7520SOL    HW134022   1.321   0.091  14.865 -1.8510  0.3114  0.4489
 7520SOL    HW234023   1.318   0.176  14.739 -0.1101 -0.9762  0.4927
 7521SOL     OW34024   3.486   3.943  17.565 -0.4776  0.1691  0.2705
 7521SOL    HW134025   3.566   3.985  17.597  1.7603 -3.0851 -1.0934
 7521SOL    HW234026   3.518   3.855  17.585 -0.5047 -0.1442 -1.0620
 7522SOL     OW34027   1.695   2.480  11.557 -0.2112  0.2409 -0.6350
 7522SOL    HW134028   1.690   2.574  11.571  1.3959  0.4080 -1.1573
 7522SOL    HW234029   1.742   2.451  11.635  0.3033  2.9937  0.0591
 7523SOL     OW34030   0.140   2.984   4.465 -0.0365  0.4601  0.2492
 7523SOL    HW134031   0.076   2.920   4.435  1.9150 -1.0037 -0.7820
 7523SOL    HW234032   0.138   2.960   4.558  0.4991  0.0266  0.1444
 7524SOL     OW34033   4.021   3.391   5.045 -0.0255  0.0489 -0.4148
 7524SOL    HW134034   4.000   3.438   5.126 -1.6033 -2.0748  0.4186
 7524SOL    HW234035   3.931   3.365   5.022  0.1094  1.6846 -2.7954
 7525SOL     OW34036   4.119   1.193   8.160  0.7739  0.1038 -0.0105
 7525SOL    HW134037   4.060   1.265   8.183 -1.5207 -1.2877 -1.5101
 7525SOL    HW234038   4.103   1.183   8.066  0.4847  0.8015 -0.0355
 7526SOL     OW34039   0.382   4.545   1.814  0.1228 -0.8364 -0.8891
 7526SOL    HW134040   0.339   4.532   1.899  0.2739 -0.1358 -0.7016
 7526SOL    HW234041   0.373   4.458   1.775  0.7086 -1.4231  0.3058
 7527SOL     OW34042   2.042   0.293   5.259  0.5027 -0.5028  0.1475
 7527SOL    HW134043   2.063   0.386   5.253  0.6030 -0.6255 -1.4928
 7527SOL    HW234044   2.131   0.264   5.279  0.1404 -1.5354  0.2833
 7528SOL     OW34045   4.530   3.669   6.848  0.0960  0.4216  0.2348
 7528SOL    HW134046   4.570   3.756   6.843 -0.9121  0.9417  1.3846
 7528SOL    HW234047   4.578   3.623   6.779  1.1520 -1.2184  2.0732
 7529SOL     OW34048   3.750   3.804  11.245  0.4248  0.6750 -0.4682
 7529SOL    HW134049   3.840   3.781  11.270  0.2890  0.8053  0.1371
 7529SOL    HW234050   3.744   3.793  11.150  2.0535  0.4506 -0.5557
 7530SOL     OW34051   3.417   3.834  15.691 -0.0416 -0.3588  0.6392
 7530SOL    HW134052   3.404   3.739  15.702  1.7082 -0.7719 -0.9651
 7530SOL    HW234053   3.435   3.874  15.776  0.8663  1.9974 -0.6810
 7531SOL     OW34054   4.233   2.291   6.378 -0.3801  0.1286 -1.0841
 7531SOL    HW134055   4.293   2.230   6.422 -1.0603  1.7660  2.1120
 7531SOL    HW234056   4.182   2.324   6.452  3.6095 -3.2327  3.2549
 7532SOL     OW34057   4.264   0.787  17.093  0.1551 -0.0599 -0.0484
 7532SOL    HW134058   4.265   0.818  17.002 -0.3675 -0.8399 -0.3247
 7532SOL    HW234059   4.345   0.737  17.092  0.2990  0.1692  0.3559
 7533SOL     OW34060   3.247   2.485  15.086 -0.1777 -0.2934  0.2252
 7533SOL    HW134061   3.163   2.519  15.118  0.3991 -0.0050  1.4242
 7533SOL    HW234062   3.249   2.400  15.130 -3.2994 -0.0765  0.7694
 7534SOL     OW34063   4.601   2.487   8.174  0.2073  0.2273 -0.8322
 7534SOL    HW134064   4.652   2.469   8.253 -1.1982  2.1184  0.4841
 7534SOL    HW234065   4.642   2.439   8.102  1.2459  4.8597 -3.3458
 7535SOL     OW34066   3.037   3.015   3.613 -0.1656 -0.0776 -0.2763
 7535SOL    HW134067   2.995   3.010   3.699  0.9229 -1.3951  0.1817
 7535SOL    HW234068   3.125   2.988   3.641  0.0156  0.8616  0.0426
 7536SOL     OW34069   0.163   0.746   3.501 -0.1532 -0.0253  0.3383
 7536SOL    HW134070   0.231   0.807   3.474 -1.9807  2.1418  0.6496
 7536SOL    HW234071   0.091   0.808   3.492  0.1043 -0.1989 -3.0213
 7537SOL     OW34072   1.038   2.043   5.105  0.0427 -0.0796 -0.0745
 7537SOL    HW134073   1.004   2.110   5.046  3.9257 -1.1245 -3.5296
 7537SOL    HW234074   1.133   2.060   5.108 -0.4265  2.7793 -1.6205
 7538SOL     OW34075   0.750   2.855   5.531 -0.1959  0.2658  0.0941
 7538SOL    HW134076   0.708   2.916   5.591 -0.8001 -1.4647  1.4392
 7538SOL    HW234077   0.699   2.779   5.561  0.3018 -1.5577 -3.6961
 7539SOL     OW34078   4.607   3.346   2.859 -0.0223  0.0963  0.3324
 7539SOL    HW134079   4.675   3.355   2.792 -0.3827 -3.7131 -0.5518
 7539SOL    HW234080   4.642   3.260   2.883  0.7475 -0.1000 -1.5557
 7540SOL     OW34081   2.353   3.786   1.920 -0.3872 -0.0763 -0.2890
 7540SOL    HW134082   2.283   3.848   1.940 -1.6394 -1.6552  0.1121
 7540SOL    HW234083   2.428   3.824   1.967  0.6420 -1.5114 -0.7707
 7541SOL     OW34084   3.494   3.602   3.919 -0.3699 -0.1548  0.0039
 7541SOL    HW134085   3.587   3.622   3.913  0.0549 -2.0020  0.5400
 7541SOL    HW234086   3.489   3.630   4.011 -1.3161  0.9919 -0.3957
 7542SOL     OW34087   0.733   3.837   5.678 -0.0926  0.2588 -0.0921
 7542SOL    HW134088   0.728   3.854   5.772 -0.7864 -3.0579  0.4757
 7542SOL    HW234089   0.770   3.923   5.657 -0.4079  0.5581  0.5778
 7543SOL     OW34090   0.197   2.624   5.100 -0.0070  0.1997 -0.2889
 7543SOL    HW134091   0.285   2.634   5.063 -0.1969  1.0179 -0.5250
 7543SOL    HW234092   0.172   2.534   5.082 -1.9630  0.6427  0.2262
 7544SOL     OW34093   1.460   0.597  16.758  0.5795 -0.2957  0.1718
 7544SOL    HW134094   1.459   0.575  16.665  1.9295  3.6542 -0.7463
 7544SOL    HW234095   1.498   0.684  16.767  0.3283 -0.1841  0.1518
 7545SOL     OW34096   0.974   0.422  17.164  0.2894 -0.0029 -0.2294
 7545SOL    HW134097   0.991   0.383  17.250  1.9037 -2.1092 -1.4950
 7545SOL    HW234098   0.892   0.469  17.177  0.6553  0.5716 -0.0204
 7546SOL     OW34099   3.154   3.386  11.959 -0.3811  0.1144  0.7883
 7546SOL    HW134100   3.065   3.361  11.984 -1.0917  3.7451  1.9005
 7546SOL    HW234101   3.174   3.458  12.018  1.0053 -0.6496  1.2378
 7547SOL     OW34102   0.123   4.125   1.952  0.7154  0.0892  0.2019
 7547SOL    HW134103   0.202   4.080   1.921  1.0318  0.6075  0.2504
 7547SOL    HW234104   0.061   4.058   1.980 -0.4479  2.3793  3.0611
 7548SOL     OW34105   4.583   3.515   7.673 -0.3131  0.3858 -0.0781
 7548SOL    HW134106   4.664   3.464   7.664  1.3061  2.3886  3.2953
 7548SOL    HW234107   4.547   3.486   7.756  0.0806 -0.6434 -0.2578
 7549SOL     OW34108   4.281   0.339  13.760 -0.0289  0.0959  0.0867
 7549SOL    HW134109   4.354   0.313  13.817  0.9911  1.2202 -0.7124
 7549SOL    HW234110   4.289   0.286  13.680 -1.2614  1.1713 -0.7287
 7550SOL     OW34111   2.046   1.546   2.581  0.0753 -0.2927  0.0225
 7550SOL    HW134112   2.035   1.451   2.578 -1.5978 -0.0295 -2.0923
 7550SOL    HW234113   1.968   1.578   2.536  0.0894 -1.7516 -1.0256
 7551SOL     OW34114   0.367   3.607   1.813  0.0619 -0.5715 -0.0616
 7551SOL    HW134115   0.348   3.614   1.906  3.3014  1.6408  0.4104
 7551SOL    HW234116   0.412   3.691   1.804 -1.4177  0.1255 -0.8704
 7552SOL     OW34117   1.276   4.563  13.564  0.4460 -0.1662 -0.0874
 7552SOL    HW134118   1.301   4.540  13.654  2.1565  2.7165  0.1915
 7552SOL    HW234119   1.256   4.481  13.521 -1.0589 -0.2219  0.7236
 7553SOL     OW34120   3.961   2.832   4.104  0.9339  0.1365 -0.4027
 7553SOL    HW134121   4.057   2.833   4.103  0.8647  3.4333 -2.1227
 7553SOL    HW234122   3.933   2.740   4.106 -2.1146  1.0211 -1.8648
 7554SOL     OW34123   3.304   1.176   8.302  0.8415 -0.4056  0.1974
 7554SOL    HW134124   3.390   1.143   8.278 -0.3141 -1.3809 -2.7440
 7554SOL    HW234125   3.251   1.113   8.252 -1.1131 -0.0488  1.8229
 7555SOL     OW34126   2.724   4.681   3.672  0.0261 -0.0554 -0.2642
 7555SOL    HW134127   2.708   4.699   3.765  1.8461  1.5606 -0.2832
 7555SOL    HW234128   2.744   4.589   3.690  0.8857  0.3012  0.6434
 7556SOL     OW34129   3.346   3.057  12.913  0.1345  0.0020  0.3008
 7556SOL    HW134130   3.283   2.984  12.910 -1.2346  1.1274  1.2816
 7556SOL    HW234131   3.363   3.051  13.007  1.8229  1.1702  0.0531
 7557SOL     OW34132   4.186   1.473   6.814  0.1867 -0.0587  0.3833
 7557SOL    HW134133   4.247   1.459   6.741  0.8632 -1.1131  1.1580
 7557SOL    HW234134   4.115   1.410   6.809  0.8909 -0.8283  0.0277
 7558SOL     OW34135   3.456   0.806   1.985 -0.3501  0.3410 -0.0105
 7558SOL    HW134136   3.530   0.818   1.926  0.8998  0.1015  1.5036
 7558SOL    HW234137   3.471   0.721   2.026  0.1012 -0.6996 -2.3496
 7559SOL     OW34138   4.209   2.402  16.805 -0.2757 -0.1719 -0.1735
 7559SOL    HW134139   4.246   2.365  16.885  1.3918 -1.1771 -1.4106
 7559SOL    HW234140   4.281   2.463  16.787 -1.3793  1.1711  0.0136
 7560SOL     OW34141   2.020   4.386   7.741 -0.1791 -0.1760 -0.0757
 7560SOL    HW134142   2.002   4.293   7.727 -0.4272 -0.1455  0.0296
 7560SOL    HW234143   1.943   4.422   7.696  1.0940  0.6355 -1.5821
 7561SOL     OW34144   0.536   3.066   5.122 -0.5203 -0.6302 -0.3828
 7561SOL    HW134145   0.533   3.143   5.065 -1.0989 -1.3279 -1.2996
 7561SOL    HW234146   0.448   3.076   5.160 -0.2714  1.7183 -0.4061
 7562SOL     OW34147   1.240   4.183   3.088 -0.2360  0.5798  0.6166
 7562SOL    HW134148   1.334   4.173   3.100  0.0992  1.0630 -1.6544
 7562SOL    HW234149   1.227   4.277   3.094 -1.7338  0.4315 -0.3386
 7563SOL     OW34150   4.427   1.107   2.478  0.0958 -0.4322 -0.1396
 7563SOL    HW134151   4.454   1.094   2.569 -0.8768 -1.3747  0.0181
 7563SOL    HW234152   4.331   1.108   2.486  0.1919  0.7161  0.6931
 7564SOL     OW34153   2.156   3.629   2.650  0.6057  0.3934 -0.0676
 7564SOL    HW134154   2.189   3.695   2.710 -2.8952  3.6016 -1.7090
 7564SOL    HW234155   2.065   3.625   2.679  1.5570 -2.2862  2.5145
 7565SOL     OW34156   1.744   3.164   6.721  0.2728  0.0592 -0.8455
 7565SOL    HW134157   1.749   3.070   6.735  1.0560 -0.0556 -1.8533
 7565SOL    HW234158   1.727   3.206   6.805  0.8928  1.2987 -1.3337
 7566SOL     OW34159   1.546   2.983   7.815  0.0844  0.3100  0.2518
 7566SOL    HW134160   1.630   2.952   7.782  0.0879  0.5983 -0.0016
 7566SOL    HW234161   1.500   2.971   7.732  0.5414  0.0756  0.0321
 7567SOL     OW34162   3.615   2.719   3.559 -0.0053 -0.3590 -0.2694
 7567SOL    HW134163   3.578   2.638   3.525 -2.5253 -0.4632  2.6847
 7567SOL    HW234164   3.565   2.727   3.640 -2.2833 -0.9351 -1.6273
 7568SOL     OW34165   3.751   0.018   4.512 -0.5129 -0.1567  0.4080
 7568SOL    HW134166   3.813   0.083   4.544  0.8393 -0.7988 -0.9085
 7568SOL    HW234167   3.739   4.676   4.583  1.6749 -0.6928  0.3101
 7569SOL     OW34168   3.872   3.784  14.225 -0.1385 -0.0398 -0.1541
 7569SOL    HW134169   3.901   3.833  14.302  1.9038 -3.1434  1.0553
 7569SOL    HW234170   3.944   3.788  14.162 -0.3967 -2.9033 -0.6114
 7570SOL     OW34171   2.048   1.286  12.419  0.2314  0.6206 -0.2553
 7570SOL    HW134172   2.128   1.298  12.471 -0.2826 -1.0137  0.9264
 7570SOL    HW234173   2.001   1.217  12.466  1.4691  0.9191  1.4339
 7571SOL     OW34174   3.225   2.639   2.329 -1.0777  0.3564  0.1833
 7571SOL    HW134175   3.289   2.708   2.313 -0.5633 -0.0554  0.4553
 7571SOL    HW234176   3.264   2.566   2.280 -1.3687 -0.1353  0.6842
 7572SOL     OW34177   1.077   0.994   3.937  0.2874 -0.1409  0.3992
 7572SOL    HW134178   0.999   0.955   3.899 -0.1661 -0.8751  2.0937
 7572SOL    HW234179   1.083   1.071   3.881  0.0500 -1.7157 -1.7605
 7573SOL     OW34180   4.396   2.301   7.136  0.1455 -0.1068  0.5759
 7573SOL    HW134181   4.317   2.250   7.118  0.1528  0.4360 -0.9578
 7573SOL    HW234182   4.360   2.384   7.169 -0.5953 -0.7108  1.2936
 7574SOL     OW34183   1.829   2.557  16.739 -0.7865 -0.7340 -0.4739
 7574SOL    HW134184   1.789   2.597  16.816 -1.7766  2.0926 -2.4289
 7574SOL    HW234185   1.875   2.630  16.699 -0.7084  1.0737  2.9144
 7575SOL     OW34186   2.386   2.084   2.376  0.0495 -0.2674 -0.2961
 7575SOL    HW134187   2.363   2.020   2.308  1.5938  0.0948 -1.1479
 7575SOL    HW234188   2.468   2.053   2.415  0.3368  0.5608 -0.2536
 7576SOL     OW34189   3.935   3.888   6.207  0.3929  0.4939 -0.3364
 7576SOL    HW134190   3.991   3.897   6.284 -1.5613 -2.2418  1.4136
 7576SOL    HW234191   3.935   3.795   6.184 -2.6990  0.3024  0.4452
 7577SOL     OW34192   0.085   3.162  15.860 -0.7328 -0.0701  0.3479
 7577SOL    HW134193   0.008   3.219  15.868  0.6432  1.7947  0.0702
 7577SOL    HW234194   0.146   3.226  15.824  0.5764 -0.8864  1.1525
 7578SOL     OW34195   3.115   4.425   2.246  0.6590 -0.0830 -0.1316
 7578SOL    HW134196   3.080   4.343   2.281  0.7211 -0.3584 -0.7208
 7578SOL    HW234197   3.041   4.464   2.200 -0.0856 -1.2085  0.1136
 7579SOL     OW34198   1.053   0.187   3.564  0.1215 -0.1041 -0.2222
 7579SOL    HW134199   0.998   0.112   3.590  0.6587 -0.9540 -1.5726
 7579SOL    HW234200   1.008   0.223   3.488  0.1620  2.4774  0.9966
 7580SOL     OW34201   2.852   3.603   5.436  0.1490 -0.4744 -0.1714
 7580SOL    HW134202   2.862   3.581   5.344 -1.6600 -2.6715  0.1706
 7580SOL    HW234203   2.911   3.542   5.481 -0.2447 -1.8809 -1.5808
 7581SOL     OW34204   4.530   0.545   3.508  0.3906  0.2231  0.6280
 7581SOL    HW134205   4.446   0.549   3.553  0.1229  0.8110  0.0830
 7581SOL    HW234206   4.548   0.451   3.518 -1.6346 -0.3748 -1.4134
 7582SOL     OW34207   1.033   3.786   1.826  0.2384 -0.2834  0.0713
 7582SOL    HW134208   1.059   3.724   1.894  2.5944  1.1648  0.4658
 7582SOL    HW234209   0.955   3.743   1.791 -0.9482 -0.7499  3.3505
 7583SOL     OW34210   1.307   2.760   4.629 -0.0878  0.2040  0.3018
 7583SOL    HW134211   1.394   2.783   4.665  0.0537  0.5268 -0.2449
 7583SOL    HW234212   1.332   2.675   4.593 -1.0089 -0.4432  1.1809
 7584SOL     OW34213   2.795   3.881   7.438  0.1813  0.5956  0.3807
 7584SOL    HW134214   2.705   3.877   7.404 -0.3148 -0.3405  1.8189
 7584SOL    HW234215   2.797   3.830   7.519  0.8329  1.6555  1.0331
 7585SOL     OW34216   0.882   0.135  13.320 -0.0370 -0.4438  0.3234
 7585SOL    HW134217   0.826   0.173  13.388  0.3542  0.5703  0.0781
 7585SOL    HW234218   0.900   0.049  13.358 -0.4655 -0.4170  0.5833
 7586SOL     OW34219   2.998   1.801   3.379 -0.1628  0.4509  0.0972
 7586SOL    HW134220   3.068   1.844   3.428  1.3975  0.0161 -1.7511
 7586SOL    HW234221   2.959   1.872   3.329  2.0438  0.0143 -2.2548
 7587SOL     OW34222   0.027   0.919   7.521 -0.5785  0.0106  0.0449
 7587SOL    HW134223   4.718   1.010   7.527 -0.3071 -0.0583  2.7177
 7587SOL    HW234224   0.035   0.895   7.429  2.2002  2.1727 -0.2969
 7588SOL     OW34225   1.137   4.186   4.378  0.0279  0.7626 -0.5643
 7588SOL    HW134226   1.158   4.107   4.428  3.3556  0.5596 -2.2830
 7588SOL    HW234227   1.147   4.163   4.285  2.3359  0.3842 -0.2383
 7589SOL     OW34228   4.353   2.935  15.074 -0.5578 -0.1943 -0.2371
 7589SOL    HW134229   4.259   2.953  15.071 -1.0171 -2.3937  0.3573
 7589SOL    HW234230   4.359   2.884  14.993 -0.4182 -1.2834  0.4514
 7590SOL     OW34231   0.545   2.600  10.181  0.4846  0.0708 -0.2568
 7590SOL    HW134232   0.512   2.546  10.253  1.1338  1.7954  1.3650
 7590SOL    HW234233   0.636   2.614  10.208  0.1724  2.3209 -0.3312
 7591SOL     OW34234   2.997   3.362   6.855  0.6486 -0.5730 -0.2382
 7591SOL    HW134235   2.958   3.320   6.932 -1.4871  0.8682 -0.5610
 7591SOL    HW234236   3.086   3.356   6.891  0.3049 -3.0360  0.2207
 7592SOL     OW34237   2.276   2.433   4.960  0.1130  0.0356  0.2880
 7592SOL    HW134238   2.342   2.478   4.907  0.0276 -0.4141 -0.2041
 7592SOL    HW234239   2.254   2.356   4.906 -0.9070 -0.8264  1.9446
 7593SOL     OW34240   0.146   3.004  16.609  0.5833  0.3209  0.1538
 7593SOL    HW134241   0.230   3.029  16.647  1.1197 -1.3409  0.0411
 7593SOL    HW234242   0.171   2.999  16.517 -1.1800 -0.2939 -0.3014
 7594SOL     OW34243   1.842   2.001   8.004 -0.1347  0.2248  0.6028
 7594SOL    HW134244   1.754   1.994   8.043 -1.4317  0.0767 -2.3099
 7594SOL    HW234245   1.892   1.950   8.068 -1.6158 -0.9212  0.8675
 7595SOL     OW34246   0.424   1.403   5.270  0.0276  0.2211 -0.2528
 7595SOL    HW134247   0.504   1.394   5.218  0.0584 -0.4032 -0.0992
 7595SOL    HW234248   0.382   1.317   5.265 -0.1323  0.2295  0.9820
 7596SOL     OW34249   4.578   0.532  11.670 -0.2120  0.0424  0.5289
 7596SOL    HW134250   4.583   0.499  11.760  2.3596  1.2456  0.8150
 7596SOL    HW234251   4.654   0.495  11.626 -1.8430 -0.2803 -2.0473
 7597SOL     OW34252   1.541   1.844   4.559  0.0338 -0.2616  0.3277
 7597SOL    HW134253   1.551   1.802   4.473 -0.4939 -1.6237  0.9243
 7597SOL    HW234254   1.447   1.849   4.573  0.3787  1.5237  1.9969
 7598SOL     OW34255   4.172   1.688  15.300 -0.1515 -0.6099  0.0176
 7598SOL    HW134256   4.125   1.607  15.283 -2.5652  0.6883  0.4555
 7598SOL    HW234257   4.259   1.650  15.310  0.4495  1.0103  1.0233
 7599SOL     OW34258   3.677   3.149   8.619 -0.1265  0.4386 -0.2909
 7599SOL    HW134259   3.587   3.171   8.646 -0.6492 -0.8430 -0.9991
 7599SOL    HW234260   3.663   3.056   8.600 -0.0687  0.0477  1.5628
 7600SOL     OW34261   2.123   0.907  17.199  0.4562  0.1333 -0.1062
 7600SOL    HW134262   2.147   0.912  17.106  0.0000  0.1204 -0.2250
 7600SOL    HW234263   2.028   0.910  17.183  0.6191 -0.0424 -1.1473
 7601SOL     OW34264   3.374   4.295   2.547  0.5817  0.6781  0.1360
 7601SOL    HW134265   3.439   4.364   2.533 -1.6542  2.4549 -1.4224
 7601SOL    HW234266   3.341   4.268   2.462  2.1702  0.4537 -0.4122
 7602SOL     OW34267   1.349   2.662   2.095 -0.4675 -0.1562  0.1548
 7602SOL    HW134268   1.275   2.628   2.144 -0.2313  0.1636  0.7363
 7602SOL    HW234269   1.323   2.666   2.003  0.1240  0.1138 -0.0015
 7603SOL     OW34270   4.634   1.845   4.457  0.3802 -0.3916 -0.0788
 7603SOL    HW134271   4.594   1.929   4.434  1.8397 -0.0355 -1.3282
 7603SOL    HW234272   4.686   1.875   4.531  1.2400 -0.7830 -0.5233
 7604SOL     OW34273   3.268   4.679  15.855  0.0523 -0.1742 -0.0203
 7604SOL    HW134274   3.314   4.609  15.808 -2.4937  0.2725 -3.1115
 7604SOL    HW234275   3.268   0.043  15.811 -0.7544 -0.6624 -0.9422
 7605SOL     OW34276   0.223   4.137  10.716 -0.0223 -0.5544 -0.2984
 7605SOL    HW134277   0.304   4.088  10.699 -0.9390 -1.4335 -2.1281
 7605SOL    HW234278   0.153   4.072  10.712 -2.5600  2.1648 -0.2048
 7606SOL     OW34279   4.145   1.355   0.347 -0.3050 -0.3232  0.0966
 7606SOL    HW134280   4.186   1.321   0.267  0.1482  1.4259 -0.4175
 7606SOL    HW234281   4.213   1.418   0.371  2.2307 -2.1163 -2.3041
 7607SOL     OW34282   4.297   0.429   4.521  0.4278  0.1197  0.7368
 7607SOL    HW134283   4.375   0.452   4.571  0.3073  1.2871  0.3844
 7607SOL    HW234284   4.299   0.333   4.518 -0.0732  0.1208  0.0091
 7608SOL     OW34285   1.028   4.462   7.460 -0.6012  0.4792  0.0657
 7608SOL    HW134286   1.060   4.521   7.392  3.0347 -0.6550  0.7907
 7608SOL    HW234287   1.022   4.535   7.522 -0.9111  2.0905 -1.8588
 7609SOL     OW34288   3.544   4.554   4.661  0.8652  0.7313 -0.4836
 7609SOL    HW134289   3.495   4.583   4.583  0.2075  2.8500  0.7155
 7609SOL    HW234290   3.516   4.463   4.655 -1.0757  1.2877  0.0151
 7610SOL     OW34291   0.449   1.059   1.633 -0.0108  0.8932  0.2171
 7610SOL    HW134292   0.448   0.974   1.678  0.0806  0.3347 -0.8187
 7610SOL    HW234293   0.535   1.071   1.595 -0.9155 -1.5648 -2.6138
 7611SOL     OW34294   0.127   1.616   4.772 -0.6524 -0.4684  0.5166
 7611SOL    HW134295   0.085   1.701   4.781  0.4579  0.3072 -1.7352
 7611SOL    HW234296   0.121   1.602   4.677  0.3902 -1.2813  0.5681
 7612SOL     OW34297   4.286   2.100  16.641 -0.2531 -0.3579  0.2933
 7612SOL    HW134298   4.269   2.028  16.701  0.6440  0.0708  1.0774
 7612SOL    HW234299   4.196   2.122  16.617  0.1958 -1.5562 -2.4467
 7613SOL     OW34300   0.155   3.477   5.537  0.1775 -0.1015 -0.1067
 7613SOL    HW134301   0.126   3.559   5.577  1.3549  0.3983 -0.2669
 7613SOL    HW234302   0.236   3.503   5.492  1.3110 -0.9226  1.4817
 7614SOL     OW34303   3.305   0.308  12.562  0.4126  0.5654  0.3206
 7614SOL    HW134304   3.317   0.226  12.608  1.9352 -0.4362 -1.8723
 7614SOL    HW234305   3.281   0.268  12.478  1.0731  2.7361 -0.9157
 7615SOL     OW34306   3.151   0.094   0.214  0.5254  0.3712 -0.4119
 7615SOL    HW134307   3.076   0.138   0.175 -0.9034 -2.5160 -0.8851
 7615SOL    HW234308   3.232   0.143   0.199 -0.0325  0.5125 -2.9371
 7616SOL     OW34309   3.829   4.105   7.032 -0.3789  0.3312 -0.7062
 7616SOL    HW134310   3.913   4.069   7.060 -0.7149  0.5141  0.5516
 7616SOL    HW234311   3.798   4.149   7.112  1.6873 -2.5514  1.6886
 7617SOL     OW34312   4.545   3.338   0.305  0.1035  0.2930  0.1812
 7617SOL    HW134313   4.511   3.302   0.223 -1.1101 -0.5071  1.0408
 7617SOL    HW234314   4.612   3.271   0.309 -0.2432 -0.0303  0.5157
 7618SOL     OW34315   2.267   0.439  14.936 -0.0622 -0.2721 -0.3007
 7618SOL    HW134316   2.335   0.459  14.872  2.7298  0.1509  2.8307
 7618SOL    HW234317   2.208   0.391  14.878 -1.2340  0.1698  0.5123
 7619SOL     OW34318   3.918   0.676   9.366 -0.3017 -0.2998  0.3975
 7619SOL    HW134319   3.943   0.658   9.457  0.4146  2.6918  0.8071
 7619SOL    HW234320   3.962   0.760   9.353  0.5401 -0.8817 -0.4736
 7620SOL     OW34321   1.130   3.737  11.338  0.1430 -0.6925  0.1334
 7620SOL    HW134322   1.173   3.662  11.377  1.0252  0.9417  2.3145
 7620SOL    HW234323   1.193   3.791  11.386  0.0714 -0.3241 -0.1803
 7621SOL     OW34324   1.248   2.413   2.702  0.3786  0.5695 -0.3831
 7621SOL    HW134325   1.186   2.457   2.644 -1.7855 -2.2123 -0.1213
 7621SOL    HW234326   1.202   2.331   2.715  3.4963 -1.3499 -1.4044
 7622SOL     OW34327   3.793   3.630   5.783 -0.4791  0.4706  0.1334
 7622SOL    HW134328   3.805   3.724   5.791 -1.2438  0.4765  1.2117
 7622SOL    HW234329   3.795   3.625   5.687 -0.5842 -1.0589  0.2068
 7623SOL     OW34330   2.240   0.054   1.782 -0.2829  0.1666  0.1752
 7623SOL    HW134331   2.335   0.069   1.783 -0.6154  2.2855 -0.7711
 7623SOL    HW234332   2.229   0.086   1.871 -1.9386 -3.8664  1.4171
 7624SOL     OW34333   1.082   1.005   1.402  0.3290 -0.4309 -0.3648
 7624SOL    HW134334   1.059   0.996   1.309 -1.0980 -0.8285  0.0353
 7624SOL    HW234335   1.005   1.031   1.451  2.0428  1.5235  1.2601
 7625SOL     OW34336   2.614   0.810   4.408  0.3686  1.1352  0.1323
 7625SOL    HW134337   2.541   0.838   4.464  2.9412  2.4483  2.8042
 7625SOL    HW234338   2.659   0.885   4.369 -1.1921  1.9039 -0.1900
 7626SOL     OW34339   2.346   1.709   3.101 -0.2044  0.3138 -0.7883
 7626SOL    HW134340   2.366   1.684   3.011 -1.4281 -1.4681 -0.5544
 7626SOL    HW234341   2.347   1.805   3.096  0.4634  0.3514  0.0184
 7627SOL     OW34342   4.618   3.931  16.598  0.3876 -0.1424  0.2520
 7627SOL    HW134343   4.615   3.849  16.647  0.5915  0.0547  0.5952
 7627SOL    HW234344   4.694   3.918  16.541 -0.0707  2.7029 -1.0142
 7628SOL     OW34345   4.468   0.678   7.890  0.5336  0.3743 -0.1550
 7628SOL    HW134346   4.415   0.749   7.854 -0.7404 -0.9930 -1.0005
 7628SOL    HW234347   4.554   0.700   7.856  1.2040  0.9332  1.9287
 7629SOL     OW34348   0.300   0.561  15.301 -0.3249 -0.1059 -0.4585
 7629SOL    HW134349   0.317   0.533  15.212  4.3025  1.6975 -0.1813
 7629SOL    HW234350   0.347   0.645  15.311  2.0060 -1.2741 -1.5778
 7630SOL     OW34351   0.018   0.338   7.875 -0.0708  0.1038 -0.8878
 7630SOL    HW134352   0.107   0.370   7.856 -0.6692  1.9782 -0.5640
 7630SOL    HW234353   0.007   0.363   7.966  0.7617  2.5537 -1.4551
 7631SOL     OW34354   0.481   1.402   4.539 -0.2004 -0.0404 -0.0923
 7631SOL    HW134355   0.466   1.308   4.526  1.1933 -0.1049 -1.3053
 7631SOL    HW234356   0.497   1.408   4.633 -0.4752 -0.3005 -0.0295
 7632SOL     OW34357   0.533   4.172   3.658 -0.1557 -0.0964 -0.6185
 7632SOL    HW134358   0.466   4.164   3.590  1.5126  2.1359 -2.5184
 7632SOL    HW234359   0.610   4.155   3.603 -0.1141  1.0576 -0.9204
 7633SOL     OW34360   4.189   3.203  16.666 -0.3746 -0.5921 -0.3483
 7633SOL    HW134361   4.214   3.274  16.725  2.1795 -0.8618 -1.1125
 7633SOL    HW234362   4.272   3.156  16.667  0.6692  1.3398  1.0123
 7634SOL     OW34363   2.368   3.842   6.671 -0.2833 -0.1990 -0.6100
 7634SOL    HW134364   2.462   3.859   6.664 -0.6548  1.6078 -1.3692
 7634SOL    HW234365   2.371   3.752   6.701 -0.7554  0.0704  0.2158
 7635SOL     OW34366   3.592   0.433   7.857  0.1972 -0.2705 -0.4381
 7635SOL    HW134367   3.590   0.429   7.761  0.8897 -2.0851 -0.3899
 7635SOL    HW234368   3.498   0.421   7.871 -0.0943  1.6633 -0.7923
 7636SOL     OW34369   0.767   1.788  16.642  0.4048  0.1608  0.3397
 7636SOL    HW134370   0.736   1.856  16.701 -1.7599 -0.2567 -0.3211
 7636SOL    HW234371   0.691   1.731  16.630  0.4502  0.2577 -0.4458
 7637SOL     OW34372   1.550   3.312  10.329 -0.1135 -0.0417  0.4305
 7637SOL    HW134373   1.494   3.390  10.331  1.8120  1.3192  1.5030
 7637SOL    HW234374   1.610   3.331  10.401  0.3372  0.0516  0.0256
 7638SOL     OW34375   3.946   1.817  12.420  0.1144 -0.1282  0.1194
 7638SOL    HW134376   3.963   1.793  12.511  0.4190 -0.3048  0.0165
 7638SOL    HW234377   3.910   1.737  12.381 -1.0739  0.0430  0.8665
 7639SOL     OW34378   3.658   4.160  16.233 -0.3794  0.6883  0.6560
 7639SOL    HW134379   3.664   4.132  16.142  1.9164  2.1093  0.3704
 7639SOL    HW234380   3.652   4.075  16.275  0.9281  0.4932  0.4335
 7640SOL     OW34381   0.170   0.739   2.874  1.0925 -0.2735  0.0275
 7640SOL    HW134382   0.139   0.829   2.879  2.2941  0.3121 -2.9027
 7640SOL    HW234383   0.260   0.750   2.842  1.6320  0.6240  1.8653
 7641SOL     OW34384   2.777   0.446   3.539 -0.6898  0.2299  0.1440
 7641SOL    HW134385   2.756   0.368   3.488  0.0721  1.0836 -1.4977
 7641SOL    HW234386   2.872   0.435   3.537 -0.7453  0.0745 -1.2719
 7642SOL     OW34387   1.551   2.043  15.935  0.3619  0.2485  0.0636
 7642SOL    HW134388   1.557   2.138  15.945  1.2639  0.2978 -0.8562
 7642SOL    HW234389   1.578   2.024  16.024  0.0174 -1.2110 -0.1502
 7643SOL     OW34390   1.949   1.094  14.272  0.7169  0.3375  0.1219
 7643SOL    HW134391   1.970   1.131  14.186  2.5888 -0.1152  0.3800
 7643SOL    HW234392   1.959   0.999  14.264 -1.3594  0.1247  0.0667
 7644SOL     OW34393   1.220   4.195   7.312 -0.2205 -0.5156 -0.2823
 7644SOL    HW134394   1.251   4.256   7.378 -0.2424 -1.8734  0.9766
 7644SOL    HW234395   1.300   4.170   7.264 -1.2123  1.0122 -2.7555
 7645SOL     OW34396   2.004   3.495   7.316 -0.2151 -0.6348 -0.0406
 7645SOL    HW134397   2.055   3.458   7.244  0.0666  0.8451 -0.5921
 7645SOL    HW234398   2.082   3.526   7.361 -0.7617 -0.8619  1.0685
 7646SOL     OW34399   1.152   0.242   2.173 -0.1906  0.0035  0.1213
 7646SOL    HW134400   1.174   0.332   2.151  0.8171 -0.0365  0.9943
 7646SOL    HW234401   1.059   0.227   2.153  0.0972 -2.5513  0.6686
 7647SOL     OW34402   1.002   2.734   9.146  0.0432  0.7641  0.3432
 7647SOL    HW134403   1.092   2.726   9.178 -0.0676  0.4470  0.5831
 7647SOL    HW234404   0.964   2.660   9.194 -0.9860  1.2656  0.2936
 7648SOL     OW34405   0.644   2.860  16.304  0.2718 -0.2544 -0.3761
 7648SOL    HW134406   0.637   2.954  16.319  2.0322 -0.3830  1.2614
 7648SOL    HW234407   0.736   2.839  16.321 -0.4686 -2.9470  0.2411
 7649SOL     OW34408   0.110   3.623   3.793 -0.2498 -0.1492  0.5232
 7649SOL    HW134409   0.179   3.560   3.816 -0.2387  0.1415  1.2863
 7649SOL    HW234410   0.076   3.599   3.707 -0.6186 -1.6180  1.0718
 7650SOL     OW34411   3.247   4.715   7.638 -0.3373 -0.5547 -0.3560
 7650SOL    HW134412   3.159   4.710   7.674 -0.4047 -2.4419 -0.7893
 7650SOL    HW234413   3.296   4.665   7.702  1.5463  0.3090 -1.1204
 7651SOL     OW34414   2.201   1.289   2.457  0.0428  0.2223  0.0116
 7651SOL    HW134415   2.111   1.300   2.488  0.5398  1.1302  1.1523
 7651SOL    HW234416   2.178   1.239   2.379 -2.4082  1.7862 -0.2500
 7652SOL     OW34417   1.030   2.613   9.481 -0.3372 -0.3205  0.0482
 7652SOL    HW134418   0.992   2.666   9.551  1.8692 -0.6736  1.5187
 7652SOL    HW234419   0.961   2.552   9.458 -2.6076  1.6454  1.6712
 7653SOL     OW34420   2.075   1.826   5.669  0.1408  0.4161  0.6907
 7653SOL    HW134421   2.020   1.892   5.627  0.1222  0.7306  1.2049
 7653SOL    HW234422   2.072   1.860   5.759 -0.4450  0.7905  0.5289
 7654SOL     OW34423   3.115   3.115   8.774 -0.1882 -0.3902 -0.7516
 7654SOL    HW134424   3.042   3.073   8.820  0.8495 -0.3435  0.9397
 7654SOL    HW234425   3.114   3.061   8.695  0.6128  1.6011 -2.1042
 7655SOL     OW34426   4.260   2.765  13.742  0.6454  0.2365  0.4386
 7655SOL    HW134427   4.212   2.845  13.721  2.0138  0.7250 -0.8028
 7655SOL    HW234428   4.277   2.785  13.834  0.4340  2.5192 -0.0275
 7656SOL     OW34429   3.367   4.413  17.500  0.3723  0.3078 -0.4202
 7656SOL    HW134430   3.275   4.390  17.515 -0.3450  3.5319  0.1210
 7656SOL    HW234431   3.389   4.343  17.439  0.8152 -1.7254  2.0463
 7657SOL     OW34432   0.880   0.621   1.941 -0.2445 -0.4517 -0.1556
 7657SOL    HW134433   0.944   0.670   1.889 -0.8366  0.8993  0.3941
 7657SOL    HW234434   0.891   0.676   2.018 -1.1388  2.1792 -1.8980
 7658SOL     OW34435   1.107   0.002   0.730  0.4448 -0.2611  0.1429
 7658SOL    HW134436   1.056   4.653   0.774  0.9031 -1.0762 -0.6051
 7658SOL    HW234437   1.098   4.690   0.641  1.2553  1.7152 -0.6315
 7659SOL     OW34438   3.460   1.841  13.345  0.3177 -0.6745 -0.3552
 7659SOL    HW134439   3.503   1.906  13.288  1.0256 -1.5883 -0.8638
 7659SOL    HW234440   3.482   1.880  13.429  1.1121  0.3816 -1.0523
 7660SOL     OW34441   4.518   3.004   0.460 -0.4605  0.3471  0.8195
 7660SOL    HW134442   4.583   2.934   0.453 -2.0858 -1.1522  0.5421
 7660SOL    HW234443   4.576   3.051   0.520  3.4987 -0.8945 -2.0319
 7661SOL     OW34444   1.047   3.591   2.018  0.3903 -0.1163 -0.3101
 7661SOL    HW134445   1.101   3.519   1.985 -0.3636 -1.8484  2.1745
 7661SOL    HW234446   0.986   3.541   2.073  0.2425 -0.4585 -0.7799
 7662SOL     OW34447   3.227   3.204  11.064  0.3112 -0.0179 -0.0111
 7662SOL    HW134448   3.214   3.296  11.041  0.0703 -0.6215 -2.3068
 7662SOL    HW234449   3.301   3.217  11.123  1.3104  1.4922 -1.5990
 7663SOL     OW34450   4.612   4.204  14.116 -0.1011  0.0270 -0.6647
 7663SOL    HW134451   4.582   4.118  14.147  1.1709  0.2429  1.1762
 7663SOL    HW234452   4.536   4.235  14.066 -0.8403 -0.2887  0.2520
 7664SOL     OW34453   1.966   1.186   1.416  0.3051 -0.1935  0.1106
 7664SOL    HW134454   1.954   1.279   1.394 -0.7271 -0.3603 -0.0378
 7664SOL    HW234455   1.994   1.146   1.333  0.1702  1.9824 -0.9841
 7665SOL     OW34456   3.920   0.027   2.913 -0.3331  0.0201 -0.4657
 7665SOL    HW134457   3.868   0.004   2.836 -1.8852  0.4269  0.4726
 7665SOL    HW234458   3.987   0.077   2.866 -0.1448  2.1420  2.0872
 7666SOL     OW34459   4.520   4.074  11.216  0.6341  0.3982  0.1026
 7666SOL    HW134460   4.514   3.979  11.217  2.5527  0.2728 -0.4382
 7666SOL    HW234461   4.546   4.092  11.126  1.1730 -2.1599 -0.2573
 7667SOL     OW34462   3.896   1.595   2.846  0.2499 -0.4227 -0.3025
 7667SOL    HW134463   3.857   1.513   2.876 -1.4694  0.0361 -1.3125
 7667SOL    HW234464   3.815   1.645   2.839  0.6301  0.1229 -0.8385
 7668SOL     OW34465   1.310   1.932   0.561 -0.4332 -0.1282  0.1044
 7668SOL    HW134466   1.224   1.906   0.528 -0.5205  1.3964 -0.8499
 7668SOL    HW234467   1.342   1.866   0.622 -0.9049  0.9777  1.5306
 7669SOL     OW34468   3.740   3.532  10.998 -0.1615  0.1718  0.0598
 7669SOL    HW134469   3.718   3.578  10.917  1.9744  1.5729  0.2945
 7669SOL    HW234470   3.658   3.494  11.031  0.2270 -0.7996 -0.0889
 7670SOL     OW34471   3.578   3.546   3.583 -0.0278  0.1972 -0.1531
 7670SOL    HW134472   3.511   3.589   3.637  0.4788  1.8730 -0.8519
 7670SOL    HW234473   3.556   3.455   3.601  0.0748  0.3729  0.8757
 7671SOL     OW34474   2.152   1.210   7.564 -0.0254  0.4145  0.5783
 7671SOL    HW134475   2.245   1.196   7.544 -0.0273  1.9927 -0.6234
 7671SOL    HW234476   2.144   1.183   7.655 -0.8177  1.9531  0.9815
 7672SOL     OW34477   0.690   4.482   3.083  0.1703  0.2452 -0.1900
 7672SOL    HW134478   0.743   4.551   3.042 -1.9387  1.2380 -1.2174
 7672SOL    HW234479   0.757   4.416   3.103  0.1677  0.0959 -0.6640
 7673SOL     OW34480   1.464   2.387   8.303 -0.1409 -0.0910 -1.1336
 7673SOL    HW134481   1.556   2.406   8.321 -0.4996 -0.6027  1.2412
 7673SOL    HW234482   1.426   2.446   8.368 -0.7618 -1.7333 -0.0220
 7674SOL     OW34483   1.517   0.846  17.242 -0.2902 -0.3330 -0.2386
 7674SOL    HW134484   1.544   0.889  17.161  1.9468  2.5841  2.0789
 7674SOL    HW234485   1.561   0.761  17.232 -1.5568 -0.6526 -3.3210
 7675SOL     OW34486   3.731   2.710   8.464 -0.3859 -0.3604 -0.1254
 7675SOL    HW134487   3.731   2.653   8.386  0.4451  1.5058 -1.5080
 7675SOL    HW234488   3.672   2.659   8.518 -1.0517  1.1025  0.5227
 7676SOL     OW34489   2.996   1.457  17.051  0.0757 -0.1380  0.1141
 7676SOL    HW134490   3.077   1.431  17.093  0.7660 -0.5128 -1.4468
 7676SOL    HW234491   2.993   1.548  17.080  0.2372  0.0506 -0.4466
 7677SOL     OW34492   3.737   1.120   3.384  0.4023  0.0339  0.3263
 7677SOL    HW134493   3.826   1.121   3.420  0.6468 -0.8809 -0.2454
 7677SOL    HW234494   3.700   1.048   3.433 -1.2385  1.5747  1.3367
 7678SOL     OW34495   2.284   0.836   8.098 -0.1951 -0.4851 -0.1431
 7678SOL    HW134496   2.322   0.803   8.179 -1.0872 -1.3241 -0.0613
 7678SOL    HW234497   2.231   0.912   8.123  0.9420  0.9492 -2.0890
 7679SOL     OW34498   2.748   1.450   0.307  0.2797  0.0564  0.0017
 7679SOL    HW134499   2.684   1.520   0.293 -0.4319 -0.5529  0.1752
 7679SOL    HW234500   2.804   1.503   0.364 -1.6936  1.0326  1.0682
 7680SOL     OW34501   3.804   3.111  13.266 -0.3159 -0.3922 -0.3432
 7680SOL    HW134502   3.755   3.066  13.197 -0.3735  2.4471 -2.1409
 7680SOL    HW234503   3.804   3.202  13.236 -1.6218 -0.1957  0.2407
 7681SOL     OW34504   3.126   0.701   9.897 -0.7668 -0.0640  0.2652
 7681SOL    HW134505   3.144   0.647   9.820  0.0296 -1.8387  1.6879
 7681SOL    HW234506   3.037   0.670   9.913 -0.5155 -1.3841 -0.8227
 7682SOL     OW34507   3.036   0.477   0.997 -0.1332 -0.8366 -0.2742
 7682SOL    HW134508   3.045   0.402   0.939 -1.2302 -1.3533  0.2265
 7682SOL    HW234509   3.039   0.424   1.076  0.7865 -1.0944 -0.4772
 7683SOL     OW34510   4.266   3.876   6.023  0.0246  0.1500 -0.0982
 7683SOL    HW134511   4.191   3.934   6.013  0.4057  0.6059 -0.2731
 7683SOL    HW234512   4.279   3.886   6.117 -0.6679  1.4257 -0.1458
 7684SOL     OW34513   4.111   4.028   5.741  0.8052  0.5571  0.0706
 7684SOL    HW134514   4.201   4.058   5.747  0.8442  0.6902 -1.2211
 7684SOL    HW234515   4.086   4.034   5.833 -1.1648 -2.0173 -0.2751
 7685SOL     OW34516   0.173   2.143   6.424 -0.5330  0.2162  1.0345
 7685SOL    HW134517   0.202   2.133   6.515 -2.5600  0.2146  1.6674
 7685SOL    HW234518   0.122   2.223   6.435 -0.1032  1.1250 -3.5807
 7686SOL     OW34519   3.140   3.977  12.495 -0.6294  0.4740  0.1531
 7686SOL    HW134520   3.110   3.913  12.431  2.4436 -0.0663 -0.7463
 7686SOL    HW234521   3.183   3.934  12.568  0.0917 -0.3889 -0.7811
 7687SOL     OW34522   3.966   2.541   3.592  0.1104 -0.1045 -0.3849
 7687SOL    HW134523   3.952   2.514   3.501 -0.7561  1.2968 -0.6725
 7687SOL    HW234524   4.061   2.529   3.599 -0.1056 -1.6495 -0.1507
 7688SOL     OW34525   0.898   0.022  12.822 -0.4081  0.7586 -0.1431
 7688SOL    HW134526   0.858   4.719  12.905  0.1253 -4.2013 -1.2745
 7688SOL    HW234527   0.901   4.662  12.769  0.4601  0.3111  0.5864
 7689SOL     OW34528   1.589   3.514   4.654 -0.0512 -0.9051  0.1002
 7689SOL    HW134529   1.497   3.517   4.627 -0.3870 -2.2673  1.0741
 7689SOL    HW234530   1.620   3.425   4.639 -0.8610 -1.0453 -0.7478
 7690SOL     OW34531   0.983   4.633   0.050  0.0191  0.3701  0.1992
 7690SOL    HW134532   1.047   4.565   0.028  0.1523  0.6437 -0.2726
 7690SOL    HW234533   0.978   4.694  17.660 -1.1406  0.1266  0.0752
 7691SOL     OW34534   4.285   0.218   6.302 -0.4428  0.4377 -0.3733
 7691SOL    HW134535   4.323   0.144   6.349 -0.8907  1.0152  0.9113
 7691SOL    HW234536   4.353   0.248   6.242  0.0281  1.8626  0.8537
 7692SOL     OW34537   3.257   2.707   5.367 -0.2329  0.4590 -0.9156
 7692SOL    HW134538   3.176   2.720   5.318 -1.6264 -0.5394  1.0990
 7692SOL    HW234539   3.222   2.702   5.456 -1.3357 -0.1938 -1.3720
 7693SOL     OW34540   4.610   3.178  17.681  0.5421 -0.2347 -0.1071
 7693SOL    HW134541   4.635   3.101  17.630 -4.1853  0.2295 -3.1112
 7693SOL    HW234542   4.577   3.134   0.077 -0.2056  1.2141  0.4028
 7694SOL     OW34543   0.777   1.755   8.999  0.4687 -0.1109  0.1873
 7694SOL    HW134544   0.759   1.770   9.092 -1.0659  0.1705 -0.1635
 7694SOL    HW234545   0.697   1.720   8.960 -0.2380  0.6890  0.9144
 7695SOL     OW34546   2.740   3.200  11.440 -0.2403 -0.0376  0.1913
 7695SOL    HW134547   2.741   3.175  11.533 -1.2114  1.0278  0.4908
 7695SOL    HW234548   2.779   3.287  11.435  0.8647 -0.4841  0.9968
 7696SOL     OW34549   1.092   1.230   5.130  0.0370  0.2585  0.1478
 7696SOL    HW134550   1.125   1.172   5.061  1.0379 -0.1985  0.9938
 7696SOL    HW234551   1.128   1.316   5.107 -2.5992  1.6561  1.2586
 7697SOL     OW34552   2.888   0.459   5.984 -0.0385  0.1766 -0.1942
 7697SOL    HW134553   2.934   0.376   5.999  1.0967  0.7796 -0.3264
 7697SOL    HW234554   2.801   0.442   6.019 -0.0640  0.7496  0.0151
 7698SOL     OW34555   4.609   3.597   0.160  0.4856  0.3853  0.1444
 7698SOL    HW134556   4.693   3.618   0.120  1.0038  1.8375  1.9603
 7698SOL    HW234557   4.557   3.678   0.151  0.0874  0.1321  0.1643
 7699SOL     OW34558   0.008   1.349  16.775  0.5097 -0.0711  0.0475
 7699SOL    HW134559   0.070   1.350  16.701  0.4389  0.5078  0.0018
 7699SOL    HW234560   4.652   1.394  16.739 -1.3147 -1.9264  1.6022
 7700SOL     OW34561   1.033   2.758   1.415 -1.1304 -0.0885  0.5836
 7700SOL    HW134562   1.074   2.834   1.373 -0.3567 -0.4847  0.6197
 7700SOL    HW234563   0.983   2.713   1.346  0.0023  0.4150 -0.5586
 7701SOL     OW34564   0.735   3.512   8.640 -0.0641  0.4168 -0.1222
 7701SOL    HW134565   0.669   3.444   8.633  0.4806  0.0338 -1.5919
 7701SOL    HW234566   0.782   3.471   8.713 -1.1142  0.9328  0.8490
 7702SOL     OW34567   2.161   3.221   2.747 -0.1861  0.4054 -0.0102
 7702SOL    HW134568   2.154   3.171   2.829 -0.0549 -1.0278 -0.8721
 7702SOL    HW234569   2.074   3.261   2.755 -0.2529  0.0530  1.1020
 7703SOL     OW34570   0.888   2.704   3.082 -0.0536  0.3477  0.7930
 7703SOL    HW134571   0.919   2.615   3.099 -1.4703  0.3953  3.4684
 7703SOL    HW234572   0.954   2.754   3.129  0.6423 -0.2372  0.4548
 7704SOL     OW34573   4.325   2.749   5.095  0.0139 -0.7545 -0.3112
 7704SOL    HW134574   4.346   2.673   5.041  0.8425  0.6902 -2.0209
 7704SOL    HW234575   4.231   2.757   5.079  0.2838  1.3446 -0.8983
 7705SOL     OW34576   3.560   4.165  11.404  0.1924  0.2307  0.1959
 7705SOL    HW134577   3.544   4.237  11.465 -0.5536 -0.7479  1.1546
 7705SOL    HW234578   3.475   4.155  11.362  0.7212 -0.3845 -0.7249
 7706SOL     OW34579   0.230   3.874   7.435  0.2286 -0.4336  0.2746
 7706SOL    HW134580   0.212   3.880   7.341  1.2504 -2.7844 -0.0798
 7706SOL    HW234581   0.159   3.824   7.475  0.5912 -1.0279  0.1786
 7707SOL     OW34582   1.565   2.474  14.556 -0.3819 -0.0634 -0.7921
 7707SOL    HW134583   1.575   2.381  14.539 -1.2012 -0.4743  0.9878
 7707SOL    HW234584   1.595   2.508  14.471 -0.1727  0.1972 -0.6141
 7708SOL     OW34585   2.546   3.298   3.644 -0.2895  0.6121  0.4408
 7708SOL    HW134586   2.505   3.351   3.713 -2.3933  0.1657 -0.4745
 7708SOL    HW234587   2.577   3.368   3.587  2.5221 -0.7613  0.2756
 7709SOL     OW34588   3.911   1.375   8.367  0.8721 -0.1057 -0.4284
 7709SOL    HW134589   3.929   1.393   8.460 -2.5360  3.2673 -0.4586
 7709SOL    HW234590   3.991   1.419   8.337  1.5624 -2.0276 -1.4532
 7710SOL     OW34591   1.853   0.740   4.533  0.4640  0.2040  0.3309
 7710SOL    HW134592   1.914   0.699   4.471  0.3275 -0.6164  0.7282
 7710SOL    HW234593   1.813   0.674   4.590  1.6480 -0.2355  0.6515
 7711SOL     OW34594   1.780   0.003   3.706  0.1831  0.6762  0.3601
 7711SOL    HW134595   1.830   4.655   3.752 -1.0692  1.0475  2.2977
 7711SOL    HW234596   1.803   0.086   3.748  3.1865 -0.4305  0.8887
 7712SOL     OW34597   3.929   1.949   7.800 -0.0072  0.3315  0.0532
 7712SOL    HW134598   3.916   2.034   7.757 -1.8315 -0.0313 -0.1202
 7712SOL    HW234599   3.852   1.945   7.857  0.6908 -1.1507  0.8722
 7713SOL     OW34600   2.469   4.673  11.385  0.5819 -0.3811  0.8308
 7713SOL    HW134601   2.452   4.672  11.291 -0.6565 -0.1034  1.0587
 7713SOL    HW234602   2.447   4.581  11.397 -1.3784  0.1525  1.3320
 7714SOL     OW34603   0.278   4.638  17.264 -0.6732 -0.1329 -0.1270
 7714SOL    HW134604   0.370   4.642  17.291 -0.7645  2.7727 -0.2530
 7714SOL    HW234605   0.239   4.611  17.347 -0.3027  1.1534  0.4747
 7715SOL     OW34606   2.512   0.485  14.051  0.0066 -0.1127 -0.0667
 7715SOL    HW134607   2.557   0.549  14.107  0.3973 -1.3785  1.0594
 7715SOL    HW234608   2.545   0.401  14.081 -1.6247 -0.3932  0.8940
 7716SOL     OW34609   2.431   2.333   6.779  0.4022  0.0175 -0.0197
 7716SOL    HW134610   2.390   2.247   6.786 -0.4789  0.4216 -0.1921
 7716SOL    HW234611   2.412   2.377   6.862  1.0499  1.7170 -0.7857
 7717SOL     OW34612   1.320   3.304   8.756  0.4242  0.3537  0.4863
 7717SOL    HW134613   1.278   3.219   8.765  2.9441 -0.9609 -0.0674
 7717SOL    HW234614   1.347   3.316   8.847  2.1442 -3.0150  0.4159
 7718SOL     OW34615   4.294   3.788  14.278  0.2733 -0.1790 -0.1897
 7718SOL    HW134616   4.257   3.700  14.277 -0.9762  0.3330  1.2531
 7718SOL    HW234617   4.298   3.809  14.371  2.0414 -1.4748  0.0222
 7719SOL     OW34618   3.044   0.581   6.293 -0.2214  0.1341 -0.2300
 7719SOL    HW134619   2.955   0.599   6.262  0.1675  1.6187 -0.4554
 7719SOL    HW234620   3.073   0.670   6.309 -1.0315  0.7087 -1.9091
 7720SOL     OW34621   1.988   1.069  10.760  0.1699 -0.2935 -0.0435
 7720SOL    HW134622   1.947   1.000  10.708  0.9829 -0.1643 -0.8518
 7720SOL    HW234623   1.917   1.133  10.751  0.8510  0.4364 -0.1815
 7721SOL     OW34624   3.657   0.661   9.468  0.7204 -0.3031  0.6501
 7721SOL    HW134625   3.737   0.636   9.421 -0.6917  0.3745 -2.1052
 7721SOL    HW234626   3.607   0.689   9.392 -0.0700 -0.3290  1.1578
 7722SOL     OW34627   3.115   0.230   8.125  0.4453 -0.0588 -0.0489
 7722SOL    HW134628   3.129   0.239   8.031  0.0438 -0.7447 -0.1725
 7722SOL    HW234629   3.045   0.290   8.153  0.5420 -0.2831  0.6815
 7723SOL     OW34630   3.362   2.332  16.185  0.3256  0.1314 -0.0075
 7723SOL    HW134631   3.324   2.372  16.263 -1.5068 -0.2574 -0.6993
 7723SOL    HW234632   3.289   2.319  16.125  0.8727 -0.0023 -0.6547
 7724SOL     OW34633   1.458   2.722   7.396 -0.2840  0.4466  0.2840
 7724SOL    HW134634   1.520   2.752   7.462  0.4071 -1.6240  0.5929
 7724SOL    HW234635   1.511   2.691   7.322  0.0015 -1.6870  1.3662
 7725SOL     OW34636   1.595   0.294   5.658 -0.0788  0.4930 -0.5969
 7725SOL    HW134637   1.532   0.331   5.596  1.7205  0.1946 -2.5959
 7725SOL    HW234638   1.533   0.258   5.721  0.9570  1.2840  0.8740
 7726SOL     OW34639   2.899   3.447   9.005  0.2745  0.2541 -0.6315
 7726SOL    HW134640   2.870   3.473   9.092 -1.2671  0.4186 -1.1937
 7726SOL    HW234641   2.945   3.366   9.028 -1.8327 -0.3979  1.2889
 7727SOL     OW34642   1.647   3.567   6.330 -0.1023  1.0033  0.0578
 7727SOL    HW134643   1.569   3.555   6.384 -0.4654  1.9324 -0.2658
 7727SOL    HW234644   1.703   3.639   6.358  1.6716 -0.4962  0.3360
 7728SOL     OW34645   0.987   3.855   4.685 -0.0723  0.2973 -0.0826
 7728SOL    HW134646   0.942   3.832   4.604 -0.6164 -1.0720  0.6057
 7728SOL    HW234647   0.983   3.778   4.741  2.0759  0.2661  0.0556
 7729SOL     OW34648   0.074   4.196   4.100  0.0428 -0.3172 -0.0034
 7729SOL    HW134649   0.141   4.254   4.063 -0.2205 -0.5238 -0.8187
 7729SOL    HW234650   0.017   4.253   4.152  1.1565 -1.6318  2.6100
 7730SOL     OW34651   1.420   0.377   6.500  0.4090 -0.0540  0.0177
 7730SOL    HW134652   1.325   0.385   6.508  0.3142  0.3196 -1.4132
 7730SOL    HW234653   1.439   0.342   6.587 -0.0861  1.7353  0.8324
 7731SOL     OW34654   1.054   0.167  16.946  0.0148 -0.4144 -0.6073
 7731SOL    HW134655   1.053   0.263  16.952  0.1133 -0.3571 -1.5930
 7731SOL    HW234656   0.959   0.159  16.949 -0.0108 -0.2545 -1.0254
 7732SOL     OW34657   2.491   2.677   4.275  0.3259  0.5595  0.0153
 7732SOL    HW134658   2.519   2.727   4.199  0.8797  2.0132  1.1672
 7732SOL    HW234659   2.541   2.598   4.254 -0.1246  0.3777 -0.3887
 7733SOL     OW34660   1.922   4.222  12.035 -0.1703 -0.1537 -0.3660
 7733SOL    HW134661   1.972   4.197  12.113 -1.6589  1.0543  0.9715
 7733SOL    HW234662   1.844   4.262  12.073 -0.9061 -1.9273 -0.0493
 7734SOL     OW34663   0.958   4.342  15.470 -0.2745  1.2684 -0.8649
 7734SOL    HW134664   0.933   4.401  15.541 -0.4163  4.1472 -3.2750
 7734SOL    HW234665   1.010   4.279  15.519 -0.5266  0.5370 -1.5307
 7735SOL     OW34666   0.595   2.108   4.851  0.1857  0.0609  0.4486
 7735SOL    HW134667   0.530   2.174   4.823  0.1454 -0.7533 -1.4000
 7735SOL    HW234668   0.675   2.160   4.844  0.9859 -0.9781  2.0306
 7736SOL     OW34669   4.105   2.994  13.738  0.1550  0.3865  0.5773
 7736SOL    HW134670   4.013   2.983  13.762 -0.1949  0.2691 -0.8696
 7736SOL    HW234671   4.108   3.076  13.688  1.0852 -1.4931 -2.4249
 7737SOL     OW34672   1.028   2.332   6.503  0.4332 -0.1611 -0.9357
 7737SOL    HW134673   1.042   2.266   6.572 -0.0698  1.1304  0.3968
 7737SOL    HW234674   0.987   2.409   6.542  0.7226 -1.3416  1.6965
 7738SOL     OW34675   1.572   3.940   6.192 -0.4284  0.5725 -0.3307
 7738SOL    HW134676   1.500   3.936   6.255 -0.0781  2.3360  0.1794
 7738SOL    HW234677   1.543   3.879   6.125  0.4601  0.5487 -0.6974
 7739SOL     OW34678   3.986   2.868   5.583  0.0983  0.3776 -0.8843
 7739SOL    HW134679   4.025   2.840   5.500 -2.7654  1.0996 -2.4549
 7739SOL    HW234680   3.913   2.806   5.583 -1.8419  2.7099  0.4459
 7740SOL     OW34681   1.227   3.519  11.459  0.3547  0.6148  0.0257
 7740SOL    HW134682   1.318   3.537  11.485  0.3494 -1.5116  1.5134
 7740SOL    HW234683   1.184   3.551  11.538 -1.6853 -2.9225  0.3126
 7741SOL     OW34684   3.803   0.557   1.194  0.8955  0.4165 -0.1558
 7741SOL    HW134685   3.894   0.549   1.165  1.2996  0.6037  1.0658
 7741SOL    HW234686   3.790   0.651   1.183  1.6262  0.7655  2.0221
 7742SOL     OW34687   2.879   3.976   6.798  0.2349 -0.1436 -0.3351
 7742SOL    HW134688   2.912   3.896   6.757  0.7155 -0.6298  1.0170
 7742SOL    HW234689   2.935   4.041   6.757 -0.6132  0.9987  0.3160
 7743SOL     OW34690   3.618   0.031  15.876 -0.2528  0.2048 -0.2610
 7743SOL    HW134691   3.566   0.110  15.862 -2.4243 -0.8994  1.5416
 7743SOL    HW234692   3.662   0.037  15.791  0.2318  0.6447  0.0211
 7744SOL     OW34693   1.392   1.612   1.454  0.1962 -0.1490  0.2892
 7744SOL    HW134694   1.403   1.605   1.360 -1.8105  1.0917 -0.0570
 7744SOL    HW234695   1.315   1.669   1.451 -0.2815 -0.8085  0.1035
 7745SOL     OW34696   4.134   1.601   8.794  0.3859 -0.1644  0.4709
 7745SOL    HW134697   4.205   1.659   8.767 -1.2619  1.4757 -0.3945
 7745SOL    HW234698   4.181   1.549   8.859  3.2367  1.4704 -0.2948
 7746SOL     OW34699   2.711   1.349   3.826 -0.0209  0.2056  0.2153
 7746SOL    HW134700   2.708   1.438   3.793 -0.1635  0.6807  1.4862
 7746SOL    HW234701   2.694   1.365   3.919 -0.9529  2.5766 -0.3785
 7747SOL     OW34702   1.485   0.280   4.389  0.1665  0.0244  0.0114
 7747SOL    HW134703   1.546   0.215   4.352  0.7133  0.8962 -0.6153
 7747SOL    HW234704   1.511   0.272   4.480 -0.9775 -0.5166  0.2873
 7748SOL     OW34705   2.029   1.795   5.260 -0.2862 -0.2945  0.1360
 7748SOL    HW134706   1.975   1.722   5.288  2.4123 -1.9896  0.9265
 7748SOL    HW234707   2.108   1.775   5.310  1.8108  3.0255 -1.8472
 7749SOL     OW34708   3.752   2.954   8.353 -0.3436 -0.0705 -0.4126
 7749SOL    HW134709   3.669   2.948   8.306  0.5797 -1.0641 -1.9274
 7749SOL    HW234710   3.743   2.870   8.399  3.2628  0.6214  1.5770
 7750SOL     OW34711   4.624   2.927   4.834 -0.0295 -0.2725  0.3477
 7750SOL    HW134712   4.662   2.897   4.917 -0.7190  0.7936  1.0406
 7750SOL    HW234713   4.535   2.949   4.860  0.4015  0.7431  1.0073
 7751SOL     OW34714   4.330   2.004   7.429 -0.0333  0.0238  0.3135
 7751SOL    HW134715   4.387   1.939   7.470 -0.1219 -2.5555 -3.6268
 7751SOL    HW234716   4.321   1.965   7.342  0.3539  0.9382 -0.1320
 7752SOL     OW34717   0.602   0.700   2.933  0.0120  0.7387  0.3100
 7752SOL    HW134718   0.654   0.777   2.911 -0.5523  0.8509 -0.6632
 7752SOL    HW234719   0.528   0.718   2.875 -0.8425 -1.2423  0.7924
 7753SOL     OW34720   2.262   4.592   8.507  0.4104  0.0773 -0.1930
 7753SOL    HW134721   2.313   4.561   8.433  0.9735  2.3883 -0.7965
 7753SOL    HW234722   2.266   4.525   8.575  1.6917 -0.7449 -1.0871
 7754SOL     OW34723   4.231   0.846   7.774  0.1316 -0.7824  0.4607
 7754SOL    HW134724   4.242   0.886   7.688  1.0428  0.1759  1.0345
 7754SOL    HW234725   4.136   0.843   7.787  0.0107  1.8923  0.1247
 7755SOL     OW34726   2.712   2.657   0.097 -0.3671  0.0579  0.0136
 7755SOL    HW134727   2.749   2.580   0.054 -2.5721 -0.3656 -1.1239
 7755SOL    HW234728   2.688   2.617   0.181  0.8894  0.4776  0.5752
 7756SOL     OW34729   2.706   0.457   7.344 -0.7120 -0.7102 -0.2098
 7756SOL    HW134730   2.760   0.439   7.421 -0.0686  0.4038 -0.3903
 7756SOL    HW234731   2.752   0.451   7.260 -0.0328 -1.5989  0.2416
 7757SOL     OW34732   2.664   1.505   9.012 -0.6041  0.0490  0.0573
 7757SOL    HW134733   2.625   1.418   9.008 -2.7310  1.0249 -0.6226
 7757SOL    HW234734   2.708   1.512   9.097  0.8718 -0.4681 -0.6588
 7758SOL     OW34735   4.141   1.526  13.178 -0.3283 -0.1870  1.2654
 7758SOL    HW134736   4.178   1.575  13.104 -1.3419 -1.1353  0.1258
 7758SOL    HW234737   4.164   1.575  13.257  0.4714 -0.8838  1.4592
 7759SOL     OW34738   3.094   4.168   7.098 -0.4271  0.1932 -0.2225
 7759SOL    HW134739   3.141   4.119   7.030 -0.1132 -2.8945  2.2301
 7759SOL    HW234740   3.146   4.140   7.173  1.1516 -1.8818 -2.0621
 7760SOL     OW34741   2.819   4.539   1.889  0.3065  0.3913 -0.0283
 7760SOL    HW134742   2.906   4.527   1.926  0.2249  1.2076  0.4174
 7760SOL    HW234743   2.804   4.456   1.845  1.2612  0.1989  0.0008
 7761SOL     OW34744   1.006   3.442   1.188  0.0747  0.5132  0.2585
 7761SOL    HW134745   0.972   3.356   1.167  2.4196 -0.5229  0.6200
 7761SOL    HW234746   0.982   3.488   1.108  0.2140  1.4164  0.7279
 7762SOL     OW34747   0.432   1.609   9.060 -0.2381  0.8963 -0.5471
 7762SOL    HW134748   0.455   1.670   8.991 -1.8510  0.0409 -1.8272
 7762SOL    HW234749   0.409   1.538   9.000  0.1022  0.7222 -0.4737
 7763SOL     OW34750   3.242   2.795   6.216  0.0726 -0.4929  0.3731
 7763SOL    HW134751   3.160   2.807   6.264 -0.0962  1.0074 -0.2866
 7763SOL    HW234752   3.244   2.699   6.221 -1.4422 -0.5833 -0.7295
 7764SOL     OW34753   3.349   4.558   3.481  0.3080  0.4264  0.2626
 7764SOL    HW134754   3.387   4.536   3.395  0.3562 -0.6807  0.5717
 7764SOL    HW234755   3.256   4.559   3.457  0.2399  1.4957  0.5735
 7765SOL     OW34756   4.652   4.160   7.819  0.0692 -0.2897  0.2587
 7765SOL    HW134757   4.628   4.076   7.859 -1.4092 -1.0986 -2.3167
 7765SOL    HW234758   4.707   4.135   7.745 -1.0946  1.0627 -1.0761
 7766SOL     OW34759   0.506   4.515  17.680 -0.0147 -0.7391 -0.4835
 7766SOL    HW134760   0.426   4.464  17.668 -0.6673  0.7344 -2.2756
 7766SOL    HW234761   0.553   4.463   0.062 -1.3680 -1.5989 -0.1819
 7767SOL     OW34762   1.522   4.044  17.286  0.6127  0.1415  0.3682
 7767SOL    HW134763   1.578   4.055  17.363  1.0826  0.1772  0.0202
 7767SOL    HW234764   1.576   3.989  17.228  1.3253 -0.4551  1.5835
 7768SOL     OW34765   4.589   2.121   9.871 -0.1750  0.4134 -1.0124
 7768SOL    HW134766   4.570   2.186   9.939 -0.0675 -0.8121  0.1854
 7768SOL    HW234767   4.615   2.041   9.918  0.5124  1.1211 -0.1874
 7769SOL     OW34768   4.152   1.249   7.579  0.6638  0.2449  0.5095
 7769SOL    HW134769   4.082   1.282   7.635  0.7346 -0.9567  1.3118
 7769SOL    HW234770   4.150   1.314   7.508  2.6171 -0.1933  0.0402
 7770SOL     OW34771   0.542   0.933   1.356  0.4808  0.1801 -0.0365
 7770SOL    HW134772   0.507   0.877   1.425  1.4329 -1.6438 -1.0368
 7770SOL    HW234773   0.625   0.970   1.385  1.2260 -0.9526 -0.7043
 7771SOL     OW34774   3.165   0.988   3.533 -0.5908  0.0275  0.0793
 7771SOL    HW134775   3.177   0.920   3.466 -0.3605  0.1229  0.0205
 7771SOL    HW234776   3.171   1.063   3.473 -2.6043 -0.3143 -0.5355
 7772SOL     OW34777   2.955   1.761  17.049 -0.1843  0.3225 -0.7478
 7772SOL    HW134778   2.948   1.798  16.961  1.1521 -1.4544 -1.5872
 7772SOL    HW234779   2.968   1.846  17.091 -1.6249 -0.1434  0.6602
 7773SOL     OW34780   1.742   1.462   4.898  0.2928 -0.3714 -0.1281
 7773SOL    HW134781   1.722   1.525   4.829 -0.4801 -2.0762 -1.4591
 7773SOL    HW234782   1.819   1.493   4.946  0.2667 -0.3968 -0.0688
 7774SOL     OW34783   0.385   1.713   3.321  0.0158  0.0824 -0.4339
 7774SOL    HW134784   0.467   1.712   3.271 -0.3112 -0.0112 -0.9547
 7774SOL    HW234785   0.320   1.734   3.255  1.0157 -0.0355 -1.4529
 7775SOL     OW34786   3.320   1.437   6.140  0.4329  0.1809  0.4394
 7775SOL    HW134787   3.326   1.343   6.156  1.8140 -0.0317 -1.2667
 7775SOL    HW234788   3.412   1.464   6.132 -0.0379  1.7881  0.4148
 7776SOL     OW34789   1.213   1.045   1.653 -0.1989  0.3852  0.4120
 7776SOL    HW134790   1.211   1.023   1.560  0.0420  1.7941  0.0680
 7776SOL    HW234791   1.144   1.111   1.661  0.2325  0.8620  0.1959
 7777SOL     OW34792   3.558   1.315   2.280  0.2175  0.4856 -0.2022
 7777SOL    HW134793   3.561   1.220   2.285 -2.9938  0.4853  1.3012
 7777SOL    HW234794   3.506   1.327   2.359 -1.6792 -3.8848 -0.8079
 7778SOL     OW34795   1.640   2.707   5.525  0.3288  0.0081  0.1144
 7778SOL    HW134796   1.574   2.653   5.483 -1.0722  0.1741  2.1161
 7778SOL    HW234797   1.706   2.641   5.546 -0.1278 -0.1822  0.9426
 7779SOL     OW34798   2.081   4.399   2.108 -0.4452 -0.1965 -0.1331
 7779SOL    HW134799   2.176   4.405   2.109 -0.4993  0.6710  1.8314
 7779SOL    HW234800   2.067   4.306   2.125  0.2773 -0.2875 -0.0332
 7780SOL     OW34801   3.364   1.944   6.281  0.3762  0.1681 -0.0846
 7780SOL    HW134802   3.293   1.977   6.336 -0.3845  0.1295 -1.0598
 7780SOL    HW234803   3.317   1.944   6.197  1.0959  0.9232 -0.4890
 7781SOL     OW34804   1.888   0.532   3.561 -0.0244 -0.1486  0.5553
 7781SOL    HW134805   1.930   0.567   3.482  2.1942 -0.4215  1.6195
 7781SOL    HW234806   1.795   0.532   3.537  0.4153 -2.0775 -1.1857
 7782SOL     OW34807   3.440   0.747   7.663  0.8389  0.2115  0.2145
 7782SOL    HW134808   3.357   0.732   7.709  1.0695  0.6748  0.7856
 7782SOL    HW234809   3.440   0.842   7.661  2.5776  0.1853 -1.7626
 7783SOL     OW34810   1.118   1.477   9.828  0.4385 -0.0501 -0.2797
 7783SOL    HW134811   1.075   1.432   9.901 -0.2388  0.2180 -0.5082
 7783SOL    HW234812   1.154   1.407   9.775  0.6650  0.2509 -0.5250
 7784SOL     OW34813   0.062   0.851   6.573 -0.3029  0.4238 -0.1316
 7784SOL    HW134814   0.057   0.848   6.477  1.4700 -0.4717 -0.2012
 7784SOL    HW234815   4.712   0.795   6.606  0.5968 -0.6181  0.0281
 7785SOL     OW34816   2.675   1.260  11.354  0.3405  0.6794  0.0824
 7785SOL    HW134817   2.630   1.242  11.437  0.5512  1.1699  0.2998
 7785SOL    HW234818   2.734   1.187  11.336 -0.4141  0.1902 -0.3973
 7786SOL     OW34819   3.488   4.219   8.517 -0.1159  0.2604  0.4598
 7786SOL    HW134820   3.512   4.127   8.516  1.3882  0.6408  1.3135
 7786SOL    HW234821   3.570   4.259   8.487  0.2876 -0.4156  0.6772
 7787SOL     OW34822   4.289   4.631   3.791  0.1145  0.0852  0.9398
 7787SOL    HW134823   4.227   4.559   3.776  1.3639 -0.5711 -1.0200
 7787SOL    HW234824   4.249   4.688   3.725 -0.2834 -2.2154 -0.8138
 7788SOL     OW34825   0.449   1.619   9.343  0.6617  0.1864 -0.0298
 7788SOL    HW134826   0.428   1.528   9.322  0.0378  0.1027  0.9602
 7788SOL    HW234827   0.460   1.650   9.253  2.8088 -1.2756 -0.2736
 7789SOL     OW34828   1.496   0.619   3.887 -0.6301 -0.0892  0.2603
 7789SOL    HW134829   1.409   0.626   3.927 -0.3494  1.5249  0.5485
 7789SOL    HW234830   1.545   0.679   3.943  0.9467 -0.6020 -0.5672
 7790SOL     OW34831   1.473   3.294  13.746 -0.3800  1.0391 -0.3971
 7790SOL    HW134832   1.464   3.232  13.674 -0.0356  0.7349 -0.1860
 7790SOL    HW234833   1.561   3.331  13.733 -1.5906  2.5455 -4.0348
 7791SOL     OW34834   1.883   0.204   3.877 -0.5693 -0.4350 -0.1983
 7791SOL    HW134835   1.843   0.262   3.942 -1.8434 -0.9902 -0.4809
 7791SOL    HW234836   1.925   0.142   3.937 -0.4959 -0.8508 -0.6777
 7792SOL     OW34837   4.040   0.124   3.910  0.2232  0.0488 -0.0047
 7792SOL    HW134838   3.960   0.130   3.858 -0.1844 -1.8577  0.3991
 7792SOL    HW234839   4.058   0.031   3.895  0.7467  0.4154 -1.6688
 7793SOL     OW34840   3.891   0.766   3.987 -0.1655  0.4527  0.0931
 7793SOL    HW134841   3.937   0.683   3.973 -1.2246 -0.3246  1.2613
 7793SOL    HW234842   3.817   0.737   4.040  0.8349 -0.3860  1.0378
 7794SOL     OW34843   1.655   1.277   2.520  0.3941 -0.2595  0.3047
 7794SOL    HW134844   1.626   1.200   2.471  0.9486  0.9458 -1.9326
 7794SOL    HW234845   1.568   1.315   2.537 -0.4465 -1.9074 -0.2953
 7795SOL     OW34846   2.865   0.752  14.758  0.6148  0.2924 -0.6450
 7795SOL    HW134847   2.909   0.678  14.800  2.3143  2.5693  1.5351
 7795SOL    HW234848   2.777   0.716  14.748  0.2983  0.6863  0.6609
 7796SOL     OW34849   3.834   4.142   5.456 -0.1741 -0.2162 -0.3308
 7796SOL    HW134850   3.770   4.123   5.525 -0.3813 -1.6766 -0.9393
 7796SOL    HW234851   3.788   4.146   5.373  0.6099  0.1042 -0.7515
 7797SOL     OW34852   3.923   2.913   2.357  0.7471 -0.2289 -0.4001
 7797SOL    HW134853   3.916   3.004   2.325 -1.0087 -0.1308  0.2553
 7797SOL    HW234854   3.879   2.919   2.441 -0.9280  1.4026 -1.3898
 7798SOL     OW34855   1.603   2.543   8.916 -0.0534 -0.3510  0.3971
 7798SOL    HW134856   1.686   2.565   8.958  0.0684  0.8544 -0.4846
 7798SOL    HW234857   1.537   2.596   8.960 -1.2743 -0.6926 -0.9895
 7799SOL     OW34858   2.137   3.893   8.130  0.3766 -0.6918  0.1876
 7799SOL    HW134859   2.075   3.935   8.189 -0.3649 -2.3996  0.6319
 7799SOL    HW234860   2.183   3.973   8.107 -1.6284  0.6159  0.7669
 7800SOL     OW34861   2.057   0.501   3.135 -0.4097 -0.2629  0.1660
 7800SOL    HW134862   2.138   0.553   3.130 -0.7107  0.0582 -1.2668
 7800SOL    HW234863   2.098   0.447   3.203  0.3950 -1.1650 -1.0532
 7801SOL     OW34864   3.389   1.707   8.796 -0.0555  0.0257  0.3822
 7801SOL    HW134865   3.463   1.713   8.735  0.2617  1.1803  0.8796
 7801SOL    HW234866   3.418   1.639   8.858  0.1675 -0.0903  0.1508
 7802SOL     OW34867   3.199   3.493   1.371  0.3045  0.5243 -0.3622
 7802SOL    HW134868   3.208   3.468   1.279  1.5996  1.1169 -0.4025
 7802SOL    HW234869   3.133   3.434   1.406 -1.2166  1.9891 -0.7818
 7803SOL     OW34870   1.824   0.317   2.571 -0.0939  0.5045 -0.1602
 7803SOL    HW134871   1.872   0.346   2.493  1.0800  1.7356  1.0315
 7803SOL    HW234872   1.764   0.248   2.543 -0.5020 -0.2398  2.5307
 7804SOL     OW34873   2.311   2.346   3.427 -0.2584  0.2398 -0.3646
 7804SOL    HW134874   2.394   2.323   3.386 -0.4242 -1.4892  0.3101
 7804SOL    HW234875   2.274   2.258   3.427  2.3085 -0.8105 -2.1373
 7805SOL     OW34876   4.651   2.674  10.550 -0.1559 -0.0118 -0.1268
 7805SOL    HW134877   4.583   2.640  10.609 -0.6341 -0.1766 -0.7802
 7805SOL    HW234878   4.635   2.768  10.536  0.1270  0.0765  0.1496
 7806SOL     OW34879   1.313   0.800  14.411  0.0285  0.3775  0.0891
 7806SOL    HW134880   1.310   0.798  14.507 -1.2990  1.3704  0.0806
 7806SOL    HW234881   1.324   0.894  14.394 -0.9757  0.3990 -0.4532
 7807SOL     OW34882   2.994   0.799   4.336  0.0771 -0.2110  0.0882
 7807SOL    HW134883   3.057   0.736   4.302  0.7642 -0.2828  1.5051
 7807SOL    HW234884   2.921   0.791   4.274  1.1439 -0.5103 -1.1371
 7808SOL     OW34885   2.299   0.553   6.143  0.7169  0.0682 -0.8989
 7808SOL    HW134886   2.262   0.638   6.116  1.6079  0.3307 -1.2982
 7808SOL    HW234887   2.235   0.492   6.106  0.8887 -1.8833  2.1146
 7809SOL     OW34888   2.206   0.247   6.057 -0.1528 -0.0839  0.1257
 7809SOL    HW134889   2.157   0.329   6.063  1.1793  0.7085  0.0926
 7809SOL    HW234890   2.143   0.185   6.019 -0.8164 -0.1689  1.3658
 7810SOL     OW34891   4.404   2.345   1.637 -0.3443 -0.0362 -0.1690
 7810SOL    HW134892   4.315   2.369   1.661 -0.2489  1.4312 -1.3194
 7810SOL    HW234893   4.459   2.389   1.702 -0.4185 -1.5166  0.9229
 7811SOL     OW34894   1.782   1.735   5.752  0.3320 -0.3723 -0.1664
 7811SOL    HW134895   1.746   1.802   5.810 -0.6199 -0.4397 -0.6713
 7811SOL    HW234896   1.789   1.785   5.671  0.6111  1.5296  1.0321
 7812SOL     OW34897   1.396   2.807   5.298 -0.3345 -0.3944 -0.3887
 7812SOL    HW134898   1.331   2.781   5.363  1.8130  2.2331  2.7881
 7812SOL    HW234899   1.478   2.819   5.345 -0.9061 -2.5344  1.1431
 7813SOL     OW34900   4.544   0.091   8.338 -0.7619  0.2882  0.1614
 7813SOL    HW134901   4.468   0.123   8.387  0.5067  3.6166 -0.0560
 7813SOL    HW234902   4.611   0.123   8.399  1.1395  1.0641 -2.3522
 7814SOL     OW34903   1.007   1.394  17.059 -0.5235 -0.1755 -0.0749
 7814SOL    HW134904   0.964   1.412  16.975 -0.8764 -0.9254 -0.0495
 7814SOL    HW234905   0.948   1.431  17.125  1.1742  2.3279  0.0648
 7815SOL     OW34906   3.787   1.148   0.754 -0.0327  0.1264 -0.2128
 7815SOL    HW134907   3.853   1.112   0.695 -0.3196  0.8829 -0.9966
 7815SOL    HW234908   3.830   1.226   0.789  0.1663 -0.3289  0.5484
 7816SOL     OW34909   0.620   4.064   2.728  0.9564  0.0056 -0.4754
 7816SOL    HW134910   0.548   4.093   2.672  1.4964  2.2574 -0.0181
 7816SOL    HW234911   0.589   3.984   2.771  1.3505  1.2139  2.0453
 7817SOL     OW34912   3.672   2.471  15.628  0.5483  0.2655 -0.4029
 7817SOL    HW134913   3.761   2.439  15.615 -0.2097 -2.2080  0.4199
 7817SOL    HW234914   3.682   2.566  15.632 -0.4182  0.4356 -1.9879
 7818SOL     OW34915   3.822   2.596   7.407 -0.1098 -0.2172 -0.2313
 7818SOL    HW134916   3.911   2.632   7.410 -0.2280 -0.0252  1.4238
 7818SOL    HW234917   3.810   2.601   7.313  1.0971 -1.3483 -0.4417
 7819SOL     OW34918   3.306   1.233   7.656 -0.0440 -0.0128 -0.0114
 7819SOL    HW134919   3.286   1.289   7.731 -0.2019 -0.9793  0.6683
 7819SOL    HW234920   3.347   1.301   7.602 -0.9180  1.9738  1.8248
 7820SOL     OW34921   0.207   2.809  15.477 -0.4073  0.3809  0.5198
 7820SOL    HW134922   0.177   2.790  15.566 -0.2611  0.1801  0.5270
 7820SOL    HW234923   0.171   2.896  15.463  0.4154  0.3050 -1.9935
 7821SOL     OW34924   1.879   0.998   6.739 -0.2100 -0.4709 -0.3145
 7821SOL    HW134925   1.886   0.956   6.825 -3.8717 -2.0429 -0.8009
 7821SOL    HW234926   1.784   0.999   6.735 -0.2552  0.2613  0.8887
 7822SOL     OW34927   4.620   2.725   6.886  0.6227 -0.8574 -0.1432
 7822SOL    HW134928   4.559   2.658   6.855  0.6380 -1.0024  0.1382
 7822SOL    HW234929   4.700   2.675   6.869  0.3449 -1.0625 -0.8199
 7823SOL     OW34930   1.181   2.295   2.000 -0.2148 -0.3236 -0.0881
 7823SOL    HW134931   1.170   2.316   1.907 -1.1549  0.5369  0.2239
 7823SOL    HW234932   1.211   2.204   1.997  2.4217  0.5502 -0.0330
 7824SOL     OW34933   1.121   1.254   7.697 -0.3304 -0.5188 -0.0951
 7824SOL    HW134934   1.195   1.245   7.757 -1.1295  0.2480  1.0170
 7824SOL    HW234935   1.158   1.233   7.611  0.4283  1.5432 -0.2806
 7825SOL     OW34936   3.322   4.548   2.925  0.5779  0.1739  0.5076
 7825SOL    HW134937   3.246   4.513   2.972  0.8638  1.0169  1.6019
 7825SOL    HW234938   3.358   4.466   2.892  0.8984  0.6565 -0.3218
 7826SOL     OW34939   3.338   1.931   4.357 -0.4691 -0.3105 -0.6525
 7826SOL    HW134940   3.359   1.932   4.263 -4.7818  0.8778 -1.6195
 7826SOL    HW234941   3.284   1.853   4.364 -0.1174 -0.6145 -1.3040
 7827SOL     OW34942   2.371   1.548   9.211  0.2143 -0.2990 -0.3003
 7827SOL    HW134943   2.315   1.472   9.198 -1.2948  1.0180 -1.5583
 7827SOL    HW234944   2.449   1.510   9.251  0.1138  1.8745  2.0217
 7828SOL     OW34945   1.385   1.403   5.684 -0.3469 -1.5461 -0.2806
 7828SOL    HW134946   1.480   1.405   5.692 -0.4500 -1.9762  1.0867
 7828SOL    HW234947   1.376   1.453   5.603  0.3699 -0.1653  0.4933
 7829SOL     OW34948   1.393   1.368   4.297 -0.3393 -0.1801 -0.2312
 7829SOL    HW134949   1.332   1.436   4.266 -2.2761 -0.7671  2.3213
 7829SOL    HW234950   1.396   1.394   4.389  0.6413  1.0830 -0.6188
 7830SOL     OW34951   0.063   2.026   3.802  0.4380  0.2268 -0.1772
 7830SOL    HW134952   0.074   2.120   3.819 -2.1415  0.6957 -1.1780
 7830SOL    HW234953   4.704   2.004   3.852 -2.0698  0.9800 -3.8177
 7831SOL     OW34954   2.928   1.298  11.107 -0.0684  0.1244  0.2035
 7831SOL    HW134955   2.948   1.337  11.193  0.6472 -0.2150  0.1895
 7831SOL    HW234956   3.016   1.286  11.072 -0.5606  0.0475 -0.9803
 7832SOL     OW34957   3.467   4.331   7.750 -0.3846  0.4448 -0.1968
 7832SOL    HW134958   3.379   4.302   7.774  0.2793 -1.5714 -0.1753
 7832SOL    HW234959   3.460   4.415   7.795 -1.3174  0.9303 -1.2337
 7833SOL     OW34960   4.632   1.867   9.983 -0.1997  0.0141  0.2796
 7833SOL    HW134961   4.585   1.862  10.067 -0.7880  0.5105 -0.0219
 7833SOL    HW234962   4.567   1.835   9.920 -0.5814 -0.5645  0.9646
 7834SOL     OW34963   2.163   3.048   7.042 -0.6932 -0.7155 -0.4059
 7834SOL    HW134964   2.093   2.996   7.002  0.3129 -1.9285 -0.5819
 7834SOL    HW234965   2.235   3.042   6.979 -0.3834  2.8485 -0.3873
 7835SOL     OW34966   0.227   1.823   3.883 -0.1217 -0.2464 -0.0983
 7835SOL    HW134967   0.172   1.895   3.851  0.6703 -0.3554 -1.6940
 7835SOL    HW234968   0.310   1.868   3.870 -1.0245  1.5254  0.2753
 7836SOL     OW34969   2.500   0.853   7.901 -0.0500  0.0527 -0.0403
 7836SOL    HW134970   2.564   0.856   7.973 -1.8055  1.8061  1.4352
 7836SOL    HW234971   2.423   0.827   7.951  0.2117  1.1503  0.9481
 7837SOL     OW34972   1.232   0.078   7.810  0.0808  0.1972  0.4148
 7837SOL    HW134973   1.181   0.011   7.855  0.7202  0.0164  0.8761
 7837SOL    HW234974   1.284   0.032   7.744 -2.0616 -0.3353 -0.8868
 7838SOL     OW34975   0.521   3.652   3.118  0.1993 -0.2394 -0.0433
 7838SOL    HW134976   0.554   3.607   3.196  1.6755 -0.8969 -1.0607
 7838SOL    HW234977   0.586   3.632   3.051  0.8901 -0.4248  0.6830
 7839SOL     OW34978   2.538   2.824   9.558  0.4756 -0.7575 -0.7076
 7839SOL    HW134979   2.528   2.729   9.549  3.1039 -1.0818 -0.4600
 7839SOL    HW234980   2.557   2.833   9.464 -0.9598  0.8981 -0.8352
 7840SOL     OW34981   1.020   0.406   1.532  0.1180 -0.0385 -0.3294
 7840SOL    HW134982   1.098   0.460   1.541 -0.1555  0.5828 -1.6501
 7840SOL    HW234983   1.047   0.321   1.567  1.7150  0.7322  0.3310
 7841SOL     OW34984   1.449   2.609   6.047 -0.6648 -0.0918 -0.2286
 7841SOL    HW134985   1.463   2.599   5.953 -0.5636  2.8656 -0.5347
 7841SOL    HW234986   1.536   2.585   6.079  0.2032  2.7692 -0.4349
 7842SOL     OW34987   0.104   2.319   5.330 -0.4370 -0.2402  0.1283
 7842SOL    HW134988   0.062   2.320   5.243  2.4127  0.0898 -1.2396
 7842SOL    HW234989   0.032   2.347   5.386 -1.0002 -1.2852 -0.0766
 7843SOL     OW34990   0.130   0.684  16.505 -0.1332  0.0943 -0.1154
 7843SOL    HW134991   0.120   0.611  16.444  1.0352  0.3007 -0.5525
 7843SOL    HW234992   0.212   0.717  16.468  0.4897 -0.6486  0.6130
 7844SOL     OW34993   0.156   1.191   2.034  0.2793  0.0354 -0.0718
 7844SOL    HW134994   0.218   1.259   2.060  0.9829 -0.9948  0.9030
 7844SOL    HW234995   0.218   1.134   1.989 -0.1578 -0.8786  0.5024
 7845SOL     OW34996   0.467   0.701   4.511  0.2720  0.5427 -0.9674
 7845SOL    HW134997   0.394   0.648   4.479 -1.1257  0.7420  1.8365
 7845SOL    HW234998   0.423   0.785   4.520  2.8777  1.7599  0.5255
 7846SOL     OW34999   3.181   1.012   0.303  0.0271  0.3558 -0.5097
 7846SOL    HW135000   3.108   1.033   0.360 -0.0187 -1.0131 -0.0682
 7846SOL    HW235001   3.253   0.996   0.365 -0.0469 -1.1647 -0.8364
 7847SOL     OW35002   1.661   3.174   4.996  0.1599 -0.4208  0.2644
 7847SOL    HW135003   1.655   3.160   5.090  1.2270  2.5194  0.7795
 7847SOL    HW235004   1.756   3.182   5.002  0.3115 -1.6381 -0.3713
 7848SOL     OW35005   3.156   1.517   3.564  0.2597  0.2637 -1.3620
 7848SOL    HW135006   3.090   1.454   3.593 -2.0674  2.3993 -2.0099
 7848SOL    HW235007   3.145   1.517   3.469  0.3009  1.3115 -1.3672
 7849SOL     OW35008   4.093   1.164   9.023 -0.2579  0.0174  0.0380
 7849SOL    HW135009   4.023   1.149   9.086 -2.2197 -0.9012 -2.3487
 7849SOL    HW235010   4.138   1.233   9.071  0.0818 -0.2016  0.0398
 7850SOL     OW35011   1.118   3.193   8.257  0.2022 -0.1199  0.6714
 7850SOL    HW135012   1.067   3.255   8.204 -0.4424  0.8699  2.4290
 7850SOL    HW235013   1.209   3.199   8.230  0.3927  0.7230  1.4924
 7851SOL     OW35014   2.993   1.375  11.368 -0.3331  0.3969  0.4102
 7851SOL    HW135015   2.926   1.356  11.434 -1.0752  0.0301 -0.4479
 7851SOL    HW235016   2.964   1.462  11.340  0.0875  1.2819  2.7555
 7852SOL     OW35017   1.791   1.210   2.217  0.1350  0.0032  0.5675
 7852SOL    HW135018   1.746   1.295   2.213  1.0153  0.3616 -1.3873
 7852SOL    HW235019   1.756   1.177   2.135  0.6526  0.9705 -0.0432
 7853SOL     OW35020   0.316   4.431   6.720  0.7334 -0.7349  0.7834
 7853SOL    HW135021   0.335   4.505   6.663 -1.4108 -0.9409 -0.2038
 7853SOL    HW235022   0.315   4.466   6.809  0.1677 -1.4519  1.0637
 7854SOL     OW35023   2.900   4.262  16.595 -0.5442  0.4176 -0.0043
 7854SOL    HW135024   2.886   4.306  16.679  0.9299 -1.4870  1.2637
 7854SOL    HW235025   2.935   4.337  16.548  0.4931  0.6724  1.1888
 7855SOL     OW35026   2.821   4.345   4.153 -0.0294 -0.2026  0.4314
 7855SOL    HW135027   2.846   4.302   4.235  0.9598 -0.4698 -0.0060
 7855SOL    HW235028   2.736   4.374   4.186  0.3444 -2.0098  3.0345
 7856SOL     OW35029   2.334   2.815   5.500 -0.0173 -0.3560 -0.7002
 7856SOL    HW135030   2.423   2.794   5.471 -0.1007 -1.4655 -0.1578
 7856SOL    HW235031   2.285   2.809   5.418 -0.2290 -1.9092 -0.4545
 7857SOL     OW35032   3.158   4.106   0.509  0.7693  0.0788  0.6660
 7857SOL    HW135033   3.111   4.178   0.466  1.8754  0.0707 -0.5755
 7857SOL    HW235034   3.174   4.146   0.594 -1.7897 -0.0274  1.1928
 7858SOL     OW35035   0.194   0.002   3.674 -0.2142 -0.1308 -0.5072
 7858SOL    HW135036   0.279   0.045   3.681 -0.9700  1.2578  0.0137
 7858SOL    HW235037   0.155   0.048   3.601 -2.2570 -0.3706  0.4163
 7859SOL     OW35038   0.962   4.598   0.966  0.2387  0.0316  0.3099
 7859SOL    HW135039   0.871   4.602   0.935 -0.5707 -1.7042  2.5183
 7859SOL    HW235040   0.967   4.687   1.000 -1.3401 -0.4978  1.9325
 7860SOL     OW35041   0.585   0.647   3.512 -0.1551  0.1616  0.3086
 7860SOL    HW135042   0.629   0.724   3.549  2.5328 -0.9877 -0.5327
 7860SOL    HW235043   0.549   0.603   3.589 -0.2537 -0.8901 -0.3366
 7861SOL     OW35044   3.587   2.320   5.138  0.1323 -0.0318  0.0565
 7861SOL    HW135045   3.647   2.300   5.066  0.0341 -1.2733  0.3172
 7861SOL    HW235046   3.648   2.344   5.208  0.8803 -0.9884 -0.2682
 7862SOL     OW35047   1.394   2.765   8.465  0.4230  0.2950 -0.3742
 7862SOL    HW135048   1.353   2.775   8.379 -0.8905  2.3030  0.5151
 7862SOL    HW235049   1.355   2.680   8.488 -2.1236  1.2013 -1.3511
 7863SOL     OW35050   1.307   3.481   8.532  0.2069  0.3621 -0.1442
 7863SOL    HW135051   1.338   3.390   8.528 -0.2612  0.2274 -0.6540
 7863SOL    HW235052   1.373   3.526   8.479  0.5491 -1.1687 -1.0133
 7864SOL     OW35053   4.367   1.394   7.004 -0.0583  0.2257 -0.2194
 7864SOL    HW135054   4.296   1.423   6.947 -0.2483 -0.4268 -0.3213
 7864SOL    HW235055   4.314   1.322   7.040 -1.6991  0.9317 -1.2276
 7865SOL     OW35056   3.576   3.650   2.808  0.6633  0.1737  0.3304
 7865SOL    HW135057   3.648   3.641   2.745  0.7541 -2.5234  0.8246
 7865SOL    HW235058   3.554   3.559   2.830 -0.7384  0.4510  0.0843
 7866SOL     OW35059   3.599   0.046   8.031 -0.1571 -0.1033  0.2207
 7866SOL    HW135060   3.631   4.677   8.039  2.2825  0.7727  0.1497
 7866SOL    HW235061   3.669   0.110   8.016  1.0168 -1.0907  1.4980
 7867SOL     OW35062   0.956   3.848   6.316  0.1077  0.5613 -0.3314
 7867SOL    HW135063   1.005   3.922   6.282  3.1144 -1.4984 -0.4193
 7867SOL    HW235064   0.966   3.778   6.252  2.5428 -0.4921  1.2261
 7868SOL     OW35065   1.335   1.241  15.341 -0.5781 -0.4109  0.2219
 7868SOL    HW135066   1.363   1.328  15.314 -3.1095  0.5677  0.7662
 7868SOL    HW235067   1.272   1.238  15.269  0.2821 -1.7580 -0.4737
 7869SOL     OW35068   1.132   4.063   4.953  0.4332  0.0726 -0.3434
 7869SOL    HW135069   1.114   4.100   5.039  1.4345 -0.3763  0.0547
 7869SOL    HW235070   1.052   4.025   4.917  0.5355 -0.8395  0.3892
 7870SOL     OW35071   1.583   4.332   6.798  0.3422 -0.1466 -0.4421
 7870SOL    HW135072   1.638   4.349   6.874  1.7796 -0.9614 -1.3095
 7870SOL    HW235073   1.627   4.392   6.738  0.0728  1.3437  0.8515
 7871SOL     OW35074   1.129   0.644   7.856 -0.0279  0.4006  0.4077
 7871SOL    HW135075   1.151   0.737   7.845  0.3088  0.4631  1.5886
 7871SOL    HW235076   1.064   0.658   7.925 -1.0993 -1.7304 -0.1805
 7872SOL     OW35077   4.033   2.764   2.118  0.0855  0.1739  0.1600
 7872SOL    HW135078   4.006   2.681   2.158  1.1554  0.9257  2.3746
 7872SOL    HW235079   4.011   2.831   2.183  0.1933 -3.2043  3.6527
 7873SOL     OW35080   1.852   0.361   1.489 -0.0101 -0.1476 -0.4092
 7873SOL    HW135081   1.877   0.279   1.446  0.6704 -0.3242  0.3307
 7873SOL    HW235082   1.823   0.320   1.570 -1.1096  1.0851 -0.1770
 7874SOL     OW35083   2.884   2.498   7.378 -0.0396  0.6726  0.6825
 7874SOL    HW135084   2.924   2.507   7.465 -1.3892 -0.6657  1.4513
 7874SOL    HW235085   2.895   2.403   7.367  0.4595  0.9781 -1.3817
 7875SOL     OW35086   2.795   0.404   9.207 -0.1319 -0.3056 -0.1354
 7875SOL    HW135087   2.812   0.361   9.291 -2.8485 -1.5256 -0.2342
 7875SOL    HW235088   2.731   0.344   9.169  1.6884 -3.2180  1.3603
 7876SOL     OW35089   2.914   2.976   8.944 -0.3777 -0.3048  0.5846
 7876SOL    HW135090   2.823   3.005   8.948  0.2013  1.6327 -0.2812
 7876SOL    HW235091   2.918   2.957   9.038 -0.8288  2.4291  1.1429
 7877SOL     OW35092   2.759   0.133   0.470  0.1322  0.1959  0.5942
 7877SOL    HW135093   2.668   0.156   0.453  0.4189  1.8659  1.3228
 7877SOL    HW235094   2.772   0.052   0.422  0.6764  0.8537 -0.3517
 7878SOL     OW35095   2.704   3.663  10.583 -0.4201 -0.0329  0.3546
 7878SOL    HW135096   2.631   3.693  10.529  2.1341  1.0985 -2.4567
 7878SOL    HW235097   2.683   3.573  10.610 -0.8652  1.2062  4.1361
 7879SOL     OW35098   2.927   2.126   3.972 -0.1584 -0.2027 -0.4325
 7879SOL    HW135099   2.975   2.167   3.900  1.2186  0.1728  0.6870
 7879SOL    HW235100   2.858   2.076   3.929 -1.1532  0.5631  0.2730
 7880SOL     OW35101   4.680   3.590  11.216  0.8646 -0.3679 -0.2505
 7880SOL    HW135102   4.677   3.499  11.246 -0.5114  0.2262  1.3605
 7880SOL    HW235103   0.052   3.582  11.188  0.6416  2.6174 -1.8092
 7881SOL     OW35104   0.959   2.076   4.338  0.5814  0.6154  0.3111
 7881SOL    HW135105   0.880   2.129   4.346 -1.5481 -2.3321 -0.7651
 7881SOL    HW235106   0.961   2.064   4.243 -0.3683  1.0337  0.2370
 7882SOL     OW35107   4.162   0.955   0.543 -0.5632 -0.5103 -0.2409
 7882SOL    HW135108   4.199   0.867   0.554 -0.0191 -0.4414 -1.4791
 7882SOL    HW235109   4.199   0.992   0.623 -0.3788 -1.5503  0.1650
 7883SOL     OW35110   1.837   0.985   3.082 -0.0051 -0.4012 -0.1596
 7883SOL    HW135111   1.922   0.972   3.124 -0.2323  1.0423  0.7719
 7883SOL    HW235112   1.832   1.081   3.074  1.4089 -0.4915 -2.0936
 7884SOL     OW35113   4.250   0.194   9.255  0.5210  0.2329  0.4491
 7884SOL    HW135114   4.157   0.207   9.272  0.8154  0.3489  1.9780
 7884SOL    HW235115   4.260   0.116   9.200 -1.0130  0.7122 -0.4919
 7885SOL     OW35116   4.070   1.488   6.520  0.6133  0.1858  0.0536
 7885SOL    HW135117   4.083   1.423   6.452 -0.2308  0.5346 -0.4348
 7885SOL    HW235118   4.058   1.436   6.600  2.6628  0.5774  0.6154
 7886SOL     OW35119   0.954   4.664   7.641  0.9070 -0.0855  0.2768
 7886SOL    HW135120   0.965   4.624   7.727 -0.5926  0.2476  0.6160
 7886SOL    HW235121   0.911   0.027   7.662 -0.9037 -0.8109 -0.6284
 7887SOL     OW35122   1.910   2.987   5.691 -0.0336  0.4781  0.0613
 7887SOL    HW135123   1.908   2.919   5.758  0.3335 -0.4010 -0.8218
 7887SOL    HW235124   2.002   3.010   5.705 -0.2223  0.8698  0.6844
 7888SOL     OW35125   4.569   0.949   8.394  0.2576 -0.1765  0.3057
 7888SOL    HW135126   4.610   0.863   8.390  0.4952  0.0190 -1.2579
 7888SOL    HW235127   4.505   0.937   8.324  1.3526  1.3922 -0.9839
 7889SOL     OW35128   3.074   1.385  15.283 -0.5371 -0.6414 -0.3815
 7889SOL    HW135129   3.009   1.407  15.349 -0.0863  0.7637 -0.4010
 7889SOL    HW235130   3.017   1.352  15.214  0.5032  0.9347 -2.0120
 7890SOL     OW35131   0.879   3.163   7.682  0.4243 -0.0306 -0.2662
 7890SOL    HW135132   0.798   3.116   7.704 -0.3275  1.9089  1.0624
 7890SOL    HW235133   0.912   3.199   7.764  0.4985  1.4019 -0.9320
 7891SOL     OW35134   1.911   1.467   0.683 -0.0792  0.2036  0.8780
 7891SOL    HW135135   1.851   1.524   0.636 -1.6460 -0.5684  1.9433
 7891SOL    HW235136   1.991   1.517   0.701 -0.6550  1.4104  0.0166
 7892SOL     OW35137   3.446   1.685  10.350 -0.4096  0.5717 -0.6268
 7892SOL    HW135138   3.484   1.597  10.347 -0.2627  0.6592 -1.3286
 7892SOL    HW235139   3.369   1.681  10.408 -0.8076  2.5720 -1.0237
 7893SOL     OW35140   2.433   1.461   4.565 -0.6332  0.4570  0.0033
 7893SOL    HW135141   2.412   1.553   4.584 -1.1526  0.5870 -1.1501
 7893SOL    HW235142   2.527   1.479   4.568 -0.8616  1.5862  0.5888
 7894SOL     OW35143   3.100   3.924   4.333 -0.3137  0.0957  0.6529
 7894SOL    HW135144   3.024   3.868   4.349 -0.7197 -0.2236 -2.3885
 7894SOL    HW235145   3.135   3.934   4.422  2.1244  1.7562 -0.4962
 7895SOL     OW35146   3.600   3.429   6.740  0.0400  0.2179 -0.1756
 7895SOL    HW135147   3.616   3.368   6.668  1.1121 -0.6643  0.8059
 7895SOL    HW235148   3.545   3.373   6.794 -0.2569  0.5334 -0.1555
 7896SOL     OW35149   0.613   3.958   2.425 -0.3611  0.4520  0.0365
 7896SOL    HW135150   0.699   3.952   2.466 -0.5103 -1.3619  0.1103
 7896SOL    HW235151   0.602   4.053   2.422 -1.0939  0.4144  1.4255
 7897SOL     OW35152   4.074   1.827  17.060  0.2417 -0.0127  0.0074
 7897SOL    HW135153   4.098   1.874  17.140 -1.6429 -2.2550  1.9024
 7897SOL    HW235154   4.112   1.740  17.071 -0.1432 -0.3843 -1.6139
 7898SOL     OW35155   1.759   2.032   4.743 -0.2675 -0.4825  0.7553
 7898SOL    HW135156   1.822   1.989   4.685 -0.5102  0.4126 -0.1544
 7898SOL    HW235157   1.769   2.123   4.717  0.1561 -0.7077  0.1150
 7899SOL     OW35158   0.300   3.714   3.977  0.2660 -0.0934 -0.2982
 7899SOL    HW135159   0.249   3.635   3.995  0.1648 -0.2832 -1.4411
 7899SOL    HW235160   0.245   3.780   4.019  1.3583  0.0993  0.8731
 7900SOL     OW35161   3.228   2.199   2.283  0.4079  0.4371  0.1763
 7900SOL    HW135162   3.289   2.141   2.238  1.2967 -0.2973  2.3207
 7900SOL    HW235163   3.269   2.283   2.263  2.3462  0.0330  2.5427
 7901SOL     OW35164   0.943   3.573  10.981 -0.3405  0.5687  0.0779
 7901SOL    HW135165   0.990   3.530  11.052  1.2661  1.3237 -0.5534
 7901SOL    HW235166   0.901   3.650  11.020  1.5650  0.5388  2.1701
 7902SOL     OW35167   3.693   2.272   3.659  0.1802 -0.2390  0.0002
 7902SOL    HW135168   3.645   2.320   3.727 -0.6949  0.8165 -1.3599
 7902SOL    HW235169   3.645   2.190   3.646  1.2426 -0.8465 -0.0930
 7903SOL     OW35170   2.378   3.342   6.920  0.6111 -0.2562 -0.6200
 7903SOL    HW135171   2.449   3.381   6.869  1.1602  0.8556  1.0046
 7903SOL    HW235172   2.408   3.252   6.929  1.1196 -0.1989 -1.6915
 7904SOL     OW35173   3.126   2.771  10.000  0.6574  0.0727  0.1109
 7904SOL    HW135174   3.204   2.768   9.945 -0.4130 -1.3076 -1.3265
 7904SOL    HW235175   3.129   2.678  10.023 -1.4580  0.1023  0.4861
 7905SOL     OW35176   3.118   4.374  12.047  0.6111  0.3398 -0.6393
 7905SOL    HW135177   3.127   4.431  12.124 -1.8707  2.7511 -2.1117
 7905SOL    HW235178   3.037   4.330  12.073  1.0432 -0.0703  0.0142
 7906SOL     OW35179   0.895   2.852  16.399  0.0279 -0.2850 -0.8424
 7906SOL    HW135180   0.952   2.851  16.476 -2.5860  3.8496  1.1172
 7906SOL    HW235181   0.912   2.760  16.379  2.7696  0.0857 -0.1112
 7907SOL     OW35182   2.692   4.531   2.791 -0.4313 -0.2909  0.0783
 7907SOL    HW135183   2.778   4.526   2.750  0.5464  0.8981  1.9328
 7907SOL    HW235184   2.717   4.511   2.882  0.1284 -0.7008 -0.1664
 7908SOL     OW35185   2.328   1.871  13.653 -0.9137 -0.1390  0.8114
 7908SOL    HW135186   2.321   1.958  13.693 -0.8060  0.3602 -0.2543
 7908SOL    HW235187   2.350   1.818  13.730 -0.9176 -0.5267  0.5433
 7909SOL     OW35188   0.801   4.234  12.203  0.5795 -0.6286  0.2601
 7909SOL    HW135189   0.852   4.153  12.197 -1.3212 -1.6690 -1.9346
 7909SOL    HW235190   0.802   4.251  12.297  1.0167 -2.1351  0.5254
 7910SOL     OW35191   1.975   4.572  17.171 -0.9796  0.0090 -0.0453
 7910SOL    HW135192   2.016   4.652  17.204 -0.3237 -0.1512 -0.4603
 7910SOL    HW235193   1.991   4.580  17.077  0.6634  1.0082  0.3143
 7911SOL     OW35194   0.703   3.567   6.341 -0.1306 -0.3494 -0.0392
 7911SOL    HW135195   0.728   3.581   6.433 -4.8543 -1.4356  1.4333
 7911SOL    HW235196   0.720   3.473   6.339  0.6268 -0.1741 -1.2819
 7912SOL     OW35197   0.730   1.306   7.306  0.4149  0.5059 -0.1661
 7912SOL    HW135198   0.642   1.271   7.319 -0.1457  1.6031 -1.0772
 7912SOL    HW235199   0.742   1.363   7.383  1.5089  1.6029 -1.1439
 7913SOL     OW35200   0.372   4.592  10.181 -0.3759  0.1030  0.0161
 7913SOL    HW135201   0.373   4.678  10.139  0.7391 -0.6973 -1.6079
 7913SOL    HW235202   0.435   4.596  10.253 -0.2865 -0.4249 -0.0333
 7914SOL     OW35203   3.404   2.006   8.614  0.7073  0.3329  0.1113
 7914SOL    HW135204   3.349   2.032   8.689 -0.0951 -0.1735 -0.2997
 7914SOL    HW235205   3.350   1.935   8.580 -0.9220  0.9239  1.4623
 7915SOL     OW35206   0.460   3.983   7.267 -0.0357  1.2842  0.0635
 7915SOL    HW135207   0.534   3.936   7.305 -0.1497  0.6558 -0.4764
 7915SOL    HW235208   0.402   3.915   7.303 -0.3244  1.4523 -0.0785
 7916SOL     OW35209   3.877   0.144   5.635  0.3194 -0.2840 -0.1763
 7916SOL    HW135210   3.792   0.188   5.630 -0.4258 -1.9543 -2.1126
 7916SOL    HW235211   3.878   0.108   5.546  0.0906  1.4765 -0.8917
 7917SOL     OW35212   4.656   0.576   4.755 -0.1588  0.2777  0.6786
 7917SOL    HW135213   4.626   0.503   4.701 -2.2365  1.3058  0.4429
 7917SOL    HW235214   4.696   0.624   4.682 -2.5196  0.5693 -0.4335
 7918SOL     OW35215   4.159   4.469  15.134  0.2801 -0.0313  0.0595
 7918SOL    HW135216   4.214   4.409  15.083  1.2634  1.0215 -0.1085
 7918SOL    HW235217   4.163   4.550  15.084  0.6197 -0.5286 -0.7048
 7919SOL     OW35218   3.823   1.627  15.439  0.1378  0.1145  0.0695
 7919SOL    HW135219   3.850   1.635  15.530 -0.8258  2.7688  0.1133
 7919SOL    HW235220   3.738   1.669  15.449  0.9541  1.3235  1.9256
 7920SOL     OW35221   3.666   1.265   3.810 -0.1471  0.1239  0.2068
 7920SOL    HW135222   3.710   1.212   3.876 -3.0229 -2.6984 -0.1607
 7920SOL    HW235223   3.676   1.220   3.726  0.3082  0.5345  0.0361
 7921SOL     OW35224   2.326   4.633   4.250 -0.6946  0.3077 -0.0636
 7921SOL    HW135225   2.367   4.678   4.324  0.2518  2.0303 -1.6344
 7921SOL    HW235226   2.235   4.612   4.273 -0.7399 -0.5908 -1.0245
 7922SOL     OW35227   1.451   2.276   4.609  0.4425  0.5331 -0.2304
 7922SOL    HW135228   1.456   2.296   4.702  0.2854  1.8924 -0.5140
 7922SOL    HW235229   1.543   2.251   4.594  1.2597  2.7968  1.0956
 7923SOL     OW35230   3.327   0.855   0.699  0.5410 -0.1085  0.2134
 7923SOL    HW135231   3.350   0.922   0.635 -0.8577  1.2263  1.1185
 7923SOL    HW235232   3.244   0.897   0.721  0.6581 -0.2801  0.9843
 7924SOL     OW35233   4.494   1.670   3.333  0.1969  0.3386 -0.3768
 7924SOL    HW135234   4.457   1.690   3.419  1.0401 -1.4654  0.3990
 7924SOL    HW235235   4.533   1.584   3.347 -2.0688 -1.1893 -3.3607
 7925SOL     OW35236   2.051   2.660  11.772 -0.0207  0.0273  0.3415
 7925SOL    HW135237   2.032   2.753  11.786 -2.1511 -0.5096  0.9954
 7925SOL    HW235238   1.968   2.621  11.747  0.1811  0.3486 -0.8188
 7926SOL     OW35239   4.162   3.210   4.384 -0.1380  0.3002 -0.2357
 7926SOL    HW135240   4.241   3.260   4.406 -0.8320  1.9542 -1.5255
 7926SOL    HW235241   4.178   3.199   4.290  1.7689 -1.3291  0.2797
 7927SOL     OW35242   2.010   2.271   9.231 -0.5193  0.0566  0.9461
 7927SOL    HW135243   1.982   2.199   9.287  1.4584 -0.4758  1.2324
 7927SOL    HW235244   1.934   2.328   9.239  1.1680  2.3821  0.5907
 7928SOL     OW35245   3.548   2.958   3.138  0.2155 -0.5503 -0.7083
 7928SOL    HW135246   3.458   2.927   3.145  0.1599 -0.2893 -0.2739
 7928SOL    HW235247   3.592   2.917   3.212 -3.1869  0.3161  1.7512
 7929SOL     OW35248   2.764   4.344   7.167 -0.3424 -0.6006 -0.0073
 7929SOL    HW135249   2.763   4.294   7.249  1.9639 -0.3847  0.1515
 7929SOL    HW235250   2.719   4.278   7.114 -2.2792  0.1453  0.7173
 7930SOL     OW35251   3.132   0.360  14.263 -0.0040  0.0368 -0.3524
 7930SOL    HW135252   3.207   0.325  14.214 -0.6286 -2.0218  0.1426
 7930SOL    HW235253   3.087   0.380  14.181 -1.9388 -2.3393  0.1069
 7931SOL     OW35254   1.087   0.193   8.371 -0.0176  0.1159 -0.1245
 7931SOL    HW135255   1.182   0.207   8.364  0.2439 -0.8295  1.5356
 7931SOL    HW235256   1.076   0.138   8.294  1.2256 -1.1984  0.6349
 7932SOL     OW35257   1.017   0.608   8.235  1.0551 -0.0850 -0.3267
 7932SOL    HW135258   1.071   0.543   8.189  2.3268 -1.9299  3.7873
 7932SOL    HW235259   1.021   0.578   8.325 -2.6794  0.3261 -0.0299
 7933SOL     OW35260   4.670   1.245   8.088  0.0286  0.1128  0.4305
 7933SOL    HW135261   4.601   1.274   8.029  0.4579  0.5026  0.1178
 7933SOL    HW235262   4.614   1.254   8.165  1.2822 -1.9577  1.5901
 7934SOL     OW35263   2.924   2.970   6.877  0.1831  0.5190 -0.5671
 7934SOL    HW135264   3.009   2.981   6.919  0.1035 -1.3456  0.0579
 7934SOL    HW235265   2.946   2.990   6.786 -1.3931  0.5233 -0.9397
 7935SOL     OW35266   1.344   3.767  14.409 -0.0365  0.1462 -0.3807
 7935SOL    HW135267   1.386   3.717  14.340  0.4677  3.0616 -2.1708
 7935SOL    HW235268   1.391   3.850  14.415 -0.3813  0.4058 -1.2374
 7936SOL     OW35269   1.243   0.210  12.880 -0.2288  0.6797 -0.4867
 7936SOL    HW135270   1.201   0.166  12.806  0.9500  0.2594 -0.9057
 7936SOL    HW235271   1.180   0.191  12.950  0.3380  2.8285  0.6180
 7937SOL     OW35272   0.499   1.464  12.167  0.3456 -0.0537 -0.6382
 7937SOL    HW135273   0.568   1.476  12.232  1.4901 -0.4515 -1.7679
 7937SOL    HW235274   0.430   1.428  12.222  0.3747 -1.3017 -1.4130
 7938SOL     OW35275   1.012   2.980  11.554  0.0141 -0.7352  0.4925
 7938SOL    HW135276   1.054   2.898  11.580  0.5824 -1.3074 -2.2603
 7938SOL    HW235277   0.934   2.979  11.610 -0.5997 -0.4234 -0.3660
 7939SOL     OW35278   0.706   3.871   2.165 -0.0723 -0.1658  0.4370
 7939SOL    HW135279   0.721   3.779   2.186 -0.9087 -0.3919  0.0521
 7939SOL    HW235280   0.687   3.903   2.253 -1.6930  3.2079 -1.1595
 7940SOL     OW35281   2.409   1.797  11.071  0.0622  0.1672  0.1869
 7940SOL    HW135282   2.442   1.707  11.062 -1.1943 -0.1281 -1.3452
 7940SOL    HW235283   2.491   1.845  11.065 -0.1725  0.9974  3.4198
 7941SOL     OW35284   2.350   1.889   0.416  0.1810  0.1046  0.5646
 7941SOL    HW135285   2.390   1.895   0.503 -0.2822 -2.4252  0.9400
 7941SOL    HW235286   2.370   1.973   0.375  0.1964 -0.0348  0.2861
 7942SOL     OW35287   2.990   0.918   8.299 -0.6706  0.5571 -0.0071
 7942SOL    HW135288   3.024   0.905   8.387 -2.9158 -0.6545  0.6666
 7942SOL    HW235289   2.902   0.881   8.304  0.1510 -1.0638  2.2592
 7943SOL     OW35290   3.143   1.911  17.617  0.6036  0.1279  0.2387
 7943SOL    HW135291   3.135   1.997  17.658 -0.0337 -0.0135  0.3988
 7943SOL    HW235292   3.065   1.870  17.654  0.2786  0.2433 -0.3213
 7944SOL     OW35293   0.253   0.160   8.717 -0.4076  0.3398  0.4983
 7944SOL    HW135294   0.247   0.254   8.732 -1.6788  0.0456  1.8200
 7944SOL    HW235295   0.327   0.147   8.775 -0.0972 -0.1894 -0.0072
 7945SOL     OW35296   3.437   2.512  12.995 -0.3550  0.4713  0.6880
 7945SOL    HW135297   3.367   2.569  13.026  0.2695 -0.5451  3.9169
 7945SOL    HW235298   3.425   2.438  13.055 -0.0005  0.3614  0.6265
 7946SOL     OW35299   3.977   3.913  14.422  0.3398 -0.0948  0.5653
 7946SOL    HW135300   3.991   3.991  14.476  0.8896 -0.3633  0.8059
 7946SOL    HW235301   3.921   3.858  14.476 -0.3996  0.8878  0.8011
 7947SOL     OW35302   0.101   0.714  12.021 -0.7197  0.2208 -0.0427
 7947SOL    HW135303   0.095   0.666  12.104 -0.0989  3.7450  2.0388
 7947SOL    HW235304   0.014   0.752  12.019 -0.2939  1.1374 -0.8018
 7948SOL     OW35305   3.415   2.634   8.499 -0.1625 -0.4974 -0.2944
 7948SOL    HW135306   3.336   2.663   8.453 -0.6749 -0.3985  0.6351
 7948SOL    HW235307   3.377   2.608   8.583  1.4474 -2.7071 -0.2472
 7949SOL     OW35308   3.436   1.716   5.523  0.0758  0.1642 -0.0186
 7949SOL    HW135309   3.467   1.761   5.601  0.6572 -1.7377  0.8477
 7949SOL    HW235310   3.409   1.798   5.482 -0.0753  0.2268  0.2123
 7950SOL     OW35311   1.601   3.991  15.500  0.1847  0.1130  0.2245
 7950SOL    HW135312   1.601   3.965  15.408 -0.7060 -1.5764  0.6869
 7950SOL    HW235313   1.522   4.045  15.494  0.5770  0.8582  1.8592
 7951SOL     OW35314   1.091   0.929  15.735 -0.4286  0.7693 -0.1349
 7951SOL    HW135315   1.005   0.956  15.766 -1.6984 -2.5847 -0.7560
 7951SOL    HW235316   1.098   0.978  15.653  0.5951 -0.9772 -1.0891
 7952SOL     OW35317   3.965   1.246   1.854  0.3927 -0.1286  0.2489
 7952SOL    HW135318   3.940   1.339   1.851  0.3860 -0.1348  0.1077
 7952SOL    HW235319   3.917   1.223   1.775 -0.4826 -0.4737  0.8872
 7953SOL     OW35320   0.236   2.687  14.328  0.0400 -0.2198 -0.0878
 7953SOL    HW135321   0.275   2.758  14.276  0.0346 -1.4816 -1.8437
 7953SOL    HW235322   0.183   2.641  14.262 -1.4338  1.5317 -0.1168
 7954SOL     OW35323   1.029   0.666   3.787 -0.0215 -0.0185 -0.3119
 7954SOL    HW135324   1.014   0.572   3.791 -0.8119  0.1782  1.0383
 7954SOL    HW235325   0.978   0.682   3.866  0.3634 -2.4080  0.3925
 7955SOL     OW35326   2.504   2.366   1.864  0.2283 -0.5021  0.4158
 7955SOL    HW135327   2.474   2.425   1.795  1.1481 -0.4386  0.0627
 7955SOL    HW235328   2.591   2.403   1.881 -0.7655  1.3767  1.3371
 7956SOL     OW35329   0.504   0.357   2.990 -0.3262 -0.2135  0.5339
 7956SOL    HW135330   0.488   0.375   2.898 -1.7806  0.8974  1.0030
 7956SOL    HW235331   0.537   0.268   2.984  4.4011  1.6690 -1.5468
 7957SOL     OW35332   2.087   2.265   8.584  0.4719  0.2732 -0.0762
 7957SOL    HW135333   2.120   2.257   8.673 -2.8019 -0.7766  1.0342
 7957SOL    HW235334   2.174   2.290   8.551  0.7508 -1.0576 -0.3423
 7958SOL     OW35335   0.467   1.689   5.193  0.3529  0.5624  0.1707
 7958SOL    HW135336   0.550   1.688   5.146  0.2850 -1.1300  0.0790
 7958SOL    HW235337   0.457   1.598   5.222  2.1726  0.2810 -0.0996
 7959SOL     OW35338   0.430   3.053   3.920 -0.1068 -0.4334  0.4269
 7959SOL    HW135339   0.492   2.981   3.933 -1.3862 -1.4739  0.7527
 7959SOL    HW235340   0.450   3.101   4.001 -1.8764  1.3939 -0.2193
 7960SOL     OW35341   1.157   3.567  10.816 -0.2808 -0.0586  0.4393
 7960SOL    HW135342   1.205   3.638  10.858  1.4721 -1.5309  0.9203
 7960SOL    HW235343   1.070   3.587  10.851 -0.1567  0.8384  0.2516
 7961SOL     OW35344   2.933   3.648  17.614 -0.2335 -0.1487  0.1371
 7961SOL    HW135345   2.928   3.616  17.524 -0.7715 -0.1468  0.1672
 7961SOL    HW235346   2.910   3.740  17.603  1.2010  0.6283  3.7741
 7962SOL     OW35347   3.741   2.621   2.771 -0.1342 -0.4179  0.5672
 7962SOL    HW135348   3.826   2.599   2.732  0.0317  1.0883  0.0697
 7962SOL    HW235349   3.736   2.564   2.848  0.1443  0.5891  1.3275
 7963SOL     OW35350   2.246   0.305  13.529  0.3478  0.2377 -0.2297
 7963SOL    HW135351   2.237   0.395  13.560  1.7384 -0.0475  0.9555
 7963SOL    HW235352   2.341   0.298  13.528  0.3037 -0.3204 -0.3577
 7964SOL     OW35353   2.956   1.331   9.711 -0.3246  0.6625  0.0950
 7964SOL    HW135354   2.867   1.350   9.739 -0.8092  0.2029 -1.1864
 7964SOL    HW235355   3.001   1.336   9.796  2.5788  1.8204 -1.4880
 7965SOL     OW35356   3.240   1.928   5.168  0.3152  0.2061 -0.1060
 7965SOL    HW135357   3.151   1.893   5.169  0.4810 -0.2134 -0.3405
 7965SOL    HW235358   3.289   1.863   5.118 -1.1204 -2.3946  1.8920
 7966SOL     OW35359   0.156   2.426   7.033 -0.6592 -0.1073  0.0791
 7966SOL    HW135360   0.070   2.386   7.022 -0.4809  0.2278 -2.3673
 7966SOL    HW235361   0.122   2.505   7.074  1.2295 -0.1793  1.8070
 7967SOL     OW35362   2.687   2.016   5.592 -0.2743  0.6010 -0.5640
 7967SOL    HW135363   2.708   1.936   5.544 -1.1080 -1.6999  2.9338
 7967SOL    HW235364   2.632   2.065   5.531  0.0790  1.4846 -0.1745
 7968SOL     OW35365   1.224   3.363   5.790  0.0629  0.3954  0.3117
 7968SOL    HW135366   1.319   3.348   5.790  0.0611  0.3160 -2.6116
 7968SOL    HW235367   1.197   3.366   5.698  2.1555  0.4833 -0.3038
 7969SOL     OW35368   1.092   0.730   5.702 -0.8457 -0.0752  0.0311
 7969SOL    HW135369   1.119   0.759   5.789 -1.4698  0.1300  0.1606
 7969SOL    HW235370   1.152   0.656   5.703  0.9834  1.3891 -0.9351
 7970SOL     OW35371   1.239   3.189   2.786 -0.2180 -0.1181  0.5241
 7970SOL    HW135372   1.285   3.160   2.707 -0.6885  0.3390  0.0766
 7970SOL    HW235373   1.303   3.155   2.849  0.2047 -0.1070  0.1029
 7971SOL     OW35374   3.501   3.759   4.736 -0.2920  0.1319  0.6633
 7971SOL    HW135375   3.589   3.722   4.726 -0.8554 -0.6303 -1.4652
 7971SOL    HW235376   3.466   3.749   4.825  0.5415 -1.0660  0.8536
 7972SOL     OW35377   3.708   0.034   9.796  0.0922 -0.2471  0.4505
 7972SOL    HW135378   3.647   0.091   9.748  2.5841  2.2288  0.2307
 7972SOL    HW235379   3.777   0.096   9.820  0.4140  0.1644 -1.5295
 7973SOL     OW35380   3.220   1.110   0.963  0.1948 -0.3709 -0.1055
 7973SOL    HW135381   3.202   1.116   1.057  0.3778  2.2203 -0.2472
 7973SOL    HW235382   3.314   1.126   0.951 -0.0630  0.0774 -1.4996
 7974SOL     OW35383   4.655   2.758   6.351 -0.2465 -0.3470 -0.6124
 7974SOL    HW135384   4.627   2.767   6.260  1.0673 -0.2424 -0.9952
 7974SOL    HW235385   4.580   2.711   6.387 -1.6265  2.4883  0.2211
 7975SOL     OW35386   3.132   2.575   6.515 -0.2326  0.1917 -0.6835
 7975SOL    HW135387   3.155   2.651   6.568  1.5966 -0.0335 -1.1705
 7975SOL    HW235388   3.221   2.544   6.496 -1.2760 -4.1324  1.3144
 7976SOL     OW35389   4.214   0.931   6.287  1.0504  0.6194  0.2271
 7976SOL    HW135390   4.247   0.996   6.349 -3.7574  2.2271  1.1207
 7976SOL    HW235391   4.287   0.871   6.274  1.7298  1.6237 -0.5796
 7977SOL     OW35392   1.275   1.131   5.974 -0.0655 -0.5057 -0.7664
 7977SOL    HW135393   1.265   1.136   5.879  0.2774  0.7592 -0.7345
 7977SOL    HW235394   1.321   1.048   5.979  1.6267  0.3409 -2.1059
 7978SOL     OW35395   3.017   1.453   7.620 -0.5034 -0.3791  0.1566
 7978SOL    HW135396   3.069   1.414   7.691 -0.1356  1.6717  1.0133
 7978SOL    HW235397   3.071   1.532   7.613 -1.2657  0.0894 -0.3100
 7979SOL     OW35398   2.991   4.689   4.486  0.0684 -0.1784  0.1006
 7979SOL    HW135399   2.923   0.017   4.532 -0.0314  1.2184 -1.4970
 7979SOL    HW235400   3.055   0.040   4.484 -0.3021  0.1961  1.4982
 7980SOL     OW35401   0.903   2.537   2.214 -0.3994 -0.5292 -0.1310
 7980SOL    HW135402   0.988   2.555   2.254 -0.2109  1.1682 -1.2763
 7980SOL    HW235403   0.919   2.465   2.154 -0.4009  0.8929 -1.8471
 7981SOL     OW35404   2.382   1.802  14.913 -0.4569 -0.1707 -0.3377
 7981SOL    HW135405   2.433   1.773  14.989  0.7806  2.7691 -0.0257
 7981SOL    HW235406   2.331   1.723  14.895  0.2595 -0.4831 -0.9840
 7982SOL     OW35407   1.946   1.311  17.251  0.4658  0.1074 -0.0518
 7982SOL    HW135408   1.919   1.400  17.275  0.1555  0.2765 -1.0185
 7982SOL    HW235409   1.911   1.250  17.316 -0.2423 -1.6218 -2.0533
 7983SOL     OW35410   4.719   0.085  17.066  0.4076  0.0249 -0.4196
 7983SOL    HW135411   0.080   0.116  17.026 -0.7681  3.5392 -0.0955
 7983SOL    HW235412   0.025   4.713  17.070 -1.0016 -0.3417  0.3951
 7984SOL     OW35413   0.993   1.881   2.309  0.5547 -0.3607 -0.0604
 7984SOL    HW135414   0.984   1.800   2.258  2.1519 -1.2156  1.0317
 7984SOL    HW235415   0.947   1.852   2.387  0.8085  0.9097  0.5697
 7985SOL     OW35416   3.516   2.316  14.816  0.1647 -0.1287 -0.2335
 7985SOL    HW135417   3.594   2.274  14.850  0.3908 -0.6161 -1.3691
 7985SOL    HW235418   3.467   2.243  14.778 -0.0155  0.2478 -0.7227
 7986SOL     OW35419   4.155   1.449   2.059 -0.3322 -0.0930  0.4676
 7986SOL    HW135420   4.062   1.455   2.036 -0.3149 -0.4419  0.3168
 7986SOL    HW235421   4.185   1.518   1.999 -4.4624  1.7319  0.4817
 7987SOL     OW35422   0.903   3.333   2.569 -0.4389  0.1274 -0.0381
 7987SOL    HW135423   0.945   3.371   2.645 -0.5892  0.7807 -0.2719
 7987SOL    HW235424   0.844   3.406   2.549  0.0527  0.7526  0.8066
 7988SOL     OW35425   3.741   1.735  17.168 -0.0509 -0.0939  0.9812
 7988SOL    HW135426   3.742   1.822  17.128  0.8747 -0.7277 -0.3791
 7988SOL    HW235427   3.766   1.755  17.258  0.5084 -0.7813  0.9770
 7989SOL     OW35428   0.735   3.060   3.355  0.0552 -1.0972  0.5238
 7989SOL    HW135429   0.831   3.062   3.353 -0.0015  0.3819 -0.6843
 7989SOL    HW235430   0.709   3.075   3.446  1.5171 -2.2620  1.1401
 7990SOL     OW35431   1.944   0.129   6.170 -0.1250 -0.2080  0.0149
 7990SOL    HW135432   1.953   0.171   6.255 -0.0104 -0.7311  0.2658
 7990SOL    HW235433   1.855   0.157   6.151  0.2655 -0.1858 -1.7614
 7991SOL     OW35434   2.418   0.575   9.166 -0.0578 -0.1216  0.2882
 7991SOL    HW135435   2.412   0.501   9.225  1.2957  0.5307  1.2398
 7991SOL    HW235436   2.506   0.549   9.138 -0.1876  1.2436 -1.4208
 7992SOL     OW35437   4.295   0.142  17.086 -0.3975  0.1756  0.0186
 7992SOL    HW135438   4.384   0.164  17.112 -0.5193  1.2637 -0.5156
 7992SOL    HW235439   4.287   0.056  17.129  0.8649 -0.2830 -0.6812
 7993SOL     OW35440   3.469   2.542   7.614 -0.5026  0.1619  0.4834
 7993SOL    HW135441   3.386   2.586   7.599 -0.6086 -0.1317  0.1958
 7993SOL    HW235442   3.475   2.520   7.707  0.8337  0.0880  0.3873
 7994SOL     OW35443   0.660   3.732  17.582 -0.0031 -0.1928  0.4332
 7994SOL    HW135444   0.676   3.663  17.518  2.3229  0.1172  0.6993
 7994SOL    HW235445   0.625   3.681  17.655 -1.4964 -0.8992 -0.7638
 7995SOL     OW35446   2.315   1.264   4.235 -0.3064 -0.4681  0.2661
 7995SOL    HW135447   2.301   1.342   4.288  2.6363 -0.8343  1.5585
 7995SOL    HW235448   2.247   1.269   4.167  0.0079  1.1574  0.0729
 7996SOL     OW35449   4.379   1.645   9.632  0.6910  0.4361 -0.3271
 7996SOL    HW135450   4.424   1.720   9.594 -0.0299  0.7207 -0.6167
 7996SOL    HW235451   4.441   1.579   9.599  1.0940 -0.7188  2.7382
 7997SOL     OW35452   4.531   1.168   9.523 -0.0449  0.3472 -0.7828
 7997SOL    HW135453   4.505   1.121   9.444 -2.0978 -0.6094  0.4879
 7997SOL    HW235454   4.619   1.130   9.527 -0.3324 -0.2574 -0.3138
 7998SOL     OW35455   0.936   3.251   4.232  0.1394  0.1622 -0.1666
 7998SOL    HW135456   0.881   3.179   4.201 -0.9532 -0.0989  2.3966
 7998SOL    HW235457   0.880   3.288   4.301  0.1982 -0.8786  0.4292
 7999SOL     OW35458   3.771   0.616   8.651  0.3550 -0.0763 -0.3505
 7999SOL    HW135459   3.760   0.631   8.557  3.0859  2.7409 -0.2247
 7999SOL    HW235460   3.710   0.679   8.689 -0.5465 -2.0819  1.5046
 8000SOL     OW35461   0.058   1.393  17.153  0.4218  0.4835  0.4378
 8000SOL    HW135462   0.048   1.329  17.223  0.3749 -0.5980 -0.5685
 8000SOL    HW235463   0.099   1.341  17.084 -0.2523  0.3376  0.1522
 8001SOL     OW35464   1.141   0.384   4.828  0.6341  0.0825  0.3873
 8001SOL    HW135465   1.082   0.442   4.876  1.1715  1.8653 -1.1010
 8001SOL    HW235466   1.172   0.326   4.897 -0.0839 -1.1543 -0.3278
 8002SOL     OW35467   3.651   1.475   8.249 -0.6679 -0.2089  0.0882
 8002SOL    HW135468   3.736   1.472   8.293  0.1289 -0.0868 -1.4405
 8002SOL    HW235469   3.607   1.547   8.294 -0.6225  0.0714 -0.3122
 8003SOL     OW35470   0.640   1.417   5.105 -0.7213 -0.0764 -0.3668
 8003SOL    HW135471   0.716   1.435   5.161 -1.0332 -2.0221  0.7117
 8003SOL    HW235472   0.666   1.468   5.029  0.5884  2.3647  1.7429
 8004SOL     OW35473   0.148   1.036   2.893 -0.2751 -0.0160 -0.1620
 8004SOL    HW135474   0.136   1.064   2.802 -0.8496 -1.7256 -0.6170
 8004SOL    HW235475   0.238   1.063   2.910 -0.9730  2.0236  0.2807
 8005SOL     OW35476   1.800   2.937   8.960 -0.7159  0.1640 -0.3488
 8005SOL    HW135477   1.716   2.966   8.927 -0.4722  1.6785  0.3974
 8005SOL    HW235478   1.849   3.017   8.975  0.9482 -0.6831 -1.2888
 8006SOL     OW35479   3.434   2.045   7.349 -0.4555 -0.6398  0.3654
 8006SOL    HW135480   3.477   2.049   7.434 -0.2749  0.0421  0.2418
 8006SOL    HW235481   3.423   2.139   7.333  2.4853 -0.7655 -2.3868
 8007SOL     OW35482   4.072   4.610   5.214 -0.0497 -0.0087 -0.2352
 8007SOL    HW135483   4.124   4.530   5.213 -1.6147 -0.9359 -4.9518
 8007SOL    HW235484   4.045   4.624   5.305  2.2925  1.5854  0.2088
 8008SOL     OW35485   0.448   0.792   1.924 -0.0770 -0.0501 -0.7933
 8008SOL    HW135486   0.426   0.743   2.003 -0.0748 -0.1066 -0.8274
 8008SOL    HW235487   0.515   0.738   1.882  0.9333  1.5305 -1.1738
 8009SOL     OW35488   1.949   0.345   6.329  0.4143  0.2011 -0.2461
 8009SOL    HW135489   1.988   0.396   6.258 -0.4841 -0.8816 -1.5152
 8009SOL    HW235490   1.898   0.409   6.379  1.0349  1.8448 -1.7327
 8010SOL     OW35491   3.265   3.102  16.542 -0.9828 -0.4138 -0.4297
 8010SOL    HW135492   3.210   3.036  16.586  0.5407 -2.1781 -1.1775
 8010SOL    HW235493   3.299   3.144  16.621 -1.9865 -1.0968  0.3663
 8011SOL     OW35494   2.056   4.209   5.134 -0.0291  0.5561 -0.2090
 8011SOL    HW135495   2.102   4.175   5.057  1.6706  2.4302 -0.0309
 8011SOL    HW235496   2.106   4.166   5.204 -2.4321  0.3213  1.3518
 8012SOL     OW35497   2.890   3.963   4.986  0.1973  0.6066  0.3891
 8012SOL    HW135498   2.955   4.003   4.927 -1.7339 -0.9310 -2.7614
 8012SOL    HW235499   2.869   4.039   5.041  1.9153 -0.5782  2.7113
 8013SOL     OW35500   3.272   1.988   7.973  0.0313 -0.3624 -0.1350
 8013SOL    HW135501   3.343   1.931   8.001 -0.3385 -1.0810 -0.6377
 8013SOL    HW235502   3.206   1.969   8.039 -0.7158 -0.6119 -0.9453
 8014SOL     OW35503   1.112   1.545   7.659  0.3560  0.2671 -0.4451
 8014SOL    HW135504   1.181   1.572   7.720  0.4403  2.5496 -1.5631
 8014SOL    HW235505   1.102   1.460   7.701  0.7951  0.8676  0.8948
 8015SOL     OW35506   2.865   0.401   8.317 -0.1641  0.4407 -0.1399
 8015SOL    HW135507   2.796   0.344   8.349 -0.1936  1.1099  1.0046
 8015SOL    HW235508   2.919   0.416   8.395  2.6509 -0.7790 -1.8366
 8016SOL     OW35509   0.484   4.338  17.271  0.0850 -0.0464 -0.5702
 8016SOL    HW135510   0.567   4.316  17.315 -1.2032  1.6685  2.7019
 8016SOL    HW235511   0.510   4.407  17.211 -0.3765 -0.5347 -1.3278
 8017SOL     OW35512   2.655   2.555   6.481  0.5558 -0.1462  0.8510
 8017SOL    HW135513   2.597   2.496   6.528 -2.9711  1.8490 -0.9543
 8017SOL    HW235514   2.737   2.508   6.466  1.0174  1.6079 -2.3727
 8018SOL     OW35515   2.020   2.895   6.875  0.0339  0.3500  0.1239
 8018SOL    HW135516   1.942   2.878   6.821  1.4965 -2.5241 -1.1135
 8018SOL    HW235517   2.074   2.943   6.812 -0.6068 -0.6963 -1.2137
 8019SOL     OW35518   2.313   1.801  16.761 -0.6864 -0.2551  0.0998
 8019SOL    HW135519   2.336   1.884  16.802 -1.8287 -1.0943  2.3995
 8019SOL    HW235520   2.385   1.747  16.794 -0.9268  0.5392  1.9160
 8020SOL     OW35521   1.279   1.827   5.769  0.3751  0.5461  0.6349
 8020SOL    HW135522   1.351   1.869   5.721  0.9337 -2.9050 -1.5393
 8020SOL    HW235523   1.332   1.786   5.838  1.0847 -0.7758 -0.7107
 8021SOL     OW35524   2.462   2.908   6.253 -0.3492  0.0811 -0.3918
 8021SOL    HW135525   2.392   2.945   6.306 -1.5624 -3.0871  0.2393
 8021SOL    HW235526   2.491   2.977   6.193  0.5824 -0.1033 -0.1587
 8022SOL     OW35527   2.253   1.140   7.117 -0.1363  0.2166  0.6322
 8022SOL    HW135528   2.311   1.117   7.189  1.3483  0.8602 -0.3524
 8022SOL    HW235529   2.222   1.229   7.136 -0.6137  0.1280  0.2660
 8023SOL     OW35530   0.654   3.012   8.981  0.1464 -0.1075  0.3244
 8023SOL    HW135531   0.558   3.013   8.981  0.1527  1.2136  0.7335
 8023SOL    HW235532   0.673   3.082   8.919  1.3809  1.3639  2.3431
 8024SOL     OW35533   1.995   3.465   4.510  0.2705 -0.7952  0.2580
 8024SOL    HW135534   2.081   3.488   4.474  0.4190 -2.7045 -0.5926
 8024SOL    HW235535   2.014   3.475   4.603  1.3353 -1.8089  0.1431
 8025SOL     OW35536   1.848   4.097  15.084  0.6792 -0.0605  0.0081
 8025SOL    HW135537   1.786   4.124  15.151 -0.2682 -0.9987 -0.4879
 8025SOL    HW235538   1.817   4.153  15.013 -0.5170 -1.2024 -0.3709
 8026SOL     OW35539   4.379   3.736   4.943  0.8114 -0.3542 -0.0660
 8026SOL    HW135540   4.446   3.719   5.009  2.7112  0.2088 -1.8526
 8026SOL    HW235541   4.393   3.828   4.918 -0.2597 -1.0142 -3.1221
 8027SOL     OW35542   1.741   3.056   4.251 -0.0403 -0.2783 -0.0698
 8027SOL    HW135543   1.753   3.136   4.303  1.9198 -0.7622  0.2203
 8027SOL    HW235544   1.789   3.071   4.169 -2.1426 -0.1631 -1.2584
 8028SOL     OW35545   0.174   3.380   2.825  0.1773  0.2374 -0.5096
 8028SOL    HW135546   0.250   3.373   2.883 -1.4036  0.2245  1.5589
 8028SOL    HW235547   0.200   3.351   2.738  1.5830 -1.0257  0.3284
 8029SOL     OW35548   4.618   3.867   6.138 -0.3495  0.1578  0.1459
 8029SOL    HW135549   4.706   3.858   6.177 -0.7144 -1.8402  0.5170
 8029SOL    HW235550   4.566   3.910   6.206 -0.7343  0.0647 -0.0909
 8030SOL     OW35551   1.890   1.689   8.676  0.5217 -0.3015  0.5706
 8030SOL    HW135552   1.900   1.756   8.744 -1.1580  0.3682  0.1679
 8030SOL    HW235553   1.852   1.616   8.725 -0.9998 -0.4252 -0.7954
 8031SOL     OW35554   4.646   0.280   2.693  0.6739 -0.0531  0.0618
 8031SOL    HW135555   4.694   0.356   2.724  1.4312  0.0570 -1.3462
 8031SOL    HW235556   4.712   0.213   2.711 -1.1272 -1.6127  0.8420
 8032SOL     OW35557   1.238   1.443   3.108 -1.1552  0.1077  0.4643
 8032SOL    HW135558   1.313   1.494   3.077 -0.7971 -0.6417  0.1063
 8032SOL    HW235559   1.235   1.469   3.200 -1.1217  3.2222 -0.3961
 8033SOL     OW35560   4.479   3.023   4.420  0.1650  0.2282  0.0792
 8033SOL    HW135561   4.514   3.048   4.505 -2.4368 -2.9943  2.0946
 8033SOL    HW235562   4.506   3.093   4.361  0.3971  0.1344  0.0731
 8034SOL     OW35563   3.241   1.623  15.940  0.3136 -0.0915  0.3410
 8034SOL    HW135564   3.268   1.535  15.911  0.2166  0.2107 -0.6605
 8034SOL    HW235565   3.240   1.662  15.853  0.9511 -1.2524 -0.1911
 8035SOL     OW35566   0.059   3.239   5.352 -0.2603 -0.2682  0.2614
 8035SOL    HW135567   0.116   3.308   5.386  0.3780  0.0615 -1.4971
 8035SOL    HW235568   4.708   3.288   5.310 -0.0630  0.9335  1.3411
 8036SOL     OW35569   1.793   2.280   6.338 -0.4172  0.0943  0.7830
 8036SOL    HW135570   1.721   2.307   6.396 -1.3360 -1.3196  0.3003
 8036SOL    HW235571   1.847   2.359   6.335  0.0582 -0.3297 -1.5064
 8037SOL     OW35572   1.729   2.919  15.123  0.9449 -0.1060 -0.4704
 8037SOL    HW135573   1.803   2.904  15.064  1.2300  1.1622 -0.4441
 8037SOL    HW235574   1.743   3.008  15.157 -0.9247 -0.5948  1.5964
 8038SOL     OW35575   2.936   1.940   1.138  0.0253 -0.4334 -0.0486
 8038SOL    HW135576   2.969   2.030   1.140 -1.3888  0.1170 -0.9882
 8038SOL    HW235577   2.844   1.949   1.112  0.1025  2.4013  0.6204
 8039SOL     OW35578   2.268   4.262  10.471 -0.0124 -0.0279 -0.6174
 8039SOL    HW135579   2.287   4.177  10.429 -3.5887 -1.3650  0.4472
 8039SOL    HW235580   2.175   4.241  10.482  0.2368  0.0917  1.6432
 8040SOL     OW35581   0.318   0.768  11.867  0.1129  0.6500  0.8353
 8040SOL    HW135582   0.331   0.863  11.871 -0.9236  0.8398 -0.1926
 8040SOL    HW235583   0.246   0.748  11.927 -0.3177 -1.6086 -0.4343
 8041SOL     OW35584   0.776   1.507   4.870 -0.1405 -0.5660  0.1829
 8041SOL    HW135585   0.848   1.554   4.828 -1.5333  0.6713 -0.8002
 8041SOL    HW235586   0.782   1.423   4.823 -2.2113 -0.1709 -0.8126
 8042SOL     OW35587   2.593   1.171   6.831 -0.1801  0.2451 -0.0016
 8042SOL    HW135588   2.592   1.091   6.777 -1.6022  0.7901 -0.7881
 8042SOL    HW235589   2.521   1.228   6.805 -1.7761 -0.9695  1.8535
 8043SOL     OW35590   3.605   0.818   8.714 -0.2683 -0.6653 -0.1554
 8043SOL    HW135591   3.510   0.821   8.711 -0.1920  1.4827 -0.4523
 8043SOL    HW235592   3.608   0.909   8.687 -0.2223 -1.2101 -2.0231
 8044SOL     OW35593   0.984   4.094   8.357  0.5443 -0.2557  0.4262
 8044SOL    HW135594   1.067   4.115   8.400  1.1546  1.3027 -1.5486
 8044SOL    HW235595   1.011   4.105   8.266  2.8694 -0.6842  1.0689
 8045SOL     OW35596   1.431   0.380   7.133 -0.0422 -0.3829  0.0782
 8045SOL    HW135597   1.487   0.430   7.193 -1.5258 -0.0589  1.1783
 8045SOL    HW235598   1.483   0.366   7.053 -0.1460  1.5628 -0.3335
 8046SOL     OW35599   2.325   0.681   8.360  0.0272  0.7142  0.2237
 8046SOL    HW135600   2.293   0.754   8.414 -3.6059 -0.7492  0.0461
 8046SOL    HW235601   2.270   0.604   8.375  0.9193 -0.2609 -1.5150
 8047SOL     OW35602   3.765   3.489  14.376 -0.3422  0.7200  0.1188
 8047SOL    HW135603   3.695   3.455  14.321  0.6245  0.0291 -0.6731
 8047SOL    HW235604   3.733   3.459  14.461 -0.5744  1.5854  0.3387
 8048SOL     OW35605   2.158   3.044  14.200 -0.4717 -0.3404  0.4551
 8048SOL    HW135606   2.247   3.026  14.168 -0.3351  0.5169  0.3453
 8048SOL    HW235607   2.148   3.136  14.175 -0.6659  0.0907  2.1289
 8049SOL     OW35608   3.659   3.438  16.318  0.2678 -0.2431 -0.1362
 8049SOL    HW135609   3.629   3.347  16.315 -0.8452  0.0520  1.6723
 8049SOL    HW235610   3.753   3.426  16.331 -0.0568 -0.3678  2.0953
 8050SOL     OW35611   2.304   2.391   6.205  0.3553 -1.0585  0.0469
 8050SOL    HW135612   2.272   2.480   6.189 -1.5084 -1.8444 -0.5880
 8050SOL    HW235613   2.238   2.337   6.161 -1.6909  1.5386 -0.1280
 8051SOL     OW35614   0.151   4.569   5.292 -0.2116 -0.1514  0.8245
 8051SOL    HW135615   0.150   4.622   5.372  0.5808 -1.8561  1.9451
 8051SOL    HW235616   0.161   4.644   5.233 -2.1765  0.2291  0.9615
 8052SOL     OW35617   1.918   3.126   2.314 -0.7042 -0.1081 -0.0424
 8052SOL    HW135618   1.950   3.114   2.225  0.1017 -0.6254  0.3161
 8052SOL    HW235619   1.978   3.087   2.378 -0.2245 -1.2888 -1.2246
 8053SOL     OW35620   3.378   3.695   8.263  0.4119  0.3100  0.4211
 8053SOL    HW135621   3.383   3.623   8.325  3.5752 -1.1894 -1.5814
 8053SOL    HW235622   3.297   3.741   8.286  0.7906  1.3136 -0.2372
 8054SOL     OW35623   3.521   3.612   6.516 -0.0819  0.2047 -0.1719
 8054SOL    HW135624   3.480   3.532   6.484  0.3914  0.2111 -0.7861
 8054SOL    HW235625   3.556   3.587   6.601  1.2381  2.0795 -0.1576
 8055SOL     OW35626   2.522   0.406   5.056  0.6450  0.1984  0.7623
 8055SOL    HW135627   2.488   0.365   4.976  0.9444 -0.6294  1.0600
 8055SOL    HW235628   2.446   0.436   5.105  0.7717  0.7824  0.6088
 8056SOL     OW35629   0.259   0.004   2.333 -0.2292 -0.3710  0.2940
 8056SOL    HW135630   0.256   0.063   2.258  0.9191  1.2227  1.4977
 8056SOL    HW235631   0.208   4.645   2.314 -1.0957  0.4904 -0.9712
 8057SOL     OW35632   2.157   0.990   1.662 -0.5411 -0.2233  0.2573
 8057SOL    HW135633   2.172   1.054   1.592  0.7772  0.5362  1.2391
 8057SOL    HW235634   2.092   1.034   1.717 -0.4263 -0.9600  0.9876
 8058SOL     OW35635   4.273   0.509   9.573 -0.0931 -0.0297  0.1163
 8058SOL    HW135636   4.300   0.417   9.579  0.1748  0.1038  0.8972
 8058SOL    HW235637   4.275   0.507   9.477 -1.1332 -2.9484  0.1299
 8059SOL     OW35638   0.499   3.814   9.828  0.4377 -0.4516  0.0666
 8059SOL    HW135639   0.526   3.723   9.815  0.1864 -0.5572  0.2674
 8059SOL    HW235640   0.516   3.816   9.922 -0.4673 -0.3368  0.2271
 8060SOL     OW35641   1.640   3.532   3.739 -0.1639 -0.6803  0.1927
 8060SOL    HW135642   1.673   3.603   3.795  0.0388 -0.6179 -0.0008
 8060SOL    HW235643   1.613   3.570   3.655  0.5197 -0.6554 -0.0227
 8061SOL     OW35644   0.057   1.317  14.832  0.0759 -0.1284 -0.1369
 8061SOL    HW135645   0.031   1.259  14.760  1.0601 -0.7419 -0.0027
 8061SOL    HW235646   0.153   1.321  14.827  0.1307 -1.2359 -0.0460
 8062SOL     OW35647   2.495   4.506   7.096  0.4454 -0.4031 -0.7442
 8062SOL    HW135648   2.450   4.423   7.111 -0.2293 -0.2618 -1.9754
 8062SOL    HW235649   2.560   4.493   7.165 -0.4126  2.0849  0.5267
 8063SOL     OW35650   3.089   1.473   9.542  0.7688 -0.0100 -0.4126
 8063SOL    HW135651   3.031   1.413   9.587  0.3516 -1.1798 -2.5017
 8063SOL    HW235652   3.138   1.507   9.617  1.2406 -1.5920 -0.0260
 8064SOL     OW35653   1.789   1.945   5.234 -0.0347 -0.2503  0.3294
 8064SOL    HW135654   1.782   1.919   5.142  0.1438 -0.3049  0.3300
 8064SOL    HW235655   1.877   1.912   5.254  0.5896  0.2148 -1.6496
 8065SOL     OW35656   2.701   1.533   4.534 -0.4430  0.1531  0.0019
 8065SOL    HW135657   2.763   1.460   4.526  0.8219  1.1696  0.4595
 8065SOL    HW235658   2.729   1.590   4.462  0.4568  1.8187  1.6550
 8066SOL     OW35659   3.107   0.375   1.920 -0.1155  0.0925 -0.9188
 8066SOL    HW135660   3.150   0.457   1.896 -3.0436  1.7890 -0.3522
 8066SOL    HW235661   3.185   0.331   1.955 -1.8621 -0.2288  2.5394
 8067SOL     OW35662   3.171   0.887   2.984  0.0389  0.1734 -0.1513
 8067SOL    HW135663   3.148   0.980   2.986 -2.8646 -0.5814  0.4628
 8067SOL    HW235664   3.264   0.881   3.009 -0.6880 -1.4164  2.1739
 8068SOL     OW35665   2.926   4.207  12.138 -0.0515  0.1935  0.2963
 8068SOL    HW135666   2.839   4.184  12.170 -0.3282 -2.1155 -2.0572
 8068SOL    HW235667   2.980   4.194  12.216  1.5176 -0.3106 -0.8523
 8069SOL     OW35668   2.913   1.307   1.000  0.0839  0.0444 -0.0163
 8069SOL    HW135669   2.836   1.321   1.056  0.4043  1.0576  0.1663
 8069SOL    HW235670   2.893   1.360   0.923  1.1580 -1.2827 -1.2326
 8070SOL     OW35671   2.459   4.599   7.719 -0.2211  0.1703 -0.3975
 8070SOL    HW135672   2.539   4.593   7.666  0.3247  1.0025  0.3355
 8070SOL    HW235673   2.397   4.599   7.646  0.6911 -2.0207 -1.1725
 8071SOL     OW35674   0.652   3.098   0.382 -0.3724  0.4853  0.1927
 8071SOL    HW135675   0.676   3.182   0.342  0.9718 -0.4789 -1.0167
 8071SOL    HW235676   0.734   3.062   0.415 -0.4174 -0.2359 -0.4894
 8072SOL     OW35677   0.502   2.565   7.369  0.6627  0.2690 -0.5972
 8072SOL    HW135678   0.528   2.475   7.354 -1.4594 -0.1589 -1.6473
 8072SOL    HW235679   0.535   2.600   7.286 -0.2643  0.6560 -0.8081
 8073SOL     OW35680   0.811   0.368   0.891 -0.6277  0.5624 -0.4965
 8073SOL    HW135681   0.777   0.359   0.802  0.1280 -0.2336 -0.7076
 8073SOL    HW235682   0.757   0.440   0.925 -1.2968 -1.2393  2.2607
 8074SOL     OW35683   0.920   2.484   7.022  0.7925  0.0549 -0.2168
 8074SOL    HW135684   0.932   2.389   7.026 -2.3004 -0.4143 -2.9188
 8074SOL    HW235685   0.907   2.491   7.117  1.9376  0.4082 -0.0852
 8075SOL     OW35686   2.384   2.438   9.750  0.3583 -0.0504  0.1465
 8075SOL    HW135687   2.476   2.444   9.776  0.1155 -0.9511  1.1996
 8075SOL    HW235688   2.338   2.479   9.823 -0.6285  1.8183 -1.5222
 8076SOL     OW35689   0.672   1.711  17.320 -0.7184 -0.3859 -0.0702
 8076SOL    HW135690   0.668   1.764  17.400 -1.5279  0.5046 -0.7028
 8076SOL    HW235691   0.604   1.645  17.337 -0.2528 -0.5773  1.0167
 8077SOL     OW35692   3.296   2.464   1.277  0.1360 -0.0567  0.6383
 8077SOL    HW135693   3.379   2.421   1.261  0.8116  1.6833 -0.5590
 8077SOL    HW235694   3.319   2.542   1.328  2.2450  0.1396 -0.6429
 8078SOL     OW35695   4.562   3.615   6.045 -0.1466 -0.3505  0.3645
 8078SOL    HW135696   4.561   3.566   6.127 -0.6284 -2.0488 -0.6576
 8078SOL    HW235697   4.562   3.704   6.080 -1.2176 -1.3466  2.8597
 8079SOL     OW35698   2.521   3.153  17.463 -0.1454 -0.5830  0.1093
 8079SOL    HW135699   2.456   3.199  17.516  1.9675  0.3465  1.8865
 8079SOL    HW235700   2.583   3.140  17.535  1.3882  0.2009 -1.1030
 8080SOL     OW35701   3.298   2.055   0.953 -0.1386  0.2086 -0.2566
 8080SOL    HW135702   3.219   2.097   0.918 -0.2656  0.8538  0.8158
 8080SOL    HW235703   3.313   2.000   0.876  0.5568 -1.7910  1.3230
 8081SOL     OW35704   2.864   2.512   5.566 -0.4361 -0.1107 -0.1886
 8081SOL    HW135705   2.931   2.491   5.631  0.4714  0.3977 -0.9523
 8081SOL    HW235706   2.781   2.522   5.612 -0.1361  1.6972 -0.0115
 8082SOL     OW35707   3.619   1.153  17.618  0.5695  0.0783 -0.5477
 8082SOL    HW135708   3.545   1.094  17.631  0.1103  0.3881 -1.7905
 8082SOL    HW235709   3.650   1.125  17.532  0.7504 -1.0386 -0.1082
 8083SOL     OW35710   2.497   3.838  16.806 -0.0400 -0.1382  0.1906
 8083SOL    HW135711   2.551   3.798  16.874  1.7184  1.8664 -0.0346
 8083SOL    HW235712   2.453   3.757  16.782  0.1573 -0.8926  2.4087
 8084SOL     OW35713   1.323   0.078   4.212 -0.5567  0.2035  0.3456
 8084SOL    HW135714   1.288   4.713   4.239 -0.6940  0.1617  0.0330
 8084SOL    HW235715   1.325   0.111   4.302 -0.2081 -2.7829  1.4267
 8085SOL     OW35716   4.470   4.619   5.250  0.5798  0.0782 -0.1118
 8085SOL    HW135717   4.506   4.532   5.268 -2.2400 -0.6357  2.1566
 8085SOL    HW235718   4.526   4.661   5.185  0.7830  2.6570  1.7222
 8086SOL     OW35719   0.560   2.791   3.875  0.6847 -0.3671  0.5689
 8086SOL    HW135720   0.638   2.825   3.831 -0.2232  2.4414  1.1055
 8086SOL    HW235721   0.549   2.711   3.824  1.7264  0.5933 -1.1484
 8087SOL     OW35722   2.827   4.505   6.842 -0.5515 -0.4994 -0.1129
 8087SOL    HW135723   2.802   4.572   6.905 -2.6342  0.0095 -1.4814
 8087SOL    HW235724   2.899   4.478   6.898 -2.6641 -0.5760  2.5438
 8088SOL     OW35725   1.127   1.390   7.956 -0.4817  0.2667 -0.1093
 8088SOL    HW135726   1.121   1.364   8.048 -2.1709 -1.7906 -0.7856
 8088SOL    HW235727   1.202   1.333   7.939  1.5219  1.8408  3.3229
 8089SOL     OW35728   3.622   3.237   6.231 -0.1157  0.3379  0.5766
 8089SOL    HW135729   3.594   3.292   6.158  1.0829 -1.0323 -0.9244
 8089SOL    HW235730   3.638   3.155   6.183 -0.1307  1.5642 -1.5394
 8090SOL     OW35731   1.477   2.726   3.894  0.0734 -0.3950  0.2509
 8090SOL    HW135732   1.526   2.805   3.917  1.1897 -0.4155 -2.0156
 8090SOL    HW235733   1.510   2.703   3.807  1.3082  1.1655  0.3066
 8091SOL     OW35734   4.461   0.901   9.204  0.5726 -0.1357  0.2207
 8091SOL    HW135735   4.421   0.984   9.228 -0.0227 -1.1639  2.8639
 8091SOL    HW235736   4.385   0.855   9.168  1.2238 -0.3449 -0.8726
 8092SOL     OW35737   0.792   1.028   2.017  0.0526 -0.2229 -0.2216
 8092SOL    HW135738   0.742   1.023   2.099 -0.7285  1.0333 -0.6251
 8092SOL    HW235739   0.856   0.961   2.042 -0.1067 -0.4465 -0.4258
 8093SOL     OW35740   1.090   4.129   4.133  0.5434  0.1005 -0.3964
 8093SOL    HW135741   1.063   4.197   4.071  1.7711  1.5730  0.6728
 8093SOL    HW235742   1.176   4.109   4.096  0.8399  3.1173 -1.3399
 8094SOL     OW35743   3.525   3.151   4.043  0.1779 -0.1196  0.3592
 8094SOL    HW135744   3.564   3.191   3.965 -1.2020 -0.2735 -0.4168
 8094SOL    HW235745   3.436   3.188   4.041  0.5278  0.7216  0.3151
 8095SOL     OW35746   1.003   0.655   6.121 -0.4999  0.0715 -0.2739
 8095SOL    HW135747   0.942   0.591   6.084 -1.2263  0.7543 -0.2735
 8095SOL    HW235748   1.063   0.605   6.176  2.1265  4.0344  0.5060
 8096SOL     OW35749   3.861   0.945   1.474 -0.3125 -0.0306 -0.4360
 8096SOL    HW135750   3.867   1.029   1.519  1.5039  1.0163 -2.7116
 8096SOL    HW235751   3.859   0.883   1.548  2.1327 -1.6068 -1.7113
 8097SOL     OW35752   0.406   2.865   8.202 -0.2864 -0.6063 -0.1793
 8097SOL    HW135753   0.379   2.842   8.291  2.2882 -2.4788  0.1133
 8097SOL    HW235754   0.423   2.955   8.229 -1.4842 -0.4615  0.0938
 8098SOL     OW35755   2.651   3.222   2.306  0.5304 -0.0866 -0.5649
 8098SOL    HW135756   2.665   3.132   2.336 -0.2161 -0.6884 -2.0127
 8098SOL    HW235757   2.702   3.214   2.225  0.2125 -2.5035 -0.5212
 8099SOL     OW35758   0.847   3.940   4.193 -0.2586 -0.2682  0.4025
 8099SOL    HW135759   0.870   3.865   4.138  0.2371 -0.1854  0.4941
 8099SOL    HW235760   0.915   4.005   4.174  0.7055 -1.1941  0.6624
 8100SOL     OW35761   2.048   4.639   6.570 -0.7537  0.0045 -0.0312
 8100SOL    HW135762   2.062   4.649   6.665  0.2598  1.0358 -0.2920
 8100SOL    HW235763   2.023   4.547   6.561 -0.3723  0.1622 -2.5233
 8101SOL     OW35764   0.124   4.562   4.402  0.3619  0.3271 -0.5738
 8101SOL    HW135765   0.074   4.617   4.462 -1.0311  0.2454 -1.6751
 8101SOL    HW235766   0.091   4.473   4.418 -0.0566 -0.0402 -3.4298
 8102SOL     OW35767   0.892   2.512   1.292  0.1736  0.1345 -0.0887
 8102SOL    HW135768   0.799   2.534   1.280  0.2695  1.2329  1.2481
 8102SOL    HW235769   0.902   2.426   1.251  0.7965 -0.4689  1.3496
 8103SOL     OW35770   2.266   2.817   6.610  0.1939 -0.4430  0.0980
 8103SOL    HW135771   2.268   2.831   6.515 -1.5101  0.2043  0.1495
 8103SOL    HW235772   2.231   2.903   6.634  0.8114 -0.2328  0.2441
 8104SOL     OW35773   3.959   1.146   2.109 -0.2667  0.1199 -0.4173
 8104SOL    HW135774   3.969   1.186   2.023  2.3296  0.9232  0.2703
 8104SOL    HW235775   4.019   1.193   2.167 -0.8702 -1.8038  1.7665
 8105SOL     OW35776   3.572   1.240   6.534 -0.1895 -0.3974 -0.3320
 8105SOL    HW135777   3.535   1.328   6.538 -0.9749 -0.7579  0.2697
 8105SOL    HW235778   3.494   1.185   6.533 -0.1589 -0.4511  1.0115
 8106SOL     OW35779   1.438   4.226   4.537  0.3642  0.2180 -0.5996
 8106SOL    HW135780   1.407   4.201   4.624 -1.0063  0.3047 -1.0650
 8106SOL    HW235781   1.441   4.320   4.556 -0.8446 -0.5331  3.2548
 8107SOL     OW35782   0.465   0.719   5.728 -0.6061 -0.2087  0.2118
 8107SOL    HW135783   0.415   0.689   5.803 -0.8265 -0.2318  0.0551
 8107SOL    HW235784   0.389   0.745   5.676 -0.7018 -0.1071  0.4002
 8108SOL     OW35785   1.368   3.241   8.432  0.4379 -0.4286  0.1789
 8108SOL    HW135786   1.289   3.199   8.466 -0.2741  0.6553 -0.1420
 8108SOL    HW235787   1.423   3.168   8.458  1.0175 -0.3671 -0.8841
 8109SOL     OW35788   3.280   2.734   7.792  0.0568  0.2854 -0.1438
 8109SOL    HW135789   3.239   2.731   7.706 -1.0818 -3.9097  0.5645
 8109SOL    HW235790   3.371   2.707   7.780 -0.6234 -1.9755 -0.1702
 8110SOL     OW35791   1.960   2.775  16.942 -0.3157  0.5919  0.0784
 8110SOL    HW135792   1.985   2.843  16.879 -1.1019  1.0765  0.2958
 8110SOL    HW235793   2.049   2.759  16.975 -1.2020  1.5225  2.9307
 8111SOL     OW35794   2.853   1.908   4.157 -0.2711 -0.6014 -0.5071
 8111SOL    HW135795   2.886   1.985   4.111  1.0889 -0.8009  0.1368
 8111SOL    HW235796   2.933   1.866   4.189  0.6446  0.6341 -1.1628
 8112SOL     OW35797   2.798   1.286   3.318  0.1691  0.5950 -0.3660
 8112SOL    HW135798   2.805   1.377   3.349 -0.5439  0.6088 -0.2392
 8112SOL    HW235799   2.770   1.311   3.230 -2.6705 -0.2039  0.3150
 8113SOL     OW35800   2.709   0.586   5.290 -0.0056 -0.3119  0.4741
 8113SOL    HW135801   2.756   0.660   5.328 -2.0396  0.9370  0.5563
 8113SOL    HW235802   2.639   0.648   5.270  1.6906  1.4202 -0.0011
 8114SOL     OW35803   2.731   2.123  15.418  0.2193  0.2827 -0.2153
 8114SOL    HW135804   2.680   2.203  15.409 -1.2003 -0.7926 -1.5713
 8114SOL    HW235805   2.770   2.113  15.331 -0.5886 -1.0438 -0.4179
 8115SOL     OW35806   2.357   0.254   3.792  0.1845  0.0423 -0.2179
 8115SOL    HW135807   2.284   0.223   3.739 -0.1632 -0.2737  0.4457
 8115SOL    HW235808   2.318   0.249   3.879 -2.1925  1.5480 -1.2091
 8116SOL     OW35809   2.891   0.896   3.892 -0.7128  0.0119 -0.2572
 8116SOL    HW135810   2.797   0.898   3.872 -0.9838  1.8124  1.1901
 8116SOL    HW235811   2.932   0.888   3.806  1.2822 -1.0123  0.7863
 8117SOL     OW35812   2.226   2.507  16.270 -0.1177  0.5666 -0.4227
 8117SOL    HW135813   2.204   2.417  16.295 -1.3558  0.9405 -0.1432
 8117SOL    HW235814   2.238   2.559  16.349  0.2380 -1.0669  0.5903
 8118SOL     OW35815   1.640   2.693   5.189 -0.0030  0.9036  0.1370
 8118SOL    HW135816   1.561   2.748   5.194  0.5097  1.6702 -0.2547
 8118SOL    HW235817   1.621   2.622   5.251  2.2254  0.9629  0.8869
 8119SOL     OW35818   0.695   0.022   4.024 -0.2605 -0.4605 -0.4939
 8119SOL    HW135819   0.784   0.054   4.008 -0.2483  0.2924  1.0485
 8119SOL    HW235820   0.673   4.700   3.941 -1.3320 -2.0092  0.5840
 8120SOL     OW35821   4.070   4.114  11.222  0.3555 -0.0984  0.1479
 8120SOL    HW135822   4.108   4.186  11.170 -0.9930 -0.8686 -1.8886
 8120SOL    HW235823   4.133   4.097  11.292 -1.5194  0.1514  1.8909
 8121SOL     OW35824   2.900   0.793  11.232 -0.2739 -0.0564  0.0475
 8121SOL    HW135825   2.988   0.829  11.227 -0.3589 -0.0120 -1.1932
 8121SOL    HW235826   2.855   0.870  11.197 -3.3221 -1.6213  0.4386
 8122SOL     OW35827   0.740   1.271   5.582 -0.2009 -0.6920  0.9996
 8122SOL    HW135828   0.831   1.249   5.600  0.0570  1.1110  1.9144
 8122SOL    HW235829   0.744   1.367   5.581  0.2648 -0.7057  1.5653
 8123SOL     OW35830   0.103   1.657   4.064 -0.3438 -0.4768 -0.2398
 8123SOL    HW135831   0.020   1.635   4.023 -1.6578 -0.0306  2.1332
 8123SOL    HW235832   0.139   1.712   3.995  1.3619 -1.0293  0.2133
 8124SOL     OW35833   2.951   2.209   7.866  0.7386 -0.2071 -0.3884
 8124SOL    HW135834   2.938   2.129   7.815  1.3662  0.0033 -0.8776
 8124SOL    HW235835   2.875   2.260   7.841 -0.0380 -1.5991 -0.8723
 8125SOL     OW35836   3.814   2.648   3.261  0.0794  0.1391 -0.1982
 8125SOL    HW135837   3.820   2.613   3.350  0.2942  3.7785  1.1961
 8125SOL    HW235838   3.801   2.742   3.267 -0.7041 -0.1137  2.2004
 8126SOL     OW35839   2.354   1.508  12.035 -0.0860  0.1095  0.5921
 8126SOL    HW135840   2.292   1.456  12.085  0.6314  0.2257  1.5811
 8126SOL    HW235841   2.440   1.472  12.056  0.7859  1.0717 -1.2365
 8127SOL     OW35842   2.731   4.522  14.882  0.7492  0.6189  0.2446
 8127SOL    HW135843   2.668   4.456  14.855  0.7221  0.0826  1.5902
 8127SOL    HW235844   2.699   4.554  14.967 -0.9800  0.9970 -0.5480
 8128SOL     OW35845   0.145   2.898   4.707  0.2190  0.3248 -0.3094
 8128SOL    HW135846   0.172   2.806   4.714 -1.8286 -0.4299 -2.2353
 8128SOL    HW235847   0.064   2.901   4.757 -0.1121  2.0226 -0.9339
 8129SOL     OW35848   0.838   4.703  11.272  0.2766 -0.0931  0.2088
 8129SOL    HW135849   0.896   0.055  11.293  0.2144 -0.2428  0.8902
 8129SOL    HW235850   0.777   0.036  11.221 -0.0578 -0.1011  0.5985
 8130SOL     OW35851   0.220   0.592  17.125 -0.5265 -0.0978  0.3820
 8130SOL    HW135852   0.278   0.636  17.188  1.7619 -2.2272 -0.2388
 8130SOL    HW235853   0.257   0.617  17.040  0.8849 -0.2911  0.9461
 8131SOL     OW35854   1.135   4.109   8.790 -0.3932  0.0835  0.3411
 8131SOL    HW135855   1.192   4.097   8.714  1.3173 -1.4825  1.8726
 8131SOL    HW235856   1.050   4.122   8.748  0.9064  0.6406 -2.0966
 8132SOL     OW35857   3.294   2.681   8.066  0.0244  0.3314 -0.0823
 8132SOL    HW135858   3.203   2.695   8.095  0.3857  0.3464  1.0647
 8132SOL    HW235859   3.294   2.708   7.974  0.2323 -2.1952 -0.8076
 8133SOL     OW35860   1.925   4.283   7.380  0.2811 -0.4289 -0.0725
 8133SOL    HW135861   1.929   4.358   7.321 -0.5614 -1.1697 -1.0578
 8133SOL    HW235862   1.914   4.333   7.461 -0.4456 -2.3024  0.9808
 8134SOL     OW35863   3.371   3.468  12.653 -0.3148 -0.2394  0.3861
 8134SOL    HW135864   3.377   3.382  12.612  1.3316 -0.5952  1.3822
 8134SOL    HW235865   3.302   3.443  12.715  0.8686 -0.3867  1.6407
 8135SOL     OW35866   3.723   3.498   8.210  0.3340 -0.6164  0.4020
 8135SOL    HW135867   3.708   3.438   8.137 -1.4751 -0.3915  0.5880
 8135SOL    HW235868   3.721   3.433   8.281 -0.9177 -1.6946 -0.5983
 8136SOL     OW35869   2.042   0.397   8.581  0.6344  0.9214 -0.1808
 8136SOL    HW135870   2.002   0.480   8.605  1.4415  0.6720  2.0362
 8136SOL    HW235871   2.091   0.431   8.506  0.3853 -1.4659 -1.4249
 8137SOL     OW35872   4.468   3.981  13.570 -0.0186 -0.1534 -0.1847
 8137SOL    HW135873   4.440   4.059  13.618  2.6116 -0.3682  1.6812
 8137SOL    HW235874   4.495   4.034  13.495  0.1509  0.4113  0.2784
 8138SOL     OW35875   0.816   1.015  15.779  0.2094 -0.4873  0.4098
 8138SOL    HW135876   0.805   1.104  15.811  1.7450  0.0832 -0.6243
 8138SOL    HW235877   0.746   1.007  15.714  0.1301 -0.8291  0.5361
 8139SOL     OW35878   1.107   2.814   9.813 -0.1175  0.5842 -0.5134
 8139SOL    HW135879   1.141   2.735   9.855 -1.2939  0.1159 -0.4556
 8139SOL    HW235880   1.045   2.772   9.755 -0.2531 -0.0644  0.0967
 8140SOL     OW35881   2.337   4.296   6.495  0.1476  0.1282 -0.5858
 8140SOL    HW135882   2.328   4.255   6.581  0.2617 -0.3100 -0.7831
 8140SOL    HW235883   2.417   4.344   6.517 -0.8822  1.0322  1.1757
 8141SOL     OW35884   3.041   4.148   2.480  0.6071 -0.5321  0.1746
 8141SOL    HW135885   3.010   4.164   2.390  4.0461 -1.2113 -1.1370
 8141SOL    HW235886   3.134   4.140   2.461  0.6987 -0.9991  0.8458
 8142SOL     OW35887   4.359   4.396   8.274 -0.3828 -0.5028  0.3828
 8142SOL    HW135888   4.455   4.387   8.269 -0.4113 -1.9485  2.5290
 8142SOL    HW235889   4.337   4.369   8.184  0.5103  1.8315 -0.5291
 8143SOL     OW35890   2.338   3.962   0.178 -0.0516 -0.2505 -0.9855
 8143SOL    HW135891   2.278   4.035   0.196  0.0007 -0.1934 -1.0445
 8143SOL    HW235892   2.281   3.889   0.156 -1.0651  0.4274 -0.6395
 8144SOL     OW35893   2.376   2.713   2.739 -0.3227 -0.4298 -0.2677
 8144SOL    HW135894   2.439   2.781   2.719  0.4997 -0.6371  1.5489
 8144SOL    HW235895   2.354   2.677   2.653 -2.2429  0.2835 -0.0636
 8145SOL     OW35896   0.450   0.110   0.709 -0.3043  0.5599 -0.2543
 8145SOL    HW135897   0.453   0.178   0.641  3.3984  1.7343  1.0673
 8145SOL    HW235898   0.416   0.044   0.649 -2.4600  1.1888  0.2688
 8146SOL     OW35899   1.791   3.577   7.740 -0.1715 -0.3320  0.0800
 8146SOL    HW135900   1.817   3.665   7.714 -1.1926 -0.5596 -1.6897
 8146SOL    HW235901   1.801   3.572   7.835 -0.4034  1.6748  0.1987
 8147SOL     OW35902   3.288   2.069  16.707  0.0485  1.1777  0.2185
 8147SOL    HW135903   3.343   2.107  16.639  0.7434  1.4561  0.9362
 8147SOL    HW235904   3.350   2.074  16.780  0.6205 -2.1208  0.0048
 8148SOL     OW35905   1.182   4.572   4.252 -0.2174 -0.1332 -0.0835
 8148SOL    HW135906   1.205   4.522   4.331  0.1721 -1.3049 -0.9343
 8148SOL    HW235907   1.087   4.577   4.248 -0.0648  0.9109 -2.3629
 8149SOL     OW35908   0.060   4.482  16.168 -0.3778  0.1582  0.0139
 8149SOL    HW135909   0.120   4.531  16.224 -0.6295 -0.5687  0.9216
 8149SOL    HW235910   0.015   4.443  16.243  4.4203 -5.1777  0.2196
 8150SOL     OW35911   1.602   1.446   6.846 -0.8153 -0.0086 -0.2749
 8150SOL    HW135912   1.666   1.379   6.868 -0.0288  1.2369  1.2595
 8150SOL    HW235913   1.565   1.423   6.761 -3.4051  0.7779  0.6114
 8151SOL     OW35914   2.391   2.644   2.176  0.7302  0.2369 -0.0613
 8151SOL    HW135915   2.324   2.610   2.117  1.2262  1.0011 -1.0635
 8151SOL    HW235916   2.409   2.562   2.223  0.7499  0.2987  0.0391
 8152SOL     OW35917   0.217   3.486  11.157  0.1194  0.2468 -0.5236
 8152SOL    HW135918   0.185   3.427  11.089 -0.8886  2.4058 -1.9032
 8152SOL    HW235919   0.246   3.430  11.230 -0.9700  0.8058  0.3332
 8153SOL     OW35920   2.139   1.421   3.773 -0.1660 -0.0558 -0.0685
 8153SOL    HW135921   2.190   1.480   3.717  3.1594 -1.8542  1.0845
 8153SOL    HW235922   2.085   1.373   3.710  0.9991 -0.2467 -0.9433
 8154SOL     OW35923   1.221   1.857   3.769  0.0199  0.1241 -0.0753
 8154SOL    HW135924   1.258   1.928   3.716  0.1243 -0.8756 -1.3451
 8154SOL    HW235925   1.126   1.868   3.759 -0.2734 -0.8781  1.5499
 8155SOL     OW35926   0.439   4.309   3.291 -0.0518 -0.0784 -0.2225
 8155SOL    HW135927   0.417   4.394   3.328  0.0113  0.6090 -1.7948
 8155SOL    HW235928   0.354   4.289   3.251  1.0682 -3.8786 -0.7629
 8156SOL     OW35929   1.909   2.406   3.524 -0.1470 -0.3631 -0.1098
 8156SOL    HW135930   1.909   2.446   3.437  1.6162 -2.5086 -1.0648
 8156SOL    HW235931   1.993   2.439   3.555 -0.0933 -1.6569  1.1131
 8157SOL     OW35932   4.383   3.299   5.834  0.2789  0.3301  0.1973
 8157SOL    HW135933   4.444   3.291   5.907  1.2219 -0.0009 -0.6319
 8157SOL    HW235934   4.299   3.278   5.875  0.2676  1.8538  0.9427
 8158SOL     OW35935   0.519   3.084  13.603  0.1943 -0.1787 -0.2137
 8158SOL    HW135936   0.473   3.138  13.668  1.5178  0.8806 -0.1563
 8158SOL    HW235937   0.607   3.092  13.640  0.6492  0.2959 -1.4051
 8159SOL     OW35938   2.105   2.370   6.666  0.3297  0.3012 -0.2857
 8159SOL    HW135939   2.180   2.329   6.623  0.0591 -0.5711  0.0680
 8159SOL    HW235940   2.144   2.449   6.704  0.7129  0.8554 -1.8439
 8160SOL     OW35941   3.591   0.342   7.608 -0.1768  0.2696 -0.7513
 8160SOL    HW135942   3.661   0.316   7.548  0.4184 -0.4471  0.2475
 8160SOL    HW235943   3.544   0.259   7.614 -1.5629  1.1877  0.9422
 8161SOL     OW35944   1.487   1.749  12.958 -0.1694 -0.2191 -0.6275
 8161SOL    HW135945   1.399   1.714  12.947 -0.4598 -0.0983  1.3682
 8161SOL    HW235946   1.479   1.841  12.934  0.6163  0.4380  1.6470
 8162SOL     OW35947   4.202   1.631  13.402 -0.2578 -0.1474 -0.3273
 8162SOL    HW135948   4.239   1.719  13.391 -0.2472 -0.2752 -1.2542
 8162SOL    HW235949   4.140   1.651  13.473  2.0579  0.7910  1.4498
 8163SOL     OW35950   2.046   0.591   3.792 -0.0656 -0.3124 -0.0796
 8163SOL    HW135951   1.986   0.586   3.718 -0.8725 -2.0680  0.7080
 8163SOL    HW235952   2.077   0.501   3.787 -0.2850 -0.5001  2.1202
 8164SOL     OW35953   1.481   2.056   4.817  0.3133 -0.1235  0.6468
 8164SOL    HW135954   1.518   2.144   4.817 -1.0518  0.4442 -0.1024
 8164SOL    HW235955   1.555   2.004   4.785  0.6401  0.6766  0.0977
 8165SOL     OW35956   0.096   4.315   6.872  0.1551  0.3156 -0.2059
 8165SOL    HW135957   0.082   4.260   6.795 -0.7425  1.2900 -0.7379
 8165SOL    HW235958   0.149   4.251   6.920 -0.2031 -1.0408 -1.6413
 8166SOL     OW35959   3.645   1.680   2.820  0.4840 -0.2998  0.4291
 8166SOL    HW135960   3.590   1.725   2.884 -0.1004 -1.4994  0.7744
 8166SOL    HW235961   3.574   1.633   2.776  0.3382  0.5250 -0.2194
 8167SOL     OW35962   1.019   4.679   6.704  0.1591  0.5178 -0.3473
 8167SOL    HW135963   1.049   4.718   6.785  2.0122 -1.4531 -0.0788
 8167SOL    HW235964   1.038   0.026   6.639  3.3802  0.5944  0.7045
 8168SOL     OW35965   3.268   2.533  10.609  0.5053 -0.1683  0.2181
 8168SOL    HW135966   3.302   2.520  10.520 -0.0735  2.6290 -0.4007
 8168SOL    HW235967   3.183   2.490  10.604 -1.2817  3.4630 -0.2010
 8169SOL     OW35968   4.238   1.174   7.184 -0.6780  0.5046 -0.0567
 8169SOL    HW135969   4.195   1.091   7.165 -3.0483  1.4052  1.3709
 8169SOL    HW235970   4.312   1.132   7.229  0.0588  2.1664  0.3013
 8170SOL     OW35971   1.709   0.425   8.567  0.2408  0.1086  0.2162
 8170SOL    HW135972   1.733   0.332   8.567 -1.8370 -0.4189  1.8977
 8170SOL    HW235973   1.791   0.462   8.534  0.0465  0.9338  0.6524
 8171SOL     OW35974   2.889   4.190   8.346  0.1773  0.3855 -0.1884
 8171SOL    HW135975   2.861   4.195   8.437  0.4944  0.4812 -0.0960
 8171SOL    HW235976   2.810   4.155   8.304  0.7416  0.6219 -1.4462
 8172SOL     OW35977   0.943   2.792  11.156  0.4648  0.4731 -0.0057
 8172SOL    HW135978   0.894   2.744  11.089  2.6919  0.3836 -1.5814
 8172SOL    HW235979   1.016   2.729  11.161 -0.6855 -0.7619  1.0721
 8173SOL     OW35980   2.694   2.772   6.337  0.3102  0.1593  0.1389
 8173SOL    HW135981   2.614   2.813   6.303  0.3594  0.1628  0.0241
 8173SOL    HW235982   2.666   2.687   6.370  0.1859  0.3283  0.4620
 8174SOL     OW35983   0.103   1.093   6.291  0.1492 -0.1738  0.5327
 8174SOL    HW135984   0.058   1.159   6.344 -2.6502 -1.8220  0.2412
 8174SOL    HW235985   0.178   1.141   6.256 -1.2455  1.2706 -0.4738
 8175SOL     OW35986   3.858   0.651   5.615  0.4223 -0.0377  0.0889
 8175SOL    HW135987   3.806   0.655   5.535 -0.8790 -1.6018  0.8430
 8175SOL    HW235988   3.804   0.608   5.682  1.5846  0.2763  1.2185
 8176SOL     OW35989   2.964   4.621  15.091 -0.2339  0.2108  0.6866
 8176SOL    HW135990   2.991   4.697  15.142  0.2906  0.4130  0.1036
 8176SOL    HW235991   2.991   4.664  15.011 -0.5876  1.3802  1.1961
 8177SOL     OW35992   0.804   1.075   7.129 -0.0656  0.1863  0.1574
 8177SOL    HW135993   0.774   1.015   7.196 -1.3129  1.1975  0.4987
 8177SOL    HW235994   0.795   1.162   7.168 -1.7650  0.8561 -1.7058
 8178SOL     OW35995   3.793   1.211   0.371 -0.0302 -0.3904  0.2764
 8178SOL    HW135996   3.868   1.206   0.430  1.2166  0.9331 -1.1851
 8178SOL    HW235997   3.817   1.179   0.284 -1.0328  1.5831 -0.7261
 8179SOL     OW35998   1.391   0.406   5.485 -0.6649  0.1527 -0.2906
 8179SOL    HW135999   1.299   0.405   5.515 -1.2531 -0.4907 -2.1494
 8179SOL    HW236000   1.379   0.424   5.392  2.0588 -2.0623 -1.0434
 8180SOL     OW36001   0.005   0.587   5.795 -0.3320  0.2108 -0.1202
 8180SOL    HW136002   0.039   0.586   5.706 -0.4433  1.2220 -0.1790
 8180SOL    HW236003   4.707   0.495   5.812  0.4454  0.4265  1.8662
 8181SOL     OW36004   0.510   4.545   2.899  0.3003 -0.1508 -0.1120
 8181SOL    HW136005   0.565   4.509   2.969 -0.6461 -0.3345  0.5416
 8181SOL    HW236006   0.435   4.572   2.953  1.1194  0.2932  0.8186
 8182SOL     OW36007   3.832   0.407   1.442  0.7455  0.1780  0.0226
 8182SOL    HW136008   3.780   0.444   1.513 -2.1858  0.1886 -2.1804
 8182SOL    HW236009   3.804   0.455   1.365  2.2593 -0.3731 -0.8886
 8183SOL     OW36010   3.136   1.300  10.652 -0.1652  0.8308 -0.0531
 8183SOL    HW136011   3.058   1.352  10.672 -0.6125 -0.0505  0.5464
 8183SOL    HW236012   3.093   1.233  10.598 -0.3546  1.3859 -0.5885
 8184SOL     OW36013   0.289   2.990   0.726 -0.1829  0.1386 -0.0538
 8184SOL    HW136014   0.371   3.019   0.686 -0.0363 -0.3150 -0.0816
 8184SOL    HW236015   0.310   2.969   0.817  0.5866  0.0664 -0.2498
 8185SOL     OW36016   3.288   1.425   7.165 -0.3133 -0.1287  0.2146
 8185SOL    HW136017   3.250   1.491   7.224  1.2662  1.3052 -0.3486
 8185SOL    HW236018   3.331   1.483   7.102  1.0162 -0.5145  0.7633
 8186SOL     OW36019   3.153   3.836   6.842  0.2453 -0.3058  0.6650
 8186SOL    HW136020   3.099   3.758   6.846  0.8781 -0.8678 -1.4795
 8186SOL    HW236021   3.189   3.819   6.754 -0.6990 -1.7473  0.5580
 8187SOL     OW36022   3.659   1.385   1.999 -0.4175 -0.6980 -0.5483
 8187SOL    HW136023   3.681   1.297   1.968 -2.8183 -1.7685  0.7808
 8187SOL    HW236024   3.636   1.369   2.091  0.6957 -2.6667 -0.6154
 8188SOL     OW36025   2.870   0.940   6.726 -0.1239 -0.2916 -0.0335
 8188SOL    HW136026   2.776   0.940   6.706  0.2679  1.9160 -1.8198
 8188SOL    HW236027   2.868   0.957   6.821 -2.1421  1.2739 -0.3549
 8189SOL     OW36028   0.306   3.086   5.470 -0.0385  0.1263 -0.1778
 8189SOL    HW136029   0.260   3.130   5.541 -1.4022 -2.3633  0.4699
 8189SOL    HW236030   0.234   3.026   5.453 -0.6553  1.7354 -3.2255
 8190SOL     OW36031   4.709   4.567   5.952 -0.4187 -0.0022 -0.0753
 8190SOL    HW136032   4.672   4.592   6.036 -0.1736 -0.4183  0.1581
 8190SOL    HW236033   0.049   4.640   5.935 -2.2265  1.2638 -1.0161
 8191SOL     OW36034   0.155   2.350   2.010 -0.5050  0.0033 -0.6311
 8191SOL    HW136035   0.241   2.391   2.021 -1.0779  0.9780  0.2077
 8191SOL    HW236036   0.140   2.392   1.926  0.5231 -2.3638 -2.0157
 8192SOL     OW36037   0.319   2.961   2.875  0.1105  0.4438  0.0927
 8192SOL    HW136038   0.269   2.978   2.795 -0.6427 -1.6961  0.1053
 8192SOL    HW236039   0.317   3.042   2.926  0.0953 -0.0880  0.9344
 8193SOL     OW36040   1.577   1.623   8.524 -0.0587  0.3081  0.2530
 8193SOL    HW136041   1.616   1.657   8.605 -3.0439  1.4631  1.2298
 8193SOL    HW236042   1.633   1.546   8.513 -0.0658 -0.0202  2.3963
 8194SOL     OW36043   1.633   0.501   1.725 -0.3306  0.1237  0.1821
 8194SOL    HW136044   1.573   0.446   1.774 -2.8064  2.5420 -0.0975
 8194SOL    HW236045   1.717   0.484   1.767  0.0429 -0.7122 -0.9068
 8195SOL     OW36046   0.549   4.136   5.349  0.0694 -0.4552  0.5344
 8195SOL    HW136047   0.561   4.216   5.399  0.0623  0.7871 -1.4525
 8195SOL    HW236048   0.522   4.090   5.429 -0.9926  1.3644  1.2056
 8196SOL     OW36049   4.674   0.277  15.394  0.4385  0.2436 -0.0633
 8196SOL    HW136050   4.669   0.202  15.335 -2.2524  0.6438 -0.3796
 8196SOL    HW236051   4.602   0.330  15.357  1.6686  1.2679 -0.9894
 8197SOL     OW36052   2.669   0.878   6.336  0.3043  1.0525  0.1279
 8197SOL    HW136053   2.701   0.788   6.325 -3.3909 -0.2113 -0.1703
 8197SOL    HW236054   2.711   0.925   6.264 -0.0086  0.0097 -0.7412
 8198SOL     OW36055   0.425   2.609   1.403 -0.7837  0.1923  0.1908
 8198SOL    HW136056   0.416   2.552   1.479 -2.7487 -0.1410 -0.2796
 8198SOL    HW236057   0.332   2.621   1.386 -1.0187 -1.8686 -0.0295
 8199SOL     OW36058   4.550   2.014  11.492  0.2845  0.1959 -0.3903
 8199SOL    HW136059   4.571   1.990  11.402 -0.5720  0.5532 -0.6854
 8199SOL    HW236060   4.596   2.097  11.505  1.2452 -0.8191  2.7847
 8200SOL     OW36061   2.216   2.186   4.841  0.2314  0.1581 -0.4839
 8200SOL    HW136062   2.209   2.134   4.921  1.4510  1.2708  0.3436
 8200SOL    HW236063   2.286   2.131   4.805  1.0209  1.0052 -0.2241
 8201SOL     OW36064   0.968   2.861   1.163  0.2966  0.6011  0.4432
 8201SOL    HW136065   0.978   2.797   1.093  0.6486  1.1392 -0.0032
 8201SOL    HW236066   1.057   2.896   1.167  0.1299  1.3500 -2.4541
 8202SOL     OW36067   0.200   2.320   6.118 -0.1645 -0.6689 -0.3605
 8202SOL    HW136068   0.179   2.227   6.130 -0.8904 -0.4431  0.1252
 8202SOL    HW236069   0.265   2.334   6.187 -2.3558  1.0468  1.3355
 8203SOL     OW36070   0.262   1.602   3.705 -0.2544 -0.3285 -0.0142
 8203SOL    HW136071   0.345   1.598   3.752  0.5826  1.7838 -1.3112
 8203SOL    HW236072   0.222   1.681   3.742  1.2499  0.4211 -0.0133
 8204SOL     OW36073   0.979   2.257   3.560 -0.3942 -0.6387  0.4928
 8204SOL    HW136074   0.962   2.216   3.475  0.5089 -1.1776  0.5680
 8204SOL    HW236075   1.042   2.326   3.536 -1.6038  0.6003  0.9266
 8205SOL     OW36076   4.498   0.464   8.031  0.1640  0.3084 -0.1753
 8205SOL    HW136077   4.502   0.528   7.960 -2.9587  1.4959  0.7225
 8205SOL    HW236078   4.505   0.376   7.992 -0.6448  1.7011 -3.4875
 8206SOL     OW36079   3.770   4.089   4.474 -0.1100  0.7936 -0.4316
 8206SOL    HW136080   3.759   4.143   4.553 -0.8908  1.0472 -0.7208
 8206SOL    HW236081   3.816   4.012   4.507 -1.5985  0.3175  0.5159
 8207SOL     OW36082   3.832   1.560  13.353 -0.3416 -0.1233 -0.6451
 8207SOL    HW136083   3.890   1.484  13.347  1.3291  0.9533  1.7185
 8207SOL    HW236084   3.881   1.624  13.404 -1.0294 -0.1074  0.0071
 8208SOL     OW36085   0.202   1.919  10.720  0.4227  0.6436  0.0066
 8208SOL    HW136086   0.230   1.962  10.800  0.5506  0.2278  0.1853
 8208SOL    HW236087   0.113   1.890  10.736  0.0455  0.8151 -1.7364
 8209SOL     OW36088   1.302   3.957   6.721  0.2021  0.5138  0.0416
 8209SOL    HW136089   1.243   4.021   6.761 -1.2990 -0.6631 -0.2623
 8209SOL    HW236090   1.376   3.985   6.774 -0.1620 -3.4411  2.6614
 8210SOL     OW36091   3.865   1.061  13.852  0.0980 -0.1233 -0.2574
 8210SOL    HW136092   3.932   1.012  13.804 -0.2659  0.1419 -1.0382
 8210SOL    HW236093   3.796   1.046  13.788  1.0786  0.4788 -1.4674
 8211SOL     OW36094   1.043   4.014   7.698 -0.0022 -0.0887  0.3030
 8211SOL    HW136095   1.073   4.100   7.669  0.0611 -0.2712 -0.1757
 8211SOL    HW236096   0.957   4.009   7.656  0.7588  0.4288 -1.3183
 8212SOL     OW36097   3.648   4.183  14.519 -0.0128  0.1637  0.2417
 8212SOL    HW136098   3.739   4.184  14.489 -0.2827 -0.9043 -0.6287
 8212SOL    HW236099   3.608   4.203  14.434  0.8624  0.1531 -0.1683
 8213SOL     OW36100   0.816   1.362  10.199 -0.2651  0.1794 -0.0726
 8213SOL    HW136101   0.798   1.297  10.267  1.7144  0.6296  0.8585
 8213SOL    HW236102   0.740   1.353  10.142 -0.2705  0.5165 -0.1193
 8214SOL     OW36103   1.647   2.756   8.063 -0.1522  0.0462 -0.2187
 8214SOL    HW136104   1.674   2.765   8.155  0.5681 -0.0196 -0.4259
 8214SOL    HW236105   1.575   2.819   8.056  0.2896  0.6066  0.3373
 8215SOL     OW36106   1.027   2.144  13.414 -0.3577  0.2700 -0.4732
 8215SOL    HW136107   0.940   2.168  13.382 -0.8448 -2.7663 -1.4636
 8215SOL    HW236108   1.074   2.159  13.331  2.1245 -0.4641  0.7858
 8216SOL     OW36109   1.889   2.127   8.449  0.4402 -0.2012  0.1202
 8216SOL    HW136110   1.958   2.141   8.514  1.5169  0.7573 -1.2070
 8216SOL    HW236111   1.814   2.134   8.508  1.5249  0.1407  1.4480
 8217SOL     OW36112   2.842   2.360   3.679 -0.0851 -0.1890 -0.5687
 8217SOL    HW136113   2.775   2.292   3.665  0.4209 -0.8165  0.0677
 8217SOL    HW236114   2.827   2.418   3.605  2.1142  1.1911  0.0594
 8218SOL     OW36115   4.618   3.681  16.743 -0.0785  0.3598 -0.6755
 8218SOL    HW136116   4.602   3.638  16.827 -0.4258  2.3546  0.2955
 8218SOL    HW236117   4.579   3.624  16.676 -3.1093  0.7969  0.7377
 8219SOL     OW36118   1.976   1.908   6.825 -0.6183 -0.2592 -0.7648
 8219SOL    HW136119   1.978   1.986   6.881  0.3023 -0.1223 -0.9830
 8219SOL    HW236120   1.891   1.913   6.781 -0.9871 -2.0923 -0.2520
 8220SOL     OW36121   4.273   1.993   7.973 -0.7500  0.5180  0.3642
 8220SOL    HW136122   4.299   1.906   7.942 -1.8868 -0.0510  0.9912
 8220SOL    HW236123   4.279   1.992   8.069  1.5277  2.6262  0.2444
 8221SOL     OW36124   2.599   1.206  11.644  0.3288  0.1944  0.2597
 8221SOL    HW136125   2.562   1.118  11.632 -1.9077  0.9449  1.7264
 8221SOL    HW236126   2.524   1.252  11.681 -0.4400 -1.8060  1.1989
 8222SOL     OW36127   1.095   3.837   8.935 -0.3418  0.5708  0.6389
 8222SOL    HW136128   1.089   3.743   8.922  3.2704  0.3756  0.3221
 8222SOL    HW236129   1.122   3.872   8.850  1.3203 -2.9209 -0.2628
 8223SOL     OW36130   3.948   1.364  13.074 -0.2336  0.6940 -0.5350
 8223SOL    HW136131   4.008   1.430  13.110  0.5341  0.0258 -0.5868
 8223SOL    HW236132   4.010   1.321  13.015  1.6801  2.5069  0.1437
 8224SOL     OW36133   1.046   1.849   5.904  0.0955 -0.4437  0.0180
 8224SOL    HW136134   1.133   1.841   5.866  0.7749 -0.9705  1.6593
 8224SOL    HW236135   1.066   1.900   5.983  0.5306  2.3428 -1.9095
 8225SOL     OW36136   0.871   0.296  12.927 -0.0368  0.1610 -0.2055
 8225SOL    HW136137   0.901   0.338  12.846  0.2177 -2.5882 -1.5357
 8225SOL    HW236138   0.851   0.213  12.884 -0.4802 -0.6889  1.6304
 8226SOL     OW36139   1.860   1.794  10.296  0.5118  0.2307  0.0639
 8226SOL    HW136140   1.782   1.843  10.272  0.9295  1.4351  1.1453
 8226SOL    HW236141   1.836   1.761  10.383 -2.0949 -0.1297 -0.7974
 8227SOL     OW36142   1.478   4.608  14.735  0.5760 -0.1063 -0.1738
 8227SOL    HW136143   1.555   4.606  14.679  0.9296 -0.9626  0.3335
 8227SOL    HW236144   1.418   4.657  14.679  0.2914 -0.5258 -0.2377
 8228SOL     OW36145   2.027   4.162  10.167  0.2546  0.2127 -0.2221
 8228SOL    HW136146   2.035   4.071  10.137 -1.9293 -0.3175  0.8352
 8228SOL    HW236147   2.013   4.149  10.261 -2.2007  1.8188 -0.3595
 8229SOL     OW36148   4.015   3.926   5.049  0.5333  0.3676 -0.2781
 8229SOL    HW136149   3.983   3.972   4.972 -0.1115 -0.8237 -0.7300
 8229SOL    HW236150   3.948   3.858   5.062  0.6314  0.2299 -0.4994
 8230SOL     OW36151   3.742   0.585   2.569  0.5565 -0.1010  0.4216
 8230SOL    HW136152   3.793   0.625   2.499 -0.0870 -2.0541 -1.1512
 8230SOL    HW236153   3.734   0.497   2.532  1.0594  0.8608 -1.9713
 8231SOL     OW36154   1.482   4.158   6.554 -0.7737  0.6504  0.1835
 8231SOL    HW136155   1.522   4.201   6.629  0.5371  1.5091 -1.0153
 8231SOL    HW236156   1.411   4.217   6.529 -1.1995  0.0896  0.0481
 8232SOL     OW36157   2.664   3.353   0.158  0.1230 -0.1434  0.5987
 8232SOL    HW136158   2.702   3.416   0.097  0.9647 -1.2211  0.0049
 8232SOL    HW236159   2.747   3.307   0.175 -0.4067 -1.4756 -0.4483
 8233SOL     OW36160   2.909   4.376   0.624  0.1883 -0.3779  0.4234
 8233SOL    HW136161   2.915   4.329   0.542 -2.1703 -2.2058  1.2973
 8233SOL    HW236162   3.000   4.404   0.625  0.6309 -1.9084  2.9580
 8234SOL     OW36163   4.253   4.177   6.796 -0.2058 -0.1629 -0.2571
 8234SOL    HW136164   4.243   4.257   6.848  2.3101 -0.5815  0.9353
 8234SOL    HW236165   4.199   4.199   6.721 -0.2185 -0.2837 -0.2836
 8235SOL     OW36166   0.170   1.554   9.159 -0.2711  0.3906  0.0483
 8235SOL    HW136167   0.197   1.497   9.230  2.1913  1.5581  0.0762
 8235SOL    HW236168   0.255   1.586   9.127  0.9261 -2.1457  0.7510
 8236SOL     OW36169   1.039   0.318   2.879 -0.4326  0.4325 -0.9448
 8236SOL    HW136170   1.013   0.394   2.826 -0.6753  0.3912 -0.8839
 8236SOL    HW236171   1.083   0.267   2.811 -0.2532 -1.2919  0.4667
 8237SOL     OW36172   0.511   0.557   4.747  0.1143 -0.2979  0.1610
 8237SOL    HW136173   0.550   0.481   4.704  0.9826 -0.0106  0.4437
 8237SOL    HW236174   0.479   0.600   4.668 -0.4454 -3.4247 -1.2798
 8238SOL     OW36175   4.150   1.421  13.747 -0.0483  0.5891 -0.1151
 8238SOL    HW136176   4.075   1.432  13.805 -0.6909 -3.1023 -0.2934
 8238SOL    HW236177   4.213   1.482  13.785  1.9030  0.5773 -3.3344
 8239SOL     OW36178   3.263   1.111  17.290  0.5296 -0.6036  0.1142
 8239SOL    HW136179   3.352   1.143  17.304 -0.1976  0.4108  2.3039
 8239SOL    HW236180   3.270   1.068  17.204  0.8277  1.0248 -0.6677
 8240SOL     OW36181   0.250   0.573   4.420  0.0214 -0.0834  0.3873
 8240SOL    HW136182   0.259   0.532   4.334 -1.4627 -2.2171  1.2445
 8240SOL    HW236183   0.199   0.504   4.462 -1.2104  0.2729 -0.5155
 8241SOL     OW36184   1.038   0.971   4.231 -0.6519 -0.1972  0.3276
 8241SOL    HW136185   1.045   0.962   4.136 -0.7208 -0.6421  0.3664
 8241SOL    HW236186   0.960   0.919   4.248 -0.4062 -1.0291 -1.1749
 8242SOL     OW36187   2.046   2.181   7.238  0.8786  0.7020  0.1033
 8242SOL    HW136188   2.054   2.105   7.296 -1.0760  0.0583 -0.4592
 8242SOL    HW236189   2.103   2.247   7.277  1.0426 -0.2904  1.5650
 8243SOL     OW36190   2.298   2.509   5.236  0.2042 -0.3917  0.0284
 8243SOL    HW136191   2.279   2.500   5.143  1.3788 -1.6427 -0.0860
 8243SOL    HW236192   2.260   2.595   5.255  0.5891 -0.1768 -0.1616
 8244SOL     OW36193   0.181   2.308   0.791 -0.3737  0.1094 -0.2167
 8244SOL    HW136194   0.263   2.357   0.796 -0.0939 -0.4039  0.1989
 8244SOL    HW236195   0.113   2.369   0.819 -0.7099 -1.5323  2.4882
 8245SOL     OW36196   1.204   0.056   5.323 -0.0451 -0.3170 -0.2889
 8245SOL    HW136197   1.121   0.094   5.350  0.8368  1.1910  0.2917
 8245SOL    HW236198   1.225   4.711   5.390 -0.3362 -1.6924 -1.5374
 8246SOL     OW36199   4.073   0.935   1.288 -0.0246  0.1960 -0.0811
 8246SOL    HW136200   4.018   0.925   1.366 -0.0374  0.2687 -0.0812
 8246SOL    HW236201   4.114   1.020   1.305  1.3852 -0.4722 -0.0648
 8247SOL     OW36202   3.452   4.657  16.132  0.2348 -0.0090 -0.3236
 8247SOL    HW136203   3.446   0.024  16.094  0.9308 -1.1236 -2.9745
 8247SOL    HW236204   3.488   4.619  16.052  0.5337  0.5778 -0.4700
 8248SOL     OW36205   2.374   2.938   5.738  0.0801  0.6885  0.0450
 8248SOL    HW136206   2.461   2.978   5.733 -0.3176  1.4930 -0.2688
 8248SOL    HW236207   2.371   2.899   5.650  0.6871  1.0513 -0.1414
 8249SOL     OW36208   2.482   2.080   0.775 -0.0124  0.1609 -0.1427
 8249SOL    HW136209   2.544   2.120   0.836  0.4813 -0.7673 -0.0225
 8249SOL    HW236210   2.513   2.106   0.689 -0.9488  0.1842 -0.4733
 8250SOL     OW36211   3.555   2.468   3.475 -0.0430  0.3448  0.6022
 8250SOL    HW136212   3.616   2.416   3.527 -0.8682 -0.2431  0.9851
 8250SOL    HW236213   3.564   2.427   3.389  0.8345  1.1871  0.2987
 8251SOL     OW36214   1.061   2.145   8.230  0.1586 -0.4288 -0.7579
 8251SOL    HW136215   1.062   2.204   8.306  2.4370 -0.6361 -0.6355
 8251SOL    HW236216   1.133   2.171   8.173  0.5389  1.4241  0.5439
 8252SOL     OW36217   4.394   0.342  14.719  0.1430  0.1745  0.4186
 8252SOL    HW136218   4.424   0.404  14.653 -0.5853 -0.2830 -0.3454
 8252SOL    HW236219   4.427   0.373  14.803 -0.4312  0.1299  0.6586
 8253SOL     OW36220   1.840   0.183   4.358 -0.3526 -0.4987 -0.1446
 8253SOL    HW136221   1.913   0.198   4.418 -0.9394  0.9804  0.1866
 8253SOL    HW236222   1.819   0.271   4.328  1.6663  0.0569  0.1192
 8254SOL     OW36223   1.006   4.030  16.262 -0.3810  0.1432 -0.0882
 8254SOL    HW136224   0.971   4.082  16.335  1.3030  0.4221  0.5017
 8254SOL    HW236225   1.099   4.017  16.280  0.1148  0.7118 -2.2305
 8255SOL     OW36226   3.743   3.846   7.130  0.6373 -0.0977 -0.1782
 8255SOL    HW136227   3.808   3.880   7.068  0.3528  1.0520  0.1587
 8255SOL    HW236228   3.800   3.784   7.174  2.0943  2.1305  1.0844
 8256SOL     OW36229   2.094   3.705   6.082  0.2789 -0.2360  0.2455
 8256SOL    HW136230   2.158   3.724   6.151  0.0841  0.0119  0.3588
 8256SOL    HW236231   2.074   3.614   6.102 -0.8077  0.1867  1.1405
 8257SOL     OW36232   4.674   3.063   7.050  0.7315  0.0229  0.2528
 8257SOL    HW136233   4.616   3.018   7.112  0.0986 -0.8333 -0.9770
 8257SOL    HW236234   4.614   3.115   6.996  0.9144  0.3527  0.3622
 8258SOL     OW36235   0.866   1.253  15.537  0.1097 -0.2471 -0.2379
 8258SOL    HW136236   0.882   1.276  15.628 -0.6496  0.1086 -0.1986
 8258SOL    HW236237   0.774   1.271  15.519  0.4348  2.9182  1.3829
 8259SOL     OW36238   1.487   0.638   2.026 -0.1284  0.3755 -0.2799
 8259SOL    HW136239   1.526   0.688   2.098  1.4536 -1.2508  0.0097
 8259SOL    HW236240   1.545   0.562   2.019  0.1288  0.3537  2.0047
 8260SOL     OW36241   2.884   3.494   6.434 -0.1517  0.2494  0.2183
 8260SOL    HW136242   2.971   3.515   6.468  0.5858 -1.1745 -0.8174
 8260SOL    HW236243   2.845   3.455   6.512  1.4782 -1.0031  0.3993
 8261SOL     OW36244   0.809   3.641   4.682  0.0652 -0.1749  0.1769
 8261SOL    HW136245   0.719   3.640   4.714 -0.0192  2.5567  0.0872
 8261SOL    HW236246   0.800   3.687   4.598 -3.0858 -0.2293  0.4974
 8262SOL     OW36247   3.166   4.388   4.723 -0.1632 -0.5520  0.3699
 8262SOL    HW136248   3.124   4.471   4.749 -0.8992 -1.2170  1.2904
 8262SOL    HW236249   3.235   4.372   4.787  1.3006 -2.1222 -1.6216
 8263SOL     OW36250   0.413   1.486   5.629  0.0763 -0.5239  0.1460
 8263SOL    HW136251   0.504   1.515   5.641 -0.2213 -0.1956  1.5569
 8263SOL    HW236252   0.416   1.470   5.534 -1.1658 -2.0559  0.3640
 8264SOL     OW36253   2.002   0.161   1.699 -0.7606  0.2971 -0.6181
 8264SOL    HW136254   2.073   0.107   1.733  1.2508  0.7828 -4.0455
 8264SOL    HW236255   2.029   0.172   1.608  0.6311  0.6941 -0.1571
 8265SOL     OW36256   4.618   0.953   9.764  0.7181 -0.5721  0.1991
 8265SOL    HW136257   4.538   0.993   9.728  1.2233 -2.0430 -2.5328
 8265SOL    HW236258   4.593   0.861   9.766  0.6380 -0.4993  2.5523
 8266SOL     OW36259   1.447   0.894  16.553 -0.2281 -0.7887 -0.0260
 8266SOL    HW136260   1.424   0.801  16.556 -0.0334 -0.7400  2.8938
 8266SOL    HW236261   1.524   0.882  16.608  0.7146  0.0766 -1.1545
 8267SOL     OW36262   3.152   2.248   8.361 -0.2340  0.1854 -0.5881
 8267SOL    HW136263   3.103   2.319   8.401  0.8800 -0.6976  2.3159
 8267SOL    HW236264   3.103   2.254   8.279 -1.8048 -0.6183  0.2972
 8268SOL     OW36265   3.777   1.089   1.053  0.4312  0.7620  0.2204
 8268SOL    HW136266   3.758   1.146   1.128 -1.6820 -2.3272  2.0110
 8268SOL    HW236267   3.713   1.108   0.984 -1.0238 -1.8053  0.8931
 8269SOL     OW36268   4.470   0.593   5.464  0.1930 -0.4116  0.3194
 8269SOL    HW136269   4.385   0.619   5.497  0.0032 -2.2157  1.2319
 8269SOL    HW236270   4.467   0.617   5.372 -0.6430  0.8754  0.6827
 8270SOL     OW36271   3.693   0.606   6.147 -0.5601  0.0182 -0.1076
 8270SOL    HW136272   3.731   0.647   6.070  0.2370  0.6933  0.6432
 8270SOL    HW236273   3.759   0.615   6.216  0.8909  0.0942 -1.5112
 8271SOL     OW36274   2.541   1.698   3.945 -0.1498 -0.7129  0.1623
 8271SOL    HW136275   2.580   1.717   4.030 -3.1298  3.2606  0.6330
 8271SOL    HW236276   2.614   1.656   3.900  0.0203  0.7747 -0.9398
 8272SOL     OW36277   3.383   2.657   2.910 -0.2632 -0.0242 -0.4924
 8272SOL    HW136278   3.356   2.744   2.941 -0.3431 -1.6932  3.9864
 8272SOL    HW236279   3.418   2.630   2.994  0.5875  1.6699 -0.2963
 8273SOL     OW36280   4.029   3.894  11.068  0.1260 -0.2935  0.0386
 8273SOL    HW136281   4.047   3.904  10.975  1.5540 -0.7486  0.2511
 8273SOL    HW236282   4.063   3.979  11.097  1.8643 -0.5343 -1.2800
 8274SOL     OW36283   0.083   2.161   2.759  0.0224 -0.4264 -0.1307
 8274SOL    HW136284   0.153   2.225   2.776  0.1757 -0.3199 -1.1976
 8274SOL    HW236285   0.022   2.214   2.707  1.2626  1.8860  0.7736
 8275SOL     OW36286   3.339   2.011   0.157 -0.8155 -0.0959  0.4760
 8275SOL    HW136287   3.359   2.087   0.211  1.0435 -0.1983 -0.0769
 8275SOL    HW236288   3.363   2.044   0.070 -0.8883 -0.5682  0.2710
 8276SOL     OW36289   0.314   4.312   3.766 -0.4240 -0.2665 -0.3743
 8276SOL    HW136290   0.260   4.304   3.687  0.1470  2.1536 -0.9931
 8276SOL    HW236291   0.401   4.304   3.727 -1.3295 -0.1535 -2.3740
 8277SOL     OW36292   1.731   0.654   3.217 -0.2366  0.3598 -0.2384
 8277SOL    HW136293   1.695   0.737   3.247 -1.4662  0.1191 -1.0355
 8277SOL    HW236294   1.759   0.671   3.127  1.7263 -0.2719  0.2520
 8278SOL     OW36295   4.422   4.032   3.638 -0.1933 -0.2957  0.3121
 8278SOL    HW136296   4.514   4.052   3.621  0.2748 -2.6717  0.0590
 8278SOL    HW236297   4.382   4.112   3.602  0.8820  1.4382  2.9572
 8279SOL     OW36298   0.873   2.274   3.799  0.2776  0.0956 -0.1693
 8279SOL    HW136299   0.916   2.340   3.854 -0.3383  1.0426 -0.8278
 8279SOL    HW236300   0.928   2.252   3.724 -1.6781 -0.7942 -1.3350
 8280SOL     OW36301   3.426   2.497  14.219 -0.7177  0.0855  0.0084
 8280SOL    HW136302   3.403   2.421  14.166 -0.4913 -0.1563  0.2641
 8280SOL    HW236303   3.337   2.529  14.238 -1.5544 -1.4572 -1.2927
 8281SOL     OW36304   4.537   3.313   5.515  0.1057 -0.7011 -0.1768
 8281SOL    HW136305   4.555   3.262   5.435  1.1139 -1.5097  0.5637
 8281SOL    HW236306   4.549   3.402   5.483  1.0005 -0.8930 -0.3781
 8282SOL     OW36307   1.325   3.629  11.096  0.1308  0.5368  0.0749
 8282SOL    HW136308   1.314   3.709  11.148 -0.7303 -0.7278  1.8225
 8282SOL    HW236309   1.359   3.668  11.015 -0.5607  0.8669 -0.0531
 8283SOL     OW36310   4.349   3.734   0.835  0.6541  0.0338  0.3274
 8283SOL    HW136311   4.415   3.664   0.838  1.3880  0.7344  0.5785
 8283SOL    HW236312   4.289   3.704   0.902  1.6444 -1.5447  0.5196
 8284SOL     OW36313   3.705   1.566   3.180  0.1754  0.1518 -0.0744
 8284SOL    HW136314   3.614   1.553   3.156 -0.0296  0.6530  0.4368
 8284SOL    HW236315   3.711   1.504   3.253 -0.8692 -1.0537 -1.0085
 8285SOL     OW36316   1.086   1.302   6.110 -0.2919  0.5617 -0.0090
 8285SOL    HW136317   1.135   1.239   6.057  0.2045  0.8410  0.1122
 8285SOL    HW236318   1.100   1.372   6.046 -2.2717 -0.7883 -1.9263
 8286SOL     OW36319   2.056   4.328   3.381 -0.8037 -0.0668  0.3398
 8286SOL    HW136320   2.141   4.347   3.421 -0.3623 -2.0892  0.3805
 8286SOL    HW236321   2.019   4.415   3.369 -1.1823 -0.4909 -1.5224
 8287SOL     OW36322   3.795   0.049   7.009 -0.1024  0.0374 -0.3307
 8287SOL    HW136323   3.738   0.115   6.971  0.5875  0.2656 -0.9685
 8287SOL    HW236324   3.775   4.700   6.946 -0.4020  1.6195 -1.9562
 8288SOL     OW36325   1.400   0.339   6.155 -0.3581 -0.1151 -1.2458
 8288SOL    HW136326   1.451   0.313   6.078  0.7000  0.2807 -0.6866
 8288SOL    HW236327   1.463   0.395   6.200  0.4647 -2.4747  0.5290
 8289SOL     OW36328   0.885   4.394  12.686  0.2464  0.2526 -0.2820
 8289SOL    HW136329   0.880   4.328  12.617 -1.3732 -0.2701  0.3353
 8289SOL    HW236330   0.846   4.472  12.648  1.5016  1.1645  0.3042
 8290SOL     OW36331   1.702   1.474  10.410 -0.5156 -0.1348  0.2691
 8290SOL    HW136332   1.712   1.489  10.504  1.3969 -1.6853  0.2945
 8290SOL    HW236333   1.619   1.428  10.396 -1.0908  1.2368 -0.9402
 8291SOL     OW36334   3.898   2.477   2.017  0.1115  0.7478 -0.3105
 8291SOL    HW136335   3.927   2.515   2.100 -2.7844  0.1313  0.9874
 8291SOL    HW236336   3.948   2.397   2.004  0.2117  0.9118 -0.9445
 8292SOL     OW36337   3.715   1.386   4.468 -0.0135 -0.2405  0.2382
 8292SOL    HW136338   3.660   1.412   4.395  0.0447 -0.2535  0.1900
 8292SOL    HW236339   3.649   1.363   4.534  0.2603 -1.2064  0.1678
 8293SOL     OW36340   0.877   3.128   5.989 -0.4742  0.2780  0.0653
 8293SOL    HW136341   0.968   3.156   6.001 -1.2585  2.4895  0.7718
 8293SOL    HW236342   0.847   3.093   6.073  2.0589 -0.5966  0.6224
 8294SOL     OW36343   2.116   0.230   7.079 -0.1133  0.7679  0.2249
 8294SOL    HW136344   2.068   0.259   7.002 -0.4704  0.3441  0.2868
 8294SOL    HW236345   2.160   0.312   7.102  0.3172  0.3383  0.9528
 8295SOL     OW36346   4.607   3.667   5.097  0.6806 -0.5375  0.6105
 8295SOL    HW136347   4.670   3.596   5.085  1.9333  0.7390 -0.4345
 8295SOL    HW236348   4.655   3.732   5.147  1.4011  0.3493 -1.2086
 8296SOL     OW36349   1.493   0.092  15.171  0.3360  0.0712 -0.4817
 8296SOL    HW136350   1.484   0.028  15.242  0.2342  2.2232  1.4438
 8296SOL    HW236351   1.421   0.060  15.116  2.3432 -1.3230 -2.3120
 8297SOL     OW36352   4.589   1.574   1.466 -0.3257 -0.3216 -0.1130
 8297SOL    HW136353   4.603   1.484   1.439  2.4804  0.9995 -2.9373
 8297SOL    HW236354   4.678   1.585   1.498  0.0901 -2.2697 -0.6230
 8298SOL     OW36355   1.578   2.794   2.025  0.1853  0.2393 -0.3821
 8298SOL    HW136356   1.501   2.791   2.082  1.6645 -0.7599  1.6006
 8298SOL    HW236357   1.638   2.849   2.075  0.6584 -1.0160  0.4544
 8299SOL     OW36358   0.065   3.994   4.968  0.2552  0.2508 -0.0925
 8299SOL    HW136359   0.082   4.063   5.032 -1.4408  1.5425 -1.0217
 8299SOL    HW236360   0.149   3.950   4.971 -0.5375 -1.1719  1.6602
 8300SOL     OW36361   0.230   1.011  12.052 -0.1158  0.1253 -0.1332
 8300SOL    HW136362   0.291   0.946  12.089 -0.2898 -0.7760 -1.4575
 8300SOL    HW236363   0.217   1.056  12.136  2.1326 -1.2842  0.9669
 8301SOL     OW36364   3.046   2.043  16.833  0.0064  0.1382  0.3823
 8301SOL    HW136365   2.980   1.991  16.788 -0.2439  1.4735 -0.7813
 8301SOL    HW236366   3.127   2.030  16.784  1.3513  0.4400  2.5232
 8302SOL     OW36367   4.228   3.464   4.209  0.1649  0.1663  0.1448
 8302SOL    HW136368   4.282   3.387   4.190 -0.9357  0.1707 -3.0675
 8302SOL    HW236369   4.153   3.451   4.150 -0.4291 -0.6187  1.0814
 8303SOL     OW36370   2.370   3.279  13.461  0.1354  0.0493  0.2021
 8303SOL    HW136371   2.276   3.277  13.441 -0.0798  1.0634  1.1272
 8303SOL    HW236372   2.383   3.371  13.484 -1.5663  0.5254 -0.7645
 8304SOL     OW36373   2.227   1.167  11.962 -0.0683  0.6426  0.6565
 8304SOL    HW136374   2.225   1.072  11.947 -1.1211  0.5999  1.1129
 8304SOL    HW236375   2.206   1.182  12.054 -0.7550 -1.8148  0.8938
 8305SOL     OW36376   1.718   0.940  12.791  0.8547 -0.8290  0.7265
 8305SOL    HW136377   1.797   0.932  12.844  2.3441 -1.1025 -1.5813
 8305SOL    HW236378   1.659   0.990  12.848 -0.4354  0.1028 -1.4165
 8306SOL     OW36379   3.131   3.977   8.861 -0.4847 -0.7224 -0.0884
 8306SOL    HW136380   3.203   3.916   8.849  0.4693 -0.0441  2.1736
 8306SOL    HW236381   3.171   4.045   8.915 -0.1264 -0.4617 -0.6820
 8307SOL     OW36382   3.643   1.611   4.687 -0.1036  0.1199  0.0742
 8307SOL    HW136383   3.701   1.576   4.755 -0.7394 -0.7802  0.1494
 8307SOL    HW236384   3.599   1.529   4.666 -1.7001  1.3806 -1.4599
 8308SOL     OW36385   3.047   1.951   9.602  0.0912 -0.0402 -0.2212
 8308SOL    HW136386   3.064   2.037   9.641  0.7690 -0.4180  0.3236
 8308SOL    HW236387   3.063   1.953   9.507  1.9373 -1.4287  0.0490
 8309SOL     OW36388   0.439   3.380  16.277  0.0886 -0.2816 -0.1756
 8309SOL    HW136389   0.431   3.343  16.189 -0.8944  0.6090 -0.4674
 8309SOL    HW236390   0.345   3.377  16.296  0.3443 -0.7416  0.9940
 8310SOL     OW36391   2.370   1.569  11.681 -0.3782 -0.0939 -0.0826
 8310SOL    HW136392   2.460   1.545  11.705  0.3065  1.1175 -1.4079
 8310SOL    HW236393   2.374   1.573  11.585 -1.2552 -0.3428 -0.1222
 8311SOL     OW36394   4.375   0.480   2.348 -0.1372  0.6637  0.1144
 8311SOL    HW136395   4.400   0.408   2.405 -0.9153 -0.3434 -0.8268
 8311SOL    HW236396   4.283   0.462   2.330 -0.0715  0.0931  0.3754
 8312SOL     OW36397   2.333   1.698  10.778  0.1475  0.8160  0.1395
 8312SOL    HW136398   2.296   1.761  10.840 -1.5107 -0.0946  0.0664
 8312SOL    HW236399   2.278   1.719  10.703 -2.5690 -2.3970  1.2200
 8313SOL     OW36400   3.718   1.860   3.105 -0.2423 -0.4966 -0.1344
 8313SOL    HW136401   3.756   1.841   3.191  1.0606 -0.4348 -0.7028
 8313SOL    HW236402   3.703   1.772   3.071  3.3376 -1.3766  0.4966
 8314SOL     OW36403   4.259   4.468   7.486 -0.6341 -0.0236  0.4417
 8314SOL    HW136404   4.281   4.409   7.559  2.2359  0.6982  0.1439
 8314SOL    HW236405   4.287   4.548   7.531 -2.1146  1.6389 -1.6428
 8315SOL     OW36406   0.628   1.459   7.520 -0.5426  0.5486 -0.1113
 8315SOL    HW136407   0.568   1.534   7.513  0.5844  1.3158 -1.6708
 8315SOL    HW236408   0.678   1.491   7.595  0.3085  1.4478 -1.0527
 8316SOL     OW36409   0.045   3.538   1.397 -0.0404 -0.5273 -0.2903
 8316SOL    HW136410   0.089   3.616   1.433  1.4768 -0.8829 -1.3994
 8316SOL    HW236411   0.089   3.466   1.442 -0.0259  1.1658  2.4404
 8317SOL     OW36412   2.231   0.251   4.041  0.0332 -0.4347  0.2210
 8317SOL    HW136413   2.216   0.340   4.074  0.1509 -0.4651  0.3535
 8317SOL    HW236414   2.143   0.214   4.028  0.7332 -2.4912  1.4945
 8318SOL     OW36415   2.395   1.570   4.861 -0.4384 -0.5059  0.0063
 8318SOL    HW136416   2.396   1.625   4.939  0.2188  0.0621 -0.4035
 8318SOL    HW236417   2.348   1.492   4.891  1.4836 -1.7911 -0.3445
 8319SOL     OW36418   1.655   0.580  14.393  0.3802 -0.3737  0.1072
 8319SOL    HW136419   1.608   0.603  14.313  0.0531  1.3976  0.8149
 8319SOL    HW236420   1.592   0.538  14.452 -1.1669  1.3154 -0.3456
 8320SOL     OW36421   1.042   1.111   2.344 -0.3210 -0.4208 -0.5745
 8320SOL    HW136422   1.011   1.199   2.367  2.1295 -0.4679  3.0007
 8320SOL    HW236423   1.047   1.124   2.249 -1.2061 -1.8446 -0.8036
 8321SOL     OW36424   4.045   0.283   4.356 -0.0544  0.4066 -0.5340
 8321SOL    HW136425   3.982   0.263   4.286 -1.7586 -1.3811  1.5183
 8321SOL    HW236426   4.031   0.374   4.381  2.2419  0.1850  1.5514
 8322SOL     OW36427   0.197   2.635   9.105  0.4147  0.0470 -0.2493
 8322SOL    HW136428   0.174   2.618   9.014 -0.4774 -0.4026  0.0579
 8322SOL    HW236429   0.224   2.545   9.128 -1.1558  0.2241  2.2311
 8323SOL     OW36430   0.657   0.054   6.347 -0.4155 -0.4377  0.7766
 8323SOL    HW136431   0.678   0.006   6.427 -2.7481 -2.2448  0.2900
 8323SOL    HW236432   0.562   0.070   6.344 -0.4716 -0.7719  0.7700
 8324SOL     OW36433   2.816   3.345   6.664 -0.5583 -0.4645  0.0514
 8324SOL    HW136434   2.899   3.344   6.712 -1.5799  1.0710  1.8744
 8324SOL    HW236435   2.770   3.267   6.694 -2.4871  0.2047 -1.1247
 8325SOL     OW36436   0.347   2.370   3.287  0.4472  0.1686 -0.4391
 8325SOL    HW136437   0.261   2.379   3.248  0.6392  2.4439 -0.3488
 8325SOL    HW236438   0.318   2.338   3.372  1.0773  1.6499  0.3439
 8326SOL     OW36439   0.847   4.559  11.495  0.1024 -0.3459  0.2703
 8326SOL    HW136440   0.934   4.532  11.523 -1.2162 -3.0857  1.7561
 8326SOL    HW236441   0.858   4.599  11.409 -0.2531 -2.4626 -0.7515
 8327SOL     OW36442   4.081   4.621   0.177  0.5916 -0.3185 -0.5961
 8327SOL    HW136443   4.007   4.607   0.237  0.4907 -0.3386 -0.7255
 8327SOL    HW236444   4.143   4.557   0.212  0.8000  1.3984  2.2251
 8328SOL     OW36445   2.500   4.523   7.372  0.2842  0.4095  0.0502
 8328SOL    HW136446   2.575   4.579   7.350  0.1481  0.0991 -1.2084
 8328SOL    HW236447   2.547   4.456   7.422 -0.5201 -0.9736 -1.0465
 8329SOL     OW36448   1.457   3.727   3.210  0.4508 -0.0538  0.1720
 8329SOL    HW136449   1.548   3.705   3.232  0.8035  1.0469 -0.1986
 8329SOL    HW236450   1.445   3.792   3.279 -1.5229 -0.3764  0.1154
 8330SOL     OW36451   1.473   3.488   5.169  0.2517  0.1171  0.2531
 8330SOL    HW136452   1.531   3.474   5.094 -1.2423 -1.5519 -0.5788
 8330SOL    HW236453   1.388   3.510   5.132  0.0608 -2.7873 -1.0204
 8331SOL     OW36454   1.220   0.942   2.502 -0.0731 -0.1366  0.0469
 8331SOL    HW136455   1.234   0.975   2.591 -0.2981  1.1388 -0.3858
 8331SOL    HW236456   1.183   1.020   2.461 -0.2344  0.1506  0.7575
 8332SOL     OW36457   1.590   2.410   2.639 -0.1187 -0.1156  0.8384
 8332SOL    HW136458   1.554   2.485   2.592 -1.0906 -1.7931 -1.0690
 8332SOL    HW236459   1.540   2.334   2.611 -1.6503  1.3292 -0.2731
 8333SOL     OW36460   0.130   2.092  10.499  0.5107  0.2534 -0.4395
 8333SOL    HW136461   0.179   2.019  10.538 -0.7811 -0.4540 -0.1189
 8333SOL    HW236462   0.155   2.166  10.554 -1.1611 -2.2679  3.7172
 8334SOL     OW36463   2.956   3.693  10.640 -0.2458 -0.5167  0.4631
 8334SOL    HW136464   3.000   3.622  10.594 -0.1971 -0.2517  0.0985
 8334SOL    HW236465   2.868   3.661  10.624 -0.7666  0.3163  1.6425
 8335SOL     OW36466   0.844   0.816  10.507 -0.2858 -0.0579  0.2002
 8335SOL    HW136467   0.847   0.729  10.548  1.7599  1.0476  2.3901
 8335SOL    HW236468   0.915   0.797  10.446 -0.2422  0.0561  0.2153
 8336SOL     OW36469   4.574   3.082   8.931  0.0353  0.0792 -0.1443
 8336SOL    HW136470   4.534   3.164   8.904 -0.5096 -0.6254 -1.4919
 8336SOL    HW236471   4.506   3.026   8.969 -0.7435 -0.8216 -2.8181
 8337SOL     OW36472   2.945   4.190   5.824  0.3099 -0.0100 -0.0669
 8337SOL    HW136473   2.861   4.237   5.818 -0.7967 -1.7287  1.8638
 8337SOL    HW236474   2.925   4.138   5.901  0.5987  0.5475  0.3819
 8338SOL     OW36475   3.613   0.118   8.417 -0.2735  0.1298  0.4137
 8338SOL    HW136476   3.562   0.119   8.337  0.0964  0.7697  0.1929
 8338SOL    HW236477   3.546   0.081   8.475 -0.8782 -0.7254 -0.8287
 8339SOL     OW36478   1.300   0.995  14.652  0.2968 -0.2334  0.1869
 8339SOL    HW136479   1.285   1.052  14.577  2.0935  1.3127  0.9995
 8339SOL    HW236480   1.365   1.051  14.695  0.8326  2.2381 -3.8157
 8340SOL     OW36481   1.298   0.703  17.452 -0.5352  0.2363 -0.3330
 8340SOL    HW136482   1.256   0.637  17.397 -1.5797  0.0333  0.6992
 8340SOL    HW236483   1.282   0.784  17.404  3.2856  0.6031 -0.9612
 8341SOL     OW36484   3.219   0.757   9.200  0.0663  0.6699 -0.0558
 8341SOL    HW136485   3.237   0.666   9.225  3.2301  1.0490 -0.9987
 8341SOL    HW236486   3.230   0.744   9.106  1.2252 -2.3857  0.5076
 8342SOL     OW36487   1.952   0.955   5.569 -0.0763 -0.5615 -0.0635
 8342SOL    HW136488   1.902   0.958   5.487  2.0506 -0.1467 -1.3462
 8342SOL    HW236489   2.019   1.021   5.557 -1.2143  0.9515  1.9567
 8343SOL     OW36490   0.275   4.641  10.455  0.5197  0.2544 -0.0629
 8343SOL    HW136491   0.367   4.656  10.435  0.3638  0.9542 -0.2381
 8343SOL    HW236492   0.264   4.546  10.462 -1.6120  0.5304  0.5387
 8344SOL     OW36493   2.419   3.519   8.767 -0.2825 -0.8253 -0.4046
 8344SOL    HW136494   2.468   3.442   8.737 -1.7736 -1.4556 -1.1951
 8344SOL    HW236495   2.328   3.491   8.762 -0.8971  1.2843 -0.8875
 8345SOL     OW36496   1.910   4.512   4.095 -0.4797 -0.3089 -0.0978
 8345SOL    HW136497   1.951   4.542   4.176  0.8688  1.2455 -1.3601
 8345SOL    HW236498   1.978   4.453   4.063  0.4691  0.7185  0.0444
 8346SOL     OW36499   1.506   1.058   4.626  0.5631 -0.1566  0.3709
 8346SOL    HW136500   1.545   1.112   4.557 -0.3179 -1.2265 -0.9759
 8346SOL    HW236501   1.557   1.090   4.700 -1.1772 -0.7530  1.8272
 8347SOL     OW36502   3.667   3.974  14.203 -0.0890  0.3052 -0.0236
 8347SOL    HW136503   3.751   3.928  14.212 -0.4417 -0.6414 -1.3715
 8347SOL    HW236504   3.633   3.952  14.290 -3.4840  1.7164 -0.9853
 8348SOL     OW36505   4.119   2.715   2.486 -0.1335  0.4964 -0.3365
 8348SOL    HW136506   4.157   2.789   2.534  2.3623  0.2575 -1.9545
 8348SOL    HW236507   4.082   2.760   2.410 -0.2023  1.4137  0.2492
 8349SOL     OW36508   1.324   0.348   8.344  0.2620 -0.0423  0.0681
 8349SOL    HW136509   1.352   0.427   8.391  2.2558  1.0753 -2.9784
 8349SOL    HW236510   1.395   0.346   8.279  0.8306  0.6567  0.6786
 8350SOL     OW36511   0.490   4.406   6.474  0.3674  0.3361  0.0921
 8350SOL    HW136512   0.421   4.340   6.463  1.1063 -0.3438 -0.4387
 8350SOL    HW236513   0.458   4.467   6.407  1.0676  2.6954  1.9186
 8351SOL     OW36514   0.636   4.548   8.703  0.6773  0.0417 -0.2911
 8351SOL    HW136515   0.703   4.613   8.680  1.0649  0.1196  1.0476
 8351SOL    HW236516   0.690   4.473   8.729  0.6182 -0.5538 -1.8755
 8352SOL     OW36517   2.455   1.784   6.279 -0.0715  0.2597 -0.1774
 8352SOL    HW136518   2.457   1.709   6.220  2.4311  1.0802 -1.1404
 8352SOL    HW236519   2.420   1.758   6.365  0.7253  1.7776  0.6131
 8353SOL     OW36520   3.505   0.898   6.790 -0.0769  0.4376  0.1912
 8353SOL    HW136521   3.478   0.857   6.872 -0.1061 -1.5309 -0.7938
 8353SOL    HW236522   3.547   0.977   6.825  1.5210  0.1225 -1.0070
 8354SOL     OW36523   0.413   1.580   6.695  0.5294  0.6747 -0.5746
 8354SOL    HW136524   0.449   1.551   6.611 -1.9605  0.9028 -1.7085
 8354SOL    HW236525   0.422   1.674   6.686  3.1033  0.4846  0.0852
 8355SOL     OW36526   0.343   0.277   7.271 -0.0430 -0.2109  0.0206
 8355SOL    HW136527   0.339   0.230   7.354 -1.5370  0.9673  0.6259
 8355SOL    HW236528   0.255   0.314   7.274 -1.5291 -3.7319 -0.6272
 8356SOL     OW36529   3.292   4.327   6.400 -0.1915 -0.9579 -0.1197
 8356SOL    HW136530   3.345   4.287   6.331  0.0002  1.3515 -1.3152
 8356SOL    HW236531   3.240   4.395   6.355  1.0432  1.3908  2.0546
 8357SOL     OW36532   4.287   4.188   8.007  0.0916 -0.0214 -0.0650
 8357SOL    HW136533   4.214   4.200   7.946 -0.4049  0.2730  0.5899
 8357SOL    HW236534   4.338   4.124   7.957  0.8652 -0.1310  0.8525
 8358SOL     OW36535   4.468   0.361   7.424  0.1455  0.0119 -0.2307
 8358SOL    HW136536   4.493   0.393   7.511 -2.9302  1.2001  0.2120
 8358SOL    HW236537   4.536   0.294   7.415  0.6616  0.5674 -0.4011
 8359SOL     OW36538   2.217   1.651   3.606 -0.1389 -0.0354  0.1320
 8359SOL    HW136539   2.155   1.720   3.581 -0.5409 -0.1422  0.8360
 8359SOL    HW236540   2.230   1.612   3.519  0.8295 -0.6303  0.5446
 8360SOL     OW36541   1.251   2.676  14.472  0.4897  0.0708 -0.6029
 8360SOL    HW136542   1.302   2.605  14.434  2.3835  1.9188 -1.5444
 8360SOL    HW236543   1.160   2.660  14.447 -0.1444  2.1815  0.2842
 8361SOL     OW36544   2.220   2.051   5.068  0.0111  0.3851 -0.2088
 8361SOL    HW136545   2.283   1.980   5.061  0.3303  0.7855 -1.3552
 8361SOL    HW236546   2.143   1.996   5.082  0.0376  0.8934  1.9756
 8362SOL     OW36547   4.261   2.095  17.032 -0.5647  0.2176  0.0474
 8362SOL    HW136548   4.248   2.095  17.126  1.9797 -3.0687  0.4013
 8362SOL    HW236549   4.301   2.182  17.030  1.0473 -0.5231 -0.3689
 8363SOL     OW36550   0.395   2.048   6.281  0.3627 -0.1452 -0.6478
 8363SOL    HW136551   0.305   2.036   6.311  0.5962  1.6080  0.7765
 8363SOL    HW236552   0.398   2.142   6.302 -3.3449 -1.0753  3.8827
 8364SOL     OW36553   3.623   2.788  11.739  0.6113 -0.4290  0.6165
 8364SOL    HW136554   3.585   2.744  11.662  2.6184  1.0229 -1.2090
 8364SOL    HW236555   3.657   2.871  11.706 -0.9074 -0.4197 -1.0066
 8365SOL     OW36556   3.365   4.171  17.362 -0.4870  0.1676  0.2804
 8365SOL    HW136557   3.394   4.081  17.377  1.0813  0.4446 -1.0717
 8365SOL    HW236558   3.377   4.166  17.267 -1.3833 -0.4474  0.1993
 8366SOL     OW36559   0.511   1.005   1.051 -0.4047 -0.1435  0.7827
 8366SOL    HW136560   0.487   0.980   1.140  0.5028  0.6192  1.2445
 8366SOL    HW236561   0.556   0.924   1.025 -0.2428  0.0129  0.5688
 8367SOL     OW36562   4.659   2.877   5.327 -0.3437  0.1290  0.0390
 8367SOL    HW136563   4.605   2.800   5.345  0.1806 -0.6515 -1.7420
 8367SOL    HW236564   4.625   2.939   5.392 -0.1110  0.1791  0.1136
 8368SOL     OW36565   0.668   2.246  13.781 -0.0776 -0.0451 -0.9107
 8368SOL    HW136566   0.687   2.158  13.749  0.7114  0.2245 -1.2020
 8368SOL    HW236567   0.583   2.263  13.740 -0.1946 -1.6200 -1.2856
 8369SOL     OW36568   2.622   3.460   4.115  0.2890 -0.6979 -1.2090
 8369SOL    HW136569   2.577   3.537   4.152  0.1908 -1.0108 -0.6777
 8369SOL    HW236570   2.703   3.510   4.099  0.6210 -1.6189 -2.3501
 8370SOL     OW36571   1.141   3.026  12.393  0.1033  0.2120 -0.2661
 8370SOL    HW136572   1.048   3.045  12.386  0.4247  1.4659 -1.0070
 8370SOL    HW236573   1.140   2.964  12.467  1.0494  1.9629  1.2052
 8371SOL     OW36574   4.161   2.282  12.956 -0.0381  0.4023  0.3044
 8371SOL    HW136575   4.184   2.294  13.048  0.7945  1.2747 -0.0188
 8371SOL    HW236576   4.145   2.371  12.925  1.0572  0.2135 -0.8115
 8372SOL     OW36577   0.994   1.131   3.148 -0.1493 -0.2137  0.0254
 8372SOL    HW136578   0.929   1.069   3.117  0.6876 -1.1291  0.0759
 8372SOL    HW236579   1.063   1.064   3.160  0.0532 -0.2804 -1.5198
 8373SOL     OW36580   4.539   0.531   9.419 -0.0997  0.3155  0.3440
 8373SOL    HW136581   4.611   0.572   9.466 -0.0265  0.5698  0.0079
 8373SOL    HW236582   4.524   0.446   9.460  1.4318 -0.0494  0.1350
 8374SOL     OW36583   2.757   0.289   1.551  0.5764  0.0668 -0.2980
 8374SOL    HW136584   2.818   0.299   1.624 -0.9048 -1.2950  1.1172
 8374SOL    HW236585   2.737   0.195   1.545  1.9390 -0.3429  1.4485
 8375SOL     OW36586   1.587   1.090   8.806  0.8266 -0.9765  0.4419
 8375SOL    HW136587   1.569   1.034   8.882  2.3871 -1.9852  0.0664
 8375SOL    HW236588   1.610   1.167   8.858 -0.9580  0.4232 -0.8691
 8376SOL     OW36589   0.722   3.308  11.408 -0.1187 -0.7001  0.0964
 8376SOL    HW136590   0.702   3.220  11.439 -0.9335 -0.4731  0.2210
 8376SOL    HW236591   0.807   3.297  11.364  0.8434  0.1733  1.7394
 8377SOL     OW36592   1.413   4.036   2.730  0.0333  0.2394 -0.4806
 8377SOL    HW136593   1.400   4.019   2.636 -0.4053  0.6928 -0.5040
 8377SOL    HW236594   1.505   4.012   2.734  0.3351  1.4209 -0.4020
 8378SOL     OW36595   3.884   2.587   1.770  0.8383  0.3407 -0.3248
 8378SOL    HW136596   3.900   2.577   1.864 -2.2373  3.2113  0.4659
 8378SOL    HW236597   3.915   2.678   1.764 -0.3625  0.8167  0.7849
 8379SOL     OW36598   3.690   3.771   8.732 -0.2993 -0.7908  0.5855
 8379SOL    HW136599   3.649   3.853   8.758  0.1068  0.0988 -1.6099
 8379SOL    HW236600   3.774   3.803   8.700 -0.2289 -0.7105  0.8449
 8380SOL     OW36601   1.280   3.860   5.674 -0.4798  0.2288 -0.0324
 8380SOL    HW136602   1.249   3.784   5.723 -0.0615  0.5238  0.6808
 8380SOL    HW236603   1.210   3.858   5.609  0.7538 -0.1745 -1.3684
 8381SOL     OW36604   4.121   1.727   3.368 -0.1970  0.1203  0.3094
 8381SOL    HW136605   4.073   1.772   3.299  1.7695  2.1578  0.2441
 8381SOL    HW236606   4.100   1.784   3.442  1.2486  0.6018  0.3389
 8382SOL     OW36607   0.853   3.520   5.437 -0.5065 -0.3657 -0.0709
 8382SOL    HW136608   0.916   3.449   5.449  0.4051  0.1919 -1.4940
 8382SOL    HW236609   0.778   3.487   5.487 -0.5660  1.6187  1.1483
 8383SOL     OW36610   0.308   4.363  10.830  0.0540 -0.6272  0.1301
 8383SOL    HW136611   0.263   4.285  10.797 -0.6935 -0.1332 -0.0262
 8383SOL    HW236612   0.376   4.321  10.883  2.4713  0.5582 -2.0189
 8384SOL     OW36613   4.503   4.346   7.936 -0.2761 -0.3520  0.0862
 8384SOL    HW136614   4.444   4.277   7.966 -0.0705 -0.5253  0.0924
 8384SOL    HW236615   4.569   4.288   7.897  2.5387  2.8593  0.0563
 8385SOL     OW36616   4.138   2.898  10.495 -0.4416 -0.7467 -0.5448
 8385SOL    HW136617   4.097   2.848  10.566 -0.6533  0.9130  0.5086
 8385SOL    HW236618   4.067   2.914  10.433 -2.3577 -1.6081  1.4112
 8386SOL     OW36619   1.804   2.779   7.068  0.2589 -0.5231  0.1485
 8386SOL    HW136620   1.766   2.749   7.151  1.7607 -0.6915  0.7765
 8386SOL    HW236621   1.846   2.696   7.043 -0.2996 -0.5230 -0.7634
 8387SOL     OW36622   1.687   4.693   4.683  0.0217 -0.4291 -0.3214
 8387SOL    HW136623   1.682   0.008   4.594 -1.2836 -0.7385 -0.3608
 8387SOL    HW236624   1.781   4.682   4.700 -0.2776 -0.1181  1.4719
 8388SOL     OW36625   2.122   1.910   2.934  0.1870  0.0904  0.6028
 8388SOL    HW136626   2.068   1.981   2.969  0.5925  1.4043 -1.3999
 8388SOL    HW236627   2.208   1.930   2.972  1.2148 -2.4314 -0.4432
 8389SOL     OW36628   3.120   3.052   7.094  0.2104 -0.3045  0.1408
 8389SOL    HW136629   3.205   3.090   7.075 -1.1685  1.9309 -1.5965
 8389SOL    HW236630   3.108   3.075   7.186 -0.9389  1.4376 -0.4467
 8390SOL     OW36631   1.810   3.910   7.681 -0.3792 -0.1357  0.0352
 8390SOL    HW136632   1.805   3.949   7.594  0.4764 -0.0925  0.0044
 8390SOL    HW236633   1.721   3.937   7.701 -1.2544 -2.7076 -0.3136
 8391SOL     OW36634   3.608   2.932   2.869 -0.1110 -0.0063  0.1899
 8391SOL    HW136635   3.546   3.005   2.860  0.4294  0.2647 -1.4311
 8391SOL    HW236636   3.610   2.923   2.964  4.3249 -1.0086  0.0231
 8392SOL     OW36637   2.847   1.638   4.071 -0.6660  0.0613  0.0417
 8392SOL    HW136638   2.851   1.733   4.055 -2.1721  1.0717  5.5634
 8392SOL    HW236639   2.922   1.600   4.025 -1.4416  0.7015 -1.7967
 8393SOL     OW36640   1.613   2.388   7.640  0.2802  0.5806  0.0760
 8393SOL    HW136641   1.612   2.379   7.545 -1.6768  0.1822  0.1386
 8393SOL    HW236642   1.524   2.361   7.662  0.8919 -1.7970 -0.3112
 8394SOL     OW36643   4.134   2.099   2.904 -0.1566 -0.0015 -0.4241
 8394SOL    HW136644   4.066   2.033   2.914  0.3441 -0.4693 -0.0932
 8394SOL    HW236645   4.178   2.072   2.823  0.7992  0.5590 -0.0917
 8395SOL     OW36646   0.829   0.998   5.756 -0.0967 -0.6273 -0.1195
 8395SOL    HW136647   0.846   0.914   5.713 -0.5786 -0.9315  0.2855
 8395SOL    HW236648   0.880   1.064   5.709 -1.6710 -0.1454 -1.1576
 8396SOL     OW36649   1.558   3.912  13.941 -0.2422  0.2119 -0.3822
 8396SOL    HW136650   1.480   3.862  13.964  1.2133 -1.2834  1.2853
 8396SOL    HW236651   1.599   3.908  14.027 -0.3177 -1.0388 -0.4092
 8397SOL     OW36652   1.727   2.528   3.684  0.3625  0.3497 -0.6363
 8397SOL    HW136653   1.655   2.547   3.624  0.1745 -2.7131 -1.3734
 8397SOL    HW236654   1.780   2.464   3.636  1.6065  1.0467 -0.2192
 8398SOL     OW36655   4.085   0.684  15.273 -0.2974  0.2673 -0.2358
 8398SOL    HW136656   4.064   0.735  15.351 -0.2789  0.0423 -0.0848
 8398SOL    HW236657   4.003   0.690  15.224 -1.9714 -0.7992  2.4765
 8399SOL     OW36658   0.634   4.441   5.372 -0.4790  0.1941 -0.0583
 8399SOL    HW136659   0.726   4.414   5.368 -0.3069  0.6276  1.2356
 8399SOL    HW236660   0.628   4.468   5.463  1.0055  0.7635 -0.1166
 8400SOL     OW36661   4.429   0.472   5.998 -0.4728 -0.6036  0.1780
 8400SOL    HW136662   4.500   0.536   5.990  1.4580 -2.6337  0.7726
 8400SOL    HW236663   4.352   0.528   6.007 -0.6884 -0.8545 -0.1494
 8401SOL     OW36664   1.690   3.106   2.795  0.8316 -0.7153 -0.3434
 8401SOL    HW136665   1.611   3.122   2.846  1.8100  3.1650 -0.0002
 8401SOL    HW236666   1.672   3.022   2.753  1.4875 -0.3443 -1.3710
 8402SOL     OW36667   4.429   4.318  10.788 -0.4520  0.0638 -0.1873
 8402SOL    HW136668   4.489   4.303  10.861  1.1892  0.2094 -1.4954
 8402SOL    HW236669   4.363   4.253  10.812  0.9617 -1.6789 -0.9725
 8403SOL     OW36670   2.318   2.160   4.071  0.1828  0.1106  1.0083
 8403SOL    HW136671   2.289   2.201   4.153 -1.7678  0.3165  0.2239
 8403SOL    HW236672   2.336   2.238   4.019  1.7605 -0.9328  0.0265
 8404SOL     OW36673   4.645   4.232  12.103  0.1602 -0.2516 -0.1599
 8404SOL    HW136674   4.655   4.201  12.013 -0.2204 -2.9677  0.7463
 8404SOL    HW236675   4.612   4.152  12.144 -0.9697  0.4363  0.2714
 8405SOL     OW36676   2.474   1.778   8.607  0.3531 -0.2889 -0.2980
 8405SOL    HW136677   2.394   1.813   8.568  0.5570  1.4516  0.8551
 8405SOL    HW236678   2.447   1.691   8.638  0.0225 -0.8316 -2.1091
 8406SOL     OW36679   2.763   2.295  12.807  0.1801  0.3986  0.2086
 8406SOL    HW136680   2.699   2.306  12.737  0.7857  1.0978 -0.2325
 8406SOL    HW236681   2.820   2.367  12.780 -2.2198  2.1160 -0.2821
 8407SOL     OW36682   1.088   3.769   3.534 -0.5051  0.0637  0.3647
 8407SOL    HW136683   1.037   3.756   3.455  0.2775 -2.1624  0.2201
 8407SOL    HW236684   1.086   3.865   3.537 -2.1742  0.0347 -0.0055
 8408SOL     OW36685   3.705   0.133   0.653 -0.1179  0.2418  0.2663
 8408SOL    HW136686   3.791   0.122   0.694 -0.1048 -3.8830 -0.8772
 8408SOL    HW236687   3.723   0.113   0.561  0.3254  1.4282  0.1016
 8409SOL     OW36688   0.984   0.121  15.319  0.6588 -0.3777 -0.0579
 8409SOL    HW136689   0.956   0.130  15.228 -0.0558 -1.3233  0.0576
 8409SOL    HW236690   0.912   0.165  15.363  0.1274  0.5207 -1.8266
 8410SOL     OW36691   2.756   3.728  13.715  0.9838 -0.5452 -0.3655
 8410SOL    HW136692   2.735   3.654  13.773  0.6757 -0.2431 -0.0867
 8410SOL    HW236693   2.686   3.726  13.649  1.3885 -1.6145 -0.7632
 8411SOL     OW36694   2.597   0.578   8.838 -0.2538 -0.2405  0.1405
 8411SOL    HW136695   2.668   0.600   8.898  0.0128 -1.9442  0.4781
 8411SOL    HW236696   2.608   0.482   8.841  0.3475 -0.1212  2.2525
 8412SOL     OW36697   0.008   3.253   1.626 -0.0190  0.2415  0.1233
 8412SOL    HW136698   4.713   3.231   1.718 -0.4156 -0.5616 -0.1387
 8412SOL    HW236699   0.073   3.323   1.624  0.6526 -0.3671  0.8091
 8413SOL     OW36700   0.780   1.877   7.441  0.1153 -0.4250 -0.3473
 8413SOL    HW136701   0.861   1.841   7.477  0.7054  0.3125 -0.9278
 8413SOL    HW236702   0.823   1.955   7.406 -3.1115 -0.3294 -4.0107
 8414SOL     OW36703   2.734   3.029   5.418  0.3951  0.1547 -0.5480
 8414SOL    HW136704   2.712   3.120   5.398 -0.1028 -0.1374 -1.3315
 8414SOL    HW236705   2.751   3.047   5.510  0.0449  2.1891 -0.8829
 8415SOL     OW36706   3.682   3.571   1.212 -0.0697 -0.2374 -0.1966
 8415SOL    HW136707   3.593   3.595   1.183 -1.0822 -1.8527  1.6463
 8415SOL    HW236708   3.686   3.596   1.304 -2.5831  0.2168 -0.2003
 8416SOL     OW36709   3.969   2.038  12.801 -0.0833 -0.1900  0.0411
 8416SOL    HW136710   3.983   1.957  12.751 -0.3173 -0.7090  0.8120
 8416SOL    HW236711   4.055   2.080  12.797 -1.3332  2.1910 -1.2108
 8417SOL     OW36712   2.929   4.720  14.840 -0.5419  0.0773 -0.4528
 8417SOL    HW136713   2.862   4.657  14.865  0.9596 -1.0189  0.8748
 8417SOL    HW236714   2.886   0.035  14.763  0.1508  2.4747  0.2571
 8418SOL     OW36715   3.186   1.123   1.669 -0.2867 -0.0251 -0.0030
 8418SOL    HW136716   3.107   1.076   1.641 -0.7965  1.6770 -1.4309
 8418SOL    HW236717   3.223   1.143   1.583 -1.1362  5.1744  0.8034
 8419SOL     OW36718   0.042   2.304   8.669 -0.4426 -0.3208 -0.3986
 8419SOL    HW136719   4.679   2.262   8.690  0.0821 -0.0802  2.1458
 8419SOL    HW236720   0.088   2.223   8.649  1.8719  1.2099 -1.2786
 8420SOL     OW36721   2.475   4.361   4.464 -0.5259 -0.2326  0.7909
 8420SOL    HW136722   2.548   4.384   4.522  0.5337 -1.3461 -0.0950
 8420SOL    HW236723   2.403   4.355   4.527 -0.7373  0.9315  0.6630
 8421SOL     OW36724   2.851   2.295  16.647  0.3080 -0.2288 -0.2110
 8421SOL    HW136725   2.925   2.267  16.702  1.1764  1.9361 -0.2784
 8421SOL    HW236726   2.780   2.277  16.708 -1.4804  0.4154 -2.0871
 8422SOL     OW36727   4.444   0.819   7.217  0.1520 -0.0459  0.0394
 8422SOL    HW136728   4.390   0.762   7.272 -0.2411 -1.5759 -1.9376
 8422SOL    HW236729   4.440   0.895   7.275  0.1390  0.4485 -0.6152
 8423SOL     OW36730   4.577   2.613   7.318  0.0902  0.5070  0.2812
 8423SOL    HW136731   4.507   2.679   7.319 -0.8540 -0.4953 -0.4331
 8423SOL    HW236732   4.546   2.535   7.364  0.1401  0.9139  1.0084
 8424SOL     OW36733   1.424   3.581   7.964 -1.0141  0.3097  0.2057
 8424SOL    HW136734   1.335   3.616   7.972 -1.0262  0.5101 -0.8220
 8424SOL    HW236735   1.460   3.603   8.050 -0.3770 -0.7025  0.2052
 8425SOL     OW36736   1.786   0.387   5.824  0.4433  0.5992  0.4352
 8425SOL    HW136737   1.734   0.331   5.766  1.7876 -1.7825  1.4984
 8425SOL    HW236738   1.734   0.453   5.870 -0.3929  1.5737 -1.9067
 8426SOL     OW36739   3.099   4.220   9.231  0.2850 -0.4098  0.1975
 8426SOL    HW136740   3.161   4.280   9.188 -2.8029  0.8368 -2.5044
 8426SOL    HW236741   3.055   4.187   9.153 -0.2173  2.0889 -0.5883
 8427SOL     OW36742   1.440   1.437   2.038 -0.3540 -0.9201  0.2827
 8427SOL    HW136743   1.467   1.345   2.040  1.2585 -0.5270 -2.7296
 8427SOL    HW236744   1.514   1.480   1.996  0.4776 -0.2817  2.4116
 8428SOL     OW36745   3.051   3.741  12.736  0.8354 -0.3940 -0.1442
 8428SOL    HW136746   3.136   3.784  12.746  0.2978  0.6721 -0.1293
 8428SOL    HW236747   3.011   3.776  12.656  0.5233 -1.5004 -0.4602
 8429SOL     OW36748   1.434   3.123  11.117  0.2071  0.0733  0.4392
 8429SOL    HW136749   1.482   3.120  11.035 -2.2532  2.0428 -1.0893
 8429SOL    HW236750   1.506   3.129  11.180 -0.6938  0.8600  1.3915
 8430SOL     OW36751   2.875   1.901  12.390  0.1665 -0.2975 -0.5151
 8430SOL    HW136752   2.892   1.981  12.341  0.5780  1.0396  1.8441
 8430SOL    HW236753   2.794   1.917  12.438  1.0388 -0.4326  1.0163
 8431SOL     OW36754   1.911   2.441   3.259 -0.0460 -0.0360  0.1583
 8431SOL    HW136755   1.872   2.490   3.186  1.1863 -1.0056 -1.1413
 8431SOL    HW236756   1.991   2.433   3.208  0.5671  3.0929  0.6403
 8432SOL     OW36757   2.681   1.042   2.396  0.3988  0.2922  0.1771
 8432SOL    HW136758   2.707   0.966   2.344  2.6728  1.5123 -0.4551
 8432SOL    HW236759   2.756   1.101   2.395  0.2012  0.5438  0.1295
 8433SOL     OW36760   1.688   4.701  14.049  0.3287 -0.4415  0.3633
 8433SOL    HW136761   1.629   0.005  14.121 -0.2423 -0.2459 -0.1674
 8433SOL    HW236762   1.655   4.612  14.052 -1.2837  0.0652 -2.9297
 8434SOL     OW36763   0.295   1.962   1.094  0.0489 -0.3914 -0.0140
 8434SOL    HW136764   0.239   2.022   1.044  0.5774  0.8512  0.8929
 8434SOL    HW236765   0.239   1.945   1.170  1.2153  1.6598  1.3218
 8435SOL     OW36766   1.506   0.780   4.513  0.1074 -0.0195 -0.2886
 8435SOL    HW136767   1.516   0.862   4.562 -0.0798 -0.7100  0.9118
 8435SOL    HW236768   1.490   0.820   4.428 -2.5658 -2.2892 -0.8714
 8436SOL     OW36769   2.174   1.294   9.495 -0.4909 -0.3733  0.0707
 8436SOL    HW136770   2.178   1.282   9.589  3.4578 -0.0330 -0.0182
 8436SOL    HW236771   2.227   1.219   9.467  0.8178  0.0464  1.4426
 8437SOL     OW36772   0.557   1.037  15.646  0.4865  0.4965 -0.1123
 8437SOL    HW136773   0.575   1.105  15.581  0.4322  1.6370  1.0718
 8437SOL    HW236774   0.543   1.096  15.720 -0.9139  0.5079 -0.4063
 8438SOL     OW36775   2.704   0.973   0.568  0.1045  0.2587  0.3317
 8438SOL    HW136776   2.734   0.883   0.553  0.1962  0.0876  1.6001
 8438SOL    HW236777   2.720   1.008   0.480  0.6551 -2.7306 -0.7742
 8439SOL     OW36778   3.886   2.513   6.270 -0.1713 -0.5031 -0.2019
 8439SOL    HW136779   3.977   2.523   6.243  0.6329 -1.6981  2.0300
 8439SOL    HW236780   3.861   2.425   6.243  2.2395 -1.1294 -0.3874
 8440SOL     OW36781   3.823   1.789   9.450  0.5228  0.2292 -0.5901
 8440SOL    HW136782   3.865   1.853   9.507 -0.9702  1.6918 -1.1030
 8440SOL    HW236783   3.730   1.807   9.464  0.5336 -1.2028  1.3032
 8441SOL     OW36784   1.895   0.564  14.555  0.3693 -0.2451  0.3310
 8441SOL    HW136785   1.813   0.567  14.506  1.8102 -1.2575 -2.1548
 8441SOL    HW236786   1.874   0.497  14.619 -0.8758 -0.6021 -0.4547
 8442SOL     OW36787   0.975   0.046   8.679 -0.0788 -0.2158  0.5942
 8442SOL    HW136788   1.055   0.084   8.716  0.7017 -2.6299  1.3940
 8442SOL    HW236789   0.993   4.672   8.671 -0.4372 -0.2253 -0.1487
 8443SOL     OW36790   2.832   1.021  15.379 -0.5319 -0.0192 -0.2913
 8443SOL    HW136791   2.806   1.091  15.319  1.5916  0.4979 -0.6099
 8443SOL    HW236792   2.927   1.032  15.379 -0.4637 -0.5724 -2.0008
 8444SOL     OW36793   4.446   0.374   1.268  0.2189 -0.7483  0.4125
 8444SOL    HW136794   4.454   0.452   1.323 -0.8320 -0.3131 -0.0572
 8444SOL    HW236795   4.404   0.315   1.331 -0.7461 -1.5857 -0.9947
 8445SOL     OW36796   0.021   3.018   6.520 -0.3068  0.1392  0.3315
 8445SOL    HW136797   0.001   2.939   6.471  0.6124  1.6789 -2.5650
 8445SOL    HW236798   4.671   3.009   6.585 -0.7459  0.1276 -0.1472
 8446SOL     OW36799   2.337   2.713   7.428  0.5752 -0.3596  0.7408
 8446SOL    HW136800   2.359   2.696   7.336 -1.7750 -0.4956  0.2102
 8446SOL    HW236801   2.341   2.624   7.464  2.1506 -0.6467 -0.1359
 8447SOL     OW36802   1.156   0.029   4.640 -0.0723  0.2111  0.3617
 8447SOL    HW136803   1.203   4.687   4.584  0.2700 -1.6676  2.7219
 8447SOL    HW236804   1.146   0.111   4.591 -1.9598  0.2121  0.7501
 8448SOL     OW36805   3.867   1.927   5.856  0.0205  0.0622  0.7243
 8448SOL    HW136806   3.869   1.850   5.913 -0.0331 -0.8564 -0.5094
 8448SOL    HW236807   3.797   1.973   5.903 -1.7303  1.4065 -3.2429
 8449SOL     OW36808   1.157   0.385   6.590 -0.6109  0.3313 -0.0998
 8449SOL    HW136809   1.093   0.387   6.662  0.4671 -1.2996  0.9074
 8449SOL    HW236810   1.096   0.386   6.517 -0.7242  1.9651  0.0099
 8450SOL     OW36811   0.713   2.126   4.097  0.1542  0.5858 -0.2058
 8450SOL    HW136812   0.635   2.070   4.090  0.8872 -0.5485  0.7668
 8450SOL    HW236813   0.784   2.083   4.050 -0.2417 -0.6083  0.2796
 8451SOL     OW36814   2.285   1.476  13.075  0.7431 -0.6050 -0.4290
 8451SOL    HW136815   2.306   1.384  13.056 -1.5617 -1.1883 -0.1447
 8451SOL    HW236816   2.333   1.485  13.157  0.1407  0.8271 -0.2374
 8452SOL     OW36817   1.496   4.080   1.827 -0.5119 -0.2248  0.4405
 8452SOL    HW136818   1.538   4.001   1.863 -0.6345 -0.5587 -0.1502
 8452SOL    HW236819   1.410   4.069   1.868  0.1598 -0.6204  1.7614
 8453SOL     OW36820   1.899   3.340   4.133 -0.8371  0.0872 -0.4940
 8453SOL    HW136821   1.858   3.426   4.142 -4.1276 -1.5793  0.3569
 8453SOL    HW236822   1.876   3.297   4.216  1.7472  0.6771  0.5360
 8454SOL     OW36823   0.941   0.501   2.700 -0.7409 -0.0456  0.0889
 8454SOL    HW136824   0.894   0.448   2.636  1.0409 -0.7601 -0.6080
 8454SOL    HW236825   0.977   0.570   2.644  0.6378 -1.2539 -0.5070
 8455SOL     OW36826   3.842   2.782  13.321 -0.2851  0.0259  0.1190
 8455SOL    HW136827   3.778   2.724  13.280  0.5043 -2.5247  2.4188
 8455SOL    HW236828   3.840   2.861  13.267  0.5762 -0.9935 -1.3822
 8456SOL     OW36829   0.541   1.292   6.623  0.1388 -0.5368 -0.0395
 8456SOL    HW136830   0.525   1.366   6.564  2.2538  0.3147  0.4381
 8456SOL    HW236831   0.451   1.275   6.649  0.5750  0.1864  1.9868
 8457SOL     OW36832   0.603   3.565  11.764  0.0293 -0.4142 -0.1712
 8457SOL    HW136833   0.558   3.606  11.838 -0.7315 -2.2805  0.3923
 8457SOL    HW236834   0.571   3.475  11.772 -0.3095 -0.6013 -3.6730
 8458SOL     OW36835   3.604   4.618   2.939 -0.4558 -0.1134  0.3272
 8458SOL    HW136836   3.518   4.604   2.900 -1.1076  2.7971  0.7052
 8458SOL    HW236837   3.655   4.659   2.869  0.0733 -0.2808  0.6154
 8459SOL     OW36838   0.559   2.799   7.812 -0.4801  0.0659  0.0665
 8459SOL    HW136839   0.607   2.780   7.893  1.4234  3.3910 -0.2973
 8459SOL    HW236840   0.502   2.722   7.811 -2.5661  1.6272 -1.6211
 8460SOL     OW36841   4.157   2.998   0.659 -0.2563 -0.2293  0.1395
 8460SOL    HW136842   4.093   2.970   0.724 -0.3402 -0.7923 -0.1841
 8460SOL    HW236843   4.111   3.078   0.633 -2.4076 -0.8487  1.9927
 8461SOL     OW36844   1.043   4.565   7.884  0.2293 -0.4944  0.4998
 8461SOL    HW136845   1.035   4.471   7.869  2.1847 -0.8912  2.0070
 8461SOL    HW236846   0.997   4.571   7.968  2.0895 -2.5817  1.6585
 8462SOL     OW36847   0.194   4.273   3.539  0.0999  0.2218  0.7245
 8462SOL    HW136848   0.138   4.258   3.463 -1.1771 -1.3942  2.0019
 8462SOL    HW236849   0.248   4.346   3.507  0.1455  1.0201  2.6153
 8463SOL     OW36850   0.584   1.796  10.664 -0.2707 -0.2661 -0.4152
 8463SOL    HW136851   0.559   1.723  10.721 -0.6234  0.3783  0.2600
 8463SOL    HW236852   0.677   1.778  10.652  0.3120  0.8697  2.2942
 8464SOL     OW36853   1.277   0.819   1.433 -0.5363  0.3426 -0.4697
 8464SOL    HW136854   1.332   0.809   1.355  0.3643  0.7318  0.1119
 8464SOL    HW236855   1.214   0.889   1.414  0.2940  1.2761  0.2147
 8465SOL     OW36856   3.557   1.836   0.468  0.0397  0.0160  0.1283
 8465SOL    HW136857   3.533   1.753   0.508  0.0048  0.4254  0.9507
 8465SOL    HW236858   3.513   1.904   0.520 -0.3635 -0.0173 -0.1711
 8466SOL     OW36859   1.082   3.195  12.069 -0.4345  0.1310 -0.1404
 8466SOL    HW136860   1.023   3.176  11.996 -0.7254 -0.2899  0.2040
 8466SOL    HW236861   1.019   3.201  12.141  1.4185  1.0384  1.4037
 8467SOL     OW36862   4.132   3.260   5.963  0.1483 -0.0230 -0.1455
 8467SOL    HW136863   4.043   3.236   5.988  0.9260 -2.1415  0.5800
 8467SOL    HW236864   4.124   3.355   5.950  0.4643  0.2426  1.6790
 8468SOL     OW36865   4.212   0.515   9.289 -0.0872  0.7111 -0.3627
 8468SOL    HW136866   4.126   0.487   9.259 -0.2193  0.9626 -0.2164
 8468SOL    HW236867   4.259   0.439   9.255 -0.6463  0.6604 -1.0214
 8469SOL     OW36868   0.318   0.143  11.211  0.3312  0.0069 -0.1055
 8469SOL    HW136869   0.337   0.086  11.137  2.1398 -0.4538  0.7020
 8469SOL    HW236870   0.223   0.135  11.216  0.3832 -0.6804 -0.3507
 8470SOL     OW36871   3.818   1.959  17.017 -0.3196  0.2994  0.2960
 8470SOL    HW136872   3.798   2.028  16.953 -0.9908 -0.2613 -0.0900
 8470SOL    HW236873   3.910   1.935  17.008  0.1215  1.8489  0.5814
 8471SOL     OW36874   4.229   0.905   2.384 -0.2528  0.0327  0.6623
 8471SOL    HW136875   4.276   0.825   2.408  0.3429  0.5358  1.1975
 8471SOL    HW236876   4.224   0.957   2.465  0.1233  2.8197 -1.1004
 8472SOL     OW36877   1.455   0.453  16.267  0.8670 -0.8131  0.4042
 8472SOL    HW136878   1.391   0.505  16.218  1.1234  1.2859  2.3018
 8472SOL    HW236879   1.398   0.396  16.319 -0.0430  0.3177  0.6510
 8473SOL     OW36880   3.548   4.028  16.820 -0.4137  0.3945 -0.1595
 8473SOL    HW136881   3.466   4.046  16.774 -1.1271  0.7057  1.2089
 8473SOL    HW236882   3.558   3.938  16.789  0.5681 -0.0675  1.5295
 8474SOL     OW36883   2.643   0.096   5.289  0.2073  0.1101 -0.0926
 8474SOL    HW136884   2.560   0.077   5.245 -0.1219  2.0513 -0.3168
 8474SOL    HW236885   2.690   0.013   5.290 -1.4440 -0.8182  0.5654
 8475SOL     OW36886   1.779   1.966   9.460 -0.3017 -0.1660 -0.0700
 8475SOL    HW136887   1.801   2.028   9.529 -1.9285 -0.1300  0.4095
 8475SOL    HW236888   1.747   1.889   9.506 -2.1712  1.3489  1.1536
 8476SOL     OW36889   1.274   4.252   6.051  0.1801  0.5631 -0.0497
 8476SOL    HW136890   1.346   4.306   6.019 -0.4357  0.4979 -1.5782
 8476SOL    HW236891   1.272   4.184   5.983 -0.8657  0.5656 -0.0225
 8477SOL     OW36892   1.036   3.816   0.475 -0.0816  0.2855  0.0009
 8477SOL    HW136893   1.049   3.822   0.569 -1.1822 -0.4884  0.2018
 8477SOL    HW236894   1.125   3.830   0.445 -0.3819 -0.7572 -1.3499
 8478SOL     OW36895   0.389   0.931   3.163 -0.3773  0.4210 -0.3059
 8478SOL    HW136896   0.366   0.986   3.088 -1.9377  0.6016  0.2983
 8478SOL    HW236897   0.475   0.899   3.138 -1.3682 -2.6429  0.2047
 8479SOL     OW36898   1.722   2.903   8.631 -0.2332  0.2878 -0.2378
 8479SOL    HW136899   1.812   2.879   8.611  0.2895  3.7820 -2.0852
 8479SOL    HW236900   1.748   2.938   8.717 -3.2968  0.5582  0.5673
 8480SOL     OW36901   2.720   4.415  15.861 -0.4862 -0.1819  0.1481
 8480SOL    HW136902   2.757   4.363  15.933 -2.4777 -1.9752 -0.1314
 8480SOL    HW236903   2.643   4.363  15.841 -0.3856  0.7869 -2.7381
 8481SOL     OW36904   3.882   0.874   0.444 -0.1191  0.6830  0.3374
 8481SOL    HW136905   3.880   0.787   0.404 -1.2683  0.9949 -0.3047
 8481SOL    HW236906   3.974   0.888   0.465 -0.2745 -0.5340  1.7799
 8482SOL     OW36907   0.869   4.368   3.685 -0.0460  0.1956 -0.3093
 8482SOL    HW136908   0.884   4.290   3.739 -0.4179  0.7868  0.6594
 8482SOL    HW236909   0.959   4.398   3.679 -0.0225  0.2145  0.0876
 8483SOL     OW36910   0.281   3.177   5.770  0.2547  0.0872 -0.0710
 8483SOL    HW136911   0.205   3.229   5.794  1.9390  1.0676  3.1254
 8483SOL    HW236912   0.344   3.199   5.839  0.2765  1.6344 -0.5902
 8484SOL     OW36913   2.953   3.165   8.230 -0.2237  0.2223  0.5148
 8484SOL    HW136914   2.920   3.158   8.319 -3.3904 -0.6593 -0.7105
 8484SOL    HW236915   3.030   3.219   8.248  1.6830 -1.1842 -3.2669
 8485SOL     OW36916   4.572   0.985   4.735  0.0948  0.2549 -0.2758
 8485SOL    HW136917   4.525   0.970   4.652  1.0155 -0.0599 -0.7327
 8485SOL    HW236918   4.495   1.003   4.789  0.6505 -0.2856  0.6927
 8486SOL     OW36919   4.448   2.059   4.452  0.0344  0.2575 -0.1912
 8486SOL    HW136920   4.466   2.148   4.481 -5.2200  1.1547  0.3196
 8486SOL    HW236921   4.354   2.045   4.464 -0.7088  4.1803 -1.5101
 8487SOL     OW36922   3.531   2.228  16.786  0.2453 -0.2628 -0.2568
 8487SOL    HW136923   3.539   2.268  16.700 -1.0246  0.7329  0.0821
 8487SOL    HW236924   3.621   2.199  16.795  0.4765  0.6243  0.3066
 8488SOL     OW36925   1.690   3.132   6.437 -0.2806  1.1701  0.2893
 8488SOL    HW136926   1.600   3.126   6.404  0.8111 -4.1385 -1.8565
 8488SOL    HW236927   1.670   3.152   6.528  0.2888  1.5613  0.3221
 8489SOL     OW36928   3.921   2.381  15.577  0.2450 -0.1050  0.3908
 8489SOL    HW136929   3.911   2.304  15.633  1.2544 -0.9385 -0.5809
 8489SOL    HW236930   4.013   2.378  15.551  0.6309 -0.7376  1.8095
 8490SOL     OW36931   0.589   2.474   4.552 -0.5540 -0.3693  0.6114
 8490SOL    HW136932   0.566   2.534   4.482  2.3453  1.6634  1.4374
 8490SOL    HW236933   0.549   2.513   4.629  1.1714 -1.3837  2.0269
 8491SOL     OW36934   1.096   2.301  16.956 -0.0299 -0.2352  0.0584
 8491SOL    HW136935   1.188   2.326  16.954 -0.2497  0.7496  2.1519
 8491SOL    HW236936   1.072   2.340  17.040  2.6042  1.3016  0.0676
 8492SOL     OW36937   2.841   0.266  15.668 -0.2577  0.0731  0.2431
 8492SOL    HW136938   2.811   0.335  15.609  2.7385  0.7836 -0.4079
 8492SOL    HW236939   2.824   0.309  15.752  3.7097  0.0950  1.0139
 8493SOL     OW36940   2.873   1.093   1.360 -0.6893 -0.4001  0.7021
 8493SOL    HW136941   2.851   1.186   1.367 -0.1436 -0.2771  0.8677
 8493SOL    HW236942   2.867   1.078   1.266  2.4835  1.9328  0.1174
 8494SOL     OW36943   1.064   4.096   6.227  0.1811 -0.0907  0.1767
 8494SOL    HW136944   1.049   4.141   6.310  0.5196  0.5798 -0.1303
 8494SOL    HW236945   1.156   4.119   6.216 -0.4617  0.5914 -4.0198
 8495SOL     OW36946   1.742   4.297   2.986 -0.1049 -0.4136 -0.7759
 8495SOL    HW136947   1.687   4.329   2.914  0.5647  0.3801 -0.9486
 8495SOL    HW236948   1.738   4.375   3.041  0.5693 -0.5066 -0.5981
 8496SOL     OW36949   1.624   1.223   3.935  0.3284 -0.2283 -0.4141
 8496SOL    HW136950   1.573   1.145   3.915  0.5076 -0.4350 -0.0707
 8496SOL    HW236951   1.553   1.283   3.959 -0.0857  0.1947 -2.6833
 8497SOL     OW36952   4.613   4.047   4.425  0.0829 -0.2302 -0.2090
 8497SOL    HW136953   4.626   3.970   4.370 -0.0620  0.1666 -0.7953
 8497SOL    HW236954   4.632   4.003   4.508  2.1414 -1.2138 -1.2083
 8498SOL     OW36955   3.282   4.179  12.204 -0.3328  0.2739 -0.3921
 8498SOL    HW136956   3.364   4.224  12.223  0.2635 -0.7487 -0.5290
 8498SOL    HW236957   3.235   4.244  12.152 -1.4872  1.1428  1.7175
 8499SOL     OW36958   1.843   0.600  12.060 -0.3798  0.6005 -0.0086
 8499SOL    HW136959   1.786   0.523  12.061  1.8842 -1.0822  0.2459
 8499SOL    HW236960   1.860   0.617  12.153  2.5071 -1.2253 -0.2044
 8500SOL     OW36961   2.567   4.065  11.889 -0.3375  0.0001  0.6806
 8500SOL    HW136962   2.564   4.018  11.805 -0.3315  0.1988  0.5677
 8500SOL    HW236963   2.650   4.112  11.881 -0.6937  0.9046  2.3635
 8501SOL     OW36964   1.189   0.001  11.460 -0.0535  0.4378  0.8156
 8501SOL    HW136965   1.112   0.039  11.416  0.7819 -1.0394 -1.9327
 8501SOL    HW236966   1.246   4.702  11.386  0.2619  0.5729  1.0264
 8502SOL     OW36967   0.914   2.588  16.334  0.0217 -0.3949  0.9227
 8502SOL    HW136968   0.940   2.514  16.389 -0.5732 -0.5165  1.0421
 8502SOL    HW236969   0.951   2.559  16.250  1.3581 -2.0925  2.1096
 8503SOL     OW36970   3.998   4.363   5.963  0.8487 -1.0857  0.9055
 8503SOL    HW136971   3.998   4.377   5.869  0.5314  1.9040  1.3415
 8503SOL    HW236972   3.994   4.457   5.985  2.5840 -0.5380 -1.1213
 8504SOL     OW36973   4.200   3.476  15.667  0.2324  0.1061 -0.1250
 8504SOL    HW136974   4.142   3.541  15.627 -2.5227 -1.9577  0.4791
 8504SOL    HW236975   4.135   3.406  15.679  0.2344  0.1220 -0.0250
 8505SOL     OW36976   1.584   2.177  14.083  0.4292 -0.4108  0.1359
 8505SOL    HW136977   1.601   2.100  14.138  1.7582  0.9172  1.6168
 8505SOL    HW236978   1.675   2.206  14.071  1.4754 -3.1347  1.2404
 8506SOL     OW36979   3.409   3.191   7.393 -0.3964  0.2692  0.2353
 8506SOL    HW136980   3.431   3.228   7.479 -1.5685  2.6517 -0.4905
 8506SOL    HW236981   3.313   3.191   7.397 -0.3063  1.2598  3.0267
 8507SOL     OW36982   0.348   3.558   7.452  0.8571 -0.3408 -0.7712
 8507SOL    HW136983   0.399   3.550   7.371  2.1238  1.4301 -0.1494
 8507SOL    HW236984   0.326   3.650   7.444 -1.7440 -0.9852 -0.8981
 8508SOL     OW36985   2.407   4.384   5.246 -0.4880 -0.5094  0.2484
 8508SOL    HW136986   2.485   4.387   5.190  0.8457 -0.9436  2.0926
 8508SOL    HW236987   2.346   4.346   5.183 -0.8298  0.8576 -0.2373
 8509SOL     OW36988   2.554   2.161   7.940  0.6277  0.0227 -0.2419
 8509SOL    HW136989   2.603   2.213   8.002  0.1515  2.4786 -1.9063
 8509SOL    HW236990   2.543   2.220   7.864  0.1335 -1.3176 -1.2112
 8510SOL     OW36991   3.706   2.014  10.870 -0.1236 -0.2961  0.3246
 8510SOL    HW136992   3.782   1.955  10.876  0.1601 -0.0878 -1.2808
 8510SOL    HW236993   3.669   1.999  10.957  0.2779  0.4341  0.6181
 8511SOL     OW36994   1.926   1.253   2.447 -0.1321  0.4777  0.5768
 8511SOL    HW136995   1.898   1.259   2.356 -2.6410 -0.5488  1.2979
 8511SOL    HW236996   1.844   1.279   2.489 -1.4911 -2.3274 -0.3624
 8512SOL     OW36997   0.536   3.067   1.918 -0.3156  0.1752 -0.2008
 8512SOL    HW136998   0.615   3.115   1.945 -0.3422 -0.7108  1.4180
 8512SOL    HW236999   0.534   2.990   1.974  0.1639 -0.6967 -1.3865
 8513SOL     OW37000   4.053   2.771   6.383 -0.2339  0.1837  0.3481
 8513SOL    HW137001   3.977   2.713   6.390  0.6867 -0.8233  2.3525
 8513SOL    HW237002   4.126   2.719   6.348 -1.5917 -0.7163 -1.1226
 8514SOL     OW37003   1.965   2.092  10.945 -0.0745  0.1702 -0.0924
 8514SOL    HW137004   1.986   2.146  10.868  1.3200  2.0902  1.6360
 8514SOL    HW237005   2.046   2.042  10.956 -0.6471 -0.4621  1.2764
 8515SOL     OW37006   2.297   3.682   8.198  0.1588 -0.0654 -0.3183
 8515SOL    HW137007   2.216   3.733   8.197  0.3626  0.2555 -0.9299
 8515SOL    HW237008   2.312   3.662   8.106 -0.7011 -0.4455 -0.3700
 8516SOL     OW37009   4.640   3.935   3.395  0.5839  0.4406  0.7442
 8516SOL    HW137010   4.625   4.021   3.356 -0.9219 -0.0753  0.2211
 8516SOL    HW237011   0.007   3.939   3.436  0.4701 -0.6431  1.0759
 8517SOL     OW37012   3.806   1.480   6.310 -0.2898 -0.6953  0.0404
 8517SOL    HW137013   3.872   1.467   6.378  0.5316  1.7591 -0.2718
 8517SOL    HW237014   3.811   1.575   6.297  0.6455 -0.5171  1.7219
 8518SOL     OW37015   4.015   3.728   3.298 -0.2633  0.0518 -0.4607
 8518SOL    HW137016   4.036   3.646   3.254  1.8530  0.2777  0.1385
 8518SOL    HW237017   3.963   3.770   3.229 -1.3708 -2.8876 -1.4395
 8519SOL     OW37018   0.405   2.851   9.314  0.0685 -0.4728  0.0299
 8519SOL    HW137019   0.357   2.860   9.396  1.7742  2.0031  0.7459
 8519SOL    HW237020   0.339   2.795   9.272 -0.9240  1.1832 -0.6252
 8520SOL     OW37021   0.067   0.615  13.794 -0.6545 -0.8274 -0.2766
 8520SOL    HW137022   0.033   0.591  13.880  0.2607  1.5305  0.7483
 8520SOL    HW237023   0.021   0.698  13.781 -0.1674 -0.4646  0.2997
 8521SOL     OW37024   1.719   1.532   2.646 -0.4172 -0.4296  0.3020
 8521SOL    HW137025   1.694   1.459   2.590  1.2768 -0.5610 -0.3078
 8521SOL    HW237026   1.742   1.604   2.587 -0.3247  0.1337  1.0364
 8522SOL     OW37027   1.113   2.829   3.228  0.2045 -0.3142 -0.0039
 8522SOL    HW137028   1.114   2.734   3.237  1.4314 -0.2897  0.0148
 8522SOL    HW237029   1.183   2.847   3.166 -0.5358 -0.2253 -0.8202
 8523SOL     OW37030   0.746   1.129   6.499  0.7712 -0.5543  0.4570
 8523SOL    HW137031   0.686   1.177   6.557  0.5269 -2.3910  1.7124
 8523SOL    HW237032   0.763   1.192   6.429 -1.1005  1.3057  1.6480
 8524SOL     OW37033   2.085   0.068   8.525 -0.0392 -0.3619  0.2303
 8524SOL    HW137034   2.128   0.143   8.483 -2.0796  0.2415 -0.8022
 8524SOL    HW237035   2.146   4.716   8.514 -0.5473 -0.1960 -3.7069
 8525SOL     OW37036   3.329   3.478   4.270  0.6549 -0.0994  0.5619
 8525SOL    HW137037   3.425   3.477   4.265  0.6275  0.4485 -0.0890
 8525SOL    HW237038   3.302   3.390   4.243 -1.3919  1.2356 -1.7890
 8526SOL     OW37039   3.672   0.458   7.146  0.0625  0.0660 -0.2665
 8526SOL    HW137040   3.752   0.501   7.114 -0.7944  1.2226 -0.8671
 8526SOL    HW237041   3.646   0.522   7.211 -0.4774 -0.1925 -0.2288
 8527SOL     OW37042   0.132   1.315   9.344 -0.3185 -0.2870 -0.1766
 8527SOL    HW137043   0.128   1.245   9.410 -1.8196 -1.8295 -1.9029
 8527SOL    HW237044   0.224   1.336   9.334 -0.7932  1.5710 -0.5307
 8528SOL     OW37045   2.912   3.084   3.838  0.5817  0.4726 -0.0180
 8528SOL    HW137046   2.918   3.157   3.899 -1.4992 -0.5382  1.3632
 8528SOL    HW237047   2.905   3.006   3.892  3.5770  0.5789  0.5112
 8529SOL     OW37048   2.027   3.142  13.688 -0.0682  1.1535 -0.4194
 8529SOL    HW137049   2.013   3.072  13.752  1.1771 -0.0337 -1.4379
 8529SOL    HW237050   2.073   3.203  13.746 -0.9975 -0.5685  2.1280
 8530SOL     OW37051   2.498   0.944  11.606  0.3563 -0.4044 -0.0306
 8530SOL    HW137052   2.406   0.954  11.583  0.2722  0.9610  0.8845
 8530SOL    HW237053   2.500   0.907  11.695 -3.2422 -0.7199 -0.1157
 8531SOL     OW37054   3.201   0.385   2.265 -0.0732  0.0520  0.4944
 8531SOL    HW137055   3.273   0.357   2.209  0.9584  3.4803  0.0937
 8531SOL    HW237056   3.240   0.370   2.351 -0.7388 -2.1443  0.4053
 8532SOL     OW37057   0.648   4.535   9.658 -0.0061  0.5181 -0.1294
 8532SOL    HW137058   0.674   4.492   9.739 -3.2886  0.6419  1.0156
 8532SOL    HW237059   0.599   4.610   9.693 -0.3697  0.4163 -0.4200
 8533SOL     OW37060   1.516   4.000   9.610  0.1539 -0.2967 -0.0166
 8533SOL    HW137061   1.481   3.936   9.548  2.7159  0.0611 -1.8219
 8533SOL    HW237062   1.567   4.057   9.552 -0.1066 -0.0002  0.0423
 8534SOL     OW37063   2.894   0.047  15.519  0.3870  0.4963  0.6441
 8534SOL    HW137064   2.851   4.698  15.570 -2.4846  2.2868  0.6500
 8534SOL    HW237065   2.851   0.127  15.548 -0.4804  0.2381  0.0682
 8535SOL     OW37066   3.465   2.949   9.521 -0.7349 -0.4361  0.6308
 8535SOL    HW137067   3.498   2.986   9.603 -0.2786  1.6715 -0.5290
 8535SOL    HW237068   3.405   3.022   9.507 -0.1954 -0.1316 -0.0510
 8536SOL     OW37069   1.832   0.671  11.673 -0.3401  0.1008  0.4028
 8536SOL    HW137070   1.820   0.606  11.743 -1.7281 -0.3279 -0.2284
 8536SOL    HW237071   1.737   0.678  11.664 -0.1113  0.7574 -1.4203
 8537SOL     OW37072   2.104   2.212   3.756  0.2435 -0.8209 -0.4289
 8537SOL    HW137073   2.127   2.147   3.690  0.8319  1.1100 -2.1678
 8537SOL    HW237074   2.129   2.294   3.713 -2.5510 -0.0171 -0.5501
 8538SOL     OW37075   1.713   2.177   2.408  0.5160 -0.0249  0.7167
 8538SOL    HW137076   1.775   2.129   2.462  0.6593  1.2284  1.6685
 8538SOL    HW237077   1.712   2.119   2.332  0.9066  1.6630 -0.5832
 8539SOL     OW37078   1.071   3.384   3.354  0.2410 -0.2715 -0.6038
 8539SOL    HW137079   1.102   3.433   3.278 -0.9273  1.5909  0.0873
 8539SOL    HW237080   0.983   3.366   3.320  0.5323  0.3959 -1.7115
 8540SOL     OW37081   2.385   4.701   5.917  0.7066  0.3631  0.1389
 8540SOL    HW137082   2.314   0.037   5.886 -0.8672 -0.9012  1.4656
 8540SOL    HW237083   2.452   0.048   5.903  0.9224  0.4523  1.6806
 8541SOL     OW37084   4.377   3.269   9.617  0.4031 -0.3138 -0.4661
 8541SOL    HW137085   4.363   3.358   9.585 -1.9480 -1.0903 -1.5857
 8541SOL    HW237086   4.378   3.290   9.710  0.7118  0.2419 -0.5931
 8542SOL     OW37087   4.599   3.302   0.912  1.2080  0.8207  0.0246
 8542SOL    HW137088   4.573   3.303   1.004 -0.3146 -2.7798 -0.3734
 8542SOL    HW237089   4.546   3.227   0.884 -0.0633  1.9464 -0.6079
 8543SOL     OW37090   1.750   3.168   6.069  0.8199 -0.3316 -0.6281
 8543SOL    HW137091   1.760   3.238   6.134  0.8335  0.0718 -1.0573
 8543SOL    HW237092   1.838   3.133   6.082  0.6558 -0.6543 -0.3977
 8544SOL     OW37093   3.450   1.818   5.819 -0.4390  0.0906  0.5595
 8544SOL    HW137094   3.492   1.859   5.895  0.3609  0.7957 -0.2575
 8544SOL    HW237095   3.391   1.890   5.798  0.2892  0.3798 -0.4723
 8545SOL     OW37096   3.670   0.967   7.505  0.0445  0.4144 -0.0626
 8545SOL    HW137097   3.581   0.960   7.539  0.8204  3.3697  2.7005
 8545SOL    HW237098   3.685   1.059   7.530  0.8086  0.2791 -0.0147
 8546SOL     OW37099   1.701   2.486   8.392  0.3218 -0.0578  0.0264
 8546SOL    HW137100   1.706   2.480   8.487 -0.2185 -3.3174 -0.1222
 8546SOL    HW237101   1.692   2.580   8.380  4.5038  0.1040 -1.6059
 8547SOL     OW37102   4.088   3.632   5.649 -0.5814 -0.9006 -0.0620
 8547SOL    HW137103   4.175   3.652   5.684 -0.8519 -0.4415  0.3489
 8547SOL    HW237104   4.063   3.562   5.709 -0.2086 -0.8360  0.1673
 8548SOL     OW37105   3.793   0.373   0.384  0.4929 -0.1462  0.4901
 8548SOL    HW137106   3.787   0.279   0.372 -0.5386 -0.2569  1.7943
 8548SOL    HW237107   3.864   0.385   0.447  1.0265 -1.0584  0.0416
 8549SOL     OW37108   0.091   2.647   1.903 -0.3342 -0.7361 -0.5767
 8549SOL    HW137109   0.119   2.712   1.839 -0.4290 -0.0051  0.1227
 8549SOL    HW237110   0.148   2.661   1.978 -1.9297 -1.5429  0.7814
 8550SOL     OW37111   0.369   1.006   5.894 -0.1106 -0.1489 -0.0590
 8550SOL    HW137112   0.429   0.971   5.828  0.6430  1.6452 -0.3334
 8550SOL    HW237113   0.319   1.063   5.835 -0.1481  0.5603  0.6502
 8551SOL     OW37114   3.903   1.551   3.600  0.3025 -0.1434  0.8861
 8551SOL    HW137115   3.808   1.542   3.609  0.1800 -1.0505 -1.4590
 8551SOL    HW237116   3.912   1.515   3.512 -1.5832 -0.3048  0.7586
 8552SOL     OW37117   1.551   3.769   7.275  0.6195  0.5970 -0.1997
 8552SOL    HW137118   1.550   3.690   7.329 -0.8090  1.4549  1.0299
 8552SOL    HW237119   1.599   3.731   7.201  0.7338  0.9314 -0.2960
 8553SOL     OW37120   4.181   3.646   6.400  0.3515 -1.0894 -0.0708
 8553SOL    HW137121   4.086   3.645   6.406  0.3233  0.9826 -0.2812
 8553SOL    HW237122   4.183   3.596   6.318 -1.2721  2.6797 -2.4075
 8554SOL     OW37123   0.516   1.037   6.114 -0.2427  0.4899 -0.1082
 8554SOL    HW137124   0.465   1.013   6.036  1.0844  0.8933 -1.1140
 8554SOL    HW237125   0.475   0.977   6.175  0.5520  1.1474  1.0591
 8555SOL     OW37126   0.187   0.978   9.358 -0.3968 -0.1222 -0.0852
 8555SOL    HW137127   0.198   0.899   9.305 -3.0944 -0.4830 -0.0976
 8555SOL    HW237128   0.096   0.962   9.383 -0.2633 -1.1628 -0.2612
 8556SOL     OW37129   0.197   2.723   1.302 -0.7465  0.0055  0.0071
 8556SOL    HW137130   0.244   2.806   1.289 -0.2905 -0.2142  0.2386
 8556SOL    HW237131   0.231   2.668   1.232 -1.8526 -1.5183  0.6844
 8557SOL     OW37132   3.767   3.757  10.108  0.1189 -0.0292 -0.1329
 8557SOL    HW137133   3.802   3.831  10.059  1.7927  0.3631  1.6726
 8557SOL    HW237134   3.780   3.787  10.198 -0.4796  1.5525 -0.5778
 8558SOL     OW37135   3.820   3.087   5.666 -0.4144  0.2918 -0.4591
 8558SOL    HW137136   3.889   3.038   5.620 -0.4738  0.3293 -0.5872
 8558SOL    HW237137   3.795   3.019   5.728 -1.0778  2.5208  1.7265
 8559SOL     OW37138   3.128   1.633   0.997  0.7864 -0.7476  0.1066
 8559SOL    HW137139   3.117   1.695   1.069 -1.4059 -0.4977 -0.4387
 8559SOL    HW237140   3.173   1.561   1.042 -1.3433 -1.6356  0.8492
 8560SOL     OW37141   1.113   2.697  17.291 -0.3222 -0.3330 -0.0795
 8560SOL    HW137142   1.091   2.620  17.344  0.0608  0.1941  0.8473
 8560SOL    HW237143   1.124   2.640  17.215  1.5287  1.1401 -0.9239
 8561SOL     OW37144   3.493   1.745   0.831 -0.2377  0.5612  0.1715
 8561SOL    HW137145   3.436   1.669   0.824  1.5313 -0.6505 -0.9827
 8561SOL    HW237146   3.582   1.717   0.814 -1.3577 -2.1084 -1.1069
 8562SOL     OW37147   1.269   2.292   8.139 -0.2726 -0.3579  0.1507
 8562SOL    HW137148   1.218   2.373   8.139  0.6138  0.1946 -1.7719
 8562SOL    HW237149   1.346   2.312   8.193 -0.0004 -2.0364  0.3831
 8563SOL     OW37150   3.538   0.928   3.617 -0.2835  0.1743 -0.1040
 8563SOL    HW137151   3.539   0.853   3.558 -2.1059 -1.1165  1.5290
 8563SOL    HW237152   3.634   0.935   3.619 -0.5270  3.3827  0.3621
 8564SOL     OW37153   3.739   3.490   3.121  0.1802  0.0897  0.8541
 8564SOL    HW137154   3.663   3.518   3.070  1.6615  0.7777 -0.9202
 8564SOL    HW237155   3.728   3.527   3.209  0.4270  2.2343 -0.0303
 8565SOL     OW37156   2.129   1.921   3.228 -0.4589  0.2013 -0.1950
 8565SOL    HW137157   2.093   1.935   3.316  1.5008 -2.0470  0.9513
 8565SOL    HW237158   2.056   1.946   3.171 -0.1957  0.9926 -0.1942
 8566SOL     OW37159   2.183   0.461   8.373 -0.4227  0.5273  0.5113
 8566SOL    HW137160   2.143   0.455   8.286  0.2953 -1.0493  0.2992
 8566SOL    HW237161   2.215   0.373   8.392 -0.7948  1.1478  4.0019
 8567SOL     OW37162   0.147   3.570   4.960  0.3038 -0.2604  0.0130
 8567SOL    HW137163   0.129   3.488   5.006  0.2424  1.2842  2.7149
 8567SOL    HW237164   0.209   3.613   5.019 -3.3855  0.2215  3.4672
 8568SOL     OW37165   2.574   4.112   7.119  0.0203 -0.6647  0.0912
 8568SOL    HW137166   2.517   4.071   7.054 -2.0566 -1.7081  2.5534
 8568SOL    HW237167   2.661   4.084   7.091  0.4415  1.3412 -0.5924
 8569SOL     OW37168   2.301   2.860   5.988  0.4725 -0.0378 -0.1159
 8569SOL    HW137169   2.319   2.944   6.029  1.2133  0.8927 -2.3319
 8569SOL    HW237170   2.335   2.884   5.902 -1.8246 -1.7392 -1.4889
 8570SOL     OW37171   0.609   4.183   6.325  0.2429  0.4318  0.4682
 8570SOL    HW137172   0.541   4.166   6.260  1.7311 -0.3286 -0.9146
 8570SOL    HW237173   0.559   4.247   6.376 -2.1786 -0.7470 -0.4164
 8571SOL     OW37174   3.318   2.350   7.370  0.6706  0.2964 -0.5509
 8571SOL    HW137175   3.257   2.418   7.341 -0.7784 -1.4178 -1.5252
 8571SOL    HW237176   3.273   2.308   7.444  4.3925 -1.1880  0.8403
 8572SOL     OW37177   3.794   4.143   6.103  0.2156  0.2694  0.3886
 8572SOL    HW137178   3.774   4.230   6.136 -0.6667 -0.3697  1.5463
 8572SOL    HW237179   3.830   4.095   6.178 -0.1613 -2.4263 -1.1644
 8573SOL     OW37180   4.598   4.654   1.976  0.0626 -0.0006 -0.4778
 8573SOL    HW137181   4.557   4.657   1.890  1.9201  0.4647 -1.3289
 8573SOL    HW237182   4.673   4.712   1.964  0.7539 -1.1980 -1.8382
 8574SOL     OW37183   4.439   3.041   1.979 -0.1659  0.2012 -0.0891
 8574SOL    HW137184   4.498   2.966   1.975  0.6600  0.8521  0.0101
 8574SOL    HW237185   4.357   2.993   1.971  0.4247 -0.8623  0.3229
 8575SOL     OW37186   0.676   1.694   6.834 -0.3874 -0.2240 -0.4277
 8575SOL    HW137187   0.750   1.634   6.843 -0.9275 -0.4341  2.9122
 8575SOL    HW237188   0.671   1.706   6.740 -0.8770  3.5965  0.0990
 8576SOL     OW37189   3.413   3.138  17.411  0.0098  0.3912 -0.0132
 8576SOL    HW137190   3.503   3.154  17.440 -0.8779  3.4407  1.0529
 8576SOL    HW237191   3.360   3.209  17.448  0.5590  1.1986 -0.7716
 8577SOL     OW37192   0.059   2.612   4.418  0.1418  0.3118 -0.1835
 8577SOL    HW137193   0.025   2.699   4.396 -0.2248  0.7161  2.0034
 8577SOL    HW237194   0.033   2.551   4.349 -0.3012  0.9140 -0.5458
 8578SOL     OW37195   0.693   1.966   3.536  0.1260  0.1382 -0.8490
 8578SOL    HW137196   0.719   1.985   3.446 -0.8747  0.3834 -1.0848
 8578SOL    HW237197   0.607   1.927   3.522 -0.3449  0.6683  0.4985
 8579SOL     OW37198   3.430   0.494   1.337  0.1717  0.5923 -0.0586
 8579SOL    HW137199   3.478   0.422   1.297 -0.4273 -1.0868  2.2370
 8579SOL    HW237200   3.409   0.457   1.423 -0.0193 -1.7845 -1.1405
 8580SOL     OW37201   0.535   3.321   6.596 -0.2692  0.4700 -0.2802
 8580SOL    HW137202   0.606   3.338   6.657 -0.8295 -0.0032  0.4917
 8580SOL    HW237203   0.459   3.317   6.653 -0.1357  1.4970 -0.0289
 8581SOL     OW37204   1.904   0.609   6.910  0.1615 -0.2413 -0.3031
 8581SOL    HW137205   1.915   0.619   7.005  0.2270 -1.1137 -0.2184
 8581SOL    HW237206   1.828   0.667   6.907  1.8110  1.9399  0.1103
 8582SOL     OW37207   1.837   1.813   3.298 -0.5123 -0.3345 -0.3423
 8582SOL    HW137208   1.797   1.779   3.218 -1.2362 -0.3428  0.0164
 8582SOL    HW237209   1.790   1.897   3.294 -1.0367 -0.5030  2.3654
 8583SOL     OW37210   2.766   0.070  12.232 -0.0444  0.0804 -0.1643
 8583SOL    HW137211   2.844   0.061  12.287 -0.5208  1.7153  0.7661
 8583SOL    HW237212   2.722   4.708  12.251  1.5771 -0.8558 -0.4850
 8584SOL     OW37213   1.169   3.781   9.553  0.5002 -0.1239 -0.1114
 8584SOL    HW137214   1.159   3.749   9.643  1.7178 -0.1883 -0.0087
 8584SOL    HW237215   1.263   3.773   9.537 -0.1863 -2.0296 -3.1662
 8585SOL     OW37216   1.266   2.071   2.793  0.5064  0.2067  0.3606
 8585SOL    HW137217   1.176   2.089   2.768  0.9535  0.1572 -1.3114
 8585SOL    HW237218   1.268   1.976   2.784  0.1010  0.1423  0.9307
 8586SOL     OW37219   2.472   0.658   5.859  0.2860  0.3479  0.5816
 8586SOL    HW137220   2.380   0.671   5.884 -0.1335  1.3337 -1.5232
 8586SOL    HW237221   2.496   0.589   5.922  0.4826  1.1313  1.3647
 8587SOL     OW37222   2.795   2.961   4.885  0.0661 -0.0743 -0.1468
 8587SOL    HW137223   2.779   2.955   4.791 -0.0016 -0.1155 -0.1329
 8587SOL    HW237224   2.882   2.923   4.898 -0.1099  0.5498  2.9831
 8588SOL     OW37225   0.015   0.554   8.906  0.0789  0.2908 -0.1161
 8588SOL    HW137226   4.669   0.486   8.896  1.2791 -0.9598  0.5240
 8588SOL    HW237227   0.060   0.536   8.989  0.1917  1.9953  0.1877
 8589SOL     OW37228   4.050   1.083   3.110 -0.1711 -0.7178 -0.0105
 8589SOL    HW137229   4.049   1.179   3.105  1.3123 -0.8389 -2.4133
 8589SOL    HW237230   4.131   1.073   3.161  0.0940 -1.7094 -0.6183
 8590SOL     OW37231   2.432   2.839  14.638  0.2927  0.0055 -0.4333
 8590SOL    HW137232   2.480   2.911  14.679  0.5117  0.5500 -1.6539
 8590SOL    HW237233   2.498   2.773  14.659  3.4490  3.0366 -0.8311
 8591SOL     OW37234   3.258   4.541   6.982 -0.6261  0.5435 -0.5684
 8591SOL    HW137235   3.284   4.502   7.065  0.7219 -2.3146 -2.3539
 8591SOL    HW237236   3.166   4.516   6.982 -0.6628  0.6717 -0.0765
 8592SOL     OW37237   0.623   2.173   3.738  0.2733  0.2009  0.1825
 8592SOL    HW137238   0.657   2.133   3.658 -0.7875  2.6591 -1.5383
 8592SOL    HW237239   0.704   2.212   3.770  0.9317 -0.5451 -0.5866
 8593SOL     OW37240   1.479   0.157  15.492 -0.0632 -0.5135 -0.0218
 8593SOL    HW137241   1.393   0.195  15.478 -0.1875 -0.7653  0.0602
 8593SOL    HW237242   1.470   0.115  15.578  0.4065 -0.3545  0.1068
 8594SOL     OW37243   1.953   3.464   9.096  0.3324  0.4489  0.2946
 8594SOL    HW137244   1.890   3.489   9.028 -0.8922 -0.3263  1.1358
 8594SOL    HW237245   1.893   3.404   9.140  1.7662 -1.7181 -0.6977
 8595SOL     OW37246   2.756   2.703  12.804 -0.1487  0.3700  0.4369
 8595SOL    HW137247   2.681   2.729  12.859 -2.4856 -1.2731 -1.9648
 8595SOL    HW237248   2.807   2.782  12.791  0.3367  0.1157  0.7983
 8596SOL     OW37249   1.749   4.308   7.680  0.1545  0.0364  0.3769
 8596SOL    HW137250   1.747   4.403   7.668  0.8463 -0.1406 -1.2287
 8596SOL    HW237251   1.727   4.300   7.772  1.4070  0.1144  0.6906
 8597SOL     OW37252   3.332   0.972   3.769 -0.1077 -0.2802 -0.3162
 8597SOL    HW137253   3.414   0.941   3.733  0.8413  2.7685 -0.7511
 8597SOL    HW237254   3.286   0.995   3.688  1.5518 -0.9377 -1.4326
 8598SOL     OW37255   2.582   2.263  13.996 -0.5608 -0.1372 -0.3647
 8598SOL    HW137256   2.582   2.230  14.086 -1.9559 -1.0256 -0.6872
 8598SOL    HW237257   2.580   2.359  14.005 -2.5965 -0.2753  0.7548
 8599SOL     OW37258   4.476   1.428  14.644  0.0951  0.4693  0.1852
 8599SOL    HW137259   4.413   1.472  14.588 -1.0076  0.0484  1.0943
 8599SOL    HW237260   4.530   1.505  14.663 -1.2468  1.4588 -0.0582
 8600SOL     OW37261   3.550   0.503   2.776 -0.1991  0.0340  0.0170
 8600SOL    HW137262   3.549   0.413   2.744  0.2844  0.4113 -1.0750
 8600SOL    HW237263   3.587   0.540   2.695 -1.6827  1.3593 -0.0513
 8601SOL     OW37264   1.252   4.623  15.736 -0.6611  0.1208  0.6054
 8601SOL    HW137265   1.236   4.542  15.686  2.6200 -0.4569  0.4873
 8601SOL    HW237266   1.167   4.667  15.733 -0.3278  0.6268 -1.5117
 8602SOL     OW37267   3.057   3.507   9.684  0.3618 -0.4429 -0.0954
 8602SOL    HW137268   2.991   3.466   9.628  0.3227  0.7678 -0.9415
 8602SOL    HW237269   3.125   3.440   9.688 -0.8152 -1.7060 -1.3673
 8603SOL     OW37270   0.888   3.226  11.859 -0.4448  0.0313 -0.6542
 8603SOL    HW137271   0.959   3.245  11.798 -0.9746 -1.0267 -1.6144
 8603SOL    HW237272   0.834   3.166  11.808  0.5744 -1.9286  0.5722
 8604SOL     OW37273   2.613   0.606   3.365 -0.7672  0.1886 -0.2098
 8604SOL    HW137274   2.661   0.573   3.441 -0.2462 -1.6910 -1.3447
 8604SOL    HW237275   2.549   0.666   3.403  0.7838  0.9242  1.2088
 8605SOL     OW37276   4.178   2.173   7.027 -0.2513  0.5180 -0.5268
 8605SOL    HW137277   4.183   2.089   7.073 -0.2713  0.5565 -0.4555
 8605SOL    HW237278   4.097   2.162   6.978  0.0519  0.0998 -0.9369
 8606SOL     OW37279   2.357   3.781   8.733  0.3711  0.3009  0.2272
 8606SOL    HW137280   2.315   3.715   8.788 -1.1744  2.5022  1.6423
 8606SOL    HW237281   2.351   3.733   8.650  2.4119  1.7882 -0.7896
 8607SOL     OW37282   2.094   0.082  17.241 -0.8225 -0.4708  0.4766
 8607SOL    HW137283   2.068   0.154  17.298  0.3785  0.6753 -0.4111
 8607SOL    HW237284   2.181   0.113  17.216 -0.0649 -1.8039  1.5008
 8608SOL     OW37285   4.268   4.276   6.000  0.6897  0.3019  0.1913
 8608SOL    HW137286   4.281   4.205   5.936  1.1199  0.6402 -0.1035
 8608SOL    HW237287   4.177   4.300   5.986  0.0575 -0.4307  3.0748
 8609SOL     OW37288   1.351   0.351  17.663 -0.1978  0.5857 -0.0765
 8609SOL    HW137289   1.359   0.263  17.626 -0.2315 -0.3704  2.2039
 8609SOL    HW237290   1.256   0.345  17.659 -0.2039 -0.3653  1.3124
 8610SOL     OW37291   1.781   0.961   2.335 -0.0486 -0.2511 -0.1717
 8610SOL    HW137292   1.786   1.031   2.270  1.8786  0.7509  1.0658
 8610SOL    HW237293   1.871   0.931   2.337 -0.0892 -0.3814 -0.2813
 8611SOL     OW37294   0.664   3.982  14.000  0.4452 -0.0495 -0.3704
 8611SOL    HW137295   0.592   4.044  14.013  0.8739 -0.0978  2.1041
 8611SOL    HW237296   0.737   4.019  14.051  0.1991  0.7159 -0.5612
 8612SOL     OW37297   4.703   3.336   7.366  0.1975 -0.0962 -0.0721
 8612SOL    HW137298   0.037   3.302   7.438  1.6024 -0.6899 -1.4097
 8612SOL    HW237299   0.040   3.342   7.290 -0.6087 -0.4320 -0.7031
 8613SOL     OW37300   1.458   2.462   2.885  0.1697  0.5434 -0.2637
 8613SOL    HW137301   1.527   2.452   2.818 -0.6187 -0.6094 -0.9090
 8613SOL    HW237302   1.383   2.481   2.829 -0.1070  0.0053 -0.0757
 8614SOL     OW37303   0.971   1.959   3.664  0.3257 -0.2566 -0.1145
 8614SOL    HW137304   0.882   1.955   3.629  0.0839 -1.6835  0.6559
 8614SOL    HW237305   1.021   2.014   3.604 -1.9468  2.4688  0.5315
 8615SOL     OW37306   3.022   2.145   0.049 -0.1399 -0.0858 -0.0902
 8615SOL    HW137307   3.000   2.212   0.113  1.3312  0.3087  0.0074
 8615SOL    HW237308   2.949   2.085   0.062  1.1681 -1.3940  1.3462
 8616SOL     OW37309   0.286   0.277   5.218  0.3322 -0.5334  0.2400
 8616SOL    HW137310   0.329   0.318   5.143  0.1380  1.5080  1.2420
 8616SOL    HW237311   0.312   0.341   5.285 -0.5206  0.4367 -0.3495
 8617SOL     OW37312   1.051   2.203   7.637  0.1833  0.6054 -0.2234
 8617SOL    HW137313   1.078   2.114   7.659 -1.7117 -0.1071 -0.7145
 8617SOL    HW237314   1.075   2.249   7.717 -0.2239  1.3613 -0.5351
 8618SOL     OW37315   4.153   1.913   5.122 -0.3696 -0.0416  0.0950
 8618SOL    HW137316   4.204   1.841   5.159  0.6298  1.2258  1.1980
 8618SOL    HW237317   4.109   1.875   5.046 -0.1807 -0.2649  0.0963
 8619SOL     OW37318   2.064   1.449   7.482  0.1611  0.3275 -0.5720
 8619SOL    HW137319   2.007   1.414   7.413 -1.8802 -0.9468  1.7871
 8619SOL    HW237320   2.087   1.359   7.507 -2.2065  0.4917  2.1030
 8620SOL     OW37321   1.819   0.033   6.473  0.0200 -0.0700 -0.1564
 8620SOL    HW137322   1.860   0.097   6.415 -0.5498 -0.6407 -1.1868
 8620SOL    HW237323   1.900   0.007   6.518 -1.9686 -3.4393  1.4406
 8621SOL     OW37324   2.363   0.612   4.848 -0.2665  0.1189 -0.1099
 8621SOL    HW137325   2.435   0.570   4.801 -0.3084  1.2809 -1.2113
 8621SOL    HW237326   2.404   0.698   4.855 -0.1289  0.2226 -2.0793
 8622SOL     OW37327   1.451   1.588  17.395  0.5259 -0.0314  0.5679
 8622SOL    HW137328   1.357   1.576  17.385  1.2248 -1.9968 -3.3606
 8622SOL    HW237329   1.466   1.628  17.481 -1.1959  2.1478 -0.1511
 8623SOL     OW37330   2.939   1.490   1.623 -0.2208  0.2523 -0.2410
 8623SOL    HW137331   2.876   1.516   1.690 -0.3276  0.9391 -0.6110
 8623SOL    HW237332   3.022   1.515   1.663  0.9987 -1.0706 -1.9378
 8624SOL     OW37333   0.101   0.914   6.024 -0.0703  0.0611  0.6561
 8624SOL    HW137334   0.196   0.902   6.019  0.0483  0.2269  2.7142
 8624SOL    HW237335   0.101   0.986   5.961  0.2961 -0.1376  0.4227
 8625SOL     OW37336   1.285   3.706  13.096  0.3038  0.4295  0.0741
 8625SOL    HW137337   1.287   3.683  13.003 -1.2505 -2.1124  0.6626
 8625SOL    HW237338   1.236   3.788  13.098  1.8403  1.3900 -1.3910
 8626SOL     OW37339   3.774   1.150   8.931  0.6308  0.1163 -0.0657
 8626SOL    HW137340   3.836   1.138   9.004  1.1208  2.7568 -0.0396
 8626SOL    HW237341   3.801   1.238   8.905  2.5885  0.3259  2.6626
 8627SOL     OW37342   2.147   4.338   8.324  0.0089 -0.0949 -0.4644
 8627SOL    HW137343   2.207   4.271   8.290 -1.6442 -1.1447 -1.3057
 8627SOL    HW237344   2.091   4.354   8.248 -1.0257 -1.0580  0.1015
 8628SOL     OW37345   0.301   0.693   3.864  0.4233  0.2037  0.0907
 8628SOL    HW137346   0.298   0.788   3.859 -1.6102  0.1759  0.9591
 8628SOL    HW237347   0.324   0.693   3.957  1.5735 -1.3993 -0.1825
 8629SOL     OW37348   3.497   3.995  11.082 -0.2002 -0.2010 -0.4287
 8629SOL    HW137349   3.550   3.939  11.026 -0.7421 -1.4536  0.3132
 8629SOL    HW237350   3.529   4.071  11.034 -0.9464 -0.7554 -1.8220
 8630SOL     OW37351   3.589   1.537   7.787 -0.0403  0.2486 -0.0491
 8630SOL    HW137352   3.604   1.625   7.822  0.3437  0.1866 -0.0545
 8630SOL    HW237353   3.603   1.490   7.869 -2.0442 -0.2316  0.0045
 8631SOL     OW37354   4.407   4.692   4.039  0.0251 -0.0106 -0.0300
 8631SOL    HW137355   4.500   4.676   4.021 -0.5476 -0.7104 -2.3816
 8631SOL    HW237356   4.363   4.691   3.954 -0.8890  0.2780  0.4439
 8632SOL     OW37357   0.116   2.657   5.603  0.1943  0.1435 -0.1276
 8632SOL    HW137358   0.131   2.742   5.643 -0.4216  0.9426 -1.5859
 8632SOL    HW237359   0.152   2.676   5.517 -2.2758 -0.1931 -1.2518
 8633SOL     OW37360   2.873   2.239   2.271  0.0588  0.2493  0.1680
 8633SOL    HW137361   2.810   2.311   2.277 -0.5660 -0.3926  1.3188
 8633SOL    HW237362   2.810   2.177   2.235 -2.6493  2.7224  0.6274
 8634SOL     OW37363   2.255   3.547   4.387  0.4920 -0.0694 -0.2264
 8634SOL    HW137364   2.292   3.550   4.475 -0.2123 -1.1291  0.1095
 8634SOL    HW237365   2.331   3.588   4.345  0.5503  0.1768  0.1158
 8635SOL     OW37366   1.298   4.110   8.149 -0.2074  0.1473  0.2299
 8635SOL    HW137367   1.276   4.029   8.196  1.0163  0.0073  0.5695
 8635SOL    HW237368   1.361   4.067   8.092 -1.6697 -2.0089  0.2163
 8636SOL     OW37369   0.758   2.696   8.940  0.2738  0.1335 -0.7635
 8636SOL    HW137370   0.667   2.696   8.971 -0.1566 -3.7719 -2.1295
 8636SOL    HW237371   0.749   2.654   8.855 -2.2930 -0.3245 -0.2661
 8637SOL     OW37372   1.204   0.068  12.666 -0.0574  0.2665 -0.3278
 8637SOL    HW137373   1.157   0.108  12.592 -1.5061 -1.5032 -0.3639
 8637SOL    HW237374   1.273   0.025  12.614 -0.6329 -1.3156  0.2175
 8638SOL     OW37375   0.784   1.625   3.778 -0.4394 -0.4329 -0.2324
 8638SOL    HW137376   0.838   1.610   3.855 -1.0096  1.8732  0.6013
 8638SOL    HW237377   0.851   1.644   3.712  0.4977 -1.2511  0.4646
 8639SOL     OW37378   3.339   2.898   3.292 -0.1581  0.3376  0.1239
 8639SOL    HW137379   3.314   2.845   3.367  3.5775 -2.3824 -0.5264
 8639SOL    HW237380   3.273   2.866   3.230 -1.7687 -1.2720  2.6830
 8640SOL     OW37381   2.588   0.363   8.116 -0.1261  0.1544  0.4253
 8640SOL    HW137382   2.594   0.406   8.202 -0.2981 -0.8103  0.9122
 8640SOL    HW237383   2.492   0.368   8.114 -0.2085 -1.0917  1.5238
 8641SOL     OW37384   1.983   1.766   0.285  0.8486  0.7600 -0.4886
 8641SOL    HW137385   1.963   1.823   0.359  2.0143  0.3063  0.1729
 8641SOL    HW237386   1.915   1.698   0.289  1.2628  0.4804  1.7664
 8642SOL     OW37387   1.915   3.331   2.732  0.0971  0.3974  0.1741
 8642SOL    HW137388   1.843   3.302   2.789 -1.2851  2.1852 -0.6945
 8642SOL    HW237389   1.872   3.389   2.670  1.0119  0.2804 -0.5699
 8643SOL     OW37390   2.371   3.182  13.091  0.2604 -0.1800  0.4151
 8643SOL    HW137391   2.466   3.187  13.079 -0.0813 -0.1097 -2.3682
 8643SOL    HW237392   2.353   3.100  13.044 -0.4292 -0.9242  1.9604
 8644SOL     OW37393   2.509   3.365  11.105 -0.0607  0.5575  0.1211
 8644SOL    HW137394   2.588   3.338  11.151 -0.7153 -1.7991 -0.1411
 8644SOL    HW237395   2.441   3.343  11.169 -0.3389  0.1892 -0.3008
 8645SOL     OW37396   3.845   3.966   4.073  0.1664 -0.0649 -0.0789
 8645SOL    HW137397   3.858   3.920   3.990 -0.5117  2.1064 -1.3823
 8645SOL    HW237398   3.894   3.916   4.139 -1.8558  0.4768  1.8074
 8646SOL     OW37399   1.113   4.356   7.083  0.1815 -0.7691  0.2735
 8646SOL    HW137400   1.184   4.347   7.020  0.8061  1.1520  0.6958
 8646SOL    HW237401   1.149   4.294   7.146 -2.6410 -1.6851  0.9772
 8647SOL     OW37402   2.853   1.833  11.436  0.2448 -0.2379  0.2100
 8647SOL    HW137403   2.780   1.791  11.480  1.1987  1.5144  3.4289
 8647SOL    HW237404   2.805   1.908  11.401  0.4091  0.2401  1.0188
 8648SOL     OW37405   3.877   0.776   8.433 -0.1148 -0.0469 -0.2414
 8648SOL    HW137406   3.906   0.848   8.489  1.5273 -0.7688 -0.1757
 8648SOL    HW237407   3.949   0.771   8.370  0.7588 -2.0974  0.9102
 8649SOL     OW37408   3.373   0.495   7.207  0.1738  0.5663 -0.4613
 8649SOL    HW137409   3.400   0.406   7.229 -1.8245 -0.1094 -0.7583
 8649SOL    HW237410   3.388   0.550   7.285  0.2175  3.3712 -2.4468
 8650SOL     OW37411   3.404   0.932   9.362  0.1191  0.2214 -0.6581
 8650SOL    HW137412   3.482   0.927   9.306 -0.0178  0.9236 -0.9106
 8650SOL    HW237413   3.332   0.907   9.304 -0.0481  0.9192 -0.7462
 8651SOL     OW37414   1.192   4.517   2.755 -0.5859  0.2614 -0.2635
 8651SOL    HW137415   1.148   4.505   2.670 -0.2750 -0.3921 -0.3348
 8651SOL    HW237416   1.244   4.436   2.752 -1.9314 -0.6396  1.0408
 8652SOL     OW37417   2.553   3.209   6.159 -0.1619  0.4691 -0.4765
 8652SOL    HW137418   2.580   3.194   6.250  0.4786 -1.4123 -0.9728
 8652SOL    HW237419   2.636   3.239   6.124  0.6354 -1.1337  0.0254
 8653SOL     OW37420   2.698   3.795   9.088  0.1691 -0.4209 -0.0331
 8653SOL    HW137421   2.667   3.709   9.059  0.6927  0.2283 -2.4458
 8653SOL    HW237422   2.722   3.775   9.179 -0.4804 -1.0572 -0.0027
 8654SOL     OW37423   2.536   1.386   5.886  0.1484 -0.2153  0.3186
 8654SOL    HW137424   2.530   1.292   5.898  0.6093 -0.7248 -3.4995
 8654SOL    HW237425   2.499   1.398   5.799  0.2545  2.0354  0.5837
 8655SOL     OW37426   1.874   4.471   7.175 -0.4509 -0.5368 -0.4336
 8655SOL    HW137427   1.806   4.538   7.172 -1.4391 -1.5527 -0.5381
 8655SOL    HW237428   1.925   4.477   7.094  1.7571 -0.0018  0.9920
 8656SOL     OW37429   4.426   1.638  13.660 -0.0841 -0.3409 -0.1071
 8656SOL    HW137430   4.510   1.641  13.705  0.8405  1.5970 -1.9174
 8656SOL    HW237431   4.420   1.554  13.613  0.5170 -0.1311 -0.5689
 8657SOL     OW37432   4.577   2.183   3.423 -0.3067  0.1547 -0.4356
 8657SOL    HW137433   4.642   2.145   3.364  1.2439  1.3138  0.5274
 8657SOL    HW237434   4.491   2.150   3.395 -0.8814  1.5878 -0.3339
 8658SOL     OW37435   3.143   3.044   7.738  0.4025  0.2968 -0.2963
 8658SOL    HW137436   3.179   2.983   7.803 -3.7081  0.9528  2.6313
 8658SOL    HW237437   3.214   3.108   7.736  1.5585 -1.0717 -2.7078
 8659SOL     OW37438   0.827   3.980  12.998  0.3535  0.4617 -0.1600
 8659SOL    HW137439   0.891   3.936  12.942 -0.6809  0.8111 -1.6192
 8659SOL    HW237440   0.808   3.904  13.053 -0.3404  0.3571 -0.5457
 8660SOL     OW37441   1.166   1.262   4.093  0.1591  0.1496 -0.8740
 8660SOL    HW137442   1.101   1.244   4.161  2.3154  1.4155  1.5551
 8660SOL    HW237443   1.212   1.178   4.101  0.2605  0.1139 -1.8723
 8661SOL     OW37444   0.337   0.737  12.326  0.0723 -0.5273 -0.6204
 8661SOL    HW137445   0.333   0.674  12.398 -1.3423 -1.1649 -1.2478
 8661SOL    HW237446   0.292   0.688  12.257 -0.6864  0.4486 -0.8147
 8662SOL     OW37447   2.962   3.898   2.584  0.0441 -0.2817  0.6806
 8662SOL    HW137448   2.948   3.853   2.500 -0.4409  1.6703 -0.2882
 8662SOL    HW237449   2.993   3.983   2.552 -2.1610  0.3840  0.3511
 8663SOL     OW37450   3.883   3.457   7.896 -0.1745  0.6586 -0.1068
 8663SOL    HW137451   3.816   3.526   7.895 -1.2963 -0.4074  1.7211
 8663SOL    HW237452   3.962   3.511   7.897 -1.0362  1.9593 -1.8091
 8664SOL     OW37453   2.191   0.711   6.463  0.3435  0.3609 -0.3434
 8664SOL    HW137454   2.207   0.790   6.515 -2.0358  0.0487  0.8479
 8664SOL    HW237455   2.098   0.727   6.449  0.7357  2.0599 -1.0591
 8665SOL     OW37456   2.756   3.967  15.484 -0.1398 -0.1567 -0.4195
 8665SOL    HW137457   2.673   3.979  15.528  0.4156  0.2082  0.5348
 8665SOL    HW237458   2.777   4.054  15.449 -2.1166  0.3776 -0.2605
 8666SOL     OW37459   3.184   0.176   4.539  0.4662 -1.0240  0.2907
 8666SOL    HW137460   3.262   0.157   4.488  1.7339  0.6004  1.6446
 8666SOL    HW237461   3.170   0.268   4.518  1.9015 -0.9674 -0.4165
 8667SOL     OW37462   0.698   2.355   3.482 -0.0337 -0.1384 -0.1904
 8667SOL    HW137463   0.740   2.348   3.567 -0.4588  0.6324  0.0843
 8667SOL    HW237464   0.766   2.389   3.424 -0.2179  0.9011  0.2030
 8668SOL     OW37465   2.721   0.892  15.835  0.1251  0.3896 -0.0553
 8668SOL    HW137466   2.728   0.957  15.764 -2.9833 -0.7796 -1.4123
 8668SOL    HW237467   2.626   0.888  15.833  0.3043 -2.7212 -2.5886
 8669SOL     OW37468   3.429   0.215   5.855 -0.1673 -0.2439  0.2482
 8669SOL    HW137469   3.454   0.289   5.909  1.4878 -0.5255 -0.1192
 8669SOL    HW237470   3.442   0.144   5.919  0.1262 -1.3052 -0.9766
 8670SOL     OW37471   3.829   1.584  16.936  0.1110  0.5069  0.8918
 8670SOL    HW137472   3.810   1.650  17.003 -1.9193 -1.1571  1.9685
 8670SOL    HW237473   3.823   1.642  16.860 -2.3817  0.1196  0.7813
 8671SOL     OW37474   3.449   1.558  10.665 -0.7407  0.2021 -0.3033
 8671SOL    HW137475   3.413   1.473  10.691  1.0639 -0.0203  1.4210
 8671SOL    HW237476   3.378   1.602  10.617 -0.3445  1.0458 -0.1286
 8672SOL     OW37477   1.166   2.958   6.938  0.5876 -0.1440 -0.4162
 8672SOL    HW137478   1.147   3.042   6.980  1.0039 -0.0176 -0.4892
 8672SOL    HW237479   1.211   2.988   6.859 -2.7050  2.4352 -1.3301
 8673SOL     OW37480   2.572   2.373  14.485 -0.0543  0.2806  0.3514
 8673SOL    HW137481   2.498   2.311  14.485 -1.3874  1.8952 -0.8226
 8673SOL    HW237482   2.544   2.430  14.556 -0.5815  0.4262  0.0283
 8674SOL     OW37483   0.714   2.041   2.605 -0.0882  0.2584  0.2480
 8674SOL    HW137484   0.620   2.025   2.608  0.4146 -2.4380  1.1949
 8674SOL    HW237485   0.751   1.954   2.618 -1.4497 -0.4028 -0.3446
 8675SOL     OW37486   0.977   2.796   8.526 -0.4308 -0.1322 -0.3403
 8675SOL    HW137487   1.028   2.847   8.464 -0.6815 -0.1230 -0.5412
 8675SOL    HW237488   1.051   2.770   8.580 -0.9479  1.2314  1.0242
 8676SOL     OW37489   4.321   2.393   2.597 -0.3383  0.4526  0.2787
 8676SOL    HW137490   4.263   2.320   2.574 -0.4402  0.0958  1.6865
 8676SOL    HW237491   4.363   2.367   2.679 -0.1745  0.2822  0.1394
 8677SOL     OW37492   3.509   0.275   2.369  0.0521 -0.4753  0.3562
 8677SOL    HW137493   3.513   0.249   2.277 -0.5329  1.0236 -0.0964
 8677SOL    HW237494   3.451   0.212   2.410 -0.0696 -1.1815 -0.9113
 8678SOL     OW37495   1.373   4.534   1.606 -0.8213 -0.2337 -0.1194
 8678SOL    HW137496   1.464   4.513   1.626 -1.7741 -2.2881  2.1044
 8678SOL    HW237497   1.332   4.449   1.622 -0.5194  0.2745  3.5334
 8679SOL     OW37498   0.712   3.359   5.653 -0.2541  0.4400 -0.0111
 8679SOL    HW137499   0.746   3.270   5.660 -0.9255  0.1087 -0.9887
 8679SOL    HW237500   0.705   3.382   5.746 -1.5313  0.0607 -0.0038
 8680SOL     OW37501   2.171   4.365   0.671 -0.0817 -0.5988  0.0636
 8680SOL    HW137502   2.210   4.445   0.705  0.7454  0.0182 -2.3476
 8680SOL    HW237503   2.135   4.398   0.589  2.6569  1.1078 -0.4353
 8681SOL     OW37504   0.017   0.581   6.873  0.1873  0.3182 -0.1135
 8681SOL    HW137505   4.720   0.651   6.935  0.7147 -0.0672  0.4687
 8681SOL    HW237506   0.030   0.511   6.936 -1.7398  0.5804  0.5483
 8682SOL     OW37507   3.984   0.863   6.444 -0.3878 -0.5409 -0.2245
 8682SOL    HW137508   4.053   0.874   6.379 -0.4225 -1.5863 -0.4465
 8682SOL    HW237509   4.011   0.923   6.513  0.7346  0.6536 -1.7038
 8683SOL     OW37510   2.020   0.039   2.382 -0.1865  0.3468 -0.1790
 8683SOL    HW137511   1.931   0.006   2.369  0.5653 -2.6835  2.3977
 8683SOL    HW237512   2.053   4.707   2.455 -3.2052 -0.4823  0.5963
 8684SOL     OW37513   4.705   4.030   8.528  0.0963 -0.1044 -0.6178
 8684SOL    HW137514   4.643   3.968   8.490 -0.2348  0.0300 -0.2999
 8684SOL    HW237515   4.680   4.109   8.480 -1.7787  0.6373  1.6152
 8685SOL     OW37516   2.850   2.697   3.039  0.2720 -0.0376 -0.2879
 8685SOL    HW137517   2.813   2.609   3.034  2.8973 -1.1344 -0.3185
 8685SOL    HW237518   2.917   2.687   2.971  0.6415 -1.5852  0.3010
 8686SOL     OW37519   4.065   1.857   9.790  0.1979 -0.1988 -0.3279
 8686SOL    HW137520   4.030   1.907   9.864 -0.4396 -2.1664  0.7084
 8686SOL    HW237521   4.030   1.906   9.716  1.4315  0.3393 -0.5484
 8687SOL     OW37522   4.613   1.943   3.991 -0.1641  0.5863  0.0987
 8687SOL    HW137523   4.676   1.984   4.051 -1.5004  0.1059  1.8229
 8687SOL    HW237524   4.587   1.889   4.066 -1.5617  2.7733  1.1557
 8688SOL     OW37525   3.225   1.358   8.987 -0.3855 -0.1131  0.4445
 8688SOL    HW137526   3.172   1.336   9.063  0.3481 -1.6135  0.5277
 8688SOL    HW237527   3.162   1.416   8.944 -1.7478 -1.0797  1.1207
 8689SOL     OW37528   0.602   2.901   6.836  0.1899  0.4082 -0.2431
 8689SOL    HW137529   0.544   2.970   6.866 -0.2331  0.7009 -1.7298
 8689SOL    HW237530   0.654   2.888   6.915 -1.7089  0.8719  1.0888
 8690SOL     OW37531   3.215   1.311   7.922  0.3554 -0.2670 -0.1121
 8690SOL    HW137532   3.242   1.325   8.013 -2.0248  0.0228  0.5560
 8690SOL    HW237533   3.233   1.395   7.879  0.0406 -0.4000 -0.5031
 8691SOL     OW37534   3.162   1.262  13.471  0.1812  0.4416  0.0722
 8691SOL    HW137535   3.120   1.268  13.557  1.0154  0.4752  0.4878
 8691SOL    HW237536   3.146   1.343  13.424  0.8058  0.3486 -0.3068
 8692SOL     OW37537   0.544   4.627   2.343  0.0388 -0.6674 -0.5518
 8692SOL    HW137538   0.566   4.587   2.259 -1.2613  0.4579 -1.4372
 8692SOL    HW237539   0.465   4.679   2.328 -0.1201 -0.7356  0.0535
 8693SOL     OW37540   1.315   4.559   5.507 -0.3023 -0.1822 -0.2985
 8693SOL    HW137541   1.302   4.466   5.492 -1.4350  0.0763 -0.9248
 8693SOL    HW237542   1.236   4.581   5.557  0.9223 -2.7470  2.7533
 8694SOL     OW37543   2.842   2.116   9.454 -0.4377 -0.2481 -0.7770
 8694SOL    HW137544   2.844   2.025   9.423  2.1833 -0.1257 -1.0100
 8694SOL    HW237545   2.753   2.140   9.428  0.1317  0.7228 -1.8317
 8695SOL     OW37546   0.909   1.183  16.057 -0.8964 -0.2286  0.2844
 8695SOL    HW137547   0.882   1.177  16.148 -1.6437 -0.8552  0.0230
 8695SOL    HW237548   0.838   1.225  16.009 -0.5882  1.8086  1.6256
 8696SOL     OW37549   1.529   3.288   3.844  0.8504 -0.2279  0.3076
 8696SOL    HW137550   1.589   3.358   3.820 -1.2094  0.8585 -1.6681
 8696SOL    HW237551   1.475   3.337   3.906 -0.9231  0.1963 -1.5674
 8697SOL     OW37552   1.762   4.635   3.421  0.2019 -0.0337  0.2190
 8697SOL    HW137553   1.844   4.681   3.398 -0.0360  0.5833  0.6009
 8697SOL    HW237554   1.775   4.630   3.516 -0.9962  0.6956  0.4150
 8698SOL     OW37555   1.537   0.579   2.978  0.3092  0.0078  0.4271
 8698SOL    HW137556   1.519   0.664   2.939  1.2767 -1.1455 -2.5489
 8698SOL    HW237557   1.632   0.578   2.967  0.3364  2.1151  0.6004
 8699SOL     OW37558   2.336   1.870   5.865  0.4159 -0.1239 -0.7785
 8699SOL    HW137559   2.362   1.940   5.925 -0.3723  0.2392 -0.8704
 8699SOL    HW237560   2.420   1.831   5.839  0.4316 -0.4424 -0.2621
 8700SOL     OW37561   0.107   0.077   5.450 -0.3850 -1.0390 -0.1426
 8700SOL    HW137562   0.039   0.056   5.514 -0.0301 -1.0155  0.2388
 8700SOL    HW237563   0.073   0.162   5.423  3.9274  1.3649  2.0694
 8701SOL     OW37564   0.837   2.957   4.593 -0.6453 -0.0133 -0.4322
 8701SOL    HW137565   0.889   3.003   4.527  0.9610  1.0454  1.5382
 8701SOL    HW237566   0.746   2.952   4.562 -0.2213  2.0855 -2.0543
 8702SOL     OW37567   2.845   2.460   0.474 -0.5636 -0.2651  0.4816
 8702SOL    HW137568   2.787   2.526   0.512 -0.8778 -0.7150  0.7807
 8702SOL    HW237569   2.826   2.378   0.519 -2.9411  0.6345  1.0856
 8703SOL     OW37570   1.403   0.625  16.497 -0.5492 -0.3748  0.7510
 8703SOL    HW137571   1.308   0.630  16.482  0.1105  1.2918 -2.7941
 8703SOL    HW237572   1.430   0.562  16.430  3.8855  1.6628  0.5992
 8704SOL     OW37573   1.612   1.434   3.447  0.1293  0.5548  0.2967
 8704SOL    HW137574   1.544   1.393   3.501  0.2430 -0.7367 -0.5627
 8704SOL    HW237575   1.613   1.521   3.489  0.3764 -1.1059  3.7161
 8705SOL     OW37576   1.064   0.774   2.716 -0.7042  0.4403  0.1011
 8705SOL    HW137577   1.075   0.776   2.621 -1.4961 -4.0712 -0.1167
 8705SOL    HW237578   1.060   0.869   2.719 -3.3447  0.3099  1.1187
 8706SOL     OW37579   1.892   3.994  11.380 -0.0766  0.5458  0.3643
 8706SOL    HW137580   1.802   3.961  11.387 -0.2601  1.3292  1.5830
 8706SOL    HW237581   1.914   4.019  11.469 -1.0408  0.2266  0.6934
 8707SOL     OW37582   2.800   0.450   5.086 -0.4650  0.0905 -0.1927
 8707SOL    HW137583   2.719   0.399   5.076 -0.3265 -0.5138  1.7863
 8707SOL    HW237584   2.765   0.508   5.154  2.4675  1.4523  0.1290
 8708SOL     OW37585   2.259   0.564  13.617  0.2161  0.0154  0.6336
 8708SOL    HW137586   2.277   0.544  13.709  1.7866 -0.7938  0.1475
 8708SOL    HW237587   2.190   0.631  13.619 -1.5868 -1.7816 -0.6684
 8709SOL     OW37588   2.857   4.235  14.923  0.5729 -0.1222  0.0223
 8709SOL    HW137589   2.775   4.199  14.889  0.0899  0.5294  0.5021
 8709SOL    HW237590   2.919   4.176  14.879  0.3061 -0.1951 -0.2539
 8710SOL     OW37591   1.494   2.022   2.007 -0.1032  0.5727  0.0708
 8710SOL    HW137592   1.400   2.004   2.006 -0.1650  0.8381  0.9174
 8710SOL    HW237593   1.499   2.106   1.960 -0.9601  0.0383 -0.9732
 8711SOL     OW37594   3.163   3.322  12.441 -0.0505 -0.2417 -0.0161
 8711SOL    HW137595   3.071   3.344  12.427 -0.3766 -1.6715 -0.1332
 8711SOL    HW237596   3.201   3.392  12.388  1.5684  0.6671  2.3504
 8712SOL     OW37597   4.454   1.772  11.668 -0.7424 -0.3049  0.1039
 8712SOL    HW137598   4.527   1.725  11.628 -0.6727 -0.1026 -0.0025
 8712SOL    HW237599   4.404   1.690  11.676  0.2026 -0.9887 -1.0317
 8713SOL     OW37600   2.036   0.386   0.533  0.1688  0.2458  0.1439
 8713SOL    HW137601   1.949   0.413   0.502  0.8969  0.9507 -1.2634
 8713SOL    HW237602   2.012   0.308   0.583  0.1777  0.0712 -0.1264
 8714SOL     OW37603   3.373   1.152  11.174 -0.2398 -0.3132 -0.0287
 8714SOL    HW137604   3.296   1.158  11.232 -0.9803  1.0569 -1.1516
 8714SOL    HW237605   3.361   1.241  11.141  1.0037 -0.2950 -0.3960
 8715SOL     OW37606   3.383   3.222  11.902 -0.0652  0.2935  0.2461
 8715SOL    HW137607   3.295   3.260  11.904  0.4746  1.3428  3.3961
 8715SOL    HW237608   3.362   3.131  11.883  1.3350 -0.0359  0.2472
 8716SOL     OW37609   4.178   4.224   2.809  0.1126 -0.6002 -0.3991
 8716SOL    HW137610   4.126   4.290   2.762  0.0156  0.2372  0.8715
 8716SOL    HW237611   4.230   4.184   2.740  0.6835 -2.4040  1.0959
 8717SOL     OW37612   0.734   3.343   0.232  0.5463 -0.0181 -0.3592
 8717SOL    HW137613   0.827   3.323   0.240  0.8633  0.9734 -1.6651
 8717SOL    HW237614   0.740   3.425   0.183 -2.4174  1.2062  1.3039
 8718SOL     OW37615   4.461   1.893   8.467 -0.1378 -0.7759 -0.0520
 8718SOL    HW137616   4.555   1.881   8.472  0.2094  1.6170 -0.5383
 8718SOL    HW237617   4.433   1.806   8.438 -0.5409 -0.8944  0.6874
 8719SOL     OW37618   2.359   0.233   5.731 -0.4361 -0.4383 -0.0146
 8719SOL    HW137619   2.326   0.182   5.657  1.5486 -0.1368 -1.0955
 8719SOL    HW237620   2.332   0.322   5.711  0.7225  0.1766  1.1029
 8720SOL     OW37621   3.964   4.344   0.474  0.5232 -0.1012 -0.1781
 8720SOL    HW137622   3.997   4.291   0.547 -0.0204 -1.4676 -0.9196
 8720SOL    HW237623   3.963   4.275   0.407  2.1578  0.0647 -0.3735
 8721SOL     OW37624   2.433   1.883  17.075  0.4275 -0.0298  0.4984
 8721SOL    HW137625   2.509   1.915  17.026  0.8758  1.2820  2.0494
 8721SOL    HW237626   2.431   1.793  17.042 -2.7901 -0.6906  2.4330
 8722SOL     OW37627   0.402   4.466   2.665 -0.0056  0.3926 -0.1687
 8722SOL    HW137628   0.452   4.508   2.735 -1.3612  2.2920 -0.3584
 8722SOL    HW237629   0.479   4.435   2.618 -0.8081 -2.4068  0.3568
 8723SOL     OW37630   2.821   2.308   8.585 -0.5708 -0.5394 -0.0745
 8723SOL    HW137631   2.853   2.269   8.667  0.5436 -1.1355 -0.7945
 8723SOL    HW237632   2.768   2.237   8.550 -1.6928  0.2313  0.0731
 8724SOL     OW37633   4.065   0.447  10.569  0.4158  0.2331 -0.1414
 8724SOL    HW137634   4.027   0.425  10.654 -2.1891  1.6251 -0.9600
 8724SOL    HW237635   4.028   0.380  10.512 -1.6683 -0.6605  2.2470
 8725SOL     OW37636   1.752   2.265  16.873  0.3216  0.1316  0.5507
 8725SOL    HW137637   1.664   2.268  16.835  0.5984 -2.9968 -0.3211
 8725SOL    HW237638   1.741   2.258  16.968  0.0526  0.3775  0.5395
 8726SOL     OW37639   2.366   3.617   2.194 -0.5460  0.0215  0.2498
 8726SOL    HW137640   2.375   3.702   2.238  0.2734 -0.8543  1.7568
 8726SOL    HW237641   2.295   3.585   2.249 -0.8309  0.0503 -0.1009
 8727SOL     OW37642   1.459   2.445  10.139 -0.0745  0.4760  0.2591
 8727SOL    HW137643   1.526   2.506  10.108  0.3568  0.3307  0.9005
 8727SOL    HW237644   1.421   2.486  10.217  0.3922  2.1934 -0.4104
 8728SOL     OW37645   4.200   0.581   4.319 -0.4816 -0.0749 -0.4603
 8728SOL    HW137646   4.285   0.625   4.311  0.4376 -1.8177 -0.3451
 8728SOL    HW237647   4.219   0.536   4.401  2.8437  1.8698 -0.1388
 8729SOL     OW37648   3.332   4.569   5.307 -0.1770 -0.5144 -0.4355
 8729SOL    HW137649   3.278   4.616   5.242 -1.3202 -1.0829  0.1083
 8729SOL    HW237650   3.287   4.582   5.390  0.4536 -3.7014  0.3882
 8730SOL     OW37651   0.489   2.030  13.517  0.4024 -0.2162  0.2437
 8730SOL    HW137652   0.487   1.941  13.483 -2.4007 -0.1151  0.1643
 8730SOL    HW237653   0.561   2.014  13.578  0.5478  2.6647  0.8302
 8731SOL     OW37654   2.484   2.317   5.611 -0.2916  0.5045 -0.3482
 8731SOL    HW137655   2.439   2.233   5.614 -0.9041  0.8456  0.0702
 8731SOL    HW237656   2.531   2.314   5.527  0.6357 -3.5756  0.3519
 8732SOL     OW37657   3.625   2.374  16.148  0.1253  0.0102  0.3729
 8732SOL    HW137658   3.601   2.463  16.122 -1.8425  0.1886  2.7848
 8732SOL    HW237659   3.538   2.334  16.155 -0.5786  1.6531  0.9847
 8733SOL     OW37660   0.617   4.523  15.081 -0.5360  0.0017 -0.2618
 8733SOL    HW137661   0.562   4.476  15.144 -0.4366  2.5614  1.7111
 8733SOL    HW237662   0.674   4.450  15.058  1.5684  1.0297  1.7539
 8734SOL     OW37663   0.215   1.585  15.042 -0.4268 -0.6596 -0.1506
 8734SOL    HW137664   0.125   1.608  15.066 -0.7440 -2.4050  0.2922
 8734SOL    HW237665   0.264   1.667  15.042  0.1688 -1.0335  1.1834
 8735SOL     OW37666   1.781   4.601   8.645  0.0797  0.4343  0.0172
 8735SOL    HW137667   1.856   4.575   8.591  0.6697  0.7786  0.6640
 8735SOL    HW237668   1.765   4.525   8.700 -1.0394  0.6273 -0.0389
 8736SOL     OW37669   2.508   1.962   6.682  0.3621 -0.6145 -0.1027
 8736SOL    HW137670   2.571   2.034   6.674 -0.0796  0.1199  2.9788
 8736SOL    HW237671   2.426   2.007   6.661  1.1998  0.2038 -1.5690
 8737SOL     OW37672   0.879   2.037   0.401  0.6419  0.2074  0.4920
 8737SOL    HW137673   0.878   1.953   0.446 -1.3783 -1.0850 -1.9379
 8737SOL    HW237674   0.850   2.099   0.467 -2.7024 -1.5042  0.6192
 8738SOL     OW37675   1.368   2.432  13.469 -0.0400 -0.1102  0.5044
 8738SOL    HW137676   1.317   2.368  13.518  1.0280 -2.0980 -1.0065
 8738SOL    HW237677   1.351   2.510  13.522  0.9994  0.3714  0.1373
 8739SOL     OW37678   0.603   4.700   5.264 -0.7924 -0.0879 -0.2212
 8739SOL    HW137679   0.513   4.713   5.292  0.2275  0.9395  2.6120
 8739SOL    HW237680   0.619   4.611   5.296 -0.5393 -0.0674 -0.2891
 8740SOL     OW37681   1.566   2.229  15.350 -0.3724  0.5630 -0.1417
 8740SOL    HW137682   1.577   2.324  15.349  3.4825  0.0859 -1.2916
 8740SOL    HW237683   1.472   2.224  15.333 -0.2065  2.2027 -1.5132
 8741SOL     OW37684   4.588   4.644   1.617 -0.2409 -0.2427  0.3766
 8741SOL    HW137685   4.547   4.559   1.634 -1.8251 -0.0941 -2.8577
 8741SOL    HW237686   4.515   4.705   1.615  0.9463  1.1836  0.4927
 8742SOL     OW37687   4.446   3.884  10.892 -0.0350  0.0352 -0.5709
 8742SOL    HW137688   4.416   3.794  10.875  0.3741  0.3964 -3.3494
 8742SOL    HW237689   4.419   3.887  10.983  1.6771  1.2447 -0.1050
 8743SOL     OW37690   2.956   2.755   0.432 -0.2755  0.5478 -1.0493
 8743SOL    HW137691   3.013   2.807   0.489  1.2782 -2.1494 -0.1571
 8743SOL    HW237692   3.021   2.691   0.403 -2.7683 -1.5797 -1.9384
 8744SOL     OW37693   4.281   1.990   5.444 -0.1386  0.7171  0.4996
 8744SOL    HW137694   4.258   1.897   5.446  1.6645  0.2662 -0.2911
 8744SOL    HW237695   4.376   1.997   5.449 -0.0150 -0.8872  0.5009
 8745SOL     OW37696   4.674   4.015   5.599  0.0534  0.2087 -0.0736
 8745SOL    HW137697   4.663   4.007   5.693  0.0641  2.4004  0.0982
 8745SOL    HW237698   4.616   3.944   5.570  0.6829  0.5689 -2.2358
 8746SOL     OW37699   2.342   2.877   0.838  0.2008  0.3955 -0.2263
 8746SOL    HW137700   2.348   2.972   0.823  1.4508  0.1484 -1.3435
 8746SOL    HW237701   2.358   2.862   0.931 -0.2788  0.0245 -0.2046
 8747SOL     OW37702   2.654   4.450  11.513 -0.2637  0.0297 -0.0573
 8747SOL    HW137703   2.576   4.432  11.461  0.6119 -0.5899 -1.1483
 8747SOL    HW237704   2.651   4.371  11.567  0.6112 -0.0588 -0.1369
 8748SOL     OW37705   2.776   3.637   0.261 -0.6027 -0.5720  0.1116
 8748SOL    HW137706   2.822   3.716   0.235  0.6867 -0.8103  1.6567
 8748SOL    HW237707   2.689   3.672   0.279 -1.2198 -0.8748 -2.2447
 8749SOL     OW37708   3.431   3.173  12.548 -0.4177 -0.3144 -0.4553
 8749SOL    HW137709   3.485   3.123  12.609 -2.0976 -0.6422  0.7704
 8749SOL    HW237710   3.498   3.215  12.494  0.3592  0.1436  0.8819
 8750SOL     OW37711   4.186   2.647  14.394 -0.2073  0.4230 -0.4028
 8750SOL    HW137712   4.096   2.615  14.391  0.4838 -1.4856 -0.6557
 8750SOL    HW237713   4.205   2.670  14.303 -1.5153 -1.5147 -1.1601
 8751SOL     OW37714   1.261   2.847  13.287 -0.9431  0.6863 -0.1938
 8751SOL    HW137715   1.309   2.851  13.205 -1.1200  2.3819 -0.2186
 8751SOL    HW237716   1.312   2.912  13.335  0.5234 -1.6160  1.3688
 8752SOL     OW37717   2.403   3.774  10.756  0.3941 -0.1369 -0.4471
 8752SOL    HW137718   2.316   3.810  10.772 -0.1884 -2.0220  0.5926
 8752SOL    HW237719   2.389   3.708  10.688 -1.1171  0.2045 -0.4706
 8753SOL     OW37720   3.677   0.027   1.535  0.1866 -0.2745 -0.4732
 8753SOL    HW137721   3.698   0.087   1.463 -4.0165  2.2436  0.4021
 8753SOL    HW237722   3.731   4.671   1.514  0.4350  0.0978 -1.1658
 8754SOL     OW37723   3.814   4.394   3.694 -0.4679  0.4853  0.5311
 8754SOL    HW137724   3.873   4.369   3.622 -0.2934 -0.5894  1.0481
 8754SOL    HW237725   3.804   4.309   3.738 -2.2921  1.1391  1.3682
 8755SOL     OW37726   4.631   2.262   9.638  0.2515 -0.0480  0.2825
 8755SOL    HW137727   4.540   2.292   9.632  0.0561 -0.4604  1.1441
 8755SOL    HW237728   4.633   2.208   9.717  0.3322  0.2762  0.5004
 8756SOL     OW37729   0.317   0.127   3.246  0.6303 -0.5658  0.1479
 8756SOL    HW137730   0.387   0.132   3.311  2.6466 -0.3963 -2.0567
 8756SOL    HW237731   0.258   0.061   3.283  3.1348 -1.8743  1.8040
 8757SOL     OW37732   3.463   1.769   3.855 -0.4775 -0.3380 -0.0138
 8757SOL    HW137733   3.473   1.675   3.872  0.7488 -0.4749 -1.4773
 8757SOL    HW237734   3.390   1.755   3.794 -1.5317 -1.1043  1.4084
 8758SOL     OW37735   4.588   2.387   9.056  0.2476 -0.2810 -0.1694
 8758SOL    HW137736   4.642   2.367   9.133 -0.2194 -0.6413  0.0606
 8758SOL    HW237737   4.591   2.298   9.022 -1.3550  0.5209 -2.3651
 8759SOL     OW37738   2.763   0.514  17.558  0.6544  0.2804  0.5747
 8759SOL    HW137739   2.797   0.602  17.577 -0.5455  0.5195  1.5702
 8759SOL    HW237740   2.775   0.475  17.645  0.3815  0.7553  0.8227
 8760SOL     OW37741   3.242   0.662   1.835 -0.0706  0.0419  0.2281
 8760SOL    HW137742   3.163   0.714   1.848 -0.6010 -1.3276  2.6314
 8760SOL    HW237743   3.302   0.734   1.853  1.3998 -1.0649 -0.2583
 8761SOL     OW37744   2.106   1.704   8.142 -0.0442  0.4527  0.5952
 8761SOL    HW137745   2.020   1.664   8.127  0.6211 -0.6735 -0.2186
 8761SOL    HW237746   2.092   1.789   8.183  3.0853  1.6944 -0.9156
 8762SOL     OW37747   2.037   0.502  15.372  0.2576  0.7116  0.4229
 8762SOL    HW137748   1.980   0.487  15.447  2.2256 -0.0883  1.7849
 8762SOL    HW237749   1.967   0.538  15.318 -0.0566  0.8913  0.9483
 8763SOL     OW37750   3.963   0.267   7.876 -0.1372 -0.0372  0.0744
 8763SOL    HW137751   3.884   0.247   7.927  0.3741 -0.0632  0.8721
 8763SOL    HW237752   4.031   0.257   7.943  2.1633 -0.5610 -2.3420
 8764SOL     OW37753   3.823   0.742   1.972 -0.6680  0.3155  0.1480
 8764SOL    HW137754   3.874   0.802   2.027 -2.5305  2.0913 -0.0499
 8764SOL    HW237755   3.759   0.800   1.932 -0.0307  0.8861 -0.0515
 8765SOL     OW37756   2.661   2.690   2.156  0.2822 -0.4484 -0.0643
 8765SOL    HW137757   2.693   2.770   2.115  3.1975 -1.1964  0.8125
 8765SOL    HW237758   2.565   2.689   2.148  0.2841  0.1527 -0.2099
 8766SOL     OW37759   2.586   0.199   5.843  0.4065  1.2045  0.2194
 8766SOL    HW137760   2.505   0.220   5.796  0.0305 -0.0744  0.2746
 8766SOL    HW237761   2.639   0.195   5.764  1.0812 -0.6429  0.7683
 8767SOL     OW37762   2.331   1.225  13.000 -0.2244 -0.0138  0.9292
 8767SOL    HW137763   2.419   1.191  12.989 -0.3028  0.0165  0.2276
 8767SOL    HW237764   2.278   1.146  13.013 -2.0295  0.8496 -1.0894
 8768SOL     OW37765   1.633   0.432   5.154 -0.1860 -0.3097  0.3650
 8768SOL    HW137766   1.608   0.446   5.063 -0.8465 -1.1692  0.4140
 8768SOL    HW237767   1.548   0.403   5.186 -0.2184 -1.3081 -0.6220
 8769SOL     OW37768   0.475   4.184  13.651  0.1733  0.2989 -0.6982
 8769SOL    HW137769   0.382   4.180  13.626  0.1169  2.5451 -0.8600
 8769SOL    HW237770   0.503   4.094  13.667 -2.7374 -0.1019  2.2105
 8770SOL     OW37771   4.254   0.667   0.421  0.3328  0.1732 -0.2391
 8770SOL    HW137772   4.283   0.577   0.438 -1.9526 -0.3772  0.7693
 8770SOL    HW237773   4.168   0.658   0.462  0.7732 -2.8835  0.0623
 8771SOL     OW37774   2.999   1.531   5.349 -0.0774 -0.4640 -0.3238
 8771SOL    HW137775   3.088   1.495   5.353 -0.8402 -2.2054  0.7474
 8771SOL    HW237776   2.969   1.526   5.439  1.6220 -1.4853  0.1806
 8772SOL     OW37777   0.429   3.879   5.890 -0.4968 -0.1136  0.0403
 8772SOL    HW137778   0.427   3.803   5.832 -1.4812 -0.7412  0.8983
 8772SOL    HW237779   0.524   3.886   5.905 -0.4526 -0.5135 -0.0566
 8773SOL     OW37780   4.312   3.773  11.376  0.0907 -0.0135 -0.1793
 8773SOL    HW137781   4.217   3.782  11.379 -0.1426 -2.5920 -0.3129
 8773SOL    HW237782   4.332   3.696  11.428 -2.6153 -1.3369 -1.1184
 8774SOL     OW37783   0.987   2.507  14.077 -0.3624 -0.3330  0.6839
 8774SOL    HW137784   1.006   2.495  14.170  0.8788  0.2578  0.5027
 8774SOL    HW237785   0.931   2.430  14.062  1.2788 -1.7332  1.7038
 8775SOL     OW37786   3.463   3.789   1.309 -0.1192 -0.4717 -0.1998
 8775SOL    HW137787   3.557   3.796   1.325  0.0660 -0.3750 -1.2998
 8775SOL    HW237788   3.437   3.764   1.397 -0.8669  1.1251  0.0356
 8776SOL     OW37789   0.144   4.419   2.654 -0.3023  0.2893  0.0652
 8776SOL    HW137790   0.106   4.411   2.567 -0.7978  0.6857  0.2470
 8776SOL    HW237791   0.234   4.446   2.637 -0.2901  0.5641  0.5544
 8777SOL     OW37792   3.094   1.013   0.660 -1.0936 -0.3076 -0.0845
 8777SOL    HW137793   3.047   1.061   0.591 -0.4638 -0.4495 -0.6181
 8777SOL    HW237794   3.019   0.986   0.713 -1.9558  0.7376 -0.7789
 8778SOL     OW37795   3.149   4.615   9.008 -0.0965  0.0791 -0.0466
 8778SOL    HW137796   3.147   4.687   9.071  0.7916  0.0244  0.0477
 8778SOL    HW237797   3.110   4.553   9.070 -1.1098 -1.4240 -2.1796
 8779SOL     OW37798   3.105   0.289  10.714 -0.3959 -0.3330  0.3439
 8779SOL    HW137799   3.057   0.275  10.796 -1.1706  1.2956  0.1731
 8779SOL    HW237800   3.182   0.235  10.730 -0.3157 -0.5620 -0.8733
 8780SOL     OW37801   4.332   0.915   2.101  0.2940  0.1304 -0.2279
 8780SOL    HW137802   4.325   0.820   2.112  0.9560  0.1878  0.7644
 8780SOL    HW237803   4.297   0.937   2.187 -1.6144 -0.7698 -0.7728
 8781SOL     OW37804   1.672   1.045   5.905 -0.3160 -0.0679  0.2062
 8781SOL    HW137805   1.731   0.970   5.910 -0.3400 -0.0779  0.3328
 8781SOL    HW237806   1.624   1.019   5.984 -0.2933  0.4356  0.3839
 8782SOL     OW37807   1.592   2.201  14.470  0.3474  0.5290 -0.3756
 8782SOL    HW137808   1.572   2.109  14.457 -0.1823  0.5638  0.2061
 8782SOL    HW237809   1.686   2.193  14.485  0.0479 -1.7645  0.2494
 8783SOL     OW37810   1.644   1.375   6.152  0.4163 -0.1100 -0.5600
 8783SOL    HW137811   1.684   1.348   6.070 -1.8978 -0.5263 -1.5346
 8783SOL    HW237812   1.618   1.298   6.202 -0.3321  0.2563 -0.3800
 8784SOL     OW37813   2.790   4.436   3.422  0.3364  0.1069  0.3104
 8784SOL    HW137814   2.790   4.514   3.366 -2.4739 -1.7260 -2.2487
 8784SOL    HW237815   2.725   4.383   3.376 -0.9728  1.3973  0.6917
 8785SOL     OW37816   4.553   1.452   7.676 -0.2798 -0.1862 -0.5245
 8785SOL    HW137817   4.635   1.498   7.662 -0.2247  0.0978  0.7635
 8785SOL    HW237818   4.496   1.480   7.604 -1.5979 -0.6465  0.3298
 8786SOL     OW37819   0.882   0.613   0.676  0.0160 -0.1918  0.1194
 8786SOL    HW137820   0.840   0.540   0.629  2.6760 -1.1721 -0.7403
 8786SOL    HW237821   0.875   0.689   0.619 -3.5756 -0.6253 -0.0046
 8787SOL     OW37822   3.606   1.239   5.263  0.1918  0.1897 -0.3878
 8787SOL    HW137823   3.688   1.205   5.229  0.1549  0.3030 -0.5893
 8787SOL    HW237824   3.626   1.333   5.262  1.7814 -0.2159 -4.3612
 8788SOL     OW37825   1.848   1.666   8.072 -0.0957  0.0890 -0.1066
 8788SOL    HW137826   1.813   1.634   7.988  0.1330 -3.3396  1.1127
 8788SOL    HW237827   1.784   1.735   8.091 -1.9244 -0.6664 -3.4904
 8789SOL     OW37828   2.391   2.905   8.106 -0.6811  0.0160 -0.3159
 8789SOL    HW137829   2.315   2.948   8.068 -0.1410  1.8959  0.7494
 8789SOL    HW237830   2.352   2.865   8.184 -0.0028  0.3581  0.1996
 8790SOL     OW37831   1.286   0.951   2.128  0.7427 -0.8766 -0.2766
 8790SOL    HW137832   1.341   0.967   2.051 -0.3910 -0.5106 -1.0226
 8790SOL    HW237833   1.223   1.022   2.117  1.9447  0.2802  0.3433
 8791SOL     OW37834   1.996   1.219   8.889  0.1726  0.4446  0.5689
 8791SOL    HW137835   2.070   1.264   8.930 -0.0498  0.9410  0.4190
 8791SOL    HW237836   1.919   1.252   8.937 -0.7328  0.1621 -0.6890
 8792SOL     OW37837   3.344   0.938   9.810  0.1616  0.0899 -0.1633
 8792SOL    HW137838   3.349   0.881   9.734 -1.1807  2.9226 -2.3818
 8792SOL    HW237839   3.436   0.959   9.821 -0.5550  3.1615 -0.0920
 8793SOL     OW37840   3.668   1.580   9.113 -0.0244  0.1959  0.8213
 8793SOL    HW137841   3.762   1.563   9.127 -0.2242 -0.0878  1.8130
 8793SOL    HW237842   3.667   1.675   9.122  3.8313  0.1577  1.9600
 8794SOL     OW37843   1.138   2.028  13.614 -0.5604 -0.1207 -0.1208
 8794SOL    HW137844   1.147   2.115  13.652 -0.5547 -0.9442  1.7413
 8794SOL    HW237845   1.090   2.052  13.534 -0.3866  2.4035  0.5236
 8795SOL     OW37846   2.308   2.021   9.420  0.2705 -0.3365  0.5601
 8795SOL    HW137847   2.216   2.033   9.397  0.6810  2.1942  0.1515
 8795SOL    HW237848   2.331   2.106   9.459  2.5445 -0.8363  0.3574
 8796SOL     OW37849   2.697   0.648   9.687 -0.8459 -0.4215 -0.3684
 8796SOL    HW137850   2.786   0.683   9.689 -0.4816 -1.3112 -0.5575
 8796SOL    HW237851   2.643   0.726   9.685  0.0337  0.2244  0.8867
 8797SOL     OW37852   4.097   1.715   6.048 -0.4848  0.5779 -0.2447
 8797SOL    HW137853   4.129   1.630   6.015  0.5560 -0.1040  2.5199
 8797SOL    HW237854   4.047   1.687   6.124 -0.4692  0.9619 -0.0969
 8798SOL     OW37855   0.957   3.483   3.606  0.0894  0.8119  0.4417
 8798SOL    HW137856   0.982   3.446   3.521  1.6093  3.4403 -0.2638
 8798SOL    HW237857   0.943   3.575   3.583  0.1083  1.0810  1.5114
 8799SOL     OW37858   2.372   2.929   3.401  0.4863 -0.3726  0.2948
 8799SOL    HW137859   2.343   2.839   3.384  0.1514 -0.6952  2.6528
 8799SOL    HW237860   2.292   2.978   3.421 -1.1384 -2.8409 -0.1540
 8800SOL     OW37861   1.107   4.264   7.607  0.5096  0.4108  0.4736
 8800SOL    HW137862   1.196   4.277   7.642  0.6440  1.0583 -0.1180
 8800SOL    HW237863   1.099   4.331   7.540 -2.8648 -0.3484  0.1498
 8801SOL     OW37864   3.087   2.338  17.377  0.2597  0.4977  0.1984
 8801SOL    HW137865   3.079   2.407  17.311  2.0402  0.0356 -0.4985
 8801SOL    HW237866   3.067   2.390  17.455  2.9730  1.1089  0.4908
 8802SOL     OW37867   2.813   2.047   9.943 -0.1982  0.4755  0.7398
 8802SOL    HW137868   2.731   2.089   9.915 -0.0721  0.8288  0.9002
 8802SOL    HW237869   2.866   2.075   9.869 -1.9774  1.9961  0.0299
 8803SOL     OW37870   3.368   4.351   4.895 -0.5758 -0.6532  0.3034
 8803SOL    HW137871   3.409   4.429   4.932 -0.5998 -0.8783  0.8068
 8803SOL    HW237872   3.330   4.326   4.979 -1.5197 -0.6272 -0.1244
 8804SOL     OW37873   3.113   0.340   7.540  0.4109 -0.1209 -0.4630
 8804SOL    HW137874   3.202   0.344   7.505  1.1202 -0.4568  1.3043
 8804SOL    HW237875   3.068   0.314   7.459  1.0794 -2.5165 -0.0822
 8805SOL     OW37876   3.865   3.178   5.958  0.3374 -0.4820  0.2557
 8805SOL    HW137877   3.817   3.240   6.013 -1.6655 -0.3149 -1.7289
 8805SOL    HW237878   3.819   3.191   5.876  0.1432 -3.9319 -0.1849
 8806SOL     OW37879   0.048   0.714   4.563 -0.1774 -0.2300 -0.0450
 8806SOL    HW137880   0.116   0.667   4.514 -0.1559  0.6744 -0.8866
 8806SOL    HW237881   0.063   0.805   4.537  1.7434 -0.3403  0.7371
 8807SOL     OW37882   1.233   1.782  14.059 -0.4189 -0.3081 -0.1780
 8807SOL    HW137883   1.158   1.725  14.076  0.0990 -1.1668 -0.7902
 8807SOL    HW237884   1.221   1.850  14.126  3.8098  0.0926  0.2079
 8808SOL     OW37885   1.949   2.257   1.087  0.2842 -0.4033  0.1797
 8808SOL    HW137886   2.019   2.248   1.023 -0.7651 -1.3266 -0.8480
 8808SOL    HW237887   1.946   2.171   1.129  2.3507 -0.0138  1.1408
 8809SOL     OW37888   0.074   2.587   2.423 -0.5834 -0.1337 -0.5327
 8809SOL    HW137889   0.016   2.550   2.488 -0.9755  1.6881  0.1546
 8809SOL    HW237890   0.157   2.590   2.471 -1.5950  2.2879  1.0684
 8810SOL     OW37891   4.459   4.109   5.288  0.1616  0.8236  0.0319
 8810SOL    HW137892   4.418   4.051   5.352  1.6436 -1.4991 -1.0980
 8810SOL    HW237893   4.474   4.055   5.210  1.0260 -0.8778  1.3720
 8811SOL     OW37894   3.672   1.086   8.694 -0.0346  0.0821 -0.5124
 8811SOL    HW137895   3.599   1.148   8.691 -1.4984 -1.5779  1.3581
 8811SOL    HW237896   3.720   1.120   8.769  0.3690  0.2034 -0.8236
 8812SOL     OW37897   0.994   1.551   7.428  0.2733 -0.8319 -0.3737
 8812SOL    HW137898   0.901   1.573   7.434 -0.1325 -2.3541 -1.0421
 8812SOL    HW237899   1.028   1.568   7.516 -0.4348  1.3178 -0.5133
 8813SOL     OW37900   4.163   4.264   4.851  0.5550 -0.3436 -0.1001
 8813SOL    HW137901   4.091   4.310   4.896  1.3433  0.2568  0.5674
 8813SOL    HW237902   4.125   4.185   4.813 -0.9965  1.0542 -1.4811
 8814SOL     OW37903   2.572   3.619   8.264  0.2088 -0.4195  0.6303
 8814SOL    HW137904   2.631   3.662   8.203 -1.4512 -0.5460 -1.0473
 8814SOL    HW237905   2.488   3.656   8.238 -0.3020 -1.3423  0.9613
 8815SOL     OW37906   3.406   2.831   9.247 -0.0183 -0.0618 -0.4230
 8815SOL    HW137907   3.319   2.792   9.234  1.4032 -2.9938 -0.9818
 8815SOL    HW237908   3.421   2.830   9.342  0.7784  0.1932 -0.5515
 8816SOL     OW37909   1.642   1.495  15.408  0.3119 -0.1286  0.1895
 8816SOL    HW137910   1.735   1.477  15.421  0.7024  3.6825  2.3870
 8816SOL    HW237911   1.615   1.437  15.479  1.1717 -1.5907 -0.6619
 8817SOL     OW37912   0.664   2.382   2.130  0.0626  0.5805 -0.3128
 8817SOL    HW137913   0.666   2.354   2.222 -0.5828 -2.5929 -1.2790
 8817SOL    HW237914   0.753   2.354   2.111  0.5583 -0.0986  3.0291
 8818SOL     OW37915   3.890   1.539   2.035  0.1487  0.0408  0.3442
 8818SOL    HW137916   3.801   1.509   2.017  0.0737 -0.7006  1.9774
 8818SOL    HW237917   3.878   1.570   2.124 -3.1195 -1.1784  0.3141
 8819SOL     OW37918   4.154   4.627   0.520  0.1132  0.1485 -0.3186
 8819SOL    HW137919   4.218   4.576   0.471  0.8485  1.2500 -0.5060
 8819SOL    HW237920   4.071   4.580   0.514  0.9744 -1.4725  0.7789
 8820SOL     OW37921   0.107   1.140   1.147  0.0350 -0.7511 -0.5760
 8820SOL    HW137922   0.164   1.190   1.089 -0.2043  0.3811  0.1648
 8820SOL    HW237923   0.169   1.123   1.218 -1.9120 -2.2251  0.7772
 8821SOL     OW37924   0.893   3.548   1.647 -0.5194  0.2789 -0.4454
 8821SOL    HW137925   0.797   3.545   1.653 -0.3722 -0.3015  1.6532
 8821SOL    HW237926   0.904   3.571   1.555  0.9256 -1.3659 -0.6713
 8822SOL     OW37927   3.395   1.489   4.946 -0.6151  0.3958  0.2338
 8822SOL    HW137928   3.443   1.406   4.940  0.8113  1.1791  0.7480
 8822SOL    HW237929   3.331   1.476   5.016  2.6221 -0.5784  3.0048
 8823SOL     OW37930   0.617   4.402   2.508  0.3240  0.2125 -0.4496
 8823SOL    HW137931   0.603   4.476   2.449 -0.3795 -0.1001 -0.6764
 8823SOL    HW237932   0.600   4.322   2.457  0.7561  1.1029 -1.9991
 8824SOL     OW37933   2.559   2.077   9.318 -0.4587  0.4588 -0.5172
 8824SOL    HW137934   2.600   2.003   9.274  1.8078  0.3636  1.7853
 8824SOL    HW237935   2.479   2.039   9.356 -0.1710  0.5694  0.2006
 8825SOL     OW37936   0.306   3.664   5.175 -0.0114 -0.3617 -0.5132
 8825SOL    HW137937   0.373   3.729   5.198 -0.2295 -0.5760  0.6971
 8825SOL    HW237938   0.341   3.585   5.217  0.1672  0.0270  0.0705
 8826SOL     OW37939   2.795   4.644   0.665 -0.3584 -0.1197  0.0533
 8826SOL    HW137940   2.797   4.563   0.613 -0.1897  0.1331 -0.3340
 8826SOL    HW237941   2.764   4.706   0.599 -1.8235 -0.9820 -0.0698
 8827SOL     OW37942   2.070   1.773   9.163  0.3929 -0.4078 -0.1488
 8827SOL    HW137943   2.100   1.744   9.249 -2.5288 -1.0302  0.6410
 8827SOL    HW237944   2.157   1.807   9.141  1.6914 -3.0961  0.8480
 8828SOL     OW37945   3.491   0.702  10.366  0.0777  0.4978 -0.4599
 8828SOL    HW137946   3.446   0.620  10.388  2.4923 -0.4808  0.7782
 8828SOL    HW237947   3.578   0.691  10.403  1.1125  3.1596 -2.1239
 8829SOL     OW37948   2.153   1.310   8.584 -0.0789  0.2410 -0.3312
 8829SOL    HW137949   2.126   1.389   8.539 -1.0083 -1.1585 -2.2471
 8829SOL    HW237950   2.078   1.253   8.565  0.1719  0.7469 -2.8636
 8830SOL     OW37951   1.425   4.164  15.371 -0.1999 -0.0999 -0.2270
 8830SOL    HW137952   1.345   4.216  15.364 -0.6433 -0.7532  0.0795
 8830SOL    HW237953   1.491   4.222  15.332  0.8783 -1.2003 -0.0370
 8831SOL     OW37954   2.732   3.517   2.998 -0.9034  0.0285  0.3173
 8831SOL    HW137955   2.733   3.551   2.908 -0.4422 -3.0274 -0.8400
 8831SOL    HW237956   2.773   3.432   2.982 -1.9238 -0.5758  1.0122
 8832SOL     OW37957   0.876   1.533  17.255  0.3177  0.3016  0.4195
 8832SOL    HW137958   0.843   1.485  17.330 -0.8866  1.5368  0.6787
 8832SOL    HW237959   0.811   1.603  17.251 -0.6255 -0.6476 -0.7890
 8833SOL     OW37960   4.554   3.474   3.199 -0.2276  0.7316 -0.6371
 8833SOL    HW137961   4.595   3.560   3.194 -0.5030  0.9181  0.2373
 8833SOL    HW237962   4.469   3.495   3.238  0.4324  0.3505  1.0168
 8834SOL     OW37963   2.729   4.665   7.634  0.3723 -0.4098  0.1929
 8834SOL    HW137964   2.714   0.008   7.564 -0.7866  2.8484  3.4026
 8834SOL    HW237965   2.742   4.716   7.714 -1.5363  0.7828 -0.2530
 8835SOL     OW37966   2.688   4.617   3.243  0.3045 -0.6011  0.2728
 8835SOL    HW137967   2.678   4.585   3.153  0.5087 -0.6464  0.2666
 8835SOL    HW237968   2.597   4.590   3.261  1.7895 -5.1981  1.0615
 8836SOL     OW37969   1.342   3.054  12.234  0.4340  0.0846  0.7917
 8836SOL    HW137970   1.340   2.960  12.218  0.3355  0.0396  1.0622
 8836SOL    HW237971   1.272   3.064  12.299 -0.1897  1.1100 -0.0494
 8837SOL     OW37972   2.850   1.417  15.406 -0.3655 -0.5868 -0.0666
 8837SOL    HW137973   2.783   1.410  15.474 -0.2032 -1.7263 -0.0330
 8837SOL    HW237974   2.811   1.476  15.342 -2.7206 -1.1896  0.8321
 8838SOL     OW37975   1.797   3.961  16.146  0.6032  0.3041 -0.1509
 8838SOL    HW137976   1.768   4.033  16.091 -0.2972  0.2972  0.3135
 8838SOL    HW237977   1.861   4.008  16.199 -0.8480 -0.7419  2.5250
 8839SOL     OW37978   0.469   1.472   6.452  0.7532 -0.0400  0.4225
 8839SOL    HW137979   0.541   1.511   6.403  1.3069 -2.5749 -0.7945
 8839SOL    HW237980   0.402   1.478   6.384  1.5835 -0.8722 -0.4769
 8840SOL     OW37981   2.528   3.703   3.718  0.7449 -0.1928  0.0459
 8840SOL    HW137982   2.576   3.648   3.780  0.6254  1.2080  1.4127
 8840SOL    HW237983   2.559   3.664   3.636 -2.3980 -1.4457 -0.5410
 8841SOL     OW37984   4.406   0.619   4.150  0.0361 -1.0338  0.0440
 8841SOL    HW137985   4.371   0.645   4.065 -0.4193  1.3407  0.9574
 8841SOL    HW237986   4.473   0.553   4.128 -1.0313 -1.6812 -1.2722
 8842SOL     OW37987   1.523   1.906   0.783  0.3375 -0.0929  0.2457
 8842SOL    HW137988   1.515   1.906   0.878  0.9156  1.1653  0.2902
 8842SOL    HW237989   1.585   1.833   0.773  0.3395 -0.2141  1.1032
 8843SOL     OW37990   1.932   4.318   0.158  0.2309  1.0818 -0.6733
 8843SOL    HW137991   1.887   4.312   0.074 -0.8984 -1.0255  0.0756
 8843SOL    HW237992   2.014   4.359   0.130  0.0013  1.6088 -0.5877
 8844SOL     OW37993   4.696   1.274  10.738  0.3891  0.3480 -0.1847
 8844SOL    HW137994   4.693   1.242  10.828 -0.3598 -0.5135 -0.5154
 8844SOL    HW237995   0.007   1.364  10.749  3.3942 -0.6185 -0.7443
 8845SOL     OW37996   0.400   3.245   0.965 -0.2667  0.4711 -0.2390
 8845SOL    HW137997   0.316   3.201   0.981  1.1791 -1.2827  2.4235
 8845SOL    HW237998   0.431   3.262   1.054  1.1802  0.9482 -0.8287
 8846SOL     OW37999   2.782   4.210   3.892 -0.1767  0.0018 -0.1745
 8846SOL    HW138000   2.799   4.264   3.815  0.5129  0.3103  0.1899
 8846SOL    HW238001   2.790   4.284   3.953 -1.4552  1.0667 -1.2886
 8847SOL     OW38002   1.000   2.820   5.460  0.1131  0.1330 -0.0877
 8847SOL    HW138003   1.044   2.888   5.512  0.8770  0.4462 -1.1500
 8847SOL    HW238004   0.910   2.848   5.475 -0.4146 -2.1251  0.9205
 8848SOL     OW38005   1.849   3.045   7.739 -0.2079  0.3141 -0.3759
 8848SOL    HW138006   1.849   3.084   7.652 -3.9467  2.6710  0.7164
 8848SOL    HW238007   1.942   3.056   7.757 -0.4185  1.0512  0.2638
 8849SOL     OW38008   2.256   1.498   4.362 -0.6374 -0.3433  0.2574
 8849SOL    HW138009   2.183   1.557   4.382 -1.8890 -1.6175 -0.5620
 8849SOL    HW238010   2.264   1.463   4.451  0.9633  1.5423  0.8662
 8850SOL     OW38011   3.522   0.055   5.656 -0.3388  0.0303  0.5030
 8850SOL    HW138012   3.476   0.115   5.714 -2.1677  0.4808 -1.3900
 8850SOL    HW238013   3.568   0.102   5.586 -0.2191 -1.3675 -0.3605
 8851SOL     OW38014   0.115   1.754  12.172  0.1541  0.1167  0.1202
 8851SOL    HW138015   0.153   1.717  12.092  0.1211 -2.0581  1.1128
 8851SOL    HW238016   0.083   1.682  12.226 -2.3397  0.5349 -0.7854
 8852SOL     OW38017   0.825   3.049   6.271  0.2589 -0.5080 -0.3896
 8852SOL    HW138018   0.832   2.987   6.344  3.0154  0.4475  0.1659
 8852SOL    HW238019   0.830   3.132   6.318  0.5140 -0.8297  0.1529
 8853SOL     OW38020   1.892   1.534  17.368 -0.0532 -0.4529  0.0516
 8853SOL    HW138021   1.872   1.613  17.319  0.7847 -0.1407  0.2176
 8853SOL    HW238022   1.851   1.557  17.452 -2.4903 -0.0989 -1.2532
 8854SOL     OW38023   4.058   1.797   4.854  0.1358  0.4130 -0.1291
 8854SOL    HW138024   4.054   1.781   4.759 -0.0312  0.8708 -0.2006
 8854SOL    HW238025   4.029   1.888   4.849  0.1973  0.4664  0.5086
 8855SOL     OW38026   4.474   0.023   3.332  0.0224 -0.6674 -0.7394
 8855SOL    HW138027   4.465   0.118   3.338 -0.1262 -0.7547  0.3028
 8855SOL    HW238028   4.506   0.011   3.242 -1.3253 -1.5100 -1.1099
 8856SOL     OW38029   3.286   1.441  15.444  0.2344 -0.5366 -0.2367
 8856SOL    HW138030   3.369   1.426  15.400 -0.2369 -0.0327 -1.2946
 8856SOL    HW238031   3.217   1.396  15.395 -0.8708  0.8089  0.0786
 8857SOL     OW38032   0.698   1.585   5.626  0.3589  0.6947  0.2108
 8857SOL    HW138033   0.719   1.639   5.550  1.0841  1.6534  1.0945
 8857SOL    HW238034   0.784   1.563   5.661 -0.1640 -1.1047  0.3507
 8858SOL     OW38035   2.167   2.919   7.549  0.2166  0.4009  0.0949
 8858SOL    HW138036   2.109   2.861   7.598  0.1717 -0.1729 -0.6408
 8858SOL    HW238037   2.220   2.857   7.499 -0.0006  0.4198 -0.1620
 8859SOL     OW38038   2.596   4.261   3.341 -0.6591  0.0516  0.2637
 8859SOL    HW138039   2.549   4.204   3.279  0.3118 -1.0834  0.5736
 8859SOL    HW238040   2.650   4.196   3.385  0.8386  0.5855 -0.7868
 8860SOL     OW38041   1.182   0.437   7.190  0.4379  0.0355  0.2662
 8860SOL    HW138042   1.271   0.410   7.168  0.8289  0.8942  0.8201
 8860SOL    HW238043   1.190   0.532   7.187 -1.1546  0.0909 -2.6803
 8861SOL     OW38044   3.663   4.497   8.015  0.3647  0.0295 -0.3276
 8861SOL    HW138045   3.741   4.444   8.000  0.3492  0.6228 -2.5439
 8861SOL    HW238046   3.622   4.449   8.087  0.0210  0.4023 -0.2729
 8862SOL     OW38047   0.242   2.902   8.928 -0.9818 -0.5364 -0.5131
 8862SOL    HW138048   0.299   2.947   8.990 -2.3651  1.3583 -0.6429
 8862SOL    HW238049   0.303   2.907   8.854 -2.8539  0.2198 -1.9800
 8863SOL     OW38050   4.594   4.462   3.363  0.1054  0.5312 -0.0916
 8863SOL    HW138051   4.551   4.495   3.441  2.4556  0.1299  1.3703
 8863SOL    HW238052   4.575   4.538   3.307  0.3150  1.1303  0.6537
 8864SOL     OW38053   0.518   0.577   6.714  0.8569  0.0594 -0.4574
 8864SOL    HW138054   0.423   0.566   6.710  1.0529 -1.4550 -1.1512
 8864SOL    HW238055   0.526   0.657   6.765  2.0070 -0.8235  0.7333
 8865SOL     OW38056   4.588   3.759   2.869 -0.2239 -0.5659 -0.1976
 8865SOL    HW138057   4.587   3.780   2.963  1.5872  0.1068 -0.3460
 8865SOL    HW238058   4.593   3.850   2.842 -0.9590 -0.9431 -1.5684
 8866SOL     OW38059   0.946   4.375   5.106 -0.3493 -0.8387  0.8927
 8866SOL    HW138060   1.039   4.394   5.106 -0.7639  1.2689  0.6116
 8866SOL    HW238061   0.919   4.403   5.193  1.2854  2.8878  0.2320
 8867SOL     OW38062   2.635   4.307   7.496  0.9307 -0.4868 -0.0656
 8867SOL    HW138063   2.653   4.284   7.587 -2.3272 -0.1609  0.6439
 8867SOL    HW238064   2.705   4.252   7.461 -0.5653 -0.7363 -2.6376
 8868SOL     OW38065   1.716   3.410  10.545  0.3626  1.0174 -0.2184
 8868SOL    HW138066   1.694   3.463  10.622 -3.5244 -0.6491 -0.1764
 8868SOL    HW238067   1.784   3.354  10.584 -0.3148  0.1109 -0.3364
 8869SOL     OW38068   3.318   3.923   5.436  0.1281  0.6209 -0.1098
 8869SOL    HW138069   3.290   3.996   5.382 -0.0064  1.6240  1.3353
 8869SOL    HW238070   3.244   3.905   5.493  0.6405  1.1661  0.7220
 8870SOL     OW38071   1.491   1.529   3.041 -0.0324 -0.4103  0.3988
 8870SOL    HW138072   1.516   1.552   2.952  2.2676  1.2580  1.4832
 8870SOL    HW238073   1.571   1.508   3.089  0.1918 -1.2258 -0.3302
 8871SOL     OW38074   3.082   0.023  15.325  0.5144 -0.1876 -0.0977
 8871SOL    HW138075   3.154   0.082  15.347  1.5275 -1.4744 -0.0129
 8871SOL    HW238076   3.032   0.046  15.404  1.1532  0.6697  0.0625
 8872SOL     OW38077   2.232   1.337   4.760 -0.3063  0.0653  0.3598
 8872SOL    HW138078   2.247   1.317   4.667 -1.0280  2.0876 -0.1750
 8872SOL    HW238079   2.183   1.416   4.741  0.5635  0.1014 -1.7629
 8873SOL     OW38080   1.800   2.588   1.985  0.1236 -0.2625  0.3547
 8873SOL    HW138081   1.784   2.620   1.897 -2.4599  0.5669  1.1072
 8873SOL    HW238082   1.892   2.606   2.002 -0.1524  1.7213 -0.2408
 8874SOL     OW38083   3.848   2.344   7.021 -0.0133  0.1768 -0.5979
 8874SOL    HW138084   3.872   2.267   6.970 -2.5314 -2.8318  2.7801
 8874SOL    HW238085   3.931   2.391   7.015 -0.8179  1.7517  0.5323
 8875SOL     OW38086   0.883   3.820  11.184  0.0917 -0.1776 -0.5755
 8875SOL    HW138087   0.889   3.910  11.153 -0.4387 -0.0343 -0.2511
 8875SOL    HW238088   0.965   3.822  11.232 -1.7867  1.5956  2.5290
 8876SOL     OW38089   3.097   2.074  10.380 -0.4109  0.4443  0.0521
 8876SOL    HW138090   3.062   2.001  10.430  0.5440 -0.7090 -0.9830
 8876SOL    HW238091   3.170   2.100  10.437 -1.2280  0.1192  1.2483
 8877SOL     OW38092   3.067   3.859   5.562 -0.4656 -0.6393  0.2235
 8877SOL    HW138093   3.002   3.795   5.533 -2.2298  1.3700 -0.2272
 8877SOL    HW238094   3.070   3.833   5.654 -1.5559  0.8522  0.6754
 8878SOL     OW38095   1.364   3.112   2.548  0.0069 -0.2686  0.0210
 8878SOL    HW138096   1.377   3.020   2.525  2.2558  0.5288 -1.9034
 8878SOL    HW238097   1.445   3.145   2.510 -0.9128  0.6934 -1.0937
 8879SOL     OW38098   0.206   4.238   3.168  0.0052  0.6497 -0.3702
 8879SOL    HW138099   0.164   4.288   3.098  1.3142  0.3803 -1.3635
 8879SOL    HW238100   0.257   4.177   3.114 -1.1401 -1.4594  0.9285
 8880SOL     OW38101   4.045   4.006   7.165  0.5337  0.1535  0.2353
 8880SOL    HW138102   4.106   3.954   7.113  3.4020  3.0783  0.6348
 8880SOL    HW238103   4.059   3.974   7.255  0.1067 -1.5363 -0.3062
 8881SOL     OW38104   4.607   0.581  11.262  0.1467  0.2679  0.2515
 8881SOL    HW138105   4.699   0.576  11.287 -0.3444  0.3461  2.0641
 8881SOL    HW238106   4.611   0.588  11.167 -2.7081 -0.0276  0.0941
 8882SOL     OW38107   1.709   2.581   9.843 -0.1787  1.0339 -0.4622
 8882SOL    HW138108   1.711   2.499   9.794  0.7471  0.4348  0.5889
 8882SOL    HW238109   1.619   2.612   9.834  0.4678  3.2836  1.0007
 8883SOL     OW38110   4.657   3.453   4.204  0.5546 -0.2663  0.4787
 8883SOL    HW138111   0.011   3.480   4.257  1.3584 -0.1260 -0.7052
 8883SOL    HW238112   4.652   3.523   4.138  2.6312 -1.1951 -0.6305
 8884SOL     OW38113   4.393   4.136  11.771  0.1561 -0.1147  0.7678
 8884SOL    HW138114   4.303   4.124  11.742  0.8144 -0.1763 -1.2028
 8884SOL    HW238115   4.437   4.062  11.728 -1.1656 -1.2373  1.3755
 8885SOL     OW38116   0.198   2.629   4.682  0.0808  0.1793  0.0282
 8885SOL    HW138117   0.147   2.562   4.728  0.7710 -1.4403 -1.5922
 8885SOL    HW238118   0.147   2.635   4.602  0.3985  1.2759 -0.0864
 8886SOL     OW38119   3.552   1.305   0.730  0.1028 -0.0827  0.2819
 8886SOL    HW138120   3.533   1.336   0.642  0.4393 -0.4954  0.0638
 8886SOL    HW238121   3.622   1.241   0.713  1.5747  1.8097 -0.6948
 8887SOL     OW38122   3.977   4.636   2.593 -0.2155  0.3597 -0.1447
 8887SOL    HW138123   4.064   4.677   2.597  0.0002 -0.1089  0.0348
 8887SOL    HW238124   3.981   4.591   2.509  1.1913 -1.5961  0.9761
 8888SOL     OW38125   3.144   4.415   4.451 -0.4509 -0.1969  0.3071
 8888SOL    HW138126   3.088   4.492   4.442  0.2041  0.2340 -0.0298
 8888SOL    HW238127   3.164   4.414   4.544 -1.3106 -2.1900  0.4751
 8889SOL     OW38128   0.880   1.888  15.840 -0.2125 -0.1660  0.1946
 8889SOL    HW138129   0.816   1.958  15.834  0.6579  0.7066  0.9755
 8889SOL    HW238130   0.906   1.879  15.932  1.0389  0.2363 -0.1214
 8890SOL     OW38131   4.529   4.478   0.396 -0.4504  0.1462 -0.0107
 8890SOL    HW138132   4.507   4.513   0.482 -0.1059 -1.4265  0.7136
 8890SOL    HW238133   4.578   4.541   0.344 -0.2224  0.2367  0.3143
 8891SOL     OW38134   3.876   1.208   1.604 -0.5564 -0.1281  0.0049
 8891SOL    HW138135   3.816   1.282   1.595 -0.8490 -0.5536 -1.4391
 8891SOL    HW238136   3.959   1.243   1.571 -0.4380 -0.9663 -0.5984
 8892SOL     OW38137   4.017   3.893   2.511  0.3178 -0.4381 -0.3601
 8892SOL    HW138138   4.099   3.861   2.475  1.1770  0.0166  1.1800
 8892SOL    HW238139   3.964   3.873   2.434  0.0901  1.8079 -0.7710
 8893SOL     OW38140   4.619   1.023   6.888 -0.6282  0.4900  0.3084
 8893SOL    HW138141   4.714   1.013   6.894 -0.5555  1.1618  0.2202
 8893SOL    HW238142   4.611   1.112   6.922 -1.9033  0.4808  0.0328
 8894SOL     OW38143   0.340   2.185   1.808  0.9939 -0.4384  0.4588
 8894SOL    HW138144   0.337   2.135   1.726  0.3095 -1.2018  0.9482
 8894SOL    HW238145   0.266   2.246   1.801  1.4676  0.1509  0.5986
 8895SOL     OW38146   1.484   0.384   7.654 -0.1409 -0.5493 -0.0350
 8895SOL    HW138147   1.441   0.304   7.624  0.6548 -1.2223  0.6001
 8895SOL    HW238148   1.405   0.437   7.667 -0.3840 -0.8227 -0.4002
 8896SOL     OW38149   3.740   2.023   2.812 -0.4124  0.1185 -0.3820
 8896SOL    HW138150   3.680   1.949   2.816  0.1172 -0.2984 -0.1997
 8896SOL    HW238151   3.686   2.097   2.786 -1.8992 -0.7615  0.2547
 8897SOL     OW38152   1.704   0.794   7.595 -0.2394  0.1910  0.0546
 8897SOL    HW138153   1.695   0.838   7.680  0.7377  1.9664 -0.7639
 8897SOL    HW238154   1.765   0.722   7.614 -1.6630 -0.9781  0.1861
 8898SOL     OW38155   0.952   0.533   4.999 -0.4098  0.1310  0.0065
 8898SOL    HW138156   0.960   0.541   5.094  2.0747  1.9627 -0.3635
 8898SOL    HW238157   0.908   0.616   4.980  0.7176  1.0085  1.2551
 8899SOL     OW38158   1.197   1.841   5.449  0.3122 -0.1759  0.4353
 8899SOL    HW138159   1.188   1.853   5.544 -0.9513 -0.4553  0.3453
 8899SOL    HW238160   1.132   1.905   5.419 -0.4604 -0.0527  2.3858
 8900SOL     OW38161   2.632   3.517   1.306 -0.5365 -0.4591 -0.0087
 8900SOL    HW138162   2.673   3.603   1.320 -1.2933 -0.2196  0.7790
 8900SOL    HW238163   2.699   3.455   1.333  0.4093  1.5901  2.3705
 8901SOL     OW38164   0.407   0.969   5.489 -0.0601  0.2639 -0.4523
 8901SOL    HW138165   0.440   1.014   5.567  3.1549  0.4847 -1.9301
 8901SOL    HW238166   0.336   0.918   5.529  0.5640 -1.0941 -1.0723
 8902SOL     OW38167   2.060   0.171   1.427 -0.2252  0.1520 -0.1913
 8902SOL    HW138168   2.101   0.238   1.373 -1.5295  0.0788 -1.2906
 8902SOL    HW238169   2.117   0.100   1.397  1.5378  1.1403  0.8493
 8903SOL     OW38170   1.836   3.797   8.627  0.7501  0.7428  0.0158
 8903SOL    HW138171   1.787   3.721   8.659  0.5946  2.1424  3.1665
 8903SOL    HW238172   1.762   3.845   8.590  1.2832  0.2158 -1.7275
 8904SOL     OW38173   2.752   3.219   4.269  0.1804 -0.6050 -0.3147
 8904SOL    HW138174   2.673   3.253   4.227 -1.2111 -0.8898  2.0457
 8904SOL    HW238175   2.751   3.274   4.347  1.0127  0.4241 -1.0405
 8905SOL     OW38176   3.123   1.138   5.847  0.1550 -0.1197 -0.2356
 8905SOL    HW138177   3.192   1.195   5.881  1.0337  0.5152 -3.0164
 8905SOL    HW238178   3.172   1.081   5.787  0.9277 -1.6991  1.8989
 8906SOL     OW38179   0.980   1.821   8.000  0.8827  0.5002  0.0090
 8906SOL    HW138180   0.952   1.905   7.962  1.0594  1.4448  1.9398
 8906SOL    HW238181   1.074   1.826   8.017  0.8092 -0.4742  0.6392
 8907SOL     OW38182   2.579   0.614  12.949 -0.4852 -0.2846  0.2481
 8907SOL    HW138183   2.649   0.678  12.934 -0.5712 -0.5301 -1.1671
 8907SOL    HW238184   2.587   0.615  13.044  2.5727 -1.0155 -0.0078
 8908SOL     OW38185   3.659   0.848   7.246 -0.1759  0.0414  0.0102
 8908SOL    HW138186   3.672   0.770   7.300  1.3733  0.0945 -0.2965
 8908SOL    HW238187   3.680   0.915   7.312 -0.0967 -0.7049  0.7420
 8909SOL     OW38188   3.018   0.200   2.466  0.1691 -0.8307  0.8611
 8909SOL    HW138189   2.952   0.245   2.413  1.6179  0.6276  0.2949
 8909SOL    HW238190   3.000   0.108   2.449  2.8247 -1.0478 -0.7377
 8910SOL     OW38191   2.570   1.815   7.321 -0.1037 -0.1325  0.8392
 8910SOL    HW138192   2.517   1.842   7.396  0.2395 -0.7528  1.3014
 8910SOL    HW238193   2.619   1.745   7.364  1.1387 -0.1707 -0.6345
 8911SOL     OW38194   1.403   4.315   8.650  0.6111  0.1450  0.1877
 8911SOL    HW138195   1.454   4.323   8.730  0.2716 -0.3197  0.4520
 8911SOL    HW238196   1.374   4.405   8.643  1.2581  0.4478  1.5116
 8912SOL     OW38197   2.999   2.486  16.922 -0.0475  0.0819  0.3163
 8912SOL    HW138198   3.089   2.506  16.896 -1.5110  4.2451 -1.5527
 8912SOL    HW238199   3.005   2.524  17.010 -1.0090 -1.0739  0.8856
 8913SOL     OW38200   4.184   0.246  16.029 -0.5760  0.0106 -0.5958
 8913SOL    HW138201   4.179   0.245  16.124 -0.9325  2.5807 -0.5686
 8913SOL    HW238202   4.096   0.282  16.013 -0.7121 -0.6811 -1.4451
 8914SOL     OW38203   0.216   0.742  11.105  0.0515 -0.0563  0.8808
 8914SOL    HW138204   0.195   0.714  11.016  1.7050  2.1812 -0.1984
 8914SOL    HW238205   0.213   0.833  11.076 -3.2400 -0.4567 -0.1453
 8915SOL     OW38206   3.807   1.003  13.446 -0.3176 -0.6392 -0.0060
 8915SOL    HW138207   3.898   1.021  13.421 -0.1961 -3.9780 -1.8578
 8915SOL    HW238208   3.761   0.997  13.363 -1.3263  0.4102  0.4857
 8916SOL     OW38209   1.280   4.349   6.612  0.6093 -0.0162 -0.2262
 8916SOL    HW138210   1.272   4.444   6.608 -0.4467  0.0557  3.4046
 8916SOL    HW238211   1.277   4.325   6.705 -2.5187 -2.8457 -1.0673
 8917SOL     OW38212   0.645   0.385   7.766  0.0963  0.1394  0.0148
 8917SOL    HW138213   0.580   0.388   7.695  1.5669 -1.2366 -1.3970
 8917SOL    HW238214   0.597   0.421   7.840  0.0797  3.8530 -1.8125
 8918SOL     OW38215   4.620   1.302  11.800  0.7196  0.2096  0.0205
 8918SOL    HW138216   4.675   1.234  11.840 -2.2765 -1.8611  0.5956
 8918SOL    HW238217   4.665   1.314  11.716  2.8360  0.4499  1.1878
 8919SOL     OW38218   0.729   2.330   8.309 -0.2248 -0.4640 -0.4707
 8919SOL    HW138219   0.762   2.408   8.353  1.9965 -2.7465  1.9170
 8919SOL    HW238220   0.671   2.294   8.377  1.0723  0.7659  1.2937
 8920SOL     OW38221   3.092   2.223   8.104 -0.0188  0.7079 -0.4457
 8920SOL    HW138222   3.065   2.217   8.013  1.6920  0.7942 -0.9663
 8920SOL    HW238223   3.155   2.295   8.102  0.4033  0.3606  0.0531
 8921SOL     OW38224   0.637   3.869   6.237 -0.2387 -0.6205 -0.0953
 8921SOL    HW138225   0.610   3.896   6.324 -1.0486 -1.9879  0.0757
 8921SOL    HW238226   0.683   3.787   6.254 -0.8612 -1.2069 -1.2292
 8922SOL     OW38227   3.115   0.817   6.705  1.1052 -0.6067 -0.2368
 8922SOL    HW138228   3.094   0.796   6.614  0.8747 -0.0898 -0.3037
 8922SOL    HW238229   3.045   0.880   6.722  3.5858  1.2432  3.0701
 8923SOL     OW38230   4.681   1.911   8.133 -0.2009  0.3241  0.0864
 8923SOL    HW138231   0.042   1.866   8.158 -0.4368  0.8669  1.8068
 8923SOL    HW238232   4.640   1.830   8.103  0.1958  1.2219 -2.8951
 8924SOL     OW38233   2.686   0.388  16.883  0.1042  0.4397  0.0220
 8924SOL    HW138234   2.653   0.368  16.796  0.4475  0.8461 -0.2017
 8924SOL    HW238235   2.617   0.344  16.933  1.0500 -1.9741 -0.7915
 8925SOL     OW38236   2.424   1.846   2.636 -0.3087 -0.1866  0.2874
 8925SOL    HW138237   2.352   1.882   2.584 -1.1796  0.3447  1.8595
 8925SOL    HW238238   2.498   1.887   2.591 -2.5579  0.2575 -3.0212
 8926SOL     OW38239   4.222   3.153   5.512  0.4330  0.2430 -0.1992
 8926SOL    HW138240   4.210   3.239   5.472  2.4945  0.8927  0.5523
 8926SOL    HW238241   4.216   3.095   5.437  0.1841  1.4933 -1.1556
 8927SOL     OW38242   2.591   3.374  16.011  0.4599 -0.5577 -0.4990
 8927SOL    HW138243   2.522   3.399  16.072 -1.0408 -1.2047 -1.9066
 8927SOL    HW238244   2.572   3.427  15.934  3.4276 -1.4753 -1.8687
 8928SOL     OW38245   3.727   3.319   8.402  0.1143 -0.3203 -0.6412
 8928SOL    HW138246   3.690   3.367   8.476 -0.6136 -1.2602 -0.4008
 8928SOL    HW238247   3.732   3.226   8.424 -0.7489 -0.0606  0.6780
 8929SOL     OW38248   1.923   0.918   5.825  0.7529  0.2284 -0.0365
 8929SOL    HW138249   1.928   0.823   5.834 -1.2083  0.1170 -0.2231
 8929SOL    HW238250   1.945   0.932   5.733 -0.1564  1.5437 -0.0595
 8930SOL     OW38251   0.796   1.688  10.432 -0.0724  0.0555 -0.0684
 8930SOL    HW138252   0.839   1.657  10.352 -1.0625  1.2333 -1.0567
 8930SOL    HW238253   0.779   1.605  10.475  1.2774  0.1917  0.7591
 8931SOL     OW38254   3.003   1.980   7.462 -0.4849 -0.4029 -0.6512
 8931SOL    HW138255   3.060   1.961   7.388  1.3073  1.9758  0.0934
 8931SOL    HW238256   2.925   1.997   7.410 -0.0204  1.8267 -0.6488
 8932SOL     OW38257   2.953   1.171   8.441 -0.0372 -0.0954  0.7372
 8932SOL    HW138258   3.040   1.133   8.426  0.1854  1.1687 -1.1023
 8932SOL    HW238259   2.970   1.263   8.460 -0.6497  0.3760 -1.0375
 8933SOL     OW38260   2.630   4.287   0.638 -0.0545  0.5403  0.3318
 8933SOL    HW138261   2.721   4.315   0.638  0.0317  0.3054  1.7564
 8933SOL    HW238262   2.605   4.311   0.728 -2.2934  1.8207 -0.6391
 8934SOL     OW38263   0.450   2.537  13.345 -0.1301  0.0979 -0.1370
 8934SOL    HW138264   0.466   2.445  13.369  0.0506 -0.0606 -0.8457
 8934SOL    HW238265   0.375   2.518  13.288  0.3704 -0.1670 -0.7209
 8935SOL     OW38266   0.861   0.591   7.928  0.1328 -0.2583 -0.3027
 8935SOL    HW138267   0.766   0.599   7.920  0.1171 -0.6050 -0.4900
 8935SOL    HW238268   0.852   0.505   7.971  1.0174 -1.6246 -2.8422
 8936SOL     OW38269   1.825   1.813   7.563  1.0377  0.6465 -0.0828
 8936SOL    HW138270   1.890   1.751   7.529 -1.7427 -1.5181 -1.5351
 8936SOL    HW238271   1.800   1.841   7.474 -2.5845  0.1951  0.7781
 8937SOL     OW38272   0.386   1.278  11.347  0.2303  0.4062 -0.2569
 8937SOL    HW138273   0.334   1.312  11.274 -0.0569  0.0287 -0.2239
 8937SOL    HW238274   0.477   1.272  11.317  0.3969  1.5647  0.0225
 8938SOL     OW38275   4.040   3.194   9.389 -0.2337  0.2067  0.2060
 8938SOL    HW138276   3.949   3.207   9.417 -0.1696  0.2463  0.3976
 8938SOL    HW238277   4.060   3.278   9.349  2.1862 -0.1801  0.6245
 8939SOL     OW38278   2.327   1.524   7.613 -0.0245 -0.1095  0.3614
 8939SOL    HW138279   2.322   1.611   7.651 -0.3287 -0.1562  0.4322
 8939SOL    HW238280   2.235   1.511   7.592 -0.1737  1.4563  0.0742
 8940SOL     OW38281   4.463   2.022   2.599 -0.0291 -0.4397  0.0038
 8940SOL    HW138282   4.523   1.948   2.603 -1.0764 -1.1659  2.0695
 8940SOL    HW238283   4.501   2.064   2.521 -0.2292  1.6470  1.0365
 8941SOL     OW38284   3.253   2.927  11.656 -0.5099  0.3794  0.5934
 8941SOL    HW138285   3.172   2.976  11.641  0.0909  0.7812 -1.3114
 8941SOL    HW238286   3.303   2.965  11.583 -0.5177 -0.6196  0.0723
 8942SOL     OW38287   2.086   2.605   7.920 -0.3253 -0.6201 -0.6204
 8942SOL    HW138288   2.046   2.519   7.937 -2.6863  0.0351 -2.9426
 8942SOL    HW238289   2.068   2.655   7.999 -0.3074 -1.7010  0.0696
 8943SOL     OW38290   1.727   1.151  14.440 -0.5297  0.2189 -1.0190
 8943SOL    HW138291   1.806   1.126  14.392 -0.0862 -0.7442  0.2233
 8943SOL    HW238292   1.703   1.066  14.476 -1.9922  0.8667 -0.4495
 8944SOL     OW38293   0.594   1.048   8.687  0.2182  0.0741  0.2337
 8944SOL    HW138294   0.595   1.002   8.771  0.2218 -0.6136 -0.1431
 8944SOL    HW238295   0.519   1.002   8.650  0.5684 -1.1661  1.0498
 8945SOL     OW38296   2.367   4.431   7.962  0.0169  0.2976  0.6037
 8945SOL    HW138297   2.387   4.345   7.924 -1.4784  0.0465  0.3793
 8945SOL    HW238298   2.431   4.485   7.915 -0.3002 -1.0894 -1.4531
 8946SOL     OW38299   3.172   2.226  15.161 -0.1983  1.1651  0.0217
 8946SOL    HW138300   3.214   2.159  15.215 -0.0097 -0.3601 -2.0162
 8946SOL    HW238301   3.107   2.254  15.224 -0.1211 -0.6533  0.9009
 8947SOL     OW38302   3.244   1.939   8.891 -0.2353 -0.2161 -0.1368
 8947SOL    HW138303   3.284   1.856   8.864  0.2341 -0.4301  1.2397
 8947SOL    HW238304   3.308   1.970   8.954 -0.0507 -0.4014 -0.2315
 8948SOL     OW38305   2.963   4.392  14.166  0.1214  0.1304  0.0415
 8948SOL    HW138306   2.984   4.392  14.259 -0.2567 -0.5094  0.1288
 8948SOL    HW238307   2.908   4.470  14.160  1.7905  1.2748 -0.3455
 8949SOL     OW38308   0.611   3.854  15.226 -0.7976 -0.3129  0.2650
 8949SOL    HW138309   0.687   3.856  15.284  0.8768 -0.8932 -1.9179
 8949SOL    HW238310   0.661   3.832  15.148 -1.0325  0.6883 -0.1764
 8950SOL     OW38311   2.928   1.642   8.339 -0.3964 -0.5820  0.2999
 8950SOL    HW138312   2.876   1.564   8.320 -0.5142 -0.2574 -0.7120
 8950SOL    HW238313   2.873   1.698   8.394 -1.2396  1.3013 -2.4712
 8951SOL     OW38314   2.097   0.753   6.771  0.3299 -0.1732  0.1157
 8951SOL    HW138315   2.096   0.837   6.818 -0.5894  0.5976 -1.2863
 8951SOL    HW238316   2.011   0.716   6.791  1.1398 -1.7866  0.6454
 8952SOL     OW38317   1.627   0.458  14.733  0.0554  0.2979 -0.3278
 8952SOL    HW138318   1.566   0.402  14.686  0.3968 -1.8207  1.7542
 8952SOL    HW238319   1.637   0.417  14.819  1.6702 -0.0769 -0.7034
 8953SOL     OW38320   2.897   2.503   2.493 -0.0709 -0.2934 -0.4503
 8953SOL    HW138321   2.864   2.465   2.574 -0.1116 -1.7262 -1.1389
 8953SOL    HW238322   2.845   2.450   2.433 -2.2159  0.3364  0.8693
 8954SOL     OW38323   2.310   3.108  10.521  0.7811 -0.4896 -0.4220
 8954SOL    HW138324   2.305   3.190  10.473  1.6368  0.0743  0.4464
 8954SOL    HW238325   2.362   3.131  10.598 -2.7499  1.2913  1.3676
 8955SOL     OW38326   0.446   2.276   3.924  0.5354  0.1659 -0.1421
 8955SOL    HW138327   0.503   2.319   3.989 -0.8518 -0.9357  1.8134
 8955SOL    HW238328   0.505   2.246   3.855 -0.7927  0.2075 -1.2998
 8956SOL     OW38329   1.129   2.471   4.309  0.1628  0.1332  0.0301
 8956SOL    HW138330   1.053   2.525   4.286 -1.1160 -1.6365  0.0637
 8956SOL    HW238331   1.163   2.520   4.384 -1.1751  1.4903 -0.2674
 8957SOL     OW38332   3.501   1.667   9.521  0.5035  0.3585 -0.6978
 8957SOL    HW138333   3.495   1.762   9.535  1.2216  0.1888  0.7725
 8957SOL    HW238334   3.438   1.635   9.586 -1.3355 -0.1081 -2.7170
 8958SOL     OW38335   2.778   4.005   3.680  0.0375 -0.4426 -0.6928
 8958SOL    HW138336   2.873   4.013   3.689 -0.1940  1.7565 -0.1904
 8958SOL    HW238337   2.769   3.954   3.761 -2.1509 -2.4226 -2.1857
 8959SOL     OW38338   1.249   2.773   5.979  0.4455 -0.1714 -0.1167
 8959SOL    HW138339   1.308   2.705   6.011  0.2594 -1.3283 -2.2616
 8959SOL    HW238340   1.294   2.853   6.006  1.0836 -0.4895 -0.2239
 8960SOL     OW38341   1.505   3.240   3.198  0.2355 -0.3709  0.5790
 8960SOL    HW138342   1.429   3.264   3.251  0.4568 -2.3101  1.7922
 8960SOL    HW238343   1.574   3.302   3.221 -1.3986  1.5313  0.2929
 8961SOL     OW38344   0.861   0.938   2.504 -0.0096  0.2103 -0.2452
 8961SOL    HW138345   0.894   1.021   2.469 -1.6399  0.6915 -0.6207
 8961SOL    HW238346   0.847   0.951   2.598  1.2928  1.3741 -0.2221
 8962SOL     OW38347   2.809   1.568   3.391 -0.3527  0.2988 -0.2046
 8962SOL    HW138348   2.733   1.608   3.348 -1.0396 -1.0941 -0.2872
 8962SOL    HW238349   2.864   1.646   3.397 -0.0232 -0.0054  0.6213
 8963SOL     OW38350   2.193   3.580   0.814 -0.1837  0.2165  0.4022
 8963SOL    HW138351   2.225   3.490   0.824  1.5572  0.6659 -1.0533
 8963SOL    HW238352   2.188   3.576   0.719  2.1661  2.1716  0.1996
 8964SOL     OW38353   3.010   0.361   3.451 -0.3259  0.2650 -0.2952
 8964SOL    HW138354   3.102   0.341   3.467 -0.2528  0.3237 -0.6375
 8964SOL    HW238355   2.973   0.275   3.430  1.4590 -0.4817 -0.3868
 8965SOL     OW38356   0.887   4.016   2.712 -0.2948 -0.0993 -0.3942
 8965SOL    HW138357   0.944   4.078   2.757  0.5537  0.0163 -1.6479
 8965SOL    HW238358   0.805   4.065   2.713 -0.5386 -0.6000  3.6983
 8966SOL     OW38359   1.904   3.074   9.820 -0.0467 -0.5127  0.2709
 8966SOL    HW138360   1.955   3.134   9.765  1.6934 -0.1466  2.2599
 8966SOL    HW238361   1.847   3.141   9.858  1.9030  1.4355 -0.2328
 8967SOL     OW38362   0.967   2.376  11.373 -0.8128 -0.6099  0.1064
 8967SOL    HW138363   0.997   2.465  11.355 -0.5486 -0.9507 -1.1281
 8967SOL    HW238364   0.922   2.360  11.291 -0.0185 -1.7174 -0.1152
 8968SOL     OW38365   1.087   1.193  11.065 -0.1060  0.5517  0.4136
 8968SOL    HW138366   1.054   1.282  11.078 -0.2746  0.5548 -0.0446
 8968SOL    HW238367   1.099   1.159  11.154  1.4326 -1.9174 -0.7375
 8969SOL     OW38368   4.618   0.690   3.294 -0.1676 -0.3432  0.0274
 8969SOL    HW138369   4.709   0.674   3.270 -0.5856 -0.9370 -1.1817
 8969SOL    HW238370   4.605   0.640   3.374 -1.9048  0.9094  0.5281
 8970SOL     OW38371   4.548   1.996   7.016  0.3540  0.0815 -0.3515
 8970SOL    HW138372   4.506   2.013   6.932  0.4420  0.8689 -0.2354
 8970SOL    HW238373   4.604   2.072   7.031 -1.0717  1.0045  0.2909
 8971SOL     OW38374   1.986   2.109  16.715  0.0544 -0.2660  0.1962
 8971SOL    HW138375   1.996   2.046  16.643  0.6712  1.8740 -1.5939
 8971SOL    HW238376   2.072   2.095  16.755  0.8968  0.9609 -1.1874
 8972SOL     OW38377   3.477   2.524  17.236 -0.2893  0.7739 -0.5155
 8972SOL    HW138378   3.446   2.444  17.194 -0.2717  1.1127 -1.1648
 8972SOL    HW238379   3.562   2.490  17.265  0.3708  2.1840 -0.8136
 8973SOL     OW38380   2.204   2.633  13.212 -0.3786  0.1300  0.1224
 8973SOL    HW138381   2.194   2.636  13.116 -1.8475 -0.2836  0.2572
 8973SOL    HW238382   2.288   2.673  13.233  0.0231 -1.0035  0.6776
 8974SOL     OW38383   3.868   1.926   8.666 -0.4385 -0.2163 -0.3998
 8974SOL    HW138384   3.943   1.967   8.623  1.8952 -0.6921  3.2031
 8974SOL    HW238385   3.913   1.854   8.710 -3.6599 -1.9645 -0.0144
 8975SOL     OW38386   2.629   1.638   2.565 -0.3690  0.4869 -0.1749
 8975SOL    HW138387   2.592   1.720   2.532  0.0209 -0.1555 -2.1850
 8975SOL    HW238388   2.611   1.576   2.495  0.9110 -2.0660  1.7688
 8976SOL     OW38389   2.134   3.533   8.721  0.1194 -0.5104  0.6137
 8976SOL    HW138390   2.044   3.501   8.717  0.0930 -0.5317  1.4002
 8976SOL    HW238391   2.151   3.550   8.628  0.7653 -0.4995  0.7301
 8977SOL     OW38392   1.292   1.962  12.771 -0.5060  0.3008  0.2094
 8977SOL    HW138393   1.213   1.922  12.810  0.8076  0.1356  2.7091
 8977SOL    HW238394   1.260   1.954  12.681 -1.0711  0.9313  0.3556
 8978SOL     OW38395   1.049   1.495   5.056  0.8260  0.4335  0.3577
 8978SOL    HW138396   1.026   1.441   4.980 -1.4666  0.7746  0.8219
 8978SOL    HW238397   1.108   1.560   5.017  0.9832  0.4290  0.5940
 8979SOL     OW38398   0.536   1.148  16.322  0.2626 -0.3282  0.5973
 8979SOL    HW138399   0.480   1.124  16.395  1.5435 -1.0958  1.3212
 8979SOL    HW238400   0.475   1.144  16.249 -0.6112 -0.8718  1.3567
 8980SOL     OW38401   2.047   3.806  15.503  0.3860 -0.4727  0.0072
 8980SOL    HW138402   1.973   3.860  15.533  0.5955 -1.0258  1.5045
 8980SOL    HW238403   2.078   3.773  15.587  2.0296  0.2664 -0.3055
 8981SOL     OW38404   2.304   0.909   5.897 -0.1619 -0.2933  0.3475
 8981SOL    HW138405   2.395   0.898   5.926  0.7765  0.0812 -2.4379
 8981SOL    HW238406   2.277   0.969   5.966  0.9704  3.3122 -2.3214
 8982SOL     OW38407   0.943   0.867   5.346 -0.3630  0.5472  0.4346
 8982SOL    HW138408   0.933   0.927   5.272  2.9749 -1.0960 -1.3660
 8982SOL    HW238409   1.038   0.872   5.346 -0.3636  0.5567  0.5448
 8983SOL     OW38410   0.608   3.965  13.730 -0.5517 -0.3469 -0.3817
 8983SOL    HW138411   0.653   3.974  13.814 -0.2091  1.3015 -0.7324
 8983SOL    HW238412   0.620   3.871  13.717 -1.1689 -0.3617 -0.8594
 8984SOL     OW38413   1.358   2.801   4.276  0.1856 -0.4465 -0.5470
 8984SOL    HW138414   1.428   2.736   4.271  0.4596 -0.1408 -0.6897
 8984SOL    HW238415   1.282   2.744   4.270  0.6784 -0.8887 -2.5230
 8985SOL     OW38416   3.817   4.177   8.792 -0.3681  0.2044 -0.1624
 8985SOL    HW138417   3.776   4.122   8.725 -0.4642 -0.8598  0.7627
 8985SOL    HW238418   3.897   4.126   8.808 -0.1677  1.3981  2.5880
 8986SOL     OW38419   0.089   1.401  12.047 -0.1915 -0.4648 -0.1884
 8986SOL    HW138420   0.161   1.387  11.986 -0.5747  0.3916 -0.8430
 8986SOL    HW238421   0.018   1.436  11.992  0.0662 -0.1211 -0.3038
 8987SOL     OW38422   0.505   1.649   3.833  0.1078  0.1019 -0.4056
 8987SOL    HW138423   0.534   1.579   3.891 -2.1828 -0.0908  0.5051
 8987SOL    HW238424   0.591   1.648   3.790 -0.6352  0.2354 -1.8841
 8988SOL     OW38425   2.243   4.714   9.828  0.2988 -0.5860 -0.5311
 8988SOL    HW138426   2.237   4.717   9.732 -5.2412 -0.7515 -0.2159
 8988SOL    HW238427   2.312   0.055   9.852 -2.0544  1.9726 -0.2918
 8989SOL     OW38428   4.058   4.417   5.684 -0.3257 -0.2645 -0.1843
 8989SOL    HW138429   4.016   4.450   5.605 -2.2225  1.0178  1.3469
 8989SOL    HW238430   4.131   4.363   5.655 -0.8877 -0.3143 -1.5172
 8990SOL     OW38431   1.175   1.391  12.490  0.0973 -0.7151 -0.3513
 8990SOL    HW138432   1.106   1.347  12.541 -0.2164  0.2218  0.0385
 8990SOL    HW238433   1.225   1.316  12.458  0.3530 -0.6546 -0.0887
 8991SOL     OW38434   4.179   3.905   3.581 -0.2311  0.1999  0.3070
 8991SOL    HW138435   4.268   3.937   3.563 -1.6169  2.7829 -1.8390
 8991SOL    HW238436   4.156   3.978   3.638  0.6609  0.1298  0.7576
 8992SOL     OW38437   1.412   0.929   4.851  0.1313  0.6109 -0.1722
 8992SOL    HW138438   1.400   0.989   4.778  0.5302  2.9293  1.6906
 8992SOL    HW238439   1.507   0.916   4.846  0.2619  0.8449  1.7926
 8993SOL     OW38440   1.852   3.285  13.887  0.5561  0.3863 -0.1979
 8993SOL    HW138441   1.837   3.240  13.970  1.3176  0.3119 -0.1022
 8993SOL    HW238442   1.946   3.266  13.880  0.2658 -1.0530 -0.3230
 8994SOL     OW38443   3.204   3.911   3.289 -0.3418  0.5003 -0.2969
 8994SOL    HW138444   3.265   3.838   3.283 -1.4055 -0.4691  0.7851
 8994SOL    HW238445   3.241   3.939   3.373 -1.9464  0.9120  0.2649
 8995SOL     OW38446   0.732   2.862   5.052 -0.2617  0.6585 -0.2700
 8995SOL    HW138447   0.774   2.916   4.986 -1.1500  0.9816 -0.5729
 8995SOL    HW238448   0.661   2.917   5.085 -0.5190 -0.0170  0.3162
 8996SOL     OW38449   0.334   2.156   7.355  0.0399 -0.5196  0.0625
 8996SOL    HW138450   0.329   2.122   7.266 -1.1828  1.7409 -0.7104
 8996SOL    HW238451   0.413   2.209   7.341  0.5375 -1.3190 -0.1768
 8997SOL     OW38452   2.555   4.709   6.299  0.3210 -0.3682 -0.4416
 8997SOL    HW138453   2.543   0.065   6.242 -0.0113  0.4113  0.6811
 8997SOL    HW238454   2.485   0.002   6.363  0.0130  0.1509 -0.8784
 8998SOL     OW38455   3.834   1.730   3.846 -0.3057 -0.2325  0.0501
 8998SOL    HW138456   3.787   1.653   3.813  0.1551 -0.2812 -0.4887
 8998SOL    HW238457   3.926   1.720   3.821 -0.2531  1.9161 -0.6265
 8999SOL     OW38458   4.575   1.502   4.274 -0.0276 -0.0445  0.3455
 8999SOL    HW138459   4.537   1.414   4.282 -1.0438  0.3308 -0.2813
 8999SOL    HW238460   4.663   1.469   4.291  0.1076  0.2379  0.1987
 9000SOL     OW38461   3.611   0.451   0.184 -0.3494  0.0224 -0.0662
 9000SOL    HW138462   3.661   0.419   0.259 -2.1888  0.2297  1.2645
 9000SOL    HW238463   3.656   0.533   0.164 -1.4343  1.3732  2.8884
 9001SOL     OW38464   4.372   3.407  16.742  0.1051  0.4753 -0.5525
 9001SOL    HW138465   4.313   3.481  16.755  0.6613  0.3592  2.6087
 9001SOL    HW238466   4.424   3.436  16.667 -1.2975 -0.3137 -1.8384
 9002SOL     OW38467   1.691   1.994   2.192 -0.5584 -0.4024  0.0456
 9002SOL    HW138468   1.639   1.916   2.175 -3.0299  1.4456 -1.0685
 9002SOL    HW238469   1.642   2.045   2.127  1.3620 -0.1936 -1.2201
 9003SOL     OW38470   2.008   3.443   6.137  0.3573 -0.6566  0.1781
 9003SOL    HW138471   1.951   3.427   6.212  0.0304  0.7394  0.2341
 9003SOL    HW238472   2.075   3.377   6.157  0.6188 -0.1294  1.0307
 9004SOL     OW38473   0.593   0.180   1.826  0.6579  0.0128 -0.6013
 9004SOL    HW138474   0.555   0.265   1.848  0.9711 -0.7867  3.0643
 9004SOL    HW238475   0.678   0.217   1.800  0.2629 -0.0604 -1.9577
 9005SOL     OW38476   3.539   3.890  16.206 -0.2082  0.2309 -0.3390
 9005SOL    HW138477   3.473   3.821  16.200  0.6091 -0.6814  0.9925
 9005SOL    HW238478   3.618   3.836  16.207  1.4668  2.6574  2.0667
 9006SOL     OW38479   0.876   4.706   3.621  0.2323 -0.4374 -0.0571
 9006SOL    HW138480   0.837   4.637   3.567  0.1719  0.3417 -1.0015
 9006SOL    HW238481   0.900   4.659   3.701  1.3535  0.8965  0.3877
 9007SOL     OW38482   3.049   4.691   8.080 -0.2478 -0.4949  0.2319
 9007SOL    HW138483   3.064   0.055   8.122  0.0652 -0.0232 -0.8357
 9007SOL    HW238484   3.044   4.634   8.157 -0.5494  1.1635  1.4224
 9008SOL     OW38485   0.996   3.728   4.059 -0.8688  0.6917  0.4720
 9008SOL    HW138486   1.057   3.758   3.991 -0.6760  1.3182  0.9203
 9008SOL    HW238487   1.055   3.732   4.135  1.1530  1.5823 -1.1233
 9009SOL     OW38488   2.525   3.063   4.121  0.5589 -0.7554 -0.0772
 9009SOL    HW138489   2.563   2.976   4.127 -0.0843 -0.9648  0.8892
 9009SOL    HW238490   2.525   3.069   4.025 -1.7295  0.8582  0.0068
 9010SOL     OW38491   0.009   3.048   0.720  0.1134  0.3174 -0.0784
 9010SOL    HW138492   0.023   3.082   0.808 -3.5308 -1.0827  1.0172
 9010SOL    HW238493   0.095   3.017   0.692 -1.2415 -1.1337 -2.6448
 9011SOL     OW38494   3.424   1.525  17.531  0.3219 -0.6193 -0.5636
 9011SOL    HW138495   3.353   1.513  17.468  0.6714 -0.6873 -0.9389
 9011SOL    HW238496   3.425   1.621  17.526 -2.8782 -0.5005  0.3816
 9012SOL     OW38497   1.377   3.100   1.833  0.1085  0.0504 -0.4146
 9012SOL    HW138498   1.290   3.131   1.807 -0.1161 -2.7593 -3.0193
 9012SOL    HW238499   1.406   3.184   1.868 -0.5141  0.1208 -0.0697
 9013SOL     OW38500   1.473   3.348   6.082 -0.3770 -0.3162  0.0874
 9013SOL    HW138501   1.525   3.268   6.087 -1.5925 -0.9918  1.7869
 9013SOL    HW238502   1.404   3.330   6.146 -0.8220  2.8970  0.5497
 9014SOL     OW38503   2.295   4.077  17.179 -0.2068  0.3145 -0.6056
 9014SOL    HW138504   2.244   4.147  17.138 -1.5122  0.3748  1.1397
 9014SOL    HW238505   2.230   4.009  17.198 -1.5277  1.4561 -1.0188
 9015SOL     OW38506   2.619   4.458   8.652  0.2777  0.5661  0.0626
 9015SOL    HW138507   2.563   4.516   8.704 -1.5336 -1.2925  0.1563
 9015SOL    HW238508   2.647   4.520   8.584 -1.9795  0.9922 -0.4828
 9016SOL     OW38509   2.334   4.457  14.624  0.6798 -0.4265 -0.8572
 9016SOL    HW138510   2.290   4.392  14.679  1.9471 -1.1088 -0.6526
 9016SOL    HW238511   2.284   4.453  14.542 -0.1067  2.3767 -0.5240
 9017SOL     OW38512   0.843   2.831   9.996  0.1079  0.0611 -0.9868
 9017SOL    HW138513   0.927   2.837   9.950  0.6084  0.6114 -0.0130
 9017SOL    HW238514   0.860   2.885  10.073 -0.0510 -1.3417  0.0274
 9018SOL     OW38515   0.736   2.726   5.282  0.8330 -0.0398 -0.1871
 9018SOL    HW138516   0.739   2.795   5.216 -0.9142 -0.0444 -0.2622
 9018SOL    HW238517   0.725   2.784   5.357  2.3748  1.6930 -1.2940
 9019SOL     OW38518   1.458   0.026   5.190  0.5055  0.2488  0.2168
 9019SOL    HW138519   1.379   0.040   5.243 -0.1658  0.3128 -0.7969
 9019SOL    HW238520   1.516   0.094   5.223  0.1870 -0.0260  1.3674
 9020SOL     OW38521   1.905   1.009   1.136  0.5672 -0.5305  0.1145
 9020SOL    HW138522   1.816   1.019   1.170 -0.0921  1.7579 -2.3015
 9020SOL    HW238523   1.896   0.968   1.050 -0.3957 -1.4990  0.6812
 9021SOL     OW38524   3.404   1.005   4.781  0.5644 -0.0043  0.0630
 9021SOL    HW138525   3.418   1.015   4.687 -0.5808 -0.6497 -0.1845
 9021SOL    HW238526   3.444   0.919   4.794  2.8420  1.0486 -0.1363
 9022SOL     OW38527   3.024   0.342  10.439 -0.5945 -0.1638 -0.1047
 9022SOL    HW138528   3.101   0.289  10.418  0.2654  0.7461  0.7789
 9022SOL    HW238529   3.042   0.358  10.531  0.8981 -0.6055 -0.3224
 9023SOL     OW38530   3.199   0.314  15.352  0.1877 -0.5840  0.1645
 9023SOL    HW138531   3.277   0.360  15.322  0.3644 -0.4441  0.8385
 9023SOL    HW238532   3.133   0.346  15.290 -0.3792 -1.7876  0.1402
 9024SOL     OW38533   4.653   0.892   9.399  0.9360 -0.0679  0.1075
 9024SOL    HW138534   4.628   0.842   9.477 -1.4416 -1.3301 -1.4504
 9024SOL    HW238535   4.584   0.871   9.336  2.4121  0.2279 -1.6022
 9025SOL     OW38536   0.327   1.419   6.875 -0.1639  0.0336 -0.1198
 9025SOL    HW138537   0.382   1.458   6.942 -0.0124  1.5529 -1.1285
 9025SOL    HW238538   0.344   1.480   6.803  0.2688 -1.1603 -1.0478
 9026SOL     OW38539   1.968   0.459   0.125  0.2640 -1.2052 -0.3637
 9026SOL    HW138540   1.926   0.511   0.056  0.0220 -1.3331 -0.3152
 9026SOL    HW238541   1.898   0.406   0.164  1.0557 -1.5556  0.5882
 9027SOL     OW38542   1.537   1.324  14.377 -0.0269 -0.2670  0.1921
 9027SOL    HW138543   1.578   1.410  14.376 -1.3931  0.3593 -0.9049
 9027SOL    HW238544   1.612   1.284  14.422 -0.8508 -1.8517  0.1457
 9028SOL     OW38545   1.991   2.545  10.426  0.7247  0.0175 -0.3639
 9028SOL    HW138546   1.952   2.630  10.448 -1.4636 -1.1758  0.4171
 9028SOL    HW238547   2.041   2.579  10.352  0.0603  1.3090 -0.2119
 9029SOL     OW38548   0.040   1.168   7.738  0.0870  0.0740  0.6145
 9029SOL    HW138549   0.129   1.161   7.773 -0.2660 -0.2767  1.4318
 9029SOL    HW238550   0.066   1.235   7.675 -1.9014 -0.4264 -0.7321
 9030SOL     OW38551   0.706   3.709  11.494 -0.1474  0.1253 -0.2032
 9030SOL    HW138552   0.787   3.735  11.538  0.7665 -1.9795 -0.6478
 9030SOL    HW238553   0.638   3.757  11.542  1.3930 -0.4575  2.5476
 9031SOL     OW38554   2.494   0.814  10.889 -0.3722 -0.0340  0.0563
 9031SOL    HW138555   2.562   0.826  10.956 -0.9577 -1.6536  0.9605
 9031SOL    HW238556   2.432   0.750  10.925  0.0555 -1.7415 -2.3006
 9032SOL     OW38557   2.245   0.428   1.797  0.3913  0.0440 -0.1750
 9032SOL    HW138558   2.289   0.402   1.716  0.8418 -1.8790  0.6744
 9032SOL    HW238559   2.227   0.340   1.830  0.1395 -0.2784 -1.1833
 9033SOL     OW38560   3.197   1.834   3.035  0.0235 -0.2899 -0.3198
 9033SOL    HW138561   3.175   1.756   2.983  0.5560 -0.4707 -0.2810
 9033SOL    HW238562   3.125   1.884   2.997 -0.3926  1.3372  2.6538
 9034SOL     OW38563   2.164   3.146   5.784  0.4553  0.0165 -0.7511
 9034SOL    HW138564   2.234   3.089   5.754  1.7924 -0.1713  2.7132
 9034SOL    HW238565   2.181   3.223   5.730 -1.2888  0.9606  0.0506
 9035SOL     OW38566   4.486   3.054   6.657 -0.3443 -0.1983 -0.4529
 9035SOL    HW138567   4.455   3.036   6.745 -1.1693  1.0204 -0.4996
 9035SOL    HW238568   4.408   3.023   6.611  0.5506  0.1586 -2.2098
 9036SOL     OW38569   2.511   0.463   2.862 -0.2577  0.3864  0.2964
 9036SOL    HW138570   2.594   0.471   2.910  0.2183  0.0557 -0.4709
 9036SOL    HW238571   2.505   0.551   2.825  0.1590  0.4081  0.2818
 9037SOL     OW38572   0.579   3.596  13.384  0.2316  0.3625  0.0079
 9037SOL    HW138573   0.550   3.660  13.320 -0.0475 -0.5729 -0.8055
 9037SOL    HW238574   0.496   3.548  13.395 -0.5234  2.3117  2.7926
 9038SOL     OW38575   1.015   4.383  12.921  0.6806 -0.4884 -0.3245
 9038SOL    HW138576   1.079   4.378  12.851 -0.6862 -0.7823 -1.5490
 9038SOL    HW238577   0.932   4.381  12.872 -1.0827  3.7169  2.4254
 9039SOL     OW38578   3.882   3.868   5.801 -0.2883  0.3492 -0.0184
 9039SOL    HW138579   3.835   3.951   5.804  1.7015  1.5151 -1.4455
 9039SOL    HW238580   3.972   3.896   5.788 -0.9538  0.7136 -4.0213
 9040SOL     OW38581   2.170   0.605   8.003  0.3291 -0.2188 -0.6902
 9040SOL    HW138582   2.203   0.620   7.914 -0.6994  0.6941 -0.9231
 9040SOL    HW238583   2.211   0.678   8.051 -3.8042 -0.0229  2.5946
 9041SOL     OW38584   1.387   1.388   2.564  0.3151  0.2038  0.1058
 9041SOL    HW138585   1.349   1.403   2.477  1.5459  2.4449 -0.0428
 9041SOL    HW238586   1.306   1.384   2.615 -0.7766  0.9828 -1.5546
 9042SOL     OW38587   3.305   0.598  13.753  0.4101  0.8084  0.4359
 9042SOL    HW138588   3.249   0.528  13.719  0.1225  0.7366  1.0526
 9042SOL    HW238589   3.391   0.571  13.722  0.2598  3.3037 -2.0838
 9043SOL     OW38590   2.067   0.642  11.918  0.0091  0.1276 -0.1258
 9043SOL    HW138591   2.136   0.578  11.900  1.0606  0.8360  1.4714
 9043SOL    HW238592   2.004   0.587  11.965 -0.5594 -0.3685 -1.4702
 9044SOL     OW38593   0.803   4.353   8.036 -0.2392  0.0337  0.2986
 9044SOL    HW138594   0.882   4.364   7.984 -0.3222  2.7305  0.7359
 9044SOL    HW238595   0.767   4.284   7.980  0.5704  1.5059 -2.0370
 9045SOL     OW38596   2.759   1.193  12.723  0.2960 -0.4967 -0.2435
 9045SOL    HW138597   2.836   1.141  12.746  1.6887  2.0883  0.9423
 9045SOL    HW238598   2.805   1.269  12.689 -2.8245  1.2276 -0.5335
 9046SOL     OW38599   1.994   2.861   2.792 -0.5358 -0.5526 -0.2601
 9046SOL    HW138600   1.972   2.944   2.750  2.0802 -0.2221 -0.9378
 9046SOL    HW238601   2.003   2.886   2.884 -0.9582  0.6745 -0.5496
 9047SOL     OW38602   0.163   0.226  16.898 -0.4609  0.1710  0.4681
 9047SOL    HW138603   0.241   0.194  16.853 -1.2506 -1.8684  0.5698
 9047SOL    HW238604   0.148   0.304  16.844 -2.9492  0.6415  1.8134
 9048SOL     OW38605   2.877   3.083   6.017 -0.7776 -0.2469  0.2973
 9048SOL    HW138606   2.857   3.160   6.070 -0.3286  1.5191 -2.0893
 9048SOL    HW238607   2.965   3.101   5.983 -1.7514  0.3795 -1.9369
 9049SOL     OW38608   4.036   0.496  16.998  0.2517  0.7782  0.4875
 9049SOL    HW138609   3.988   0.421  16.963  3.0434 -0.7575 -0.0836
 9049SOL    HW238610   4.122   0.468  16.968  0.8800  2.8343  0.3353
 9050SOL     OW38611   2.169   3.183   4.248  0.2768 -0.1476  0.3171
 9050SOL    HW138612   2.251   3.229   4.229 -0.7182  1.2554 -0.5588
 9050SOL    HW238613   2.174   3.182   4.344  0.1846 -1.3784  0.3175
 9051SOL     OW38614   4.404   3.652   4.262  0.2809  0.7149  0.4558
 9051SOL    HW138615   4.323   3.602   4.254  1.1389 -0.9111  1.6361
 9051SOL    HW238616   4.474   3.594   4.230  0.2711 -0.2235  2.1277
 9052SOL     OW38617   1.190   3.967   2.893 -0.3197 -0.0477 -0.6301
 9052SOL    HW138618   1.207   4.041   2.951  3.1599 -0.7843 -0.6932
 9052SOL    HW238619   1.253   3.991   2.826 -0.5743  1.0693 -0.4610
 9053SOL     OW38620   3.051   2.277   9.378  0.0472  0.1296 -0.2546
 9053SOL    HW138621   3.041   2.345   9.445  1.8406 -0.3776  0.5170
 9053SOL    HW238622   2.968   2.230   9.385  0.0569  0.2605  0.7749
 9054SOL     OW38623   3.836   4.129   2.253 -0.0427 -0.5105 -0.5004
 9054SOL    HW138624   3.748   4.095   2.239 -0.2855  0.3761 -1.1576
 9054SOL    HW238625   3.839   4.156   2.344  0.2859  1.6484 -1.1585
 9055SOL     OW38626   0.884   1.277  12.059 -0.3173 -0.0515  0.9075
 9055SOL    HW138627   0.943   1.342  12.097  0.0253  1.6251 -2.4955
 9055SOL    HW238628   0.935   1.218  12.003 -0.4945  0.3491  0.3184
 9056SOL     OW38629   3.580   4.213  10.921 -0.1490 -0.0472 -0.2743
 9056SOL    HW138630   3.647   4.238  10.984 -2.1069  0.9781  1.3727
 9056SOL    HW238631   3.632   4.187  10.844  0.1764 -1.4361  0.4103
 9057SOL     OW38632   0.544   4.351   3.993  0.3517 -0.6954 -0.1811
 9057SOL    HW138633   0.493   4.279   3.956 -4.2249  1.0944  2.6674
 9057SOL    HW238634   0.630   4.310   4.004 -0.5653 -2.2242  1.3418
 9058SOL     OW38635   0.198   2.793   7.406  0.1499  0.6203 -0.1134
 9058SOL    HW138636   0.109   2.829   7.406 -0.2410 -0.3531 -1.0563
 9058SOL    HW238637   0.190   2.726   7.474 -3.4274  1.5996  0.4284
 9059SOL     OW38638   4.609   0.364   6.538  0.1207 -0.1069  0.1693
 9059SOL    HW138639   4.564   0.295   6.488 -0.8611 -0.2112  1.2071
 9059SOL    HW238640   4.530   0.398   6.578  1.3604  3.6604 -0.5864
 9060SOL     OW38641   1.577   2.857   0.627 -0.0488 -0.0360  0.2036
 9060SOL    HW138642   1.628   2.778   0.607  1.0730  0.2540  1.8610
 9060SOL    HW238643   1.632   2.878   0.703  0.0951  0.8547 -0.1488
 9061SOL     OW38644   2.915   0.328   2.260 -0.0822 -0.1542 -0.5686
 9061SOL    HW138645   3.004   0.365   2.260 -1.0230  2.0984 -0.8399
 9061SOL    HW238646   2.923   0.266   2.187  0.2058 -0.7945  0.0065
 9062SOL     OW38647   0.782   3.686   9.720  0.6202  0.3493 -0.8835
 9062SOL    HW138648   0.794   3.749   9.792  0.8117 -1.1864  0.4369
 9062SOL    HW238649   0.706   3.639   9.754  0.4724  1.4649  0.3490
 9063SOL     OW38650   0.977   0.567  10.023  0.3881  0.2863 -0.8647
 9063SOL    HW138651   0.992   0.658  10.050 -2.8234  0.4182  0.4295
 9063SOL    HW238652   1.037   0.523  10.083 -1.1795 -0.0029  0.4889
 9064SOL     OW38653   1.899   3.102   7.206 -0.0477  0.8933  0.3526
 9064SOL    HW138654   1.844   3.179   7.220  0.2461  1.6630 -2.8964
 9064SOL    HW238655   1.981   3.125   7.249 -0.3570  2.4616  0.1069
 9065SOL     OW38656   1.167   4.518  15.127 -0.2885 -0.2456  0.1878
 9065SOL    HW138657   1.078   4.495  15.154 -0.6285  2.1576  1.1479
 9065SOL    HW238658   1.145   4.513  15.034  0.6697 -2.6121  0.0991
 9066SOL     OW38659   0.613   4.021   1.958 -0.7654 -0.3797 -0.3484
 9066SOL    HW138660   0.690   4.056   1.913 -0.2759  0.1791  0.9380
 9066SOL    HW238661   0.650   3.979   2.036 -1.3461 -0.6416 -0.2099
 9067SOL     OW38662   2.267   3.828  10.009  0.0515  0.3624  0.3537
 9067SOL    HW138663   2.339   3.882  10.041 -0.0722  0.4728  0.4437
 9067SOL    HW238664   2.280   3.808   9.916  0.1917  0.4022  0.3637
 9068SOL     OW38665   4.219   2.485  11.696 -0.0909 -0.2926  0.5325
 9068SOL    HW138666   4.206   2.570  11.738  0.4433  0.0079  0.0863
 9068SOL    HW238667   4.282   2.510  11.628  0.0547  0.7035  1.0260
 9069SOL     OW38668   4.402   0.696   1.728 -0.3854 -0.0164 -0.0641
 9069SOL    HW138669   4.447   0.747   1.661 -1.4013 -0.0057 -0.7408
 9069SOL    HW238670   4.314   0.698   1.690  0.0010 -0.6081 -0.9993
 9070SOL     OW38671   0.365   4.601   5.625 -0.1971 -0.2370 -0.7868
 9070SOL    HW138672   0.278   4.569   5.648 -0.1373 -1.6599 -2.5071
 9070SOL    HW238673   0.352   4.644   5.541 -1.9064  0.6115 -0.0720
 9071SOL     OW38674   1.036   1.928  16.828 -0.3138 -0.0406  0.5526
 9071SOL    HW138675   1.032   1.866  16.901  1.1706 -3.4283 -2.2498
 9071SOL    HW238676   0.947   1.961  16.838  0.3620  2.6703 -2.3938
 9072SOL     OW38677   0.198   0.039  14.693  0.1631 -0.3330 -0.1402
 9072SOL    HW138678   0.249   0.046  14.612 -2.7985 -1.6361 -2.1229
 9072SOL    HW238679   0.196   4.664  14.701  0.3582 -0.3403 -0.1833
 9073SOL     OW38680   4.240   3.737   4.036  0.0716  0.1752 -0.3534
 9073SOL    HW138681   4.310   3.705   4.094  0.8736  2.1583 -0.2432
 9073SOL    HW238682   4.277   3.751   3.949 -0.0412 -2.9021 -0.9076
 9074SOL     OW38683   3.126   4.443   0.916  0.6374 -0.2085  0.6857
 9074SOL    HW138684   3.210   4.467   0.956  1.1283  1.2457 -1.2160
 9074SOL    HW238685   3.126   4.483   0.829  0.6801  0.1819  0.8615
 9075SOL     OW38686   4.508   1.276   8.313 -0.1535 -0.5313 -0.4483
 9075SOL    HW138687   4.553   1.256   8.395  0.2110  1.0346 -0.2691
 9075SOL    HW238688   4.463   1.194   8.293 -1.9328 -0.0657  1.5566
 9076SOL     OW38689   4.204   2.018   6.130  0.1073 -0.0614  0.0671
 9076SOL    HW138690   4.175   2.010   6.221  1.8503 -3.3335  0.3054
 9076SOL    HW238691   4.181   1.931   6.097 -1.1848  0.5642 -0.6742
 9077SOL     OW38692   2.421   3.279   9.013  0.2971 -0.5990 -0.4455
 9077SOL    HW138693   2.482   3.338   9.059 -1.0474 -0.2145  0.8313
 9077SOL    HW238694   2.342   3.328   9.034  0.4831  0.0723 -1.3020
 9078SOL     OW38695   3.095   4.378   1.923 -0.0086  0.7347 -0.1324
 9078SOL    HW138696   3.130   4.354   1.838 -2.4338  1.1003 -1.2421
 9078SOL    HW238697   3.058   4.295   1.954  0.8523  0.3552 -0.1104
 9079SOL     OW38698   1.963   1.543  16.416  0.3393  0.3243 -0.3443
 9079SOL    HW138699   1.981   1.606  16.346  0.3398 -1.8135 -2.2573
 9079SOL    HW238700   2.054   1.513  16.416 -0.1155 -1.0164  0.6000
 9080SOL     OW38701   2.510   3.161  10.707 -0.5705  0.6240 -0.4133
 9080SOL    HW138702   2.576   3.091  10.711 -1.2343 -0.0330 -1.1370
 9080SOL    HW238703   2.541   3.234  10.761  0.3507  0.2443 -0.4196
 9081SOL     OW38704   2.939   2.524  12.822  0.0916 -0.5690  0.0997
 9081SOL    HW138705   2.953   2.537  12.916  0.1924  1.3645 -0.1781
 9081SOL    HW238706   2.851   2.561  12.832 -1.0267 -3.2989  0.3685
 9082SOL     OW38707   3.086   4.075   8.226 -0.5629 -0.3396 -0.5055
 9082SOL    HW138708   3.016   4.121   8.274  0.7200  0.8804  0.2157
 9082SOL    HW238709   3.157   4.123   8.270 -1.5772 -0.7279  1.5523
 9083SOL     OW38710   4.060   0.435  10.125 -0.4796  1.2687  0.2259
 9083SOL    HW138711   4.078   0.461  10.034 -2.0217  1.5504  0.0056
 9083SOL    HW238712   3.996   0.502  10.149 -1.2399  0.5790  0.1169
 9084SOL     OW38713   1.850   4.593   9.008  0.1174  0.1626  0.2674
 9084SOL    HW138714   1.875   4.545   9.087 -0.9596 -0.2226  0.3799
 9084SOL    HW238715   1.902   4.556   8.937 -0.8464 -1.5073  0.4089
 9085SOL     OW38716   4.632   1.667   5.222 -0.1346  0.2013  0.0079
 9085SOL    HW138717   4.709   1.648   5.169 -1.2510 -0.8970 -1.1996
 9085SOL    HW238718   4.674   1.673   5.308  0.7427 -0.7908 -0.3413
 9086SOL     OW38719   1.618   0.700   8.179  0.7818  0.3170  0.3520
 9086SOL    HW138720   1.673   0.671   8.107 -0.2415 -3.3619  1.0640
 9086SOL    HW238721   1.556   0.750   8.127  2.0564  2.6692  1.0998
 9087SOL     OW38722   1.051   1.100  11.314 -0.4988 -0.6279 -0.3514
 9087SOL    HW138723   0.987   1.031  11.333 -1.0906 -0.2509 -0.9813
 9087SOL    HW238724   1.127   1.069  11.364 -2.2583 -4.5650 -0.1169
 9088SOL     OW38725   2.264   0.027   6.429 -0.2267 -0.1984  0.3505
 9088SOL    HW138726   2.187   4.711   6.472  1.8126 -2.3283  2.2118
 9088SOL    HW238727   2.277   4.681   6.361 -2.2872 -0.1910 -0.0360
 9089SOL     OW38728   4.704   2.092   9.049 -0.5329  0.0012  0.1850
 9089SOL    HW138729   0.023   2.058   9.129  1.4040  0.4695 -0.5763
 9089SOL    HW238730   4.661   2.015   9.013 -0.6476  0.4771 -0.7059
 9090SOL     OW38731   1.760   0.401   7.437 -0.9226  0.2723  0.0559
 9090SOL    HW138732   1.670   0.433   7.423 -0.5638  0.8915 -0.9194
 9090SOL    HW238733   1.780   0.438   7.522 -1.4928  1.7018 -0.4181
 9091SOL     OW38734   2.392   3.655   0.989 -0.5402  0.3029  0.0558
 9091SOL    HW138735   2.454   3.582   0.981  0.4269  1.3856 -2.0749
 9091SOL    HW238736   2.319   3.617   0.939 -1.7377 -0.7102  2.5428
 9092SOL     OW38737   2.677   4.467   6.189 -0.2973  0.0598  0.0855
 9092SOL    HW138738   2.617   4.534   6.222 -0.2892 -0.3123  0.8414
 9092SOL    HW238739   2.708   4.507   6.107  0.1657 -0.5614 -0.0436
 9093SOL     OW38740   3.151   1.160   3.856 -0.4123 -0.5645  0.0211
 9093SOL    HW138741   3.199   1.082   3.827  2.1624  0.4471  1.5010
 9093SOL    HW238742   3.127   1.190   3.768 -3.6972 -0.6298  0.8938
 9094SOL     OW38743   2.814   3.504   9.269 -0.2106 -0.3522 -0.8061
 9094SOL    HW138744   2.792   3.583   9.319 -1.4139 -1.1788 -0.0600
 9094SOL    HW238745   2.766   3.447   9.328  0.6519  0.6604  0.8737
 9095SOL     OW38746   3.949   0.366   1.747 -0.0307 -0.0315 -0.0299
 9095SOL    HW138747   4.006   0.317   1.688 -2.3241 -1.9889 -0.6162
 9095SOL    HW238748   3.862   0.350   1.710  0.9939 -0.6923 -2.1319
 9096SOL     OW38749   1.520   4.328  17.500  0.2790  0.1502 -0.2808
 9096SOL    HW138750   1.503   4.315  17.594  1.0636 -1.5556 -0.3612
 9096SOL    HW238751   1.547   4.239  17.477  1.8554 -0.3690  3.5117
 9097SOL     OW38752   2.698   3.347   7.928 -0.2830  0.1885  0.4291
 9097SOL    HW138753   2.773   3.289   7.940 -2.0159 -1.9739  0.6510
 9097SOL    HW238754   2.738   3.422   7.884  0.8996  0.8730  2.6654
 9098SOL     OW38755   1.253   0.420  14.279  0.2125  0.9128  0.0301
 9098SOL    HW138756   1.309   0.361  14.229  0.6481  1.4500 -0.1238
 9098SOL    HW238757   1.307   0.498  14.268  1.2587 -0.1171 -2.0177
 9099SOL     OW38758   1.968   1.808   7.792  0.0418  0.2705  0.1853
 9099SOL    HW138759   1.906   1.811   7.720 -0.1096  2.8550  0.4191
 9099SOL    HW238760   1.951   1.893   7.833 -2.3834  0.2426 -0.8164
 9100SOL     OW38761   1.466   2.029   2.452 -0.4029 -0.6681 -0.1929
 9100SOL    HW138762   1.411   2.063   2.382  1.7362  2.5442 -0.3187
 9100SOL    HW238763   1.550   2.072   2.432 -0.8733 -1.3842 -3.6989
 9101SOL     OW38764   1.237   1.416   2.337 -0.3052 -0.2209 -0.2063
 9101SOL    HW138765   1.294   1.340   2.322  1.1047  0.7117  0.3511
 9101SOL    HW238766   1.204   1.427   2.247 -2.4227  1.2450  0.7724
 9102SOL     OW38767   3.882   4.083   0.301  0.3592 -0.0423  0.0429
 9102SOL    HW138768   3.797   4.046   0.327  0.2938 -0.3561 -0.6201
 9102SOL    HW238769   3.933   4.002   0.305  1.1506  0.4897  0.6509
 9103SOL     OW38770   1.871   3.667   3.544  0.4843  0.0352 -0.8032
 9103SOL    HW138771   1.924   3.610   3.601  0.7654 -0.3915 -1.4990
 9103SOL    HW238772   1.888   3.754   3.580 -0.8183 -0.2157  0.4465
 9104SOL     OW38773   2.590   2.743   9.949 -0.6922  0.1180  0.4313
 9104SOL    HW138774   2.685   2.757   9.946 -0.6478 -0.2218  0.2262
 9104SOL    HW238775   2.576   2.808  10.018  0.8068  1.9661 -1.0019
 9105SOL     OW38776   3.168   2.258   6.941  0.2234 -0.8195 -0.1415
 9105SOL    HW138777   3.096   2.253   7.005  0.0029 -0.2872 -0.3528
 9105SOL    HW238778   3.128   2.297   6.863 -1.9305 -1.5916  0.5794
 9106SOL     OW38779   1.014   1.165   5.632  0.1469  0.3575 -0.6602
 9106SOL    HW138780   1.014   1.181   5.538  0.5847 -2.0306 -1.0594
 9106SOL    HW238781   1.109   1.163   5.647 -0.1882 -1.7863  1.2074
 9107SOL     OW38782   2.316   2.242  14.504 -0.3525 -0.7579  0.5289
 9107SOL    HW138783   2.314   2.146  14.494 -1.7659 -0.6159 -0.4498
 9107SOL    HW238784   2.325   2.260  14.598 -0.5522 -1.0927  0.6129
 9108SOL     OW38785   2.778   0.645   4.574  0.2157  0.0377 -0.2216
 9108SOL    HW138786   2.751   0.697   4.498 -0.0369  1.5197  0.8851
 9108SOL    HW238787   2.782   0.710   4.644  2.0680 -0.8638  0.5165
 9109SOL     OW38788   2.017   0.631  14.831  0.9303  0.3206  0.4088
 9109SOL    HW138789   1.997   0.641  14.738 -1.3126 -2.8491  0.5752
 9109SOL    HW238790   2.076   0.559  14.812  0.9866  1.3164 -3.1621
 9110SOL     OW38791   2.849   1.163   5.773  0.1394  0.5083 -0.0966
 9110SOL    HW138792   2.798   1.163   5.692 -0.9169 -0.9510  0.5827
 9110SOL    HW238793   2.941   1.147   5.753  0.0598  1.2628 -1.0658
 9111SOL     OW38794   2.023   2.944  11.811  0.1487 -0.0349  0.3109
 9111SOL    HW138795   2.094   2.989  11.767  0.2377 -2.1546 -1.6929
 9111SOL    HW238796   2.035   2.968  11.903 -1.0354  1.0217  0.1893
 9112SOL     OW38797   4.146   1.057  15.258  0.6253 -0.4540  0.1880
 9112SOL    HW138798   4.220   1.001  15.232  0.9823 -0.1206  0.4962
 9112SOL    HW238799   4.133   1.040  15.351  3.9113 -0.8493  0.5676
 9113SOL     OW38800   3.687   3.832  10.913 -0.1351 -0.1193  0.0586
 9113SOL    HW138801   3.743   3.879  10.851  0.1864 -2.5318 -1.4650
 9113SOL    HW238802   3.632   3.770  10.866 -1.0731  1.2582 -0.6726
 9114SOL     OW38803   1.999   2.838   3.064 -0.1894 -0.0913  0.2503
 9114SOL    HW138804   1.979   2.931   3.077  1.6673  0.7801 -2.9700
 9114SOL    HW238805   1.975   2.810   3.152 -0.2829 -0.6888  0.0321
 9115SOL     OW38806   1.525   3.147  14.039 -0.1400 -0.1607 -0.3048
 9115SOL    HW138807   1.557   3.097  14.114 -0.0902  1.0735  0.4928
 9115SOL    HW238808   1.607   3.174  13.998 -0.5186 -0.3043 -1.1519
 9116SOL     OW38809   1.424   2.740   6.288 -0.1268  0.2932 -0.4490
 9116SOL    HW138810   1.428   2.683   6.212  2.0187  0.4724 -0.4808
 9116SOL    HW238811   1.502   2.792   6.270 -1.2390  2.5806  1.4332
 9117SOL     OW38812   1.189   3.941   3.239  0.2046 -0.0807 -0.1519
 9117SOL    HW138813   1.260   3.931   3.303 -0.2662  1.7268  0.6352
 9117SOL    HW238814   1.205   4.028   3.202 -0.0267 -0.4532 -1.1128
 9118SOL     OW38815   1.622   1.719  10.109 -0.4992 -0.9964 -0.2828
 9118SOL    HW138816   1.708   1.756  10.089 -0.3787 -0.4672  1.1895
 9118SOL    HW238817   1.557   1.786  10.088 -0.9906 -0.7812  1.8869
 9119SOL     OW38818   3.829   4.533   8.251  0.0412  0.1065  0.1884
 9119SOL    HW138819   3.844   4.618   8.210 -0.3012 -0.3939 -0.9708
 9119SOL    HW238820   3.897   4.486   8.203  0.2339  0.6588 -0.0715
 9120SOL     OW38821   0.529   3.702   8.087 -0.7020 -0.5235  0.2012
 9120SOL    HW138822   0.442   3.667   8.104 -0.7352 -1.9019 -2.8894
 9120SOL    HW238823   0.577   3.687   8.168  0.3063  1.8252  0.0483
 9121SOL     OW38824   0.039   0.833   6.293 -0.4948 -0.1358 -0.1635
 9121SOL    HW138825   0.074   0.922   6.291  0.9308 -0.6583  1.0344
 9121SOL    HW238826   0.018   0.824   6.200 -0.9344 -1.0936  0.0313
 9122SOL     OW38827   2.480   3.713  11.028  0.1241 -0.1244  0.0769
 9122SOL    HW138828   2.481   3.708  10.933 -1.8003 -0.2880  0.0614
 9122SOL    HW238829   2.386   3.715  11.047  0.3435 -2.3924  1.4195
 9123SOL     OW38830   1.204   1.673   2.423 -0.8660  0.0542 -0.0585
 9123SOL    HW138831   1.240   1.720   2.348 -1.2596  0.5114  0.0406
 9123SOL    HW238832   1.218   1.583   2.395 -0.6360 -0.0091  0.2554
 9124SOL     OW38833   2.939   1.615   3.028 -0.1581 -0.6155  0.5330
 9124SOL    HW138834   2.911   1.612   2.936  1.6257  0.9545 -0.0500
 9124SOL    HW238835   2.862   1.616   3.084  0.5233 -0.0856  1.4527
 9125SOL     OW38836   0.863   4.460   3.415  0.0069 -0.2204  0.5426
 9125SOL    HW138837   0.868   4.403   3.492 -2.8978 -1.9563 -0.5388
 9125SOL    HW238838   0.943   4.441   3.365  0.4453 -0.2038  1.2430
 9126SOL     OW38839   2.592   2.796   0.687  0.3633 -0.1766 -0.5064
 9126SOL    HW138840   2.528   2.827   0.750  0.1050  1.6429 -1.6787
 9126SOL    HW238841   2.620   2.881   0.654 -0.9508  0.7834  0.8751
 9127SOL     OW38842   4.505   0.699   2.773 -0.4221 -0.1546  0.3819
 9127SOL    HW138843   4.439   0.693   2.841 -0.4823 -0.2791  0.3122
 9127SOL    HW238844   4.535   0.789   2.788 -1.1076  0.3519 -1.2304
 9128SOL     OW38845   3.506   4.004   7.667 -0.7402 -0.2017 -0.1392
 9128SOL    HW138846   3.581   4.056   7.639  0.7081 -1.5628  1.1972
 9128SOL    HW238847   3.554   3.961   7.738  2.1359  2.1637 -0.6878
 9129SOL     OW38848   3.715   1.046   4.187 -0.5999  0.1877 -0.0452
 9129SOL    HW138849   3.620   1.050   4.188 -0.6988 -1.3635 -1.5387
 9129SOL    HW238850   3.718   0.951   4.199  4.0650  0.5412  1.8535
 9130SOL     OW38851   1.528   3.416  11.163 -0.2413 -0.1408 -0.5763
 9130SOL    HW138852   1.544   3.408  11.069 -0.3775  0.9134 -0.6883
 9130SOL    HW238853   1.433   3.402  11.165 -0.3697  0.9302  2.1032
 9131SOL     OW38854   4.381   3.518   2.883  0.1619 -0.8841 -0.2947
 9131SOL    HW138855   4.458   3.465   2.860  2.5059  1.6723  1.6051
 9131SOL    HW238856   4.428   3.600   2.899 -0.2056 -0.5216 -1.0878
 9132SOL     OW38857   0.748   3.652   1.902 -0.3477 -0.2260  0.1567
 9132SOL    HW138858   0.729   3.626   1.993 -4.8032 -2.7121 -1.4975
 9132SOL    HW238859   0.782   3.570   1.866  0.4566  0.4931 -0.6993
 9133SOL     OW38860   2.207   3.780  16.037  0.3016 -0.6074  0.4657
 9133SOL    HW138861   2.193   3.866  16.077  2.1370  0.4915 -1.2216
 9133SOL    HW238862   2.252   3.744  16.113 -1.2899 -1.3258  1.0557
 9134SOL     OW38863   1.456   2.039   7.619 -0.3256 -0.3113  0.0212
 9134SOL    HW138864   1.544   2.016   7.648 -0.4493 -0.3203  0.3989
 9134SOL    HW238865   1.435   2.115   7.673 -1.7539  0.4893 -1.6747
 9135SOL     OW38866   2.011   3.694   2.124  0.4413 -0.2491 -0.2491
 9135SOL    HW138867   1.925   3.654   2.135  1.3005 -1.5122  1.8538
 9135SOL    HW238868   2.058   3.680   2.207  0.3831  1.8001  0.1271
 9136SOL     OW38869   2.051   4.271  17.504  0.1262  0.2938 -0.4769
 9136SOL    HW138870   2.111   4.344  17.493  0.5667 -0.3113 -2.0953
 9136SOL    HW238871   1.965   4.309  17.523  0.2100  0.4293 -0.3700
 9137SOL     OW38872   3.093   2.356   6.685 -0.3652 -0.0874 -0.3828
 9137SOL    HW138873   3.084   2.440   6.641  0.7697 -0.6936 -1.7908
 9137SOL    HW238874   3.004   2.326   6.705 -0.6890  1.7199  0.8346
 9138SOL     OW38875   4.467   2.952   5.526  0.0333  0.0738  0.4835
 9138SOL    HW138876   4.457   2.870   5.574 -0.5868  0.9988  1.9511
 9138SOL    HW238877   4.409   2.927   5.454  0.3517 -1.7319  0.8657
 9139SOL     OW38878   0.887   4.146   1.614  0.4792  0.0411  0.2796
 9139SOL    HW138879   0.825   4.212   1.645  1.6701  0.8836  0.8658
 9139SOL    HW238880   0.821   4.081   1.591  0.1757 -0.5269  2.7863
 9140SOL     OW38881   3.566   3.069  12.760  0.0538 -0.7728 -0.1315
 9140SOL    HW138882   3.483   3.073  12.806  0.3935  0.1884  0.3848
 9140SOL    HW238883   3.607   3.145  12.800  0.0428 -0.5368 -0.5642
 9141SOL     OW38884   0.757   2.161   7.604  0.1636 -0.6236  0.1912
 9141SOL    HW138885   0.773   2.135   7.514  0.3966 -0.2648  0.1296
 9141SOL    HW238886   0.844   2.173   7.642  0.2468 -3.6548  0.9665
 9142SOL     OW38887   3.091   4.221   3.488 -0.3680  0.2736  0.4263
 9142SOL    HW138888   3.122   4.131   3.497  0.6488  0.7770  1.9975
 9142SOL    HW238889   3.089   4.247   3.580  1.5121  2.3260 -0.1280
 9143SOL     OW38890   2.721   3.099  11.714  0.4951 -0.3534 -0.0086
 9143SOL    HW138891   2.731   3.117  11.807  2.3700 -0.1516 -0.2477
 9143SOL    HW238892   2.655   3.030  11.719 -0.1193  0.4579  2.9477
 9144SOL     OW38893   2.515   2.941  10.164 -0.2561  0.0509  0.6571
 9144SOL    HW138894   2.503   2.925  10.258 -1.6303  0.7550  0.5922
 9144SOL    HW238895   2.424   2.965  10.149 -0.5086 -2.1106 -1.2672
 9145SOL     OW38896   0.181   2.761   6.697 -0.1887 -0.2076  0.4404
 9145SOL    HW138897   0.217   2.752   6.786  2.0307  1.9486 -0.2319
 9145SOL    HW238898   0.125   2.838   6.693 -0.3885 -0.4524 -1.5519
 9146SOL     OW38899   2.730   4.519   5.508 -0.3784  0.6681  0.7849
 9146SOL    HW138900   2.774   4.556   5.584  2.7949  0.4340 -0.9294
 9146SOL    HW238901   2.638   4.540   5.524 -0.4752 -0.3939  1.6289
 9147SOL     OW38902   0.297   1.637   7.341  0.1536 -0.1253 -0.1434
 9147SOL    HW138903   0.371   1.664   7.395 -0.7650  1.6178  0.2491
 9147SOL    HW238904   0.282   1.714   7.286 -3.8157 -0.5657  0.3053
 9148SOL     OW38905   4.245   2.790   3.728  0.0855  0.5338 -0.0482
 9148SOL    HW138906   4.176   2.757   3.785  1.6039 -0.9715  0.9355
 9148SOL    HW238907   4.240   2.717   3.667 -1.5025  0.0854  0.6228
 9149SOL     OW38908   4.703   3.275   6.377  0.0024 -0.3441  0.3899
 9149SOL    HW138909   0.029   3.191   6.384  3.2345  1.5590  1.6633
 9149SOL    HW238910   4.669   3.279   6.467 -0.8511 -0.9945  0.0960
 9150SOL     OW38911   1.501   2.019   7.348 -0.6462 -0.3759 -0.1214
 9150SOL    HW138912   1.511   1.994   7.439 -0.5990 -0.6571 -0.2032
 9150SOL    HW238913   1.435   2.088   7.354  0.0674  0.4398 -1.5378
 9151SOL     OW38914   1.908   1.162   8.537  0.5868 -0.2130  0.4034
 9151SOL    HW138915   1.911   1.091   8.601  0.4811 -1.1118 -0.5885
 9151SOL    HW238916   1.859   1.116   8.469 -1.3803  0.5877  1.2774
 9152SOL     OW38917   3.644   1.935   0.210  0.2276 -0.1302  0.1659
 9152SOL    HW138918   3.568   1.992   0.195  0.7760  0.6945  0.5344
 9152SOL    HW238919   3.605   1.888   0.283 -1.6583 -1.5449 -1.7288
 9153SOL     OW38920   3.059   3.733   9.069 -0.0269 -0.1753  0.2932
 9153SOL    HW138921   3.088   3.800   9.007  0.2864  0.0593  0.6883
 9153SOL    HW238922   2.966   3.757   9.072 -0.3560 -1.6243  1.8657
 9154SOL     OW38923   1.784   4.577   0.720 -0.2840  0.0587  0.6181
 9154SOL    HW138924   1.712   4.619   0.765 -0.1625  1.3987 -0.4400
 9154SOL    HW238925   1.819   4.508   0.777 -0.9385  0.8506  1.9599
 9155SOL     OW38926   4.675   3.235  12.580 -0.0409  0.0157  0.1332
 9155SOL    HW138927   4.662   3.325  12.610 -0.1800  0.2674 -0.6818
 9155SOL    HW238928   0.016   3.256  12.509  0.3764 -2.2672 -0.1664
 9156SOL     OW38929   3.629   4.321   7.515  0.1287 -0.4045 -0.1204
 9156SOL    HW138930   3.657   4.412   7.518 -1.3783  0.1342 -2.1471
 9156SOL    HW238931   3.566   4.314   7.587  0.2700  4.6375  0.5099
 9157SOL     OW38932   4.433   4.354   1.645  0.0085  0.3545 -0.3969
 9157SOL    HW138933   4.452   4.353   1.739  2.1622 -0.7457 -0.8439
 9157SOL    HW238934   4.339   4.338   1.647 -0.1324  0.9965 -2.0855
 9158SOL     OW38935   3.352   3.570  15.726 -0.8085 -0.4386  0.0439
 9158SOL    HW138936   3.412   3.532  15.790  1.0129  0.5169 -1.0709
 9158SOL    HW238937   3.370   3.513  15.651  4.0481  0.3184  0.6190
 9159SOL     OW38938   3.723   3.644   4.658  0.2303 -0.1040 -0.0853
 9159SOL    HW138939   3.660   3.579   4.627 -0.6197  0.2107  0.9740
 9159SOL    HW238940   3.777   3.596   4.721  0.7056  3.3792  2.1423
 9160SOL     OW38941   4.693   0.074  10.540  0.0340 -0.2989 -0.9849
 9160SOL    HW138942   0.047   0.041  10.490  1.4420  0.5694  0.5061
 9160SOL    HW238943   4.638   0.089  10.464 -1.2265  1.0014  0.1654
 9161SOL     OW38944   1.006   1.213  14.740 -0.8077 -0.6643  0.2511
 9161SOL    HW138945   1.083   1.214  14.683 -1.6901 -0.1170 -0.9530
 9161SOL    HW238946   0.937   1.167  14.691 -1.0749 -1.4701  1.3975
 9162SOL     OW38947   3.457   1.657   1.180  0.9804  0.3848  0.5460
 9162SOL    HW138948   3.542   1.623   1.153  1.7032  0.8783  2.1774
 9162SOL    HW238949   3.405   1.582   1.150 -0.0241  1.6487 -0.8651
 9163SOL     OW38950   2.512   2.165   7.444 -0.2135  0.1918 -0.6333
 9163SOL    HW138951   2.513   2.078   7.483  0.5139 -0.5480 -2.3055
 9163SOL    HW238952   2.479   2.140   7.358  0.8139  1.2691 -1.3408
 9164SOL     OW38953   2.091   0.774   6.099 -0.8117  0.2197 -0.0067
 9164SOL    HW138954   2.014   0.784   6.155 -0.5372 -0.5233  0.5094
 9164SOL    HW238955   2.131   0.856   6.130 -1.4516  0.2672  0.6901
 9165SOL     OW38956   4.690   3.948   2.069 -0.1654 -0.1430  0.0486
 9165SOL    HW138957   4.695   3.854   2.057 -0.4567  0.0666 -1.6798
 9165SOL    HW238958   4.602   3.943   2.106 -0.1492  2.0323  0.3781
 9166SOL     OW38959   4.321   3.051  10.617  0.5963 -0.3937 -0.1783
 9166SOL    HW138960   4.248   2.997  10.588 -0.0031  2.0917 -3.4013
 9166SOL    HW238961   4.268   3.123  10.653  0.4584 -0.2201 -0.7128
 9167SOL     OW38962   4.594   2.114   7.921 -0.2473 -0.1095 -0.5836
 9167SOL    HW138963   4.624   2.057   7.991 -0.9742  0.4129  0.1582
 9167SOL    HW238964   4.561   2.058   7.851  0.9355 -0.7491 -0.6146
 9168SOL     OW38965   4.224   2.589   6.265 -0.1973 -0.3454 -0.6005
 9168SOL    HW138966   4.295   2.617   6.206  0.2960 -1.5311 -0.5685
 9168SOL    HW238967   4.217   2.502   6.226 -2.3930  0.2158 -1.4630
 9169SOL     OW38968   4.600   0.244   6.850 -0.0799  0.3256  0.0101
 9169SOL    HW138969   4.574   0.187   6.777 -2.3224 -1.2847  2.0804
 9169SOL    HW238970   4.542   0.316   6.826 -0.2761  0.5922  1.2991
 9170SOL     OW38971   2.598   0.842   9.945  0.2553 -0.4672  0.5781
 9170SOL    HW138972   2.683   0.870   9.979  0.8537  0.8747 -2.0747
 9170SOL    HW238973   2.596   0.752   9.978  0.6694 -0.2117  1.3059
 9171SOL     OW38974   3.318   1.188   5.253  0.4925 -0.2923  0.3239
 9171SOL    HW138975   3.403   1.212   5.290  0.4989  0.9787 -0.5289
 9171SOL    HW238976   3.331   1.094   5.237 -0.8324 -0.2904 -0.7374
 9172SOL     OW38977   2.758   1.222  13.700 -0.1047 -0.0091 -0.9431
 9172SOL    HW138978   2.842   1.218  13.746 -0.0632  0.1847 -1.0028
 9172SOL    HW238979   2.700   1.215  13.776  0.4984  0.9828 -0.3979
 9173SOL     OW38980   1.009   4.350   2.872 -0.0609  0.6725  0.9567
 9173SOL    HW138981   1.069   4.424   2.867  1.0821 -0.3953 -1.0414
 9173SOL    HW238982   0.943   4.372   2.807  1.9100  2.6829 -0.3216
 9174SOL     OW38983   2.616   0.769  11.123 -0.1928 -0.1161  0.1745
 9174SOL    HW138984   2.530   0.733  11.146 -0.9032  0.3295 -1.8084
 9174SOL    HW238985   2.644   0.791  11.212 -0.4611  0.9313  0.0025
 9175SOL     OW38986   4.078   0.980   5.677  0.0140  0.0075 -0.0192
 9175SOL    HW138987   4.097   0.917   5.747 -0.6075  0.4373  0.5400
 9175SOL    HW238988   4.163   1.022   5.672 -0.8878  2.0681  1.6125
 9176SOL     OW38989   4.432   3.111   0.817 -0.2234  0.5429  0.7059
 9176SOL    HW138990   4.369   3.041   0.803 -0.0271  0.4571  0.2605
 9176SOL    HW238991   4.498   3.097   0.750  0.4327 -2.0638  1.9114
 9177SOL     OW38992   2.580   4.297   5.044  0.0233 -0.2791  0.2882
 9177SOL    HW138993   2.540   4.346   4.972  1.1280 -0.0070 -0.1381
 9177SOL    HW238994   2.548   4.208   5.029  0.7220 -0.5747  0.5508
 9178SOL     OW38995   1.144   2.584   6.568  0.8170 -0.1844 -0.2658
 9178SOL    HW138996   1.079   2.555   6.632 -0.7467  2.2725 -0.7551
 9178SOL    HW238997   1.194   2.654   6.612  0.2230  0.1116 -0.0651
 9179SOL     OW38998   2.740   3.907   5.702  1.2249  0.5128 -0.4568
 9179SOL    HW138999   2.754   3.862   5.785 -0.5857  0.2513 -0.2717
 9179SOL    HW239000   2.770   3.994   5.728 -1.9423  2.1396 -2.1972
 9180SOL     OW39001   1.463   0.163   2.244  0.8323  0.4069 -0.0170
 9180SOL    HW139002   1.416   0.082   2.222  0.0846  1.0103 -0.6312
 9180SOL    HW239003   1.419   0.226   2.188  0.9725  0.9683  0.5117
 9181SOL     OW39004   1.689   2.638  17.096  0.5864  0.5603  0.1897
 9181SOL    HW139005   1.745   2.584  17.151 -0.9612 -0.7725  0.4651
 9181SOL    HW239006   1.727   2.723  17.118  0.0889  0.6633  0.6527
 9182SOL     OW39007   2.151   0.086  13.396  0.1699 -0.1904  0.1709
 9182SOL    HW139008   2.161   0.179  13.418 -2.9364 -0.1116  1.2436
 9182SOL    HW239009   2.155   0.043  13.481  0.5781  2.2287  1.3876
 9183SOL     OW39010   0.515   4.271  11.007 -0.2713  0.4929  0.0055
 9183SOL    HW139011   0.580   4.253  10.939  1.8272 -1.1478  2.4423
 9183SOL    HW239012   0.569   4.321  11.069 -0.8928 -0.8464  1.6234
 9184SOL     OW39013   0.349   4.041   1.809  0.2330  0.1325  0.5506
 9184SOL    HW139014   0.300   3.962   1.789  0.0835  0.8161 -1.7940
 9184SOL    HW239015   0.439   4.018   1.830  0.4867  0.9799  0.4225
 9185SOL     OW39016   1.878   1.069   7.718  0.2193 -0.4776 -0.1164
 9185SOL    HW139017   1.868   1.156   7.678  0.7474 -0.4432 -0.1791
 9185SOL    HW239018   1.965   1.083   7.756  0.7532  0.2026 -1.5711
 9186SOL     OW39019   0.522   1.123   7.328 -0.4553 -0.3759  0.5216
 9186SOL    HW139020   0.444   1.147   7.377 -1.7760 -0.7514 -1.4281
 9186SOL    HW239021   0.483   1.065   7.263 -0.4531 -0.1028  0.2768
 9187SOL     OW39022   1.109   1.186  16.872  0.5960 -0.8909 -0.1452
 9187SOL    HW139023   1.203   1.194  16.885  0.5394  0.6478 -0.6381
 9187SOL    HW239024   1.087   1.278  16.859  0.9345 -0.9577 -1.2222
 9188SOL     OW39025   0.091   1.380  12.507  0.2052 -0.2743 -0.0508
 9188SOL    HW139026   0.072   1.295  12.545 -1.5858 -0.3523 -1.1133
 9188SOL    HW239027   0.110   1.428  12.588  1.9373  2.3056 -1.9659
 9189SOL     OW39028   4.324   3.349  16.089  0.1813 -0.5017 -0.8253
 9189SOL    HW139029   4.335   3.262  16.050 -1.5867 -0.5391 -1.2569
 9189SOL    HW239030   4.268   3.392  16.024 -1.6064 -2.1709 -0.4049
 9190SOL     OW39031   2.139   3.926   2.059 -0.0428  0.1286 -0.0568
 9190SOL    HW139032   2.092   3.994   2.107 -2.0508 -0.3551 -1.3262
 9190SOL    HW239033   2.080   3.854   2.081  1.6431 -0.9384  0.9796
 9191SOL     OW39034   2.825   2.562   4.276  0.2568 -0.2839  0.4250
 9191SOL    HW139035   2.778   2.530   4.199  0.9907  0.5618 -0.3753
 9191SOL    HW239036   2.877   2.483   4.290 -2.1587 -2.0275 -0.3770
 9192SOL     OW39037   2.416   2.976   7.702  0.0846 -0.2076 -0.1181
 9192SOL    HW139038   2.333   2.940   7.670 -0.2427  1.4905 -1.1563
 9192SOL    HW239039   2.440   3.054   7.653  1.6816 -0.8640 -0.3710
 9193SOL     OW39040   0.298   1.939   9.694 -0.4126  0.2608 -0.5690
 9193SOL    HW139041   0.279   1.866   9.634 -0.8846 -0.6958  0.7408
 9193SOL    HW239042   0.236   1.936   9.766  0.6365 -1.7226  0.2553
 9194SOL     OW39043   2.680   4.085  12.210  0.3642 -0.8498 -0.0862
 9194SOL    HW139044   2.596   4.129  12.226  1.8927  2.4613 -1.3108
 9194SOL    HW239045   2.642   4.004  12.176  0.1711 -0.2503 -1.2909
 9195SOL     OW39046   2.939   0.631  10.733  0.1931  0.3655 -0.0811
 9195SOL    HW139047   2.974   0.546  10.758 -0.7622 -0.3808 -1.2658
 9195SOL    HW239048   2.857   0.645  10.780  2.3537  1.5878  3.3325
 9196SOL     OW39049   2.698   3.919  16.620 -0.0380  0.2648 -0.2251
 9196SOL    HW139050   2.620   3.869  16.647  0.0152 -0.1511 -0.8324
 9196SOL    HW239051   2.758   3.904  16.693  2.0750  0.8543 -1.8378
 9197SOL     OW39052   2.770   2.484  11.005  0.2017 -0.4243  0.0664
 9197SOL    HW139053   2.798   2.550  10.941  1.5430 -1.4350 -0.3897
 9197SOL    HW239054   2.707   2.536  11.054 -0.5710 -0.5491 -0.7997
 9198SOL     OW39055   1.384   0.522   4.308 -0.0182  0.2277  0.4226
 9198SOL    HW139056   1.412   0.433   4.329  1.3064  0.7949  1.0873
 9198SOL    HW239057   1.383   0.519   4.212 -0.4525 -0.2874  0.4423
 9199SOL     OW39058   1.564   2.109   8.158  0.2481  0.6270 -0.0734
 9199SOL    HW139059   1.575   2.193   8.114 -3.9275  1.2815  0.1309
 9199SOL    HW239060   1.483   2.136   8.202  0.8614  1.2240  0.6866
 9200SOL     OW39061   3.043   1.110   8.757  0.2137 -0.1572  0.6475
 9200SOL    HW139062   3.092   1.176   8.706  0.5135 -1.6148 -0.9563
 9200SOL    HW239063   2.955   1.143   8.740  0.5576  0.3057 -0.2573
 9201SOL     OW39064   0.440   3.792   2.337 -0.8267  0.4066  0.3238
 9201SOL    HW139065   0.401   3.747   2.412 -2.0459 -0.7583 -1.0239
 9201SOL    HW239066   0.507   3.848   2.377 -0.1382  0.2160 -0.5629
 9202SOL     OW39067   3.565   1.309   0.460  0.3103 -0.3397  0.1511
 9202SOL    HW139068   3.655   1.296   0.429  0.7038 -0.4055  1.3139
 9202SOL    HW239069   3.510   1.286   0.385  2.5980 -1.5159 -1.1657
 9203SOL     OW39070   3.276   2.239   5.791  0.0371  0.6768  0.0993
 9203SOL    HW139071   3.358   2.280   5.764  0.9847 -0.8114  0.7263
 9203SOL    HW239072   3.282   2.151   5.753 -1.5353  1.9391 -3.1399
 9204SOL     OW39073   2.669   2.751   0.397 -0.2835 -0.2597  0.4170
 9204SOL    HW139074   2.613   2.768   0.472 -2.1402 -2.0006 -0.5842
 9204SOL    HW239075   2.755   2.778   0.430 -1.7484  2.2645  2.0580
 9205SOL     OW39076   2.340   1.971   8.174 -0.2386 -0.4356  0.2478
 9205SOL    HW139077   2.360   2.033   8.244 -0.4795 -0.3662  0.2553
 9205SOL    HW239078   2.346   1.891   8.226  1.6616 -0.4259  0.0139
 9206SOL     OW39079   0.492   4.309  11.629  0.0259  0.3696 -0.3265
 9206SOL    HW139080   0.566   4.368  11.645 -0.0760  0.2152  0.6936
 9206SOL    HW239081   0.451   4.287  11.712 -3.3175 -2.6012 -2.7233
 9207SOL     OW39082   1.203   1.263  14.535 -0.7644  0.4532 -0.3581
 9207SOL    HW139083   1.151   1.199  14.488 -0.3911  0.4483 -0.7591
 9207SOL    HW239084   1.271   1.301  14.479 -0.4403  1.3025  0.6127
 9208SOL     OW39085   1.377   0.705  14.678 -0.1419  0.5817 -0.9036
 9208SOL    HW139086   1.462   0.748  14.669  1.1505 -1.5090  1.1523
 9208SOL    HW239087   1.401   0.647  14.750 -1.5434 -1.2481 -1.8937
 9209SOL     OW39088   0.523   3.423   4.038 -0.4225  0.3187 -0.4299
 9209SOL    HW139089   0.476   3.488   4.090 -1.1793 -0.1883 -0.4716
 9209SOL    HW239090   0.600   3.473   4.013  0.1298  0.7719  2.2207
 9210SOL     OW39091   1.557   3.992  16.806 -0.2031  0.0299 -0.8093
 9210SOL    HW139092   1.503   3.917  16.781  1.6912 -1.9152  0.9071
 9210SOL    HW239093   1.526   4.047  16.734 -3.4800 -0.8920 -0.1318
 9211SOL     OW39094   2.266   0.477   6.820 -0.3139  0.2818 -0.2817
 9211SOL    HW139095   2.228   0.552   6.775  0.2353  0.1090 -1.0366
 9211SOL    HW239096   2.279   0.495   6.913  1.3391  0.5721 -0.5777
 9212SOL     OW39097   4.114   4.165  12.808  0.1706 -0.3336 -0.1870
 9212SOL    HW139098   4.032   4.116  12.811 -1.1824  1.7666 -2.6031
 9212SOL    HW239099   4.094   4.247  12.763  0.1680  0.7360  1.7386
 9213SOL     OW39100   0.954   1.062   7.427 -0.0310  0.0654  0.5440
 9213SOL    HW139101   0.998   1.128   7.373  2.7049 -0.8343  1.7005
 9213SOL    HW239102   1.009   0.985   7.412  1.6302  1.4294 -0.3954
 9214SOL     OW39103   3.140   2.562   4.399 -0.1178 -0.3883 -0.4208
 9214SOL    HW139104   3.185   2.571   4.315  0.2574 -0.3266 -0.2150
 9214SOL    HW239105   3.200   2.508   4.451 -1.1498 -1.0140  0.1224
 9215SOL     OW39106   0.932   0.631   7.531  0.1777  0.0042 -0.0815
 9215SOL    HW139107   0.872   0.694   7.571 -0.1464 -1.1762  1.2865
 9215SOL    HW239108   1.010   0.688   7.531  0.2868 -0.1393  2.7731
 9216SOL     OW39109   0.078   2.778   3.222  0.2889  0.4771  0.6876
 9216SOL    HW139110   0.113   2.852   3.172 -1.2023 -0.0871 -1.1872
 9216SOL    HW239111   0.118   2.782   3.309  1.7799  0.1435  0.0186
 9217SOL     OW39112   3.448   4.263   6.993  0.0431 -0.1457 -0.0484
 9217SOL    HW139113   3.495   4.180   6.990  0.2958 -0.0158  0.3513
 9217SOL    HW239114   3.359   4.229   6.990 -0.5938  1.4649  0.2843
 9218SOL     OW39115   4.245   2.071   9.473  0.3247  0.0453  0.5329
 9218SOL    HW139116   4.287   2.059   9.388  0.2760  0.7698  0.4032
 9218SOL    HW239117   4.318   2.057   9.533 -0.9316  1.0822  2.2787
 9219SOL     OW39118   3.803   1.199   4.946 -0.0144  0.3557  0.4139
 9219SOL    HW139119   3.828   1.113   4.914  0.3850 -0.3314  2.6054
 9219SOL    HW239120   3.841   1.192   5.034  2.0806  0.7849 -0.4668
 9220SOL     OW39121   4.337   2.808  13.337 -0.1479  0.5592  0.1361
 9220SOL    HW139122   4.314   2.724  13.378  1.4748 -0.2716 -0.6744
 9220SOL    HW239123   4.352   2.859  13.417  0.2829 -3.0350  2.3656
 9221SOL     OW39124   0.950   3.986   2.073 -0.2349  0.5188 -0.1959
 9221SOL    HW139125   1.019   3.923   2.092 -0.6248  0.4459  0.9841
 9221SOL    HW239126   0.876   3.925   2.061  1.1314 -0.7643 -2.1885
 9222SOL     OW39127   2.098   1.462  11.473  0.0383 -0.3086  0.2863
 9222SOL    HW139128   2.158   1.503  11.411 -0.5023 -2.8084 -1.8801
 9222SOL    HW239129   2.019   1.500  11.434  1.2931  0.9731 -1.0190
 9223SOL     OW39130   1.161   0.179   9.986 -0.1794 -0.3598  0.3210
 9223SOL    HW139131   1.074   0.190   9.947  0.7556  0.1812 -1.6053
 9223SOL    HW239132   1.178   0.087   9.965  0.5364  0.2990 -1.9642
 9224SOL     OW39133   4.656   0.129   7.472  0.5750 -0.3260 -0.0031
 9224SOL    HW139134   4.674   0.127   7.566 -2.2817 -0.0574  0.5571
 9224SOL    HW239135   4.702   0.049   7.446 -1.1253 -1.4868  0.5356
 9225SOL     OW39136   1.124   4.445   3.606  0.1931 -0.3153 -0.1769
 9225SOL    HW139137   1.187   4.517   3.615 -0.3262 -0.1377  2.0171
 9225SOL    HW239138   1.176   4.383   3.555 -0.1100 -0.8254  0.1367
 9226SOL     OW39139   3.844   0.797   4.513 -0.4273 -0.1768  0.0144
 9226SOL    HW139140   3.826   0.890   4.498 -0.1659 -0.0855  0.2829
 9226SOL    HW239141   3.918   0.784   4.454 -1.7110 -0.5114 -1.5126
 9227SOL     OW39142   3.557   0.818   4.500  0.2029  0.1570 -0.6693
 9227SOL    HW139143   3.649   0.800   4.481  1.0749  0.9164  2.8533
 9227SOL    HW239144   3.555   0.763   4.578 -1.6184  0.6861 -0.3482
 9228SOL     OW39145   4.699   0.132   9.023  0.4111 -0.1560  0.6722
 9228SOL    HW139146   0.049   0.072   8.998  0.0391 -1.4863  2.7495
 9228SOL    HW239147   4.673   0.173   8.941  2.2605  0.2286  0.2862
 9229SOL     OW39148   1.616   3.269   4.574 -0.5611 -0.0682  0.0923
 9229SOL    HW139149   1.599   3.282   4.480 -1.4337 -2.6503 -0.1119
 9229SOL    HW239150   1.551   3.201   4.592 -0.8830  0.7637  2.0161
 9230SOL     OW39151   1.066   0.446   4.159  0.6953 -1.0248  0.0096
 9230SOL    HW139152   1.070   0.480   4.249  1.4114  0.4048 -0.5679
 9230SOL    HW239153   1.064   0.352   4.176  0.4320 -1.1152 -0.5202
 9231SOL     OW39154   3.935   0.191   5.325  0.6887  0.0564  0.2367
 9231SOL    HW139155   4.022   0.184   5.363  1.5837  1.3175 -1.5926
 9231SOL    HW239156   3.897   0.104   5.338  0.8294  0.0808  0.8113
 9232SOL     OW39157   1.050   2.641   6.315  0.6288  0.5358  0.1089
 9232SOL    HW139158   1.102   2.586   6.373 -1.4257 -3.4118 -1.8174
 9232SOL    HW239159   0.966   2.631   6.359  0.2353  3.2002 -0.0281
 9233SOL     OW39160   4.636   2.641   8.863  0.1298  0.6139 -0.0431
 9233SOL    HW139161   4.715   2.587   8.870 -1.1279 -1.0713  1.1852
 9233SOL    HW239162   4.675   2.724   8.889  0.7097  0.3508 -0.0789
 9234SOL     OW39163   2.000   0.339   2.779 -0.4571 -0.2774 -0.6601
 9234SOL    HW139164   1.939   0.337   2.706  1.7747 -0.8485 -2.5159
 9234SOL    HW239165   2.073   0.398   2.761  0.0409 -0.9219 -0.7603
 9235SOL     OW39166   2.106   3.079   2.490 -0.6270  0.0066  0.1650
 9235SOL    HW139167   2.162   3.008   2.459 -1.0439 -1.2196  2.2287
 9235SOL    HW239168   2.149   3.098   2.573  2.4022  0.5232 -1.5480
 9236SOL     OW39169   3.168   2.567   7.268  0.1229 -0.5739  0.4186
 9236SOL    HW139170   3.074   2.569   7.247  0.4484 -2.2167 -1.1235
 9236SOL    HW239171   3.218   2.578   7.188  0.8055 -3.0312  0.4923
 9237SOL     OW39172   1.868   4.107   4.421 -0.0219  0.0810 -0.0212
 9237SOL    HW139173   1.842   4.015   4.431  3.3383 -1.0532 -1.8966
 9237SOL    HW239174   1.851   4.147   4.507  0.6323 -0.5449  0.3971
 9238SOL     OW39175   2.678   3.738  15.294 -0.7453 -0.1568 -0.2377
 9238SOL    HW139176   2.698   3.831  15.308 -2.0343  0.4062 -2.1823
 9238SOL    HW239177   2.583   3.729  15.302 -0.5928 -1.7416 -0.2305
 9239SOL     OW39178   0.927   1.938   7.191  0.0576  0.0972  0.3380
 9239SOL    HW139179   0.913   1.871   7.124  1.5338  1.7098 -1.5777
 9239SOL    HW239180   0.987   1.892   7.250 -1.6204 -1.6064  0.7593
 9240SOL     OW39181   0.774   2.926   8.639  0.3426  0.2300 -0.4174
 9240SOL    HW139182   0.842   2.885   8.587 -0.5411 -0.2628 -1.1756
 9240SOL    HW239183   0.823   2.980   8.701  0.5300 -1.8018  1.2130
 9241SOL     OW39184   3.656   0.692   8.300 -0.4996  0.2330 -0.2635
 9241SOL    HW139185   3.683   0.602   8.316 -2.0325 -0.3338 -0.7920
 9241SOL    HW239186   3.729   0.746   8.329 -0.0912  0.0722 -1.0164
 9242SOL     OW39187   1.003   2.112  14.369 -0.1074 -0.2792  0.0225
 9242SOL    HW139188   0.931   2.054  14.345 -0.6569  0.6089 -0.4919
 9242SOL    HW239189   1.008   2.111  14.465 -2.0801 -0.5561  0.1236
 9243SOL     OW39190   2.429   2.162   0.018 -0.7696  0.4508 -0.2164
 9243SOL    HW139191   2.358   2.107  17.667 -0.0036 -0.5432 -0.2173
 9243SOL    HW239192   2.449   2.220  17.628  0.7250  0.1026 -0.0782
 9244SOL     OW39193   0.560   3.356   2.312  0.1136 -0.4140 -0.2905
 9244SOL    HW139194   0.632   3.296   2.332  1.0148  0.4374 -0.9360
 9244SOL    HW239195   0.580   3.429   2.371  1.6552 -0.4326 -0.7814
 9245SOL     OW39196   3.982   0.037   8.260  0.0891  0.3776 -0.0444
 9245SOL    HW139197   4.056   4.697   8.250  0.3102  0.5526  0.4993
 9245SOL    HW239198   4.006   0.108   8.201 -2.9372  1.7432  0.3477
 9246SOL     OW39199   1.089   1.096  15.528 -0.0881 -0.1737  0.2939
 9246SOL    HW139200   1.015   1.154  15.515 -0.2163 -0.3679  0.1502
 9246SOL    HW239201   1.168   1.144  15.502  1.0650 -0.9656  2.3280
 9247SOL     OW39202   3.339   0.989  17.048  0.1481 -0.2569  1.0487
 9247SOL    HW139203   3.379   0.984  16.961 -2.8012 -1.5607 -0.2239
 9247SOL    HW239204   3.355   0.900  17.081 -2.8406 -1.2375 -0.1235
 9248SOL     OW39205   1.869   0.846  11.910 -0.2628 -0.4972  0.1577
 9248SOL    HW139206   1.777   0.845  11.885  0.1462  0.4043 -1.3364
 9248SOL    HW239207   1.876   0.769  11.968  2.0152  1.2375  2.1626
 9249SOL     OW39208   3.757   0.859  10.544  0.1725  0.1312  0.2107
 9249SOL    HW139209   3.789   0.947  10.562 -2.1637  0.9372  0.3982
 9249SOL    HW239210   3.828   0.812  10.588  0.8460  0.1535 -0.8508
 9250SOL     OW39211   0.972   3.715  13.081 -0.5852  0.1599 -0.0723
 9250SOL    HW139212   1.032   3.644  13.058 -0.8755  0.1108 -0.6858
 9250SOL    HW239213   1.018   3.797  13.066 -0.3349  0.4122  2.0456
 9251SOL     OW39214   0.325   0.140   7.553  0.4389  0.1844  0.0085
 9251SOL    HW139215   0.244   0.096   7.579  0.7889 -0.0926  0.6119
 9251SOL    HW239216   0.336   0.197   7.629 -3.2226  2.0528 -0.8381
 9252SOL     OW39217   2.966   1.517   0.823  0.3301 -0.4401 -0.1679
 9252SOL    HW139218   3.020   1.558   0.891  1.2602 -1.3546 -0.3508
 9252SOL    HW239219   3.024   1.442   0.812 -1.6323 -2.0004  0.2325
 9253SOL     OW39220   1.880   1.441   2.865  0.2621 -0.1734  0.2925
 9253SOL    HW139221   1.819   1.474   2.798  1.1408  0.6235 -0.1272
 9253SOL    HW239222   1.941   1.512   2.884  0.6813 -0.8646  1.4564
 9254SOL     OW39223   3.609   2.740   7.461 -0.0549 -0.6937  0.1461
 9254SOL    HW139224   3.689   2.687   7.459 -0.4166 -1.2143 -0.3424
 9254SOL    HW239225   3.548   2.675   7.495 -1.4642 -0.0399 -1.1038
 9255SOL     OW39226   2.177   2.629   6.136 -0.2251  0.0527 -0.1902
 9255SOL    HW139227   2.207   2.661   6.051  1.5355 -0.4269  0.2632
 9255SOL    HW239228   2.238   2.672   6.196 -0.7751 -1.0942  1.1665
 9256SOL     OW39229   2.955   0.828   3.623  0.1848  0.0137 -0.1106
 9256SOL    HW139230   2.914   0.800   3.541 -2.0266 -0.5555  1.1900
 9256SOL    HW239231   3.023   0.879   3.578  1.2920  0.0178  1.5729
 9257SOL     OW39232   0.026   3.161  13.763  0.9803  0.3084 -0.3079
 9257SOL    HW139233   0.053   3.070  13.777  0.5829  0.4070  1.1624
 9257SOL    HW239234   0.102   3.193  13.714  0.4097  2.3933  0.1591
 9258SOL     OW39235   0.715   2.375   6.691 -0.0794  0.1411 -0.1556
 9258SOL    HW139236   0.709   2.332   6.776 -0.4899 -0.0965 -0.3033
 9258SOL    HW239237   0.624   2.391   6.667  0.0906  0.7827 -0.4005
 9259SOL     OW39238   4.607   2.773   8.065  0.4333 -0.7463  0.9357
 9259SOL    HW139239   4.703   2.772   8.075  0.4747 -0.1010  0.6155
 9259SOL    HW239240   4.587   2.684   8.095  0.4853 -0.7357  1.0024
 9260SOL     OW39241   2.031   3.507   8.195 -0.1074  0.9989 -0.1735
 9260SOL    HW139242   2.002   3.416   8.189  1.4688  0.4641  0.3771
 9260SOL    HW239243   2.124   3.503   8.218  0.1026 -2.9168 -1.7205
 9261SOL     OW39244   1.849   2.950   9.301  1.1221  0.4128 -0.4387
 9261SOL    HW139245   1.791   3.019   9.332 -0.0188 -0.4353 -0.6988
 9261SOL    HW239246   1.787   2.878   9.302  1.4743  0.1066 -1.2394
 9262SOL     OW39247   0.061   3.332  10.633  0.0850 -0.8081 -0.6001
 9262SOL    HW139248   0.030   3.250  10.595 -0.3567 -1.1528  0.4966
 9262SOL    HW239249   0.024   3.394  10.570 -3.6239  0.8720  3.1822
 9263SOL     OW39250   4.546   2.002   5.381 -0.2307  0.4267  0.3694
 9263SOL    HW139251   4.631   2.026   5.417 -0.2307  1.2589 -0.2002
 9263SOL    HW239252   4.559   1.907   5.376 -0.8306  0.3734 -0.2643
 9264SOL     OW39253   0.328   3.361  14.481  0.0792 -0.2918  0.4399
 9264SOL    HW139254   0.292   3.442  14.445 -1.1485 -1.3752 -0.7693
 9264SOL    HW239255   0.258   3.297  14.471 -0.5365  0.4338  0.1321
 9265SOL     OW39256   0.267   1.415   4.003  0.3960 -0.1690  0.5854
 9265SOL    HW139257   0.346   1.413   4.057  2.1013 -0.1678 -1.9128
 9265SOL    HW239258   0.224   1.496   4.030 -0.2274 -0.4813  0.5209
 9266SOL     OW39259   2.337   2.057   7.255  0.7372  0.0363 -0.0928
 9266SOL    HW139260   2.247   2.040   7.281  1.0327  0.4382  1.1781
 9266SOL    HW239261   2.358   1.978   7.205 -2.0499 -0.0942 -1.0417
 9267SOL     OW39262   2.602   1.510  12.188 -0.1974 -0.0463 -0.4220
 9267SOL    HW139263   2.608   1.537  12.279  0.6377  1.4377 -0.9289
 9267SOL    HW239264   2.687   1.541  12.158 -0.3381 -0.9874 -1.8076
 9268SOL     OW39265   1.844   0.166   5.132 -0.1821 -0.0986 -0.3341
 9268SOL    HW139266   1.770   0.191   5.187 -1.5926  2.8749 -3.6218
 9268SOL    HW239267   1.918   0.217   5.166 -0.3617 -1.7424  2.6172
 9269SOL     OW39268   0.296   4.015   8.529 -0.1255 -0.1988  0.3998
 9269SOL    HW139269   0.338   3.946   8.478 -0.2645  1.2281 -1.6692
 9269SOL    HW239270   0.260   4.068   8.458  0.1009  1.7214  1.7227
 9270SOL     OW39271   1.878   4.508   1.937 -0.7297  0.0974 -0.6496
 9270SOL    HW139272   1.809   4.508   2.004 -0.9022  2.4848 -0.8440
 9270SOL    HW239273   1.945   4.474   1.996 -1.4855 -1.1447 -0.4930
 9271SOL     OW39274   2.701   3.024  15.112 -0.1947 -0.1831 -0.1150
 9271SOL    HW139275   2.757   3.082  15.164 -1.1531  0.3110  0.3767
 9271SOL    HW239276   2.625   3.015  15.169  0.1512  1.1989  0.5641
 9272SOL     OW39277   3.869   3.082   4.056  0.2637  0.0542  0.2536
 9272SOL    HW139278   3.920   3.064   3.978 -1.7409  0.0266 -1.0551
 9272SOL    HW239279   3.883   3.008   4.116 -1.4445 -0.7428 -0.3333
 9273SOL     OW39280   2.400   1.129   3.911  0.4443  0.1865  0.6431
 9273SOL    HW139281   2.320   1.170   3.943  0.6297  1.2071 -0.1860
 9273SOL    HW239282   2.427   1.191   3.843 -0.8243  0.6750  0.6007
 9274SOL     OW39283   2.206   2.130  11.229 -0.3786 -0.5089  0.6627
 9274SOL    HW139284   2.246   2.205  11.273 -2.4785  1.3110 -0.5359
 9274SOL    HW239285   2.233   2.053  11.279  0.6588 -1.3454 -1.1887
 9275SOL     OW39286   2.778   4.021   4.507 -0.9719  0.2421  0.4150
 9275SOL    HW139287   2.836   4.077   4.455 -1.1675  0.2992  0.2593
 9275SOL    HW239288   2.841   3.958   4.542  1.9009  1.7813 -1.9774
 9276SOL     OW39289   1.422   1.392   9.281  0.0783  0.2666 -0.8332
 9276SOL    HW139290   1.355   1.424   9.220 -1.6776  1.2236  1.5999
 9276SOL    HW239291   1.413   1.448   9.358 -0.6731 -0.4597 -0.3820
 9277SOL     OW39292   4.586   3.326  11.021  0.0968 -0.3803 -0.2887
 9277SOL    HW139293   4.545   3.240  11.033 -0.4092  0.1281  1.5793
 9277SOL    HW239294   4.644   3.329  11.097  1.9071 -1.1642 -1.6153
 9278SOL     OW39295   4.351   0.378  16.537  0.2135  0.8349  0.4786
 9278SOL    HW139296   4.419   0.401  16.473 -0.9224 -0.4464 -1.1850
 9278SOL    HW239297   4.383   0.423  16.616 -0.0622 -2.9139  2.7434
 9279SOL     OW39298   0.072   4.563   6.850  0.1207 -0.0381 -0.0871
 9279SOL    HW139299   4.705   4.563   6.889  0.5026 -0.1254  0.7630
 9279SOL    HW239300   0.083   4.469   6.860  1.0855 -0.2333 -2.9093
 9280SOL     OW39301   2.218   0.592   5.368  0.4284  0.0501  0.1050
 9280SOL    HW139302   2.301   0.612   5.412 -0.9255  0.9552  2.2178
 9280SOL    HW239303   2.246   0.554   5.284  1.7022  1.2388 -0.0105
 9281SOL     OW39304   3.776   1.378   3.351 -0.2618  0.1088  0.3606
 9281SOL    HW139305   3.871   1.381   3.365 -0.7161 -2.4760  3.9963
 9281SOL    HW239306   3.763   1.283   3.357 -1.6269  0.2508 -0.5232
 9282SOL     OW39307   2.626   3.395  10.847  0.0592 -0.2575  0.3443
 9282SOL    HW139308   2.598   3.357  10.930  0.3392 -2.4008 -0.5455
 9282SOL    HW239309   2.720   3.405  10.861 -0.0117 -0.7508  1.1717
 9283SOL     OW39310   1.790   4.163   2.311 -0.2540 -0.1202 -0.0044
 9283SOL    HW139311   1.703   4.192   2.337 -0.0147 -1.4971  2.3316
 9283SOL    HW239312   1.796   4.097   2.380  0.8323 -0.0905 -0.0601
 9284SOL     OW39313   2.993   0.936   9.823  0.0792 -0.1268  0.2782
 9284SOL    HW139314   2.948   0.911   9.904  0.3763 -1.3561  0.0640
 9284SOL    HW239315   3.083   0.913   9.850  0.5841  1.3386 -0.1544
 9285SOL     OW39316   2.900   3.371   8.415  0.0290 -0.8944 -0.2180
 9285SOL    HW139317   2.848   3.323   8.479 -0.4114 -1.8149 -1.2807
 9285SOL    HW239318   2.851   3.453   8.404  0.9934 -0.4375 -1.0673
 9286SOL     OW39319   2.541   2.838  16.711  0.5135 -0.3372  0.3657
 9286SOL    HW139320   2.550   2.877  16.624 -0.2844  0.9339  0.8433
 9286SOL    HW239321   2.549   2.743  16.707 -1.4889 -0.4897 -0.0044
 9287SOL     OW39322   3.673   0.346   5.578  0.0185 -0.0786 -0.1782
 9287SOL    HW139323   3.705   0.392   5.500 -2.1955  3.0186  0.7431
 9287SOL    HW239324   3.594   0.398   5.595  0.1182  0.2106 -0.5934
 9288SOL     OW39325   2.468   4.707  10.619 -0.8748 -0.0244 -0.2931
 9288SOL    HW139326   2.543   0.044  10.636 -1.9997  1.2659  0.3034
 9288SOL    HW239327   2.502   4.622  10.648  0.5440  0.2788 -1.0418
 9289SOL     OW39328   4.683   2.190   5.964 -0.3482 -0.4892 -0.8045
 9289SOL    HW139329   4.592   2.211   5.988  0.1054  1.2523 -0.6201
 9289SOL    HW239330   0.007   2.273   5.979  0.7757 -1.1721 -0.3189
 9290SOL     OW39331   2.881   3.141   7.988 -0.4472  0.6072  0.4497
 9290SOL    HW139332   2.901   3.149   8.082  3.3526 -0.6475 -0.2601
 9290SOL    HW239333   2.918   3.055   7.970 -0.4802  0.6704  0.0816
 9291SOL     OW39334   1.510   0.195   4.636 -0.9476 -0.5321  0.2744
 9291SOL    HW139335   1.478   0.253   4.705  0.7324  0.2507  0.3896
 9291SOL    HW239336   1.554   0.138   4.700  0.8099 -0.1912 -0.6427
 9292SOL     OW39337   0.850   3.732   2.915 -0.1249 -0.0808 -0.3516
 9292SOL    HW139338   0.903   3.806   2.885  2.2637 -1.2362  1.0403
 9292SOL    HW239339   0.761   3.740   2.881 -1.2875 -0.5268  2.6227
 9293SOL     OW39340   3.353   0.237   3.304  0.8696 -0.0744 -0.7010
 9293SOL    HW139341   3.346   0.210   3.212 -2.4882  0.1048 -0.4878
 9293SOL    HW239342   3.262   0.257   3.327  1.1249 -0.3391  0.4892
 9294SOL     OW39343   3.459   1.352   8.440  0.4040 -0.1614  0.2808
 9294SOL    HW139344   3.402   1.286   8.400 -0.9289 -0.0730  2.0191
 9294SOL    HW239345   3.526   1.347   8.371 -0.9909 -0.1052 -1.0712
 9295SOL     OW39346   1.597   4.092   4.773  0.1966  0.2186  0.5477
 9295SOL    HW139347   1.547   4.013   4.752  0.4333  0.5681 -1.3631
 9295SOL    HW239348   1.529   4.144   4.816  1.6727  1.3262  1.5119
 9296SOL     OW39349   4.473   0.442   9.100  0.3250 -0.0004 -0.0932
 9296SOL    HW139350   4.525   0.448   9.179 -0.4753  0.3188  0.4088
 9296SOL    HW239351   4.423   0.523   9.104 -0.6875 -0.6792  0.9063
 9297SOL     OW39352   3.960   1.958  11.772 -0.0866 -0.2131 -0.0243
 9297SOL    HW139353   3.885   1.928  11.721  0.9547 -0.9822 -1.1083
 9297SOL    HW239354   3.987   1.878  11.818  0.5772  0.7715  1.3126
 9298SOL     OW39355   3.590   2.437   3.840 -0.1597  0.7900 -0.5673
 9298SOL    HW139356   3.499   2.414   3.823 -0.8687  1.8270  1.9542
 9298SOL    HW239357   3.588   2.487   3.921  0.8128 -1.3939  0.7961
 9299SOL     OW39358   2.786   1.033   9.212 -0.3625 -0.3787 -0.1446
 9299SOL    HW139359   2.719   0.966   9.222 -1.1027  0.3514 -0.2747
 9299SOL    HW239360   2.848   0.974   9.168 -0.5797 -1.5968  1.1848
 9300SOL     OW39361   2.217   1.378   1.583  0.4483  0.2354  0.4026
 9300SOL    HW139362   2.242   1.322   1.657 -0.4183  0.7091  1.0508
 9300SOL    HW239363   2.300   1.364   1.536  0.4752 -0.4430  0.6488
 9301SOL     OW39364   2.208   2.880   4.488  0.0008  0.2825 -0.6858
 9301SOL    HW139365   2.176   2.833   4.411 -0.2637 -0.4561 -0.1125
 9301SOL    HW239366   2.175   2.820   4.554 -2.4115  1.2571 -1.0197
 9302SOL     OW39367   2.823   0.432   1.301  0.2587 -0.3510  0.2591
 9302SOL    HW139368   2.818   0.354   1.246  1.6825  0.2671 -0.7347
 9302SOL    HW239369   2.789   0.401   1.385  1.3095 -1.5281  0.2382
 9303SOL     OW39370   0.265   0.968   4.223 -0.3187  0.7315  0.1708
 9303SOL    HW139371   0.194   0.963   4.287  1.3339 -2.3204  1.7549
 9303SOL    HW239372   0.248   1.052   4.181  0.3488  1.8459  2.0928
 9304SOL     OW39373   2.608   2.873   8.271  0.1992 -0.1494 -0.4402
 9304SOL    HW139374   2.619   2.964   8.242 -0.2261  0.1157  0.2242
 9304SOL    HW239375   2.541   2.849   8.208  0.4608  0.4874 -0.9717
 9305SOL     OW39376   0.409   2.963   2.400 -0.3358 -0.3751  0.1746
 9305SOL    HW139377   0.495   2.963   2.442  0.8375 -1.7356 -2.1925
 9305SOL    HW239378   0.429   2.908   2.324  1.7652 -1.3520  1.4300
 9306SOL     OW39379   3.641   1.596  11.713 -0.5773  0.7986  0.8698
 9306SOL    HW139380   3.594   1.536  11.656  2.1112  1.4566 -2.0551
 9306SOL    HW239381   3.579   1.614  11.784 -0.3573 -2.0896  1.7766
 9307SOL     OW39382   0.747   4.566  13.406 -0.7663  0.4498  0.6273
 9307SOL    HW139383   0.836   4.558  13.374 -1.2291  2.0323 -1.0795
 9307SOL    HW239384   0.768   4.562  13.499 -0.1864  0.8860  0.5111
 9308SOL     OW39385   2.754   2.279   4.506 -0.0185  0.1514 -0.7306
 9308SOL    HW139386   2.799   2.207   4.550 -0.1801  0.8812  0.6104
 9308SOL    HW239387   2.827   2.308   4.451  0.1109  0.5204 -0.3588
 9309SOL     OW39388   2.200   2.763   5.271  0.5585 -0.2784 -0.0491
 9309SOL    HW139389   2.217   2.822   5.197  0.5441  0.8888  0.8869
 9309SOL    HW239390   2.105   2.768   5.279  0.4827 -0.1332 -1.0312
 9310SOL     OW39391   0.763   2.179  14.637 -0.3066 -0.1882 -0.1972
 9310SOL    HW139392   0.734   2.259  14.680  2.3274  0.5216  0.2110
 9310SOL    HW239393   0.857   2.193  14.638 -0.5983  1.6603  1.8442
 9311SOL     OW39394   3.007   4.228   5.530 -0.5481  0.7084  0.4926
 9311SOL    HW139395   3.092   4.204   5.567 -1.2689  0.3099  1.8808
 9311SOL    HW239396   3.032   4.305   5.479 -2.0020 -0.2649 -1.6995
 9312SOL     OW39397   0.010   3.455  12.793  0.1680  0.5530  0.2065
 9312SOL    HW139398   4.675   3.433  12.869  1.2944 -2.8951  0.0449
 9312SOL    HW239399   0.079   3.389  12.800 -0.1489  0.4456  2.3701
 9313SOL     OW39400   1.079   2.662   4.802 -0.0799 -0.1227  0.2019
 9313SOL    HW139401   1.154   2.706   4.762  0.1975  0.2162  1.0792
 9313SOL    HW239402   1.097   2.569   4.786  1.0525  0.0614  0.3843
 9314SOL     OW39403   3.768   3.246  12.860  0.7880 -0.2311  0.1630
 9314SOL    HW139404   3.753   3.318  12.921 -0.6312 -0.3325 -0.0570
 9314SOL    HW239405   3.848   3.268  12.812  0.4758 -1.5371 -0.9640
 9315SOL     OW39406   1.255   1.766  16.135 -0.4151  0.3579 -0.2715
 9315SOL    HW139407   1.245   1.815  16.054  1.2182 -0.5120 -1.0067
 9315SOL    HW239408   1.220   1.831  16.195  1.0829  0.0427  0.9411
 9316SOL     OW39409   4.198   3.778   5.185 -0.4166  0.8593  0.5606
 9316SOL    HW139410   4.177   3.851   5.126  1.1981  3.2956  2.9788
 9316SOL    HW239411   4.119   3.724   5.181 -0.2679  0.6683  0.1439
 9317SOL     OW39412   2.145   4.099   4.889  0.1899 -0.0628 -0.5302
 9317SOL    HW139413   2.105   4.173   4.845  2.9389  1.0740 -1.0988
 9317SOL    HW239414   2.185   4.056   4.812  1.0785  0.5467 -0.4105
 9318SOL     OW39415   1.219   0.244  15.472  0.0800 -0.2086 -0.5143
 9318SOL    HW139416   1.148   0.306  15.491 -0.0015 -0.2603 -0.6494
 9318SOL    HW239417   1.170   0.177  15.424 -2.5229  1.0893  0.2976
 9319SOL     OW39418   0.123   1.341   1.378 -0.1539  0.3346 -0.2923
 9319SOL    HW139419   0.165   1.382   1.303 -0.9483 -0.3725 -1.1246
 9319SOL    HW239420   0.199   1.315   1.430  0.8280 -1.6985 -2.7596
 9320SOL     OW39421   0.389   2.620  15.430 -0.3426  0.0836  0.8304
 9320SOL    HW139422   0.323   2.551  15.418  0.2520  0.0917 -2.3817
 9320SOL    HW239423   0.332   2.694  15.449  0.4535  0.9967 -0.3760
 9321SOL     OW39424   3.138   1.154   5.476  0.5699  0.7710 -0.0220
 9321SOL    HW139425   3.063   1.200   5.438 -0.1633 -0.7681 -0.4302
 9321SOL    HW239426   3.206   1.149   5.409  0.1581  0.7250 -0.4381
 9322SOL     OW39427   2.224   0.648  15.137 -0.6774  0.7883  0.1701
 9322SOL    HW139428   2.262   0.720  15.188 -2.6398  1.5050  0.5977
 9322SOL    HW239429   2.245   0.677  15.048 -0.9963  0.6305  0.0443
 9323SOL     OW39430   1.610   2.847   5.771 -0.1754 -0.4422 -0.2091
 9323SOL    HW139431   1.657   2.807   5.845  0.1447 -0.6494 -0.5288
 9323SOL    HW239432   1.646   2.796   5.699 -1.8968  0.6200 -1.8178
 9324SOL     OW39433   1.519   0.570  15.068 -0.6849  0.0369  0.5106
 9324SOL    HW139434   1.450   0.525  15.020  0.4878 -0.0541 -1.0830
 9324SOL    HW239435   1.537   0.500  15.131 -0.2814 -0.9744 -0.7290
 9325SOL     OW39436   1.216   1.297   6.809 -0.2466  0.1400 -0.2292
 9325SOL    HW139437   1.133   1.318   6.850 -0.3736 -0.2689 -0.2722
 9325SOL    HW239438   1.195   1.348   6.731  0.8090  1.1764  0.1643
 9326SOL     OW39439   3.272   0.744   8.917 -0.0556  0.1518  0.7669
 9326SOL    HW139440   3.243   0.670   8.864  1.5164  0.5897 -0.7247
 9326SOL    HW239441   3.341   0.777   8.859  0.9525 -1.6380  0.9465
 9327SOL     OW39442   0.068   3.634   6.448  0.3828 -0.7840  0.1353
 9327SOL    HW139443   0.107   3.718   6.473  1.7210 -2.0422  2.2599
 9327SOL    HW239444   0.134   3.575   6.484  0.8613 -0.6309 -0.4911
 9328SOL     OW39445   1.376   3.046   6.136  0.5230 -0.2343  0.0533
 9328SOL    HW139446   1.348   3.050   6.228  1.6926  0.3421  0.3897
 9328SOL    HW239447   1.458   2.997   6.136  1.1058  0.7411 -0.7881
 9329SOL     OW39448   4.665   0.280   1.418  0.0088 -0.8146  0.0033
 9329SOL    HW139449   4.655   0.293   1.512 -1.4072  2.4263 -0.5907
 9329SOL    HW239450   4.576   0.306   1.394  0.8831  0.6614 -1.6080
 9330SOL     OW39451   1.580   3.643  14.877 -0.4352 -0.0932  0.6764
 9330SOL    HW139452   1.675   3.636  14.888 -0.0704 -0.3604 -2.3977
 9330SOL    HW239453   1.553   3.579  14.811  1.0184 -0.6704  0.6422
 9331SOL     OW39454   0.892   3.412   8.856 -0.2220  0.6597  0.6556
 9331SOL    HW139455   0.877   3.487   8.913 -1.0670  0.1604  1.0850
 9331SOL    HW239456   0.975   3.438   8.815 -0.8480  0.3220 -0.8266
 9332SOL     OW39457   3.084   1.336  12.811 -0.7573  0.4661 -0.6643
 9332SOL    HW139458   3.149   1.343  12.882  0.7236 -0.5258 -1.9272
 9332SOL    HW239459   3.072   1.242  12.816  1.2713  0.3303  1.9971
 9333SOL     OW39460   4.229   1.278   9.843 -0.8131  0.7962  0.6176
 9333SOL    HW139461   4.183   1.207   9.889  0.3907 -0.6262 -0.3569
 9333SOL    HW239462   4.211   1.239   9.757  0.5489  0.3962  0.5180
 9334SOL     OW39463   1.670   0.741   3.581  0.2562 -0.1237 -0.1722
 9334SOL    HW139464   1.738   0.723   3.646  0.1387  0.6348  0.1710
 9334SOL    HW239465   1.661   0.835   3.598  2.0021  0.1477 -0.7712
 9335SOL     OW39466   3.961   0.310  15.918  0.4207  0.0194 -0.0533
 9335SOL    HW139467   3.908   0.368  15.863 -1.7125 -0.6826  1.3033
 9335SOL    HW239468   3.907   0.233  15.904  1.2124 -0.7971  1.3618
 9336SOL     OW39469   0.909   2.211   7.048  0.4740  0.1390  0.5633
 9336SOL    HW139470   0.819   2.215   7.016  1.2172 -0.1394 -1.6049
 9336SOL    HW239471   0.912   2.123   7.086 -1.7022  0.1322  0.6878
 9337SOL     OW39472   1.390   1.366   4.941  0.5841 -0.0240 -0.1152
 9337SOL    HW139473   1.381   1.288   4.996 -0.7807  1.3538  1.6063
 9337SOL    HW239474   1.352   1.328   4.862  1.6106  0.6774 -0.9413
 9338SOL     OW39475   0.632   4.569   5.613 -0.1862  0.3557  0.2839
 9338SOL    HW139476   0.537   4.578   5.616  0.0413  3.3682 -1.0865
 9338SOL    HW239477   0.654   4.543   5.702 -2.0648 -0.3191  0.5552
 9339SOL     OW39478   3.991   4.556   3.919  0.1344  0.0557 -0.0894
 9339SOL    HW139479   3.971   4.488   3.984  0.1405  1.9434  1.8810
 9339SOL    HW239480   3.928   4.540   3.849 -1.3102  3.1960  0.4968
 9340SOL     OW39481   2.552   1.202   5.070  0.1117  0.3425  0.1535
 9340SOL    HW139482   2.557   1.217   4.976 -0.0740  0.5160  0.1730
 9340SOL    HW239483   2.486   1.262   5.103 -0.1324  0.7420 -1.0745
 9341SOL     OW39484   4.330   4.679   1.054  0.0076  0.1183  0.6972
 9341SOL    HW139485   4.425   4.684   1.062  0.0625 -1.3949  0.9568
 9341SOL    HW239486   4.315   4.608   1.116 -1.3595  1.3468  1.7871
 9342SOL     OW39487   0.151   3.889   3.785 -0.7194 -0.3729 -0.2874
 9342SOL    HW139488   0.099   3.904   3.864  0.0461 -0.4734  0.2375
 9342SOL    HW239489   0.159   3.794   3.778 -1.9294 -0.6284  1.6587
 9343SOL     OW39490   3.251   3.206   3.924 -0.3283 -0.1899 -0.2807
 9343SOL    HW139491   3.223   3.290   3.888  2.0198  1.1784  1.1061
 9343SOL    HW239492   3.207   3.215   4.009 -0.4359  0.6510 -0.4211
 9344SOL     OW39493   4.114   1.547   9.864  0.3936  0.2847  0.1597
 9344SOL    HW139494   4.198   1.592   9.859  0.2257  0.7164  1.2455
 9344SOL    HW239495   4.141   1.459   9.889  0.9314  0.7731  1.2937
 9345SOL     OW39496   2.860   3.326   7.079  0.0329 -0.6555  0.6144
 9345SOL    HW139497   2.833   3.239   7.110 -2.3876  0.0098  0.3864
 9345SOL    HW239498   2.793   3.382   7.117  0.0154 -0.9421  1.0027
 9346SOL     OW39499   2.602   0.880   8.734 -0.5575  0.0013 -0.2281
 9346SOL    HW139500   2.524   0.831   8.706  1.2861 -4.2003  1.9903
 9346SOL    HW239501   2.630   0.923   8.653 -1.3284  2.2418  0.6975
 9347SOL     OW39502   3.399   3.548   7.837 -0.9769 -0.5152  0.0388
 9347SOL    HW139503   3.468   3.560   7.773  0.7452 -1.3833  1.7493
 9347SOL    HW239504   3.409   3.462   7.879  0.1133  0.3885  1.6576
 9348SOL     OW39505   3.154   2.692   8.405 -0.2033 -0.5634 -0.5233
 9348SOL    HW139506   3.134   2.746   8.328  1.1533 -0.8305 -1.0629
 9348SOL    HW239507   3.089   2.623   8.399 -0.8795 -0.1292  1.9218
 9349SOL     OW39508   3.674   3.676   3.325  0.4227  0.5646  0.3046
 9349SOL    HW139509   3.653   3.630   3.407  1.3367  2.3648  1.5294
 9349SOL    HW239510   3.696   3.766   3.347 -1.2174  0.1281  3.8017
 9350SOL     OW39511   1.087   1.823   7.362 -0.1328 -0.0240  0.5240
 9350SOL    HW139512   1.159   1.801   7.421  0.6932 -0.0568 -0.4890
 9350SOL    HW239513   1.062   1.738   7.325 -1.5377  0.4859  0.2881
 9351SOL     OW39514   1.141   0.449  16.973  0.2350  0.4423 -0.0498
 9351SOL    HW139515   1.068   0.449  17.035  0.0861  0.2856 -0.2230
 9351SOL    HW239516   1.157   0.543  16.965  2.8217  0.0049  0.0514
 9352SOL     OW39517   3.350   1.106   7.121  0.0496  0.1726  0.6274
 9352SOL    HW139518   3.269   1.153   7.141 -0.8781 -1.6815  1.1722
 9352SOL    HW239519   3.405   1.125   7.197 -0.7786 -0.5345  1.4048
 9353SOL     OW39520   1.548   1.708   7.609  0.4173  0.1853  0.0809
 9353SOL    HW139521   1.536   1.714   7.704  2.8201  2.4784  0.2280
 9353SOL    HW239522   1.640   1.733   7.602 -0.2338  2.1995 -1.2842
 9354SOL     OW39523   1.703   4.499   6.547 -0.0718 -0.0905 -0.1753
 9354SOL    HW139524   1.734   4.588   6.530  1.4229 -0.6910 -0.5676
 9354SOL    HW239525   1.789   4.458   6.542  0.3756  0.8636 -0.1326
 9355SOL     OW39526   3.562   0.441   9.840 -0.2254 -0.4883 -0.2518
 9355SOL    HW139527   3.535   0.472   9.754  3.9009  1.0595 -1.0025
 9355SOL    HW239528   3.497   0.374   9.861  1.5093 -2.2590 -0.5307
 9356SOL     OW39529   0.110   3.687   0.019  0.1665 -0.1611  0.1338
 9356SOL    HW139530   0.175   3.744  17.661 -0.0030  0.1749  0.3258
 9356SOL    HW239531   0.167   3.652   0.088 -0.1732 -2.3831 -0.7245
 9357SOL     OW39532   2.119   4.212  14.983  0.2691  0.5694  0.1627
 9357SOL    HW139533   2.140   4.121  14.961 -1.3398  0.2469  0.0283
 9357SOL    HW239534   2.108   4.200  15.077  1.8738  1.8688  0.5185
 9358SOL     OW39535   1.311   0.173  16.854  0.2941  0.0123 -0.1214
 9358SOL    HW139536   1.305   0.077  16.850 -0.8185  0.0592  0.5054
 9358SOL    HW239537   1.262   0.195  16.933  2.4821 -0.5021  1.3879
 9359SOL     OW39538   0.213   3.815   0.399 -0.4483  0.7091 -0.1700
 9359SOL    HW139539   0.254   3.748   0.344 -0.6942 -0.6296  1.2709
 9359SOL    HW239540   0.274   3.889   0.396  1.1676 -0.7089 -2.3375
 9360SOL     OW39541   2.900   4.617   9.537 -0.2354  0.3021  0.9464
 9360SOL    HW139542   2.952   4.634   9.615  0.2492  2.3339  0.1752
 9360SOL    HW239543   2.933   4.679   9.472 -1.2232  0.3319  0.4763
 9361SOL     OW39544   2.807   3.919  16.141 -0.0418  0.1091 -0.2047
 9361SOL    HW139545   2.883   3.875  16.103  0.3999  0.7025 -0.0255
 9361SOL    HW239546   2.810   3.887  16.230  0.4231 -0.5925 -0.4750
 9362SOL     OW39547   3.918   3.153   7.384  0.5970  0.2325  0.1301
 9362SOL    HW139548   3.882   3.241   7.397 -1.7128 -0.5841 -0.9056
 9362SOL    HW239549   3.850   3.097   7.422  0.9875 -1.3692 -1.5213
 9363SOL     OW39550   3.654   1.649   7.282 -0.3100 -0.1355 -0.2393
 9363SOL    HW139551   3.643   1.681   7.372  3.1129  1.5282 -0.4362
 9363SOL    HW239552   3.614   1.721   7.233  1.6490 -0.7932 -2.7845
 9364SOL     OW39553   1.228   0.782   7.538 -0.0578 -0.4617  0.4619
 9364SOL    HW139554   1.233   0.847   7.608  1.1246 -0.3271  0.2523
 9364SOL    HW239555   1.322   0.772   7.521  0.2140 -0.6964  2.1123
 9365SOL     OW39556   0.347   0.882   6.273  0.1722 -0.2104 -0.5307
 9365SOL    HW139557   0.377   0.907   6.361 -1.1830 -1.4916  0.2980
 9365SOL    HW239558   0.269   0.933   6.255  0.3913 -0.3593 -1.8655
 9366SOL     OW39559   0.305   4.647   3.028 -0.2178  0.2049  0.1799
 9366SOL    HW139560   0.251   4.708   2.977 -1.3576 -0.4429  0.6180
 9366SOL    HW239561   0.312   4.703   3.105  0.4955 -0.5332  0.6465
 9367SOL     OW39562   3.275   0.609   6.616  0.1280 -0.1390  0.0782
 9367SOL    HW139563   3.340   0.569   6.674 -0.7075 -2.4512 -0.5607
 9367SOL    HW239564   3.274   0.696   6.657 -1.6913  0.0119 -0.2730
 9368SOL     OW39565   4.005   1.298   3.805 -0.3692  0.2466  0.4341
 9368SOL    HW139566   4.049   1.271   3.725  0.0356  1.7784  0.1363
 9368SOL    HW239567   4.081   1.331   3.854  0.3928  1.3243 -1.4731
 9369SOL     OW39568   1.094   0.636   6.903 -0.3288 -0.3139 -0.6623
 9369SOL    HW139569   1.130   0.547   6.903  0.8769  0.1790 -3.3213
 9369SOL    HW239570   1.002   0.614   6.918 -0.2979  0.5320  0.8310
 9370SOL     OW39571   1.359   4.708   2.601 -0.5107 -0.0638 -0.1468
 9370SOL    HW139572   1.331   4.633   2.654 -0.1360  0.5124  0.8741
 9370SOL    HW239573   1.271   0.019   2.576  0.1268  0.1536 -2.1193
 9371SOL     OW39574   4.243   2.645   8.037  0.1574  0.3505 -0.1388
 9371SOL    HW139575   4.264   2.581   8.105  3.0957  2.2062  0.6871
 9371SOL    HW239576   4.172   2.697   8.075 -0.5500  0.0934 -1.1135
 9372SOL     OW39577   4.450   3.325   7.886  1.1640 -0.0295  0.6786
 9372SOL    HW139578   4.461   3.375   7.967 -0.6722 -0.5176  1.2220
 9372SOL    HW239579   4.523   3.263   7.892 -0.0299 -1.5194 -0.0741
 9373SOL     OW39580   2.668   3.779   5.461  0.3030 -0.5798  0.0801
 9373SOL    HW139581   2.707   3.828   5.533 -1.6082 -0.7021  1.2022
 9373SOL    HW239582   2.736   3.716   5.436  0.1293 -1.0978  0.9056
 9374SOL     OW39583   1.403   1.914   3.346  0.1749  0.1861  0.7683
 9374SOL    HW139584   1.311   1.907   3.372 -0.0601  0.0124 -0.1177
 9374SOL    HW239585   1.407   1.844   3.281  0.6119  0.8055  0.1395
 9375SOL     OW39586   3.290   1.536   9.726  0.4824  0.0266 -0.1735
 9375SOL    HW139587   3.337   1.548   9.808  0.7635  0.3566 -0.3836
 9375SOL    HW239588   3.335   1.459   9.690  1.9771  0.7084  0.2396
 9376SOL     OW39589   4.009   2.756   8.463  0.9739  0.1993 -0.0373
 9376SOL    HW139590   4.043   2.672   8.495  0.2322  0.2361  0.8215
 9376SOL    HW239591   3.918   2.733   8.479  1.3382 -1.2863 -0.0294
 9377SOL     OW39592   2.323   1.468   2.657  0.5950  0.4545 -0.6295
 9377SOL    HW139593   2.241   1.421   2.642 -0.1173  2.5169 -3.3388
 9377SOL    HW239594   2.334   1.515   2.574  1.4037  1.5490  0.1085
 9378SOL     OW39595   1.279   2.833   8.947  0.7246 -0.3531 -0.2338
 9378SOL    HW139596   1.352   2.806   9.002 -1.1355  0.7895  2.8600
 9378SOL    HW239597   1.263   2.919   8.987 -3.1586  0.5019 -3.5879
 9379SOL     OW39598   0.747   4.590   6.918 -0.0236 -0.2167  0.0854
 9379SOL    HW139599   0.813   4.598   6.987  0.1129  1.1385 -0.2156
 9379SOL    HW239600   0.763   4.496   6.908 -0.9292 -0.4080  0.4645
 9380SOL     OW39601   1.287   1.913   7.160  0.0813 -0.5005  0.2076
 9380SOL    HW139602   1.373   1.906   7.202  0.9845  1.1855 -1.3706
 9380SOL    HW239603   1.228   1.914   7.235 -1.9913 -1.6425 -1.4339
 9381SOL     OW39604   3.393   1.800  17.544 -0.5493 -0.2076  0.0222
 9381SOL    HW139605   3.301   1.826  17.542 -0.8298 -0.9121  3.2289
 9381SOL    HW239606   3.425   1.864  17.480  0.4628 -1.3892 -0.6314
 9382SOL     OW39607   3.861   1.398   4.037 -1.2694 -0.1899 -0.0881
 9382SOL    HW139608   3.817   1.459   3.978  0.6681  0.8608 -0.4337
 9382SOL    HW239609   3.904   1.344   3.971  2.5961 -0.6440  2.7748
 9383SOL     OW39610   2.685   4.257   6.824 -0.2862 -0.4753  0.1819
 9383SOL    HW139611   2.759   4.198   6.836 -1.7154 -2.0521  1.1697
 9383SOL    HW239612   2.729   4.342   6.834 -0.4825 -0.2364 -1.0122
 9384SOL     OW39613   4.618   3.766   7.192 -0.0184 -0.5887 -0.4270
 9384SOL    HW139614   4.576   3.727   7.268 -1.2242  0.9005 -0.3267
 9384SOL    HW239615   4.547   3.825   7.165 -0.2623 -0.2402  0.9947
 9385SOL     OW39616   3.127   3.034   2.776  0.0949  0.6549  0.1894
 9385SOL    HW139617   3.052   3.018   2.718 -2.3150 -1.1015  3.8420
 9385SOL    HW239618   3.136   3.129   2.772 -0.2085  0.7485  1.8846
 9386SOL     OW39619   3.733   0.919  14.057  0.0443  0.3737 -0.2476
 9386SOL    HW139620   3.757   0.988  13.996  0.7693 -0.5794 -1.0361
 9386SOL    HW239621   3.778   0.947  14.137 -0.2334 -0.5773  0.2533
 9387SOL     OW39622   4.089   0.850   5.364 -0.1426 -0.2092  0.3733
 9387SOL    HW139623   4.138   0.779   5.405 -0.4221 -1.1093 -0.8515
 9387SOL    HW239624   4.029   0.863   5.437  0.2307 -1.2080  0.8564
 9388SOL     OW39625   1.018   2.051   9.401 -0.2533  0.4430  0.0067
 9388SOL    HW139626   0.964   1.999   9.460 -1.9253  0.5301 -1.4644
 9388SOL    HW239627   1.037   1.985   9.334  0.6301 -0.2376  0.9344
 9389SOL     OW39628   3.672   3.000  13.053  0.1054  0.0980  0.5339
 9389SOL    HW139629   3.631   2.921  13.019 -0.1544  0.1368  0.7561
 9389SOL    HW239630   3.649   3.060  12.982  1.9062  0.5535  0.3105
 9390SOL     OW39631   1.546   0.020   6.214  0.1199 -0.0625 -0.0073
 9390SOL    HW139632   1.575   0.111   6.219  0.5509 -0.2044  0.1081
 9390SOL    HW239633   1.573   0.005   6.123  0.3643 -0.1444  0.0785
 9391SOL     OW39634   3.447   2.780   3.821  0.0996  0.3338  0.4789
 9391SOL    HW139635   3.523   2.810   3.870  0.6454 -1.7596  0.8954
 9391SOL    HW239636   3.393   2.736   3.886  0.0642 -1.4729 -0.7708
 9392SOL     OW39637   3.446   2.751   4.314  0.2060  0.2407  0.3093
 9392SOL    HW139638   3.370   2.770   4.370  0.6579 -0.4607  1.1645
 9392SOL    HW239639   3.471   2.841   4.296 -3.0424  1.1811  0.4417
 9393SOL     OW39640   2.885   2.793   6.638 -0.0240 -0.0361 -0.0712
 9393SOL    HW139641   2.980   2.786   6.628 -0.2179 -1.9951 -0.4907
 9393SOL    HW239642   2.871   2.722   6.702 -1.6935  0.6624  0.3493
 9394SOL     OW39643   2.653   3.287   5.368 -0.1676 -0.4035 -0.4461
 9394SOL    HW139644   2.651   3.375   5.407 -4.0203 -1.0895  0.9196
 9394SOL    HW239645   2.648   3.309   5.275 -1.3877 -0.0791 -0.3090
 9395SOL     OW39646   3.740   3.303   4.187  0.5299  0.1478 -0.1896
 9395SOL    HW139647   3.666   3.275   4.134  1.4881 -0.1446 -1.3873
 9395SOL    HW239648   3.809   3.260   4.137 -0.3463 -1.5880  0.1144
 9396SOL     OW39649   3.920   3.769   3.010  0.0574 -0.3822 -0.3337
 9396SOL    HW139650   3.830   3.792   3.032  0.2110 -0.7813  0.6924
 9396SOL    HW239651   3.908   3.779   2.915 -0.8098  0.7793 -0.1045
 9397SOL     OW39652   0.762   2.550   4.917  0.1463  0.2954 -1.0573
 9397SOL    HW139653   0.831   2.592   4.968  0.7187 -1.1153 -0.6634
 9397SOL    HW239654   0.766   2.605   4.839  5.9022  0.6552 -0.4900
 9398SOL     OW39655   0.710   1.692   4.153 -0.7793 -0.1494 -0.3798
 9398SOL    HW139656   0.720   1.620   4.091 -0.0335 -1.2610  1.0268
 9398SOL    HW239657   0.770   1.662   4.221  0.8048  3.5091 -0.1326
 9399SOL     OW39658   2.338   0.599   7.784  0.1960 -0.9083  0.3885
 9399SOL    HW139659   2.329   0.505   7.774  3.3435 -1.0583 -0.9331
 9399SOL    HW239660   2.407   0.617   7.848  0.3579  2.0582 -0.5982
 9400SOL     OW39661   3.839   0.839   0.023  0.3526 -0.2882 -0.4312
 9400SOL    HW139662   3.747   0.812   0.023  0.9746 -2.3770  0.0025
 9400SOL    HW239663   3.870   0.779   0.092  1.7973  1.1980  0.2144
 9401SOL     OW39664   0.313   1.513  14.790 -0.1864 -0.4596  0.2522
 9401SOL    HW139665   0.250   1.553  14.850  0.4881  0.0132  0.6369
 9401SOL    HW239666   0.350   1.444  14.846  0.8852  0.3625  0.5486
 9402SOL     OW39667   2.806   2.305   6.744  0.1021 -0.3320 -0.1755
 9402SOL    HW139668   2.759   2.262   6.815  1.6118 -1.5870  0.0851
 9402SOL    HW239669   2.779   2.253   6.668  3.1628 -1.7975 -0.2651
 9403SOL     OW39670   1.438   2.856   2.480 -0.1851 -0.4110  0.7660
 9403SOL    HW139671   1.520   2.858   2.432 -0.3364  0.5286  0.5456
 9403SOL    HW239672   1.437   2.761   2.469 -0.4101 -0.1974 -1.2075
 9404SOL     OW39673   3.260   1.423  11.366  0.5029 -0.5816  0.4170
 9404SOL    HW139674   3.168   1.404  11.344  0.7283  0.0241 -0.9921
 9404SOL    HW239675   3.240   1.454  11.454 -0.9952 -0.3083 -0.0073
 9405SOL     OW39676   2.649   4.245   5.851 -0.6460 -0.5493 -0.6300
 9405SOL    HW139677   2.639   4.209   5.939 -0.9234  0.9579 -0.0433
 9405SOL    HW239678   2.563   4.220   5.816 -0.7872  0.0381 -0.7202
 9406SOL     OW39679   3.157   0.587   5.093 -0.6691  0.4870  0.2094
 9406SOL    HW139680   3.092   0.630   5.038  0.6082  0.0172 -1.6723
 9406SOL    HW239681   3.108   0.556   5.169 -0.7520 -1.9170 -0.8308
 9407SOL     OW39682   1.168   4.705   2.034  0.7101 -0.2014  0.0364
 9407SOL    HW139683   1.157   0.076   2.062 -0.5072  0.1795 -1.6902
 9407SOL    HW239684   1.079   4.673   2.019  0.1826  1.5802 -0.6052
 9408SOL     OW39685   1.800   2.835   0.148  0.0598 -0.0961 -0.1447
 9408SOL    HW139686   1.840   2.921   0.131 -0.1456 -0.4139 -2.2308
 9408SOL    HW239687   1.875   2.776   0.151 -0.3436 -0.5498  1.0891
 9409SOL     OW39688   3.600   0.143   1.297  0.1453 -0.5786  0.2043
 9409SOL    HW139689   3.515   0.120   1.259 -0.3175  0.5488  0.5740
 9409SOL    HW239690   3.608   0.232   1.264  1.6117 -0.7005  0.2317
 9410SOL     OW39691   0.250   2.748   6.946 -0.5441  0.7780 -0.6342
 9410SOL    HW139692   0.294   2.824   6.986  2.6809 -1.5482  0.1939
 9410SOL    HW239693   0.207   2.713   7.024 -0.9378  1.6935 -0.4399
 9411SOL     OW39694   2.840   0.058   2.682  0.5320 -0.0175 -0.0348
 9411SOL    HW139695   2.869   0.126   2.742  1.6794  0.7168 -1.4144
 9411SOL    HW239696   2.899   4.706   2.702 -0.1702 -1.0065 -1.5141
 9412SOL     OW39697   3.689   3.457  13.019 -0.1118  0.1306  0.2405
 9412SOL    HW139698   3.733   3.471  13.103  0.5714 -0.6315  0.0036
 9412SOL    HW239699   3.631   3.390  13.055  0.1509 -1.2671 -1.8969
 9413SOL     OW39700   0.713   0.175   1.328 -0.9983 -0.2630 -0.5340
 9413SOL    HW139701   0.750   0.260   1.307 -0.9681 -0.4644 -1.3074
 9413SOL    HW239702   0.646   0.168   1.259  1.2366 -4.6071 -2.2961
 9414SOL     OW39703   2.223   1.923   6.160  0.1919  0.0010 -0.0165
 9414SOL    HW139704   2.163   1.865   6.208  0.8207 -1.3141 -0.8198
 9414SOL    HW239705   2.310   1.891   6.185  0.3700  2.0729  2.0122
 9415SOL     OW39706   2.817   4.307   2.567  0.2999  0.2075 -0.0550
 9415SOL    HW139707   2.890   4.267   2.520  0.4471 -1.6399  1.7336
 9415SOL    HW239708   2.828   4.266   2.653 -1.2591 -3.6764 -1.6722
 9416SOL     OW39709   4.265   1.057   8.508  0.1029 -0.4082 -0.0363
 9416SOL    HW139710   4.320   0.990   8.549 -0.5297 -1.7750 -1.4334
 9416SOL    HW239711   4.305   1.066   8.422 -0.4295 -2.4798 -0.5069
 9417SOL     OW39712   2.307   2.675   9.927  0.6050  0.0850 -0.0220
 9417SOL    HW139713   2.301   2.604   9.990  0.6139 -0.0596 -0.1836
 9417SOL    HW239714   2.398   2.702   9.923  0.7520 -0.0345  2.7326
 9418SOL     OW39715   2.093   1.133   6.627  0.7472 -0.3798 -0.3003
 9418SOL    HW139716   2.032   1.086   6.684  1.3439  0.6645  1.2115
 9418SOL    HW239717   2.139   1.063   6.580 -0.3554 -0.3144 -1.4771
 9419SOL     OW39718   2.477   0.171  17.356 -0.5689 -0.0762  0.3386
 9419SOL    HW139719   2.410   0.152  17.290 -2.1208  0.9821  1.6215
 9419SOL    HW239720   2.502   0.086  17.393  0.8315  0.3827  0.4405
 9420SOL     OW39721   1.227   1.856   6.886 -0.6964  0.7243  0.2721
 9420SOL    HW139722   1.247   1.857   6.980  0.9870  0.2331 -0.0813
 9420SOL    HW239723   1.188   1.769   6.878 -1.5572  1.1853 -0.5599
 9421SOL     OW39724   3.553   1.661  15.478  0.6362  0.5474 -0.3990
 9421SOL    HW139725   3.530   1.588  15.421 -3.7302  0.5985  1.2347
 9421SOL    HW239726   3.576   1.736  15.424  2.1635 -0.4644 -1.1222
 9422SOL     OW39727   3.585   1.485   6.152 -0.2982 -0.0743 -0.3474
 9422SOL    HW139728   3.637   1.553   6.110 -0.7790  1.1660  1.0360
 9422SOL    HW239729   3.622   1.482   6.240 -0.8727 -0.8772 -0.1329
 9423SOL     OW39730   3.442   4.618   3.210  0.3748 -0.4857  1.0094
 9423SOL    HW139731   3.520   4.651   3.256  0.1680 -0.1551  1.1221
 9423SOL    HW239732   3.482   4.602   3.125  2.8252 -2.7096  2.5871
 9424SOL     OW39733   2.406   4.377  17.304 -0.2586  0.1512 -0.1485
 9424SOL    HW139734   2.394   4.468  17.276 -0.7245  0.0905 -0.1469
 9424SOL    HW239735   2.353   4.320  17.249 -0.7657 -1.4602  2.0096
 9425SOL     OW39736   1.946   3.574   6.533 -0.4561  0.0499 -0.7126
 9425SOL    HW139737   1.898   3.638   6.481 -0.0176 -0.7754 -2.1365
 9425SOL    HW239738   2.035   3.598   6.506 -0.1560  0.1138  0.3583
 9426SOL     OW39739   0.821   4.404   2.681 -0.3784  0.0435 -0.1923
 9426SOL    HW139740   0.749   4.374   2.626 -1.5424 -0.6909  1.7303
 9426SOL    HW239741   0.811   4.499   2.679 -0.9613  0.0328  2.6509
 9427SOL     OW39742   0.937   3.738  13.408  0.0136  0.0729  0.0259
 9427SOL    HW139743   0.971   3.827  13.418  0.7561 -0.6055  3.3549
 9427SOL    HW239744   0.923   3.721  13.314 -0.5965  1.0771 -0.0673
 9428SOL     OW39745   0.605   2.862   3.555  0.1907  0.8691  0.0067
 9428SOL    HW139746   0.548   2.930   3.593 -0.2408  0.5946 -0.1456
 9428SOL    HW239747   0.540   2.803   3.516  0.1253  2.1038 -1.7011
 9429SOL     OW39748   3.294   0.391   2.857 -0.1904  0.4355  0.0987
 9429SOL    HW139749   3.249   0.338   2.791  0.6023  1.2144 -1.0730
 9429SOL    HW239750   3.364   0.432   2.808 -0.0621 -1.8991 -1.6981
 9430SOL     OW39751   0.151   3.831   1.799 -0.2177  0.3092 -0.4881
 9430SOL    HW139752   0.116   3.801   1.715 -1.9310 -1.7229  0.9436
 9430SOL    HW239753   0.089   3.804   1.867  2.4392  0.1229  1.8567
 9431SOL     OW39754   1.207   0.013   4.899 -0.0170 -0.4918  0.0372
 9431SOL    HW139755   1.119   4.709   4.928  0.3636  0.5985  2.1306
 9431SOL    HW239756   1.190   0.025   4.806  0.1992 -0.1221  0.0441
 9432SOL     OW39757   4.224   0.997   7.529 -0.4133  0.6116 -0.5167
 9432SOL    HW139758   4.259   0.986   7.440  0.6913  2.6164 -0.3363
 9432SOL    HW239759   4.208   1.091   7.541  1.0508  0.9132 -0.8922
 9433SOL     OW39760   3.138   1.528   4.080  0.3944 -0.0714 -0.6297
 9433SOL    HW139761   3.200   1.475   4.030 -0.0559  0.1785 -1.4600
 9433SOL    HW239762   3.069   1.464   4.100 -1.3782  2.0946  0.1995
 9434SOL     OW39763   4.051   4.208   7.844  0.4083  0.5881  0.3727
 9434SOL    HW139764   3.958   4.192   7.861  0.0537 -0.1030 -2.2369
 9434SOL    HW239765   4.061   4.232   7.752  0.8845  0.5033  0.4068
 9435SOL     OW39766   3.104   0.250  12.962 -0.7385 -0.1704  0.2195
 9435SOL    HW139767   3.078   0.203  13.042 -2.1464 -1.2947 -0.8978
 9435SOL    HW239768   3.157   0.180  12.925 -1.3095  0.8744 -2.5438
 9436SOL     OW39769   0.850   3.072   0.970 -0.2703  0.0800 -0.5069
 9436SOL    HW139770   0.892   3.087   1.055  1.3008 -0.3383 -1.2092
 9436SOL    HW239771   0.771   3.021   0.988 -1.3714  1.3551 -1.7327
 9437SOL     OW39772   1.914   1.072   2.829 -0.2787 -0.5529  0.1863
 9437SOL    HW139773   1.913   1.002   2.895 -1.6230 -0.5350  0.1889
 9437SOL    HW239774   1.820   1.080   2.815 -0.6070 -1.5714  1.7212
 9438SOL     OW39775   2.756   3.105   5.673 -0.1520  0.0942 -0.0292
 9438SOL    HW139776   2.719   3.045   5.738  0.6212  1.5744  1.8072
 9438SOL    HW239777   2.685   3.170   5.673 -1.1202 -0.9784 -0.9544
 9439SOL     OW39778   4.434   2.576   3.901 -0.2234  0.4438  0.1254
 9439SOL    HW139779   4.423   2.663   3.862  3.4778  1.1877  0.7928
 9439SOL    HW239780   4.504   2.549   3.842 -0.9652 -0.5168 -0.3021
 9440SOL     OW39781   0.923   4.231   8.616  0.3840  1.0902 -0.7597
 9440SOL    HW139782   0.934   4.169   8.544 -1.1657 -0.1166  0.0424
 9440SOL    HW239783   0.828   4.237   8.618  0.2785 -0.7364 -0.8040
 9441SOL     OW39784   0.520   4.147   1.475  0.3482  0.3430  0.1193
 9441SOL    HW139785   0.474   4.230   1.470 -0.2546  0.0584  1.0300
 9441SOL    HW239786   0.556   4.149   1.386 -0.7795  0.3753 -0.3280
 9442SOL     OW39787   0.810   4.332   0.415 -0.3551  0.0296  0.1162
 9442SOL    HW139788   0.846   4.338   0.504  0.9298 -2.1589 -0.2576
 9442SOL    HW239789   0.823   4.240   0.396 -0.5100 -0.0755  0.5035
 9443SOL     OW39790   1.166   3.229   3.582 -0.5272  0.6227 -0.5108
 9443SOL    HW139791   1.155   3.135   3.565  1.5445  0.2787  0.0018
 9443SOL    HW239792   1.144   3.264   3.496 -0.5552 -0.0207 -0.7637
 9444SOL     OW39793   1.606   2.478   0.293  0.0189 -0.4944  0.0140
 9444SOL    HW139794   1.518   2.452   0.266 -0.1732 -1.2013  1.3094
 9444SOL    HW239795   1.651   2.407   0.248  0.8074 -0.0672  0.1189
 9445SOL     OW39796   0.409   2.443  16.362  0.1588 -0.3056 -0.2945
 9445SOL    HW139797   0.353   2.483  16.296 -0.4695 -3.7028 -1.7744
 9445SOL    HW239798   0.490   2.494  16.352 -0.1867  0.7826  2.2565
 9446SOL     OW39799   2.475   3.983   2.794  0.4266  0.7486 -0.0918
 9446SOL    HW139800   2.519   4.046   2.852 -1.3954  0.6330  1.4281
 9446SOL    HW239801   2.547   3.948   2.741  1.0614 -0.1003  1.3247
 9447SOL     OW39802   0.165   2.570   7.547  0.6199  0.0170 -0.7230
 9447SOL    HW139803   0.174   2.486   7.501 -1.2475 -1.6490  1.9930
 9447SOL    HW239804   0.071   2.586   7.555  0.3879 -1.1026 -1.1558
 9448SOL     OW39805   0.500   0.817   5.284  0.3050 -0.1680 -0.2979
 9448SOL    HW139806   0.417   0.786   5.247 -0.6126  1.9901 -0.0885
 9448SOL    HW239807   0.473   0.892   5.337  2.6159  1.3454 -1.2269
 9449SOL     OW39808   2.759   3.499   8.712 -0.0412 -0.2899 -0.7352
 9449SOL    HW139809   2.854   3.507   8.723  0.0969 -2.5243 -0.2292
 9449SOL    HW239810   2.754   3.555   8.635 -0.4003 -0.3398 -0.7476
 9450SOL     OW39811   1.429   4.614  15.343  0.2470 -0.2938  0.0561
 9450SOL    HW139812   1.335   4.622  15.359  0.0104 -0.7627 -1.0799
 9450SOL    HW239813   1.465   4.619  15.431 -0.5415  3.3363  0.1795
 9451SOL     OW39814   0.544   3.311   4.907 -0.3397 -0.0213 -0.2581
 9451SOL    HW139815   0.630   3.275   4.887  0.2611  0.7355  0.9573
 9451SOL    HW239816   0.479   3.246   4.882 -0.4422  0.2978 -0.8216
 9452SOL     OW39817   2.875   4.510   2.162 -0.1877  0.1098  0.5891
 9452SOL    HW139818   2.823   4.577   2.117 -2.0440 -2.0662 -0.5121
 9452SOL    HW239819   2.807   4.468   2.214  0.6784  1.2762  2.6463
 9453SOL     OW39820   3.982   3.608   5.219  0.3470 -0.1445  0.2096
 9453SOL    HW139821   3.887   3.612   5.209  0.2096  0.2851  1.7681
 9453SOL    HW239822   3.993   3.614   5.314  0.3548 -0.4565  0.2277
 9454SOL     OW39823   2.472   1.476  10.727 -0.9480 -0.3856 -0.0710
 9454SOL    HW139824   2.454   1.567  10.749 -0.2674 -0.2654 -0.0144
 9454SOL    HW239825   2.400   1.459  10.666  0.4956 -0.9373 -1.6130
 9455SOL     OW39826   1.134   2.187   8.573  0.0304  0.5311  0.0491
 9455SOL    HW139827   1.164   2.263   8.523 -0.4636  0.7507  0.0877
 9455SOL    HW239828   1.059   2.215   8.626  0.4255  0.1625  0.7982
 9456SOL     OW39829   4.194   3.454  17.470  0.1546  0.0346 -0.8433
 9456SOL    HW139830   4.248   3.462  17.549  0.3132  0.0959 -0.9560
 9456SOL    HW239831   4.120   3.507  17.499  0.8614  0.3875  0.3339
 9457SOL     OW39832   3.088   0.914   8.561  0.6579 -0.1237 -0.1010
 9457SOL    HW139833   3.119   0.984   8.619  1.1282  1.1306 -1.8714
 9457SOL    HW239834   3.010   0.882   8.606  0.9630  2.2407  2.1096
 9458SOL     OW39835   0.770   1.574   9.421  0.1558 -0.0475 -0.0950
 9458SOL    HW139836   0.706   1.522   9.470  0.0754  1.6505  1.5745
 9458SOL    HW239837   0.844   1.567   9.481 -1.8597  1.9974  2.6377
 9459SOL     OW39838   3.879   2.560   4.130 -0.4547  0.3267  0.3789
 9459SOL    HW139839   3.881   2.519   4.216  2.6148  0.0001  0.1418
 9459SOL    HW239840   3.925   2.498   4.074 -0.5750 -0.1712  0.8333
 9460SOL     OW39841   3.874   3.377   6.562 -0.6148 -0.5343  0.0424
 9460SOL    HW139842   3.787   3.336   6.563 -0.5837 -0.6267 -0.8731
 9460SOL    HW239843   3.928   3.309   6.603  1.2792  0.6166 -0.5700
 9461SOL     OW39844   2.505   0.156   9.748 -0.6267 -0.2804  0.1066
 9461SOL    HW139845   2.545   0.107   9.677  1.4928 -1.0562  1.8118
 9461SOL    HW239846   2.512   0.248   9.722  2.1001 -0.2900  0.8161
 9462SOL     OW39847   4.263   2.510   3.609 -0.3866 -0.5006  0.1745
 9462SOL    HW139848   4.313   2.434   3.638  0.8381  1.0042  2.0413
 9462SOL    HW239849   4.284   2.511   3.516 -1.6661  0.2784 -0.1057
 9463SOL     OW39850   2.469   1.214  10.820 -0.1490 -0.1228  0.5308
 9463SOL    HW139851   2.375   1.200  10.803 -0.2236  0.3309  0.5826
 9463SOL    HW239852   2.497   1.286  10.764 -0.7452 -2.3480 -2.6610
 9464SOL     OW39853   1.486   2.492  11.848 -0.2534 -0.5167  0.3153
 9464SOL    HW139854   1.416   2.486  11.913 -0.3816  0.4247  0.2530
 9464SOL    HW239855   1.461   2.572  11.802  0.9443 -0.2363  0.1527
 9465SOL     OW39856   3.665   3.631   7.932 -0.1359  0.0935 -0.3493
 9465SOL    HW139857   3.671   3.693   8.005  2.0591 -1.0158  0.4011
 9465SOL    HW239858   3.573   3.605   7.942  0.2327 -1.4826 -1.2126
 9466SOL     OW39859   0.308   3.462   6.485 -0.1361 -0.0092  0.3045
 9466SOL    HW139860   0.365   3.511   6.544  0.6960 -2.7304  1.7918
 9466SOL    HW239861   0.282   3.398   6.551  1.2463 -1.0278 -0.1344
 9467SOL     OW39862   3.918   2.236   9.022  0.4834  0.3809 -0.0639
 9467SOL    HW139863   3.886   2.306   9.078 -1.8159 -1.3831  0.8177
 9467SOL    HW239864   3.987   2.197   9.076  0.8786  1.2555  0.0612
 9468SOL     OW39865   1.837   1.576   5.956  0.1238 -0.1067  0.0411
 9468SOL    HW139866   1.852   1.607   5.867  0.4227 -1.0433 -0.2347
 9468SOL    HW239867   1.837   1.480   5.949 -1.6040 -0.0910 -0.0775
 9469SOL     OW39868   1.709   0.017  15.371 -0.1202  0.8358  0.2262
 9469SOL    HW139869   1.697   4.653  15.416  0.4502  0.2558 -0.6966
 9469SOL    HW239870   1.641   0.064  15.419  0.4893  2.0780 -0.1341
 9470SOL     OW39871   1.635   0.880   5.521  0.2737 -0.3432 -0.0813
 9470SOL    HW139872   1.605   0.793   5.544  0.1995 -0.0570  0.8734
 9470SOL    HW239873   1.703   0.858   5.456  1.9481 -0.1105  1.5896
 9471SOL     OW39874   3.970   3.125   2.626 -0.3570 -0.1735 -0.2173
 9471SOL    HW139875   4.050   3.096   2.581  1.9571  3.0189  1.8204
 9471SOL    HW239876   4.000   3.163   2.709  1.8593 -2.0000 -0.1703
 9472SOL     OW39877   0.931   3.825   8.206  0.4453 -0.1287  0.3422
 9472SOL    HW139878   0.985   3.753   8.175  1.4285  0.2902  1.0522
 9472SOL    HW239879   0.928   3.879   8.127  0.1990 -0.4303  0.1501
 9473SOL     OW39880   0.629   1.997   3.074  0.4841  0.5079 -0.3068
 9473SOL    HW139881   0.577   2.020   2.997 -0.4913 -1.1942 -0.1485
 9473SOL    HW239882   0.628   2.075   3.129 -1.8846  1.3516 -1.5415
 9474SOL     OW39883   1.427   3.939   3.432  0.0382  0.5353  0.5095
 9474SOL    HW139884   1.505   3.913   3.481 -1.6425 -0.9121  2.4253
 9474SOL    HW239885   1.400   4.021   3.474  0.7980  0.7374  0.6036
 9475SOL     OW39886   4.077   4.148   5.240  0.3284 -0.0735  0.1012
 9475SOL    HW139887   4.088   4.105   5.325  0.0025 -1.9827 -0.8338
 9475SOL    HW239888   4.058   4.071   5.187  0.6760  2.5455 -3.8351
 9476SOL     OW39889   2.887   1.156  13.341  0.9120  0.3886 -0.7360
 9476SOL    HW139890   2.884   1.161  13.246 -2.4177  2.0249 -0.5339
 9476SOL    HW239891   2.975   1.183  13.366  1.1681 -0.5603 -0.5837
 9477SOL     OW39892   2.212   4.575   5.401  0.2551  0.3571 -0.2624
 9477SOL    HW139893   2.128   4.556   5.359  0.1629  1.0222 -0.3807
 9477SOL    HW239894   2.286   4.534   5.357 -0.7838  0.8426 -2.5033
 9478SOL     OW39895   0.516   2.884  15.943 -0.1790  0.3755 -0.3634
 9478SOL    HW139896   0.559   2.803  15.918 -1.0471 -0.4781  0.8991
 9478SOL    HW239897   0.591   2.943  15.953 -0.3644  0.5115  0.2254
 9479SOL     OW39898   1.573   1.670   9.333 -0.0487  0.0947 -0.1609
 9479SOL    HW139899   1.565   1.676   9.428  0.5643 -1.1868 -0.0340
 9479SOL    HW239900   1.590   1.576   9.326 -2.2334 -0.2195 -1.0365
 9480SOL     OW39901   2.687   3.505   9.797 -0.6499 -0.0316  0.1913
 9480SOL    HW139902   2.712   3.497   9.889  1.7437 -1.2115 -0.5656
 9480SOL    HW239903   2.621   3.436   9.799 -0.6637 -0.0782 -1.8873
 9481SOL     OW39904   3.706   4.013  13.855 -0.0717 -0.1715  0.4260
 9481SOL    HW139905   3.681   4.086  13.798 -1.0720 -0.5392  0.4010
 9481SOL    HW239906   3.774   3.968  13.804 -0.3240  0.4261 -0.4321
 9482SOL     OW39907   3.919   0.408   8.306  0.1614  0.0206  0.0806
 9482SOL    HW139908   3.885   0.348   8.373  0.4290 -1.0595 -0.7402
 9482SOL    HW239909   3.905   0.487   8.358  3.9160  1.3635 -0.9378
 9483SOL     OW39910   3.579   2.328   9.156  0.1650 -0.0359  0.2237
 9483SOL    HW139911   3.579   2.261   9.088 -0.0347  1.9315 -1.6900
 9483SOL    HW239912   3.665   2.366   9.143  0.0604  0.3468  0.6191
 9484SOL     OW39913   0.862   4.664   2.971  0.1935 -0.0627 -0.1185
 9484SOL    HW139914   0.882   4.639   2.881 -2.6152  0.3725 -0.8793
 9484SOL    HW239915   0.945   4.704   2.997  1.0077 -1.2897 -0.8317
 9485SOL     OW39916   1.487   0.991   3.874 -0.3164 -0.2305  0.3048
 9485SOL    HW139917   1.514   0.986   3.782  0.3527 -1.6636  0.5793
 9485SOL    HW239918   1.553   0.930   3.908  0.3889 -0.4171 -1.3980
 9486SOL     OW39919   4.439   1.784   1.480  0.6536 -0.1031 -0.1753
 9486SOL    HW139920   4.504   1.835   1.433  0.6914  0.9603  1.0037
 9486SOL    HW239921   4.473   1.696   1.492 -1.9181 -1.4859 -3.0220
 9487SOL     OW39922   3.201   1.428   5.649 -1.0132  0.4224 -0.0566
 9487SOL    HW139923   3.266   1.443   5.719 -0.2257  0.3136 -0.7659
 9487SOL    HW239924   3.206   1.333   5.637 -2.8082  0.4219 -0.7126
 9488SOL     OW39925   2.845   1.325  11.585  0.4177 -0.1383  0.8627
 9488SOL    HW139926   2.750   1.314  11.575  0.3669 -0.8420  2.0636
 9488SOL    HW239927   2.877   1.242  11.622  1.4742  0.1836  0.6726
 9489SOL     OW39928   4.511   3.003   0.174 -0.6067  0.0980 -0.3542
 9489SOL    HW139929   4.503   2.908   0.180 -0.6612  0.3335  3.0461
 9489SOL    HW239930   4.503   3.025   0.266 -1.4458 -0.3198 -0.3295
 9490SOL     OW39931   3.789   1.152  10.188  0.2065 -0.0863 -0.1180
 9490SOL    HW139932   3.851   1.222  10.208 -1.1703  0.9168  0.6276
 9490SOL    HW239933   3.816   1.120  10.102  2.5528  2.3047 -0.2665
 9491SOL     OW39934   3.456   1.980   9.053  0.5070  0.1369  0.3440
 9491SOL    HW139935   3.497   2.057   9.013 -1.9992  0.9226 -0.7161
 9491SOL    HW239936   3.532   1.929   9.081 -0.8303 -0.8111  2.2638
 9492SOL     OW39937   4.081   0.939   9.374 -0.1322 -0.3786  0.0331
 9492SOL    HW139938   4.143   1.002   9.411 -3.5880  1.2793  2.9490
 9492SOL    HW239939   4.136   0.880   9.322  0.9549  0.4652  0.2382
 9493SOL     OW39940   1.303   4.307   6.876  0.2418 -0.6206 -0.0426
 9493SOL    HW139941   1.345   4.392   6.864 -1.4786  0.4565  1.4864
 9493SOL    HW239942   1.375   4.246   6.890  1.2395  0.8324  1.1565
 9494SOL     OW39943   2.513   4.052   4.577  0.5226 -0.1231 -0.4586
 9494SOL    HW139944   2.601   4.021   4.558  0.0969 -0.4629 -1.8539
 9494SOL    HW239945   2.536   4.144   4.589 -2.7708  0.8293 -1.4014
 9495SOL     OW39946   2.059   2.500  14.929 -0.0370 -0.1996 -0.0563
 9495SOL    HW139947   1.996   2.533  14.994  1.3553  0.9859  0.7045
 9495SOL    HW239948   2.070   2.407  14.948 -1.8852  0.1570  2.8961
 9496SOL     OW39949   1.519   3.063   7.204 -0.2860 -0.5355 -0.0360
 9496SOL    HW139950   1.529   3.129   7.135 -0.2594 -0.7872 -0.2700
 9496SOL    HW239951   1.459   2.998   7.167  1.5878 -0.7896 -2.5995
 9497SOL     OW39952   0.091   1.085   9.913  0.2174 -0.5906  0.0483
 9497SOL    HW139953   0.076   1.012   9.974  0.1847  1.1879  2.1639
 9497SOL    HW239954   0.036   1.047   9.845  1.0712 -0.3438 -0.7724
 9498SOL     OW39955   4.644   0.587   3.921  0.3702 -0.3136  0.5838
 9498SOL    HW139956   4.556   0.619   3.898  0.8801  0.3461 -0.4723
 9498SOL    HW239957   4.686   0.598   3.836 -1.0811  0.0485 -0.0978
 9499SOL     OW39958   3.634   3.437   5.297 -0.9768 -0.2511  0.6410
 9499SOL    HW139959   3.603   3.426   5.207  0.3004  0.8274  0.0728
 9499SOL    HW239960   3.657   3.347   5.320  1.7505  0.6818  1.4877
 9500SOL     OW39961   0.035   1.834   5.538 -0.1590  0.3690 -0.5860
 9500SOL    HW139962   0.095   1.899   5.500  0.7721 -1.0403 -1.5578
 9500SOL    HW239963   0.093   1.759   5.553  1.5705  1.9709  0.8166
 9501SOL     OW39964   2.493   0.147   1.917 -0.2097  0.5867  0.2386
 9501SOL    HW139965   2.561   0.099   1.871  0.2070 -0.1127  1.5871
 9501SOL    HW239966   2.545   0.209   1.969  0.7157 -0.5698  0.6831
 9502SOL     OW39967   0.766   0.803   5.948 -0.2148 -0.6780 -0.7774
 9502SOL    HW139968   0.838   0.861   5.922 -1.1748  2.0008  2.4929
 9502SOL    HW239969   0.700   0.820   5.881 -0.0077  3.7647  0.1182
 9503SOL     OW39970   1.636   3.953  11.045 -0.2244 -0.2595 -0.2274
 9503SOL    HW139971   1.581   3.941  11.123 -0.8364 -1.0894 -0.7839
 9503SOL    HW239972   1.651   4.048  11.047 -1.9077 -0.0035  1.0189
 9504SOL     OW39973   2.968   4.529   8.794  0.1106  0.2902 -0.5067
 9504SOL    HW139974   2.895   4.528   8.856  1.6921  2.2352  1.3651
 9504SOL    HW239975   3.039   4.542   8.857  0.0092 -0.5580 -0.2156
 9505SOL     OW39976   0.564   3.523  14.277  0.1139  0.2676  0.1749
 9505SOL    HW139977   0.496   3.510  14.343 -0.1607  2.0814  0.2754
 9505SOL    HW239978   0.630   3.577  14.320  0.0491  0.2528  0.2927
 9506SOL     OW39979   2.459   1.791  12.257 -0.2748 -0.3510 -0.2058
 9506SOL    HW139980   2.383   1.792  12.317 -0.7375  0.4757 -0.8100
 9506SOL    HW239981   2.461   1.699  12.231  1.8083 -0.7571  1.4266
 9507SOL     OW39982   1.591   3.199   7.455 -0.0553 -1.0609 -0.7679
 9507SOL    HW139983   1.622   3.170   7.369  2.8145 -0.3296  0.0160
 9507SOL    HW239984   1.672   3.211   7.505  0.3257 -1.9471 -1.1786
 9508SOL     OW39985   4.624   0.891   2.944 -0.5232 -0.6571 -0.3109
 9508SOL    HW139986   4.597   0.917   3.033 -2.2570  1.2121 -1.3754
 9508SOL    HW239987   4.691   0.956   2.925 -1.9254  1.1643  0.9310
 9509SOL     OW39988   3.399   4.171   8.060 -0.1126  0.3173 -0.3468
 9509SOL    HW139989   3.323   4.154   8.116 -1.4939  0.0771 -2.2935
 9509SOL    HW239990   3.442   4.245   8.104  1.4148  0.3745 -1.9450
 9510SOL     OW39991   0.470   3.220  16.565  0.2288 -0.1687 -0.6385
 9510SOL    HW139992   0.391   3.244  16.615  0.5087 -1.3098  0.3660
 9510SOL    HW239993   0.526   3.199  16.640  0.6418 -2.0284 -1.4589
 9511SOL     OW39994   0.912   4.408   2.207  0.0378  0.0683  0.9550
 9511SOL    HW139995   0.957   4.482   2.248  2.0242 -0.6736  0.1115
 9511SOL    HW239996   0.827   4.440   2.175  0.2842  0.2461  0.4657
 9512SOL     OW39997   2.549   1.408   7.840  0.0034 -0.3973  0.2960
 9512SOL    HW139998   2.461   1.437   7.863 -0.2433 -1.3825  0.6004
 9512SOL    HW239999   2.534   1.390   7.748  0.8154  1.5095 -0.2173
 9513SOL     OW40000   2.912   4.323   7.895  0.0515 -0.1891 -0.0133
 9513SOL    HW140001   2.883   4.361   7.978 -0.7808 -0.9514  0.0409
 9513SOL    HW240002   2.918   4.229   7.912 -2.7547 -0.5719 -1.2013
 9514SOL     OW40003   3.815   1.530  10.409 -0.1491 -0.3014 -0.3025
 9514SOL    HW140004   3.765   1.512  10.488 -1.8345  0.7109 -1.1350
 9514SOL    HW240005   3.750   1.513  10.341 -0.0886 -1.3692 -0.0987
 9515SOL     OW40006   1.483   3.020   8.567  0.8460 -0.2947 -0.1916
 9515SOL    HW140007   1.562   2.979   8.601 -0.6871 -2.7575  0.3992
 9515SOL    HW240008   1.436   2.942   8.539  3.4356 -1.9217  0.0028
 9516SOL     OW40009   4.455   4.554   5.807 -0.7705  0.7288 -0.6288
 9516SOL    HW140010   4.548   4.578   5.809 -0.9508  1.4376 -0.8004
 9516SOL    HW240011   4.437   4.539   5.714  1.0940 -1.9600 -0.5827
 9517SOL     OW40012   0.910   1.560   7.970 -0.8119 -0.3737  0.0549
 9517SOL    HW140013   0.997   1.524   7.986 -0.7796 -1.4751 -2.5307
 9517SOL    HW240014   0.935   1.652   7.974 -0.2175 -0.4844 -1.0873
 9518SOL     OW40015   1.902   3.191   5.496 -0.0765 -0.2084 -0.4054
 9518SOL    HW140016   1.812   3.219   5.478  0.1188  0.3857 -0.4800
 9518SOL    HW240017   1.893   3.141   5.577 -1.0117  1.5645  0.6006
 9519SOL     OW40018   2.153   4.713  11.374  0.4753 -0.1359  0.2054
 9519SOL    HW140019   2.096   4.655  11.424  0.7739  0.4444  1.2230
 9519SOL    HW240020   2.198   0.048  11.438  0.8717 -0.3092  0.0743
 9520SOL     OW40021   0.303   1.851   6.746 -0.1717  0.2716  0.0430
 9520SOL    HW140022   0.284   1.868   6.654 -2.9347 -0.6545  0.4643
 9520SOL    HW240023   0.228   1.792   6.757  0.1025 -0.1121 -0.1178
 9521SOL     OW40024   2.373   1.280   6.704 -0.3104 -0.0178 -0.2798
 9521SOL    HW140025   2.386   1.293   6.611 -1.9313 -1.0126 -0.6514
 9521SOL    HW240026   2.284   1.242   6.703 -0.9913  1.5190  1.3416
 9522SOL     OW40027   4.260   2.974   5.762 -0.2318  0.0680 -0.2226
 9522SOL    HW140028   4.177   2.938   5.730 -0.1408  0.6776 -1.1575
 9522SOL    HW240029   4.266   2.925   5.844  1.4120 -1.4052 -1.2299
 9523SOL     OW40030   4.239   0.015   2.581 -0.5307  0.0105 -0.0875
 9523SOL    HW140031   4.315   4.719   2.525  1.8042  0.0835  3.0517
 9523SOL    HW240032   4.205   0.090   2.534  0.3880  0.2917 -0.2886
 9524SOL     OW40033   0.743   3.182  17.266 -0.0923 -0.2383  0.3304
 9524SOL    HW140034   0.717   3.114  17.328 -0.1855 -1.8623 -1.4981
 9524SOL    HW240035   0.805   3.127  17.219 -0.1088  0.0411 -0.0209
 9525SOL     OW40036   2.061   4.569   0.480 -0.0580 -0.4567 -0.7605
 9525SOL    HW140037   2.115   4.638   0.442  1.7027  0.0895  2.8157
 9525SOL    HW240038   2.001   4.551   0.406 -0.5323 -1.4744 -0.1314
 9526SOL     OW40039   0.566   1.696   4.405 -0.6659  0.1632  0.1851
 9526SOL    HW140040   0.568   1.779   4.453 -0.0289 -0.7378  1.7129
 9526SOL    HW240041   0.616   1.719   4.326  2.0732 -1.4718  1.4437
 9527SOL     OW40042   2.373   4.263   0.517  0.3805 -0.1922  0.1428
 9527SOL    HW140043   2.450   4.273   0.572  0.7425  1.5110 -0.6759
 9527SOL    HW240044   2.300   4.261   0.579  0.1855 -0.7694 -0.1079
 9528SOL     OW40045   1.145   4.044  16.647 -0.1934 -0.1585  0.2906
 9528SOL    HW140046   1.225   4.052  16.700 -1.5694  2.2458  2.0260
 9528SOL    HW240047   1.080   3.997  16.699  0.9633 -2.3123 -0.2356
 9529SOL     OW40048   1.083   1.106   4.639  0.1895 -0.2278  0.2211
 9529SOL    HW140049   1.159   1.160   4.617  0.8226 -0.7710  1.1021
 9529SOL    HW240050   1.014   1.156   4.595  0.7272 -0.8544 -1.3304
 9530SOL     OW40051   1.749   2.960   5.460 -0.2260  0.1485  0.5292
 9530SOL    HW140052   1.692   2.893   5.500  0.7755 -1.3423 -0.5426
 9530SOL    HW240053   1.821   2.965   5.523 -0.9657  1.7777  1.2588
 9531SOL     OW40054   2.729   1.211  10.468  0.2375 -0.8635 -0.0657
 9531SOL    HW140055   2.737   1.153  10.393 -2.6575 -0.9398 -0.3264
 9531SOL    HW240056   2.780   1.157  10.528 -0.8415 -0.4363  1.2489
 9532SOL     OW40057   0.086   4.107   7.615  0.6743 -0.5075  0.2795
 9532SOL    HW140058   0.121   4.170   7.553  0.5692 -3.0949 -2.3914
 9532SOL    HW240059   0.101   4.028   7.564 -1.5132 -0.1792 -0.8831
 9533SOL     OW40060   1.702   4.161   5.659 -0.1701  0.0963  0.8080
 9533SOL    HW140061   1.765   4.113   5.713 -0.8412 -1.7346 -0.0565
 9533SOL    HW240062   1.771   4.198   5.604 -0.8993 -0.6672 -0.6007
 9534SOL     OW40063   1.417   0.463   0.242 -0.1106  0.3072 -0.0452
 9534SOL    HW140064   1.394   0.396   0.306  0.7319  0.4838  0.4484
 9534SOL    HW240065   1.397   0.415   0.162  1.8647 -1.7300  0.7141
 9535SOL     OW40066   2.055   0.869  15.659  0.5488 -0.1522  0.1308
 9535SOL    HW140067   2.132   0.917  15.691 -0.2897  0.7434  0.8180
 9535SOL    HW240068   2.036   0.922  15.581 -1.0510 -2.1050 -0.8002
 9536SOL     OW40069   3.586   4.590   7.584 -0.2234 -0.1253 -0.1524
 9536SOL    HW140070   3.586   4.672   7.534  0.6268 -0.1756 -0.2419
 9536SOL    HW240071   3.517   4.586   7.651 -2.2119 -0.7996 -2.2553
 9537SOL     OW40072   3.150   1.700   2.755 -0.4831 -0.1157 -0.0903
 9537SOL    HW140073   3.068   1.674   2.713 -0.3807 -1.1214  0.3288
 9537SOL    HW240074   3.148   1.789   2.720 -2.5700 -0.0206  0.2365
 9538SOL     OW40075   3.157   4.453  13.087 -0.6443  0.2371 -0.0695
 9538SOL    HW140076   3.228   4.491  13.139 -1.6036  0.1133  1.3009
 9538SOL    HW240077   3.206   4.384  13.042  0.1420  1.0187 -0.4326
 9539SOL     OW40078   1.505   2.882  10.614  0.1322 -0.0677  0.1942
 9539SOL    HW140079   1.550   2.870  10.530  0.1141  1.5758 -0.0444
 9539SOL    HW240080   1.454   2.955  10.580 -0.6663 -1.6451 -1.9272
 9540SOL     OW40081   3.939   3.161   7.975  0.1925  0.1232 -0.1835
 9540SOL    HW140082   3.977   3.249   7.981  1.1413 -0.2923 -0.0161
 9540SOL    HW240083   4.006   3.116   8.026 -1.5802 -1.4983  0.7196
 9541SOL     OW40084   1.280   1.631   4.998 -0.2166 -0.6555 -0.1498
 9541SOL    HW140085   1.321   1.551   4.965  1.2051  0.6106 -1.4880
 9541SOL    HW240086   1.334   1.628   5.077  0.7923 -1.4663 -0.8683
 9542SOL     OW40087   2.053   2.739   2.560  0.1633 -0.2403  0.2261
 9542SOL    HW140088   2.129   2.773   2.513  1.5925 -4.7290 -0.6458
 9542SOL    HW240089   2.043   2.781   2.645  1.1046  0.1043  0.1616
 9543SOL     OW40090   1.013   2.126   0.725  0.6403  0.2751  0.4208
 9543SOL    HW140091   1.086   2.115   0.786 -0.9618 -0.2836  2.2400
 9543SOL    HW240092   1.046   2.205   0.681  1.4627 -0.5614 -0.4571
 9544SOL     OW40093   0.095   0.615   0.310  0.3515  0.6059 -0.0372
 9544SOL    HW140094   0.100   0.691   0.368  0.9871 -0.9568  1.9518
 9544SOL    HW240095   0.158   0.558   0.352  0.9044 -1.0471 -3.1145
 9545SOL     OW40096   3.145   2.654   9.178 -0.5550 -0.4252 -0.4431
 9545SOL    HW140097   3.104   2.655   9.264 -0.9519 -2.8220 -0.6220
 9545SOL    HW240098   3.163   2.561   9.182  1.1901 -0.0664 -0.2204
 9546SOL     OW40099   2.811   2.424   0.024 -0.1326 -0.1275 -0.1709
 9546SOL    HW140100   2.896   2.435  17.666  0.0709  1.1088  0.5768
 9546SOL    HW240101   2.753   2.411  17.632  0.5010 -2.3123 -0.2807
 9547SOL     OW40102   2.144   4.609  13.162  1.0673 -0.1348 -0.1257
 9547SOL    HW140103   2.059   4.610  13.119  1.2598 -0.1976 -0.5128
 9547SOL    HW240104   2.124   4.656  13.243  1.1600  1.6904 -1.1675
 9548SOL     OW40105   0.437   3.875   3.547 -0.5410 -0.5100 -0.3488
 9548SOL    HW140106   0.356   3.922   3.525  0.2187 -0.9746 -4.1162
 9548SOL    HW240107   0.417   3.822   3.624  1.5808 -2.0095 -0.8319
 9549SOL     OW40108   3.785   1.251   6.987 -0.2791 -0.1518 -0.2711
 9549SOL    HW140109   3.717   1.318   6.979  0.7100  0.7177 -1.3508
 9549SOL    HW240110   3.773   1.206   7.071  0.5052 -4.5363 -2.5580
 9550SOL     OW40111   1.742   2.183   6.102 -0.3298 -0.3554  0.1990
 9550SOL    HW140112   1.669   2.122   6.110  0.2342 -0.8938  1.2396
 9550SOL    HW240113   1.746   2.219   6.191 -1.9689  2.9562 -1.0581
 9551SOL     OW40114   4.279   3.744  12.060 -0.0754  0.1428 -0.5462
 9551SOL    HW140115   4.203   3.745  12.119  1.0638  0.7816  0.8971
 9551SOL    HW240116   4.294   3.650  12.073 -0.8740  0.0870  0.0320
 9552SOL     OW40117   2.263   3.997   4.669 -0.5598 -0.2531 -0.3397
 9552SOL    HW140118   2.346   4.025   4.633 -1.2135  0.3443 -1.3585
 9552SOL    HW240119   2.224   3.963   4.589 -2.5208 -1.3786  1.0833
 9553SOL     OW40120   4.626   0.822   5.008  0.1580  0.4121  0.3971
 9553SOL    HW140121   4.660   0.911   5.018 -0.9543  0.7879  0.8248
 9553SOL    HW240122   4.639   0.795   4.917  1.6859 -0.3535  0.8468
 9554SOL     OW40123   4.434   0.802   6.261  0.6020 -0.8435 -0.2858
 9554SOL    HW140124   4.488   0.784   6.184  0.6977 -0.9275 -0.1996
 9554SOL    HW240125   4.423   0.714   6.298  2.0065 -0.0530  2.0250
 9555SOL     OW40126   3.065   2.848   4.805  0.1723 -0.1521  0.1844
 9555SOL    HW140127   2.986   2.794   4.804 -1.3406  2.1038 -0.8166
 9555SOL    HW240128   3.124   2.778   4.834 -0.9232  0.1787  3.1830
 9556SOL     OW40129   2.700   0.127   7.413 -0.8170 -0.2208  0.1992
 9556SOL    HW140130   2.675   0.199   7.356 -1.3390 -0.9137 -0.4558
 9556SOL    HW240131   2.711   0.056   7.350  0.2433  0.5363 -0.4546
 9557SOL     OW40132   1.582   1.823   3.159 -0.3686  0.2267  0.2370
 9557SOL    HW140133   1.608   1.892   3.097 -0.8701  1.0349  0.9160
 9557SOL    HW240134   1.608   1.745   3.110 -0.0230  0.8723 -0.6130
 9558SOL     OW40135   1.698   1.540   7.868 -0.0674  0.0443  0.0479
 9558SOL    HW140136   1.782   1.521   7.826  0.5754  1.2509  0.8088
 9558SOL    HW240137   1.670   1.453   7.896 -2.4394  0.9192  0.3896
 9559SOL     OW40138   1.277   4.037   5.902 -0.3419  0.6040  0.5242
 9559SOL    HW140139   1.253   3.955   5.947 -0.1503 -0.3368 -1.0713
 9559SOL    HW240140   1.274   4.008   5.811  0.7105  1.4586  0.2261
 9560SOL     OW40141   4.151   0.962  13.682  0.1650 -0.1373 -0.7092
 9560SOL    HW140142   4.185   0.946  13.594  1.1359 -0.9256 -0.1883
 9560SOL    HW240143   4.171   1.055  13.679 -2.0556  0.3156 -1.3561
 9561SOL     OW40144   2.507   0.901   4.109 -0.7568  0.2353 -0.2107
 9561SOL    HW140145   2.446   0.884   4.181 -0.1335  1.0992  0.5310
 9561SOL    HW240146   2.460   0.975   4.070  2.5396  1.3174 -2.1389
 9562SOL     OW40147   1.675   0.893   4.873 -0.0140 -0.1481 -0.0155
 9562SOL    HW140148   1.733   0.819   4.853 -0.3822 -0.1958 -0.9300
 9562SOL    HW240149   1.670   0.892   4.969 -4.1982  0.4133 -0.2099
 9563SOL     OW40150   0.844   1.510   5.264  0.4049  0.0298 -0.9940
 9563SOL    HW140151   0.854   1.592   5.313  1.4922 -1.7179  1.7648
 9563SOL    HW240152   0.903   1.518   5.189 -0.5766 -1.8695 -1.9694
 9564SOL     OW40153   2.103   3.924   5.934  0.1750 -0.3044 -0.1478
 9564SOL    HW140154   2.086   3.841   5.977 -0.9586 -0.1033 -0.2180
 9564SOL    HW240155   2.104   3.996   5.998  0.3091 -0.4710  0.0388
 9565SOL     OW40156   3.383   4.198   5.372  0.4687  0.3276 -0.2170
 9565SOL    HW140157   3.469   4.218   5.336 -0.2117  1.3657 -1.2988
 9565SOL    HW240158   3.408   4.192   5.464 -3.5500 -1.0805  0.8047
 9566SOL     OW40159   2.512   0.627  10.132  1.0010 -0.1815 -0.1435
 9566SOL    HW140160   2.585   0.582  10.175  3.0100  1.4675 -1.8387
 9566SOL    HW240161   2.505   0.556  10.068 -0.9704  1.5332 -1.8387
 9567SOL     OW40162   2.042   2.208   8.978  0.4088  0.0866 -0.1953
 9567SOL    HW140163   2.026   2.221   9.072 -0.1771 -0.3035 -0.2372
 9567SOL    HW240164   1.967   2.150   8.964  0.8950 -0.5921  0.0546
 9568SOL     OW40165   1.918   2.541   4.837  0.5596  0.4423  0.0488
 9568SOL    HW140166   1.987   2.592   4.879 -0.4761  0.7090  1.4166
 9568SOL    HW240167   1.861   2.609   4.801 -1.7465 -1.9832 -0.8896
   4.72012   4.72012  17.68311
