Membrane in water
40167
    1TCq1    O1    1   2.547   1.396  11.635 -0.2227 -0.6595  0.2140
    1TCq1    C1    2   2.455   1.445  11.549 -0.4634 -1.0303  0.2379
    1TCq1    O2    3   2.369   1.523  11.587  0.2327  0.0359 -0.5479
    1TCq1    C2    4   2.446   1.368  11.432 -0.5153  0.4237 -0.0691
    1TCq1    C3    5   2.562   1.330  11.376  0.6533  0.8827 -0.1008
    1TCq1    C4    6   2.566   1.271  11.254  0.4119  0.0899 -0.1490
    1TCq1    C5    7   2.445   1.233  11.207 -0.0352  0.6833  0.1376
    1TCq1    C6    8   2.327   1.275  11.259  0.0352  0.2204  0.1446
    1TCq1    C7    9   2.326   1.358  11.367  0.5619 -0.1544 -0.2636
    1TCq1    C8   10   2.206   1.191  11.229 -0.5080  0.0175  0.0928
    1TCq1    O4   11   2.116   1.204  11.308  0.0596  0.2785 -0.0038
    1TCq1    C9   12   2.688   1.233  11.184  0.4765 -0.4575 -0.9037
    1TCq1    O5   13   2.677   1.189  11.069  0.2594 -0.2651  0.2136
    1TCq1    O6   14   2.800   1.257  11.243  0.6246  0.2834  0.1511
    1TCq1    H1   15   2.581   1.310  11.602 -0.8775 -1.4135  1.5032
    1TCq1    H2   16   2.663   1.344  11.411  1.1121 -1.6957 -0.3745
    1TCq1    H3   17   2.453   1.177  11.115  0.7453  0.3207  0.4253
    1TCq1    H4   18   2.228   1.389  11.401 -0.4518 -0.7695 -2.6016
    2MPD2     C   19   1.981   0.738  11.156 -0.1623  0.1163  0.0095
    2MPD2    C1   20   1.993   0.820  11.269 -0.1602 -0.3943  0.3168
    2MPD2    C2   21   2.062   0.933  11.263 -0.2645  0.6846 -0.4234
    2MPD2    C3   22   2.126   0.971  11.146  0.6006  0.7345 -0.2446
    2MPD2    C4   23   2.109   0.898  11.033  0.3952  0.3473 -0.1289
    2MPD2    C5   24   2.036   0.779  11.036  0.5796 -0.4902 -0.2814
    2MPD2     H   25   2.080   0.982  11.358 -0.0701 -0.8690  0.3433
    2MPD2    H1   26   2.142   0.936  10.938  1.7243 -0.2546  0.0904
    2MPD2    H2   27   1.917   0.650  11.156  1.0402 -0.7720 -1.1844
    2MPD2    H3   28   2.018   0.724  10.945 -0.8287 -0.6247  0.0863
    2MPD2     N   29   2.214   1.084  11.138  0.1116  0.1200 -0.3527
    2MPD2    H5   30   2.282   1.093  11.063 -0.5114 -0.4526 -0.9901
    2MPD2    N1   31   1.931   0.799  11.394 -0.0926 -0.1526  0.4080
    2MPD2    H7   32   1.943   0.872  11.464 -0.6219  0.0168  0.3163
    3TCq1    O1   33   2.336   2.173  10.535  0.3081  0.5322  0.1538
    3TCq1    C1   34   2.251   2.170  10.639  0.1838 -0.4291  0.9005
    3TCq1    O2   35   2.231   2.255  10.725  0.1595 -0.5774 -0.0358
    3TCq1    C2   36   2.159   2.054  10.623  0.1196 -0.0811  0.3670
    3TCq1    C3   37   2.145   1.992  10.502 -0.1186 -0.7216 -0.0852
    3TCq1    C4   38   2.054   1.887  10.491 -0.0820  0.2023  0.5679
    3TCq1    C5   39   1.976   1.849  10.597  0.1125  0.1749 -0.1919
    3TCq1    C6   40   1.998   1.912  10.722 -0.0108 -1.2838  0.0142
    3TCq1    C7   41   2.093   2.006  10.736 -0.2396 -0.5036  0.3312
    3TCq1    C8   42   1.905   1.889  10.832  0.3488 -0.2947  0.2732
    3TCq1    O4   43   1.889   1.771  10.861 -0.6906 -0.1996 -0.6746
    3TCq1    C9   44   2.024   1.826  10.367  0.3378 -0.1844  0.5754
    3TCq1    O5   45   2.106   1.848  10.272  0.3186 -0.6302  0.1919
    3TCq1    O6   46   1.907   1.787  10.345 -0.1856  0.1951 -0.0501
    3TCq1    H1   47   2.360   2.086  10.495  0.7727  1.5638 -1.7752
    3TCq1    H2   48   2.204   2.018  10.414  1.4518 -0.1444  1.1387
    3TCq1    H3   49   1.906   1.769  10.578 -0.5290  0.3123  1.6103
    3TCq1    H4   50   2.093   2.071  10.823  1.4671 -0.1736  0.0706
    4MPD2     C   51   1.465   2.026  11.062  0.0052  0.7717  0.0672
    4MPD2    C1   52   1.526   2.142  11.028 -0.1653  0.0929  0.5625
    4MPD2    C2   53   1.652   2.128  10.966 -0.3349 -0.0887  0.1055
    4MPD2    C3   54   1.721   2.009  10.947  0.5067 -0.2137 -0.0780
    4MPD2    C4   55   1.658   1.892  10.992 -0.4764 -0.4875 -0.1757
    4MPD2    C5   56   1.530   1.905  11.046 -0.4236 -0.3740  0.6941
    4MPD2     H   57   1.710   2.211  10.926 -2.2123  0.8336 -0.7299
    4MPD2    H1   58   1.685   1.788  10.982 -0.1364 -0.5406  1.2844
    4MPD2    H2   59   1.364   2.027  11.102 -0.2373 -1.2326 -0.5199
    4MPD2    H3   60   1.486   1.805  11.048  0.4209 -0.7945 -2.2016
    4MPD2     N   61   1.843   2.005  10.875 -0.1615 -0.0012  0.1875
    4MPD2    H5   62   1.879   2.093  10.839 -0.5866  0.7355  1.5659
    4MPD2    N1   63   1.484   2.277  11.052  0.1170  0.3706 -0.2430
    4MPD2    H7   64   1.542   2.353  11.019  0.2324  0.6247  0.5515
    5TCq1    O1   65   2.795   4.135  11.505 -0.6273 -0.0087  0.3364
    5TCq1    C1   66   2.723   4.252  11.522 -0.5301 -0.1949  0.5188
    5TCq1    O2   67   2.678   4.289  11.630  0.5688  0.4328 -0.0618
    5TCq1    C2   68   2.654   4.274  11.392 -0.5828  0.0165 -0.7075
    5TCq1    C3   69   2.619   4.401  11.354  0.0414 -0.9001 -1.1553
    5TCq1    C4   70   2.565   4.418  11.231 -0.0632 -0.2684  0.3313
    5TCq1    C5   71   2.536   4.323  11.141 -0.0496 -0.2143 -0.2876
    5TCq1    C6   72   2.580   4.196  11.181 -0.4984 -0.0855  0.3250
    5TCq1    C7   73   2.638   4.175  11.295  0.1899  0.2894 -0.5602
    5TCq1    C8   74   2.580   4.087  11.090  0.5784  0.9250 -0.3126
    5TCq1    O4   75   2.646   3.988  11.127 -0.6396 -0.3451 -0.0829
    5TCq1    C9   76   2.513   4.551  11.203 -0.5713 -0.0322 -0.0389
    5TCq1    O5   77   2.532   4.637  11.297 -0.1140  0.4925 -0.2153
    5TCq1    O6   78   2.474   4.572  11.082 -0.3417 -0.3624  0.5141
    5TCq1    H1   79   2.801   4.110  11.410  0.5221 -0.2534  0.4735
    5TCq1    H2   80   2.658   4.487  11.408 -1.7696  0.4344 -1.9854
    5TCq1    H3   81   2.490   4.353  11.047  0.2200 -0.7596 -0.5920
    5TCq1    H4   82   2.652   4.071  11.323  0.7465 -0.0550 -2.1488
    6MPD2     C   83   2.449   4.042  10.748  0.6849 -0.5981 -0.4911
    6MPD2    C1   84   2.491   4.008  10.875  0.5273  0.0811 -0.3031
    6MPD2    C2   85   2.484   3.872  10.911  0.3921 -0.6324  0.3029
    6MPD2    C3   86   2.450   3.781  10.815 -0.3652  0.6739 -0.6830
    6MPD2    C4   87   2.403   3.823  10.698  0.1892 -0.1191 -0.0527
    6MPD2    C5   88   2.411   3.952  10.658 -0.0949  0.4172  0.3232
    6MPD2     H   89   2.510   3.833  11.009 -3.0900 -2.3251  0.5348
    6MPD2    H1   90   2.354   3.761  10.623  1.2609 -1.4627  0.3523
    6MPD2    H2   91   2.440   4.144  10.712 -3.1019 -1.1874 -1.2560
    6MPD2    H3   92   2.379   3.975  10.558 -1.7351  1.1226  1.0190
    6MPD2     N   93   2.454   3.644  10.856 -0.4095  0.3539  0.0003
    6MPD2    H5   94   2.484   3.622  10.950 -1.3702 -1.2201 -0.0459
    6MPD2    N1   95   2.517   4.112  10.970 -0.1301  0.4486 -0.2280
    6MPD2    H7   96   2.492   4.206  10.943  0.5275  1.2994  2.1812
    7TCq1    O1   97   3.876   3.706  12.964 -0.2933 -0.2613 -0.0530
    7TCq1    C1   98   3.983   3.673  12.889 -0.2988  0.6632  0.4482
    7TCq1    O2   99   4.093   3.700  12.928 -0.0622 -0.3132  0.5161
    7TCq1    C2  100   3.930   3.549  12.847 -1.0670 -0.5529 -0.2269
    7TCq1    C3  101   3.820   3.554  12.771  0.1341 -0.2947 -0.8663
    7TCq1    C4  102   3.766   3.435  12.724  0.0310 -0.6494  0.4672
    7TCq1    C5  103   3.816   3.314  12.773 -0.0613 -0.5061  0.3047
    7TCq1    C6  104   3.935   3.317  12.842 -0.3083  0.5125  0.1282
    7TCq1    C7  105   3.992   3.436  12.886  0.0167  0.5543  0.2762
    7TCq1    C8  106   3.981   3.202  12.925  1.1474 -0.2277  0.0639
    7TCq1    O4  107   3.937   3.091  12.900  0.0905 -0.2205 -0.0947
    7TCq1    C9  108   3.632   3.446  12.664  0.0784  0.5575 -0.0109
    7TCq1    O5  109   3.545   3.364  12.708 -0.3207  0.1794 -0.3611
    7TCq1    O6  110   3.613   3.533  12.573  0.2865 -0.2484 -0.4814
    7TCq1    H1  111   3.818   3.628  12.972 -0.1244 -0.3576  0.2211
    7TCq1    H2  112   3.769   3.648  12.752 -0.8601 -1.1404 -2.4035
    7TCq1    H3  113   3.761   3.223  12.752 -1.0800  0.2871 -0.4408
    7TCq1    H4  114   4.081   3.456  12.944 -0.3809  0.8998  0.7624
    8MPD2     C  115   4.171   3.044  13.379 -0.3753  0.3060 -0.3076
    8MPD2    C1  116   4.136   2.973  13.272  0.3458 -0.3661  0.2525
    8MPD2    C2  117   4.078   3.040  13.164 -0.6249  0.1109  0.0246
    8MPD2    C3  118   4.072   3.182  13.159 -0.4555 -0.4729 -0.2831
    8MPD2    C4  119   4.111   3.244  13.268  0.0546 -0.4740  0.1331
    8MPD2    C5  120   4.157   3.176  13.377  0.8485 -0.0841  0.6063
    8MPD2     H  121   4.046   2.991  13.072  1.3442  0.2207 -0.7258
    8MPD2    H1  122   4.120   3.352  13.274 -2.6929 -0.3355  1.8187
    8MPD2    H2  123   4.213   2.999  13.469 -0.4380 -0.7455 -0.8003
    8MPD2    H3  124   4.192   3.233  13.462 -2.1846  0.3359  1.5988
    8MPD2     N  125   4.014   3.248  13.047  0.8640 -0.3780 -0.1092
    8MPD2    H5  126   3.981   3.339  13.078 -0.0568  0.1405 -2.6658
    8MPD2    N1  127   4.151   2.835  13.280 -0.0557  0.1943 -0.1179
    8MPD2    H7  128   4.175   2.800  13.372 -3.0646  3.0016  1.7518
    9TCq1    O1  129   1.743   1.547  10.828 -0.3514 -0.5201 -0.3615
    9TCq1    C1  130   1.748   1.482  10.713  0.2602 -0.0764  0.4803
    9TCq1    O2  131   1.647   1.437  10.658  0.2690  0.2520 -0.2383
    9TCq1    C2  132   1.878   1.500  10.651  0.4139 -0.1196  0.5505
    9TCq1    C3  133   1.888   1.461  10.524 -0.2149  0.7390  0.9696
    9TCq1    C4  134   2.008   1.446  10.465  0.0866  0.0010  0.1569
    9TCq1    C5  135   2.124   1.463  10.533 -0.0935 -1.2784 -0.0858
    9TCq1    C6  136   2.117   1.494  10.671  0.2231  0.2289  0.5979
    9TCq1    C7  137   1.992   1.512  10.726  0.4151  0.7805 -0.6387
    9TCq1    C8  138   2.239   1.532  10.737  0.2742 -0.1798 -0.5007
    9TCq1    O4  139   2.334   1.575  10.670  0.4701  0.2817 -0.4433
    9TCq1    C9  140   2.005   1.422  10.323 -0.0620 -0.5008  0.6859
    9TCq1    O5  141   2.114   1.389  10.269 -0.0206  0.3072 -0.3744
    9TCq1    O6  142   1.898   1.412  10.261 -0.1749  0.0064  0.0691
    9TCq1    H1  143   1.818   1.608  10.839 -2.4527  2.5328 -2.7662
    9TCq1    H2  144   1.803   1.437  10.461  0.8795 -1.3026  0.2604
    9TCq1    H3  145   2.221   1.460  10.485  0.5307 -2.4770  1.2421
    9TCq1    H4  146   1.987   1.544  10.830 -0.1800  0.7841 -0.6702
   10MPD2     C  147   2.438   1.636  10.933 -0.5584 -0.0337 -0.4726
   10MPD2    C1  148   2.315   1.590  10.963  0.6507  0.5170  0.6371
   10MPD2    C2  149   2.267   1.612  11.087  0.4850 -0.1928 -0.0192
   10MPD2    C3  150   2.349   1.678  11.181 -0.3444  0.0859  0.3334
   10MPD2    C4  151   2.472   1.721  11.148 -0.5209 -0.2444  0.2475
   10MPD2    C5  152   2.518   1.692  11.025  0.7169  0.0320 -0.1633
   10MPD2     H  153   2.169   1.568  11.104 -0.4580  1.4237 -1.2532
   10MPD2    H1  154   2.546   1.760  11.217  1.5230 -0.2275 -1.9572
   10MPD2    H2  155   2.478   1.629  10.833 -1.3398 -1.2550 -0.6979
   10MPD2    H3  156   2.622   1.713  11.004  1.5978 -0.6108  3.6668
   10MPD2     N  157   2.307   1.706  11.312  0.3563  0.0252 -0.0863
   10MPD2    H5  158   2.362   1.767  11.372 -0.9196  0.8176  0.2791
   10MPD2    N1  159   2.230   1.527  10.871 -0.1388  0.1235  0.2933
   10MPD2    H7  160   2.149   1.476  10.904  0.4548  0.2628  1.9691
   11TCq1    O1  161   3.342   1.308  14.367  0.7255  0.0907  0.0519
   11TCq1    C1  162   3.225   1.350  14.423  0.1887  0.6267 -0.3568
   11TCq1    O2  163   3.166   1.292  14.515 -0.0243  0.1621  0.2955
   11TCq1    C2  164   3.155   1.440  14.329 -0.4320  0.5505 -0.9800
   11TCq1    C3  165   3.201   1.468  14.203  0.6804 -0.3742 -0.3027
   11TCq1    C4  166   3.125   1.550  14.125  0.3988  0.2595  0.6373
   11TCq1    C5  167   2.995   1.577  14.152 -0.2969 -0.1143 -0.2390
   11TCq1    C6  168   2.946   1.540  14.279  0.5388  0.2954  0.0391
   11TCq1    C7  169   3.030   1.470  14.360 -0.3935 -0.4002  0.4928
   11TCq1    C8  170   2.805   1.517  14.298 -0.5675  0.2428 -0.0775
   11TCq1    O4  171   2.770   1.493  14.416  0.7604  0.0909 -0.0244
   11TCq1    C9  172   3.180   1.586  13.999  0.0746  0.0964 -0.8260
   11TCq1    O5  173   3.307   1.578  13.996 -0.6080 -0.3395  0.4879
   11TCq1    O6  174   3.105   1.616  13.903 -0.7845 -0.1895  0.2606
   11TCq1    H1  175   3.385   1.386  14.327  3.5652 -1.8140 -0.5764
   11TCq1    H2  176   3.299   1.437  14.169  0.4055 -0.2131 -1.2397
   11TCq1    H3  177   2.942   1.652  14.096  0.9101  1.5450  0.8280
   11TCq1    H4  178   2.984   1.423  14.446  1.4733 -1.6660  0.7920
   12MPD2     C  179   2.520   1.488  14.266  0.0648  0.8508 -0.3214
   12MPD2    C1  180   2.611   1.464  14.164  0.1391 -0.1456  0.8586
   12MPD2    C2  181   2.569   1.409  14.043 -0.3783 -0.1979 -0.2288
   12MPD2    C3  182   2.433   1.386  14.028  0.6323 -0.0069  0.1665
   12MPD2    C4  183   2.348   1.406  14.134 -0.5469 -0.4747 -0.2304
   12MPD2    C5  184   2.393   1.458  14.250  0.1246 -0.7055  0.1600
   12MPD2     H  185   2.648   1.381  13.976  0.6501  2.6875 -0.2252
   12MPD2    H1  186   2.244   1.378  14.127 -0.3980 -1.0809 -0.0510
   12MPD2    H2  187   2.544   1.526  14.365 -0.9062  0.0698  0.2154
   12MPD2    H3  188   2.328   1.478  14.335 -0.9754 -3.7300  0.0237
   12MPD2     N  189   2.380   1.336  13.905  0.5203  0.2774  0.4204
   12MPD2    H5  190   2.452   1.308  13.840  0.5114 -1.1088  1.0174
   12MPD2    N1  191   2.748   1.485  14.176  0.1172 -0.0124  1.0435
   12MPD2    H7  192   2.811   1.470  14.098 -0.1422 -1.9302  1.1903
   13TCq1    O1  193   2.772   1.409  10.937 -0.5917 -0.2462  0.0596
   13TCq1    C1  194   2.729   1.486  10.832 -0.0975 -0.2254  0.3854
   13TCq1    O2  195   2.799   1.572  10.779 -0.3733 -0.1969 -0.0625
   13TCq1    C2  196   2.657   1.388  10.752  0.3058  0.1559 -0.3039
   13TCq1    C3  197   2.665   1.392  10.616  0.7472 -0.3032  0.0065
   13TCq1    C4  198   2.582   1.327  10.530 -0.1960  0.6023  0.6705
   13TCq1    C5  199   2.485   1.249  10.588 -0.2172 -0.3528 -0.6029
   13TCq1    C6  200   2.470   1.240  10.720  0.3674  0.0614 -0.5935
   13TCq1    C7  201   2.555   1.308  10.803  0.1295 -0.8779  0.9022
   13TCq1    C8  202   2.348   1.187  10.780 -0.8941 -0.4218  0.0186
   13TCq1    O4  203   2.342   1.181  10.901 -0.5400 -0.3498 -0.3166
   13TCq1    C9  204   2.585   1.340  10.390 -0.1002  0.8041  0.8791
   13TCq1    O5  205   2.490   1.285  10.321  1.0420  0.0732  0.4349
   13TCq1    O6  206   2.663   1.429  10.346 -0.0636 -0.6266  0.2029
   13TCq1    H1  207   2.722   1.329  10.963 -0.0916 -0.3951  0.5590
   13TCq1    H2  208   2.728   1.466  10.568  0.1476 -1.0899 -2.0054
   13TCq1    H3  209   2.428   1.179  10.529  1.6757 -1.3877 -1.1961
   13TCq1    H4  210   2.541   1.307  10.911 -1.5402  0.3761  0.6923
   14MPD2     C  211   2.036   1.131  10.615 -0.0898  0.0040 -0.0699
   14MPD2    C1  212   2.115   1.171  10.718 -0.5261 -0.1119  0.4560
   14MPD2    C2  213   2.060   1.203  10.839 -0.1526 -0.3202  0.5460
   14MPD2    C3  214   1.920   1.205  10.852 -0.2982  0.2292 -0.6670
   14MPD2    C4  215   1.845   1.158  10.747  0.8287  0.5670 -0.1663
   14MPD2    C5  216   1.903   1.124  10.632  0.1986 -0.5435  0.4868
   14MPD2     H  217   2.124   1.244  10.916 -0.0916 -0.7442  0.7218
   14MPD2    H1  218   1.737   1.157  10.755  0.9163 -0.1031  0.9653
   14MPD2    H2  219   2.073   1.109  10.516 -0.3060 -0.5702 -0.0223
   14MPD2    H3  220   1.849   1.104  10.540 -1.2206 -1.3223  1.4853
   14MPD2     N  221   1.854   1.270  10.960 -0.1181 -0.2251  0.3341
   14MPD2    H5  222   1.754   1.257  10.963 -0.5260  2.5535 -1.2468
   14MPD2    N1  223   2.253   1.177  10.686 -0.5529  0.2550 -0.5433
   14MPD2    H7  224   2.279   1.179  10.588  2.6617 -1.6788  0.2936
   15TCq1    O1  225   4.146   4.712   2.085  0.2955  0.0494  0.5871
   15TCq1    C1  226   4.222   4.677   1.974  0.1419 -0.1426 -0.0809
   15TCq1    O2  227   4.320   4.605   1.980  0.1083 -0.2576 -0.6115
   15TCq1    C2  228   4.168   0.010   1.859  0.5891  0.1964 -0.7844
   15TCq1    C3  229   4.153   0.142   1.848  0.1311  0.4759 -0.0562
   15TCq1    C4  230   4.146   0.197   1.728 -0.3889  0.5835 -0.2467
   15TCq1    C5  231   4.163   0.126   1.608  0.9084  0.1576 -0.2005
   15TCq1    C6  232   4.196   4.713   1.622  0.0974  0.1560 -0.4361
   15TCq1    C7  233   4.208   4.663   1.750 -0.5485  0.1453  0.3492
   15TCq1    C8  234   4.219   4.629   1.508  0.5809 -0.5637 -1.0522
   15TCq1    O4  235   4.246   4.510   1.533  0.1514  0.0700  0.4844
   15TCq1    C9  236   4.103   0.339   1.730 -0.0679  0.0326  0.2673
   15TCq1    O5  237   4.077   0.392   1.842  0.4807 -0.8411 -0.4371
   15TCq1    O6  238   4.115   0.395   1.615 -0.0648 -0.4886  0.6727
   15TCq1    H1  239   4.061   0.034   2.067  0.1533 -0.3824  0.1863
   15TCq1    H2  240   4.155   0.202   1.938  0.0497  0.6489 -0.1686
   15TCq1    H3  241   4.148   0.174   1.512  0.5206  0.2221 -0.1080
   15TCq1    H4  242   4.236   4.558   1.759  1.5157  0.5510 -1.2374
   16MPD2     C  243   4.228   4.708   1.132  0.3134  0.0752 -0.1154
   16MPD2    C1  244   4.245   4.640   1.255 -0.1593  0.0900 -0.5048
   16MPD2    C2  245   4.324   4.525   1.246 -0.0682 -0.3995 -0.0880
   16MPD2    C3  246   4.366   4.464   1.123  0.8335 -0.5440  0.1405
   16MPD2    C4  247   4.330   4.527   1.006 -0.0878 -0.1193 -0.1240
   16MPD2    C5  248   4.273   4.655   1.013 -0.3311 -0.4676  0.2616
   16MPD2     H  249   4.340   4.484   1.345 -0.1834 -0.7543 -0.2149
   16MPD2    H1  250   4.357   4.500   0.904 -2.2908 -1.0696 -0.4434
   16MPD2    H2  251   4.171   0.077   1.123 -0.4701 -0.6063 -2.2521
   16MPD2    H3  252   4.251   4.701   0.917  0.5722  1.3421  0.8999
   16MPD2     N  253   4.423   4.336   1.135  0.0479 -0.2094 -0.3913
   16MPD2    H5  254   4.418   4.301   1.230  0.8998  2.2595  0.5614
   16MPD2    N1  255   4.209   4.693   1.383  0.0368 -0.2281 -0.4321
   16MPD2    H7  256   4.164   0.060   1.394 -1.0689 -0.7736 -0.4903
   17TCq1    O1  257   0.929   1.184  10.320 -0.0332  0.1843 -0.5866
   17TCq1    C1  258   0.999   1.267  10.243  0.8394 -0.5694 -0.3187
   17TCq1    O2  259   0.949   1.358  10.173  0.0145 -0.0709  0.3257
   17TCq1    C2  260   1.128   1.270  10.290 -0.3850 -0.2596 -0.1951
   17TCq1    C3  261   1.213   1.351  10.220 -0.0411  0.0093  0.2365
   17TCq1    C4  262   1.333   1.384  10.278 -0.6059 -0.7219 -0.7212
   17TCq1    C5  263   1.366   1.325  10.397 -0.1856 -0.3047 -0.7452
   17TCq1    C6  264   1.274   1.263  10.472 -0.6229  0.1824  0.4745
   17TCq1    C7  265   1.147   1.239  10.423 -0.1919 -0.0408  0.1774
   17TCq1    C8  266   1.319   1.177  10.575  0.4080 -0.9789 -0.2083
   17TCq1    O4  267   1.245   1.156  10.669 -0.2434  0.0811  0.2829
   17TCq1    C9  268   1.426   1.460  10.205 -0.4454  0.3296 -0.8064
   17TCq1    O5  269   1.532   1.483  10.266  0.3410  0.6599 -0.2439
   17TCq1    O6  270   1.411   1.491  10.081  0.0492 -0.1592  0.0908
   17TCq1    H1  271   0.988   1.113  10.354  0.7554  1.0651 -0.1391
   17TCq1    H2  272   1.193   1.387  10.120  2.2087 -2.0090 -0.9331
   17TCq1    H3  273   1.469   1.338  10.428 -0.5518 -0.4811  0.5526
   17TCq1    H4  274   1.077   1.181  10.483  1.2252  0.1709  2.0358
   18MPD2     C  275   1.471   0.992  10.736  1.1776 -0.2760  1.0612
   18MPD2    C1  276   1.493   1.009  10.602  0.0182  0.1802 -0.2401
   18MPD2    C2  277   1.599   0.951  10.533  0.0391 -0.3562 -1.1323
   18MPD2    C3  278   1.687   0.875  10.606 -0.2187  0.3263 -0.2049
   18MPD2    C4  279   1.665   0.858  10.749  0.4023  0.9502 -0.3754
   18MPD2    C5  280   1.555   0.907  10.805  0.4772 -0.0003  0.2644
   18MPD2     H  281   1.622   0.964  10.427  0.5993 -1.0307 -1.0973
   18MPD2    H1  282   1.738   0.797  10.801 -0.9155 -0.9984 -0.8101
   18MPD2    H2  283   1.385   1.028  10.791  1.9892  0.2755  1.9743
   18MPD2    H3  284   1.530   0.891  10.909  0.5935 -1.8857 -0.0063
   18MPD2     N  285   1.798   0.817  10.555 -0.2347  0.1069  0.0489
   18MPD2    H5  286   1.858   0.767  10.619 -1.3027  0.6682  1.4752
   18MPD2    N1  287   1.423   1.106  10.521  0.6694  0.1307  0.5445
   18MPD2    H7  288   1.472   1.140  10.439 -0.6184 -1.5873 -0.9458
   19TMC2    C1  289   3.695   1.236  13.618 -0.4778  0.2537  0.4638
   19TMC2    C2  290   3.645   1.286  13.499 -0.2477  0.1485 -0.3942
   19TMC2    C3  291   3.529   1.232  13.447 -0.0432 -0.6216 -0.2049
   19TMC2    C4  292   3.630   1.143  13.687  0.1160 -0.0998 -0.0362
   19TMC2    C5  293   3.515   1.088  13.634 -0.6582 -0.3460 -0.4742
   19TMC2    C6  294   3.469   1.133  13.516 -0.5073 -0.4001  0.0949
   19TMC2     C  295   3.824   1.280  13.665  0.7182  0.1190  0.0037
   19TMC2     O  296   3.868   1.378  13.608 -0.8616  0.0552  0.1688
   19TMC2     H  297   3.698   1.364  13.446  0.9080  0.1069  0.7154
   19TMC2    H1  298   3.651   1.119  13.791  0.2555  1.2882  0.2583
   19TMC2    H2  299   3.385   1.081  13.473  0.7788 -0.8699 -1.8608
   19TMC2    C7  300   3.432   0.991  13.706  0.5143  0.4941 -0.0714
   19TMC2    C8  301   3.526   1.241  13.307 -0.0720  0.2248 -0.8627
   19TMC2    O1  302   3.315   0.994  13.682  0.3364  0.7680 -0.1662
   19TMC2    O2  303   3.513   1.141  13.235 -0.7613  0.3006  0.7380
   19TMC2    O5  304   3.544   1.357  13.257  0.1333  0.0761  0.2982
   19TMC2    H5  305   3.528   1.427  13.323 -2.3321  0.2018 -0.4247
   20MPD2     C  306   4.092   1.304  13.758 -0.7567 -0.2376  0.1011
   20MPD2    C1  307   3.996   1.226  13.819  0.6400 -0.2212 -0.0855
   20MPD2    C2  308   4.025   1.176  13.941  0.1723  0.0491  0.5928
   20MPD2    C3  309   4.148   1.192  13.995 -0.7217 -0.4890  0.1043
   20MPD2    C4  310   4.246   1.274  13.941  0.8223 -0.2117  0.0700
   20MPD2    C5  311   4.213   1.335  13.824 -0.5997 -0.2439  0.7769
   20MPD2     H  312   3.952   1.116  13.994  0.2255 -0.2374  0.3451
   20MPD2    H1  313   4.344   1.277  13.988  1.2505  0.0406 -0.8427
   20MPD2    H2  314   4.091   1.341  13.656 -2.7934 -0.0159  0.2209
   20MPD2    H3  315   4.287   1.387  13.764 -2.3637 -1.0966 -2.1313
   20MPD2     N  316   4.187   1.148  14.118  0.3418 -0.1153 -0.3885
   20MPD2    H5  317   4.282   1.168  14.149 -0.1079 -0.1434  0.9835
   20MPD2    N1  318   3.868   1.212  13.769  0.3282  0.0542  0.1614
   20MPD2    H7  319   3.809   1.134  13.797  0.8668 -0.2393  0.4730
   21MPD2     C  320   1.166   1.617  13.871 -0.2376  0.2553 -0.3001
   21MPD2    C1  321   1.254   1.535  13.944 -0.2873 -0.0946 -0.0610
   21MPD2    C2  322   1.193   1.457  14.044  0.1645  0.7116 -0.3339
   21MPD2    C3  323   1.060   1.474  14.074  0.5243  0.2490  0.0209
   21MPD2    C4  324   0.981   1.555  14.001 -0.1224 -0.6120 -0.4839
   21MPD2    C5  325   1.033   1.630  13.899  0.2673  0.8042  0.4469
   21MPD2     H  326   1.256   1.395  14.106 -0.4567 -0.1242 -0.5389
   21MPD2    H1  327   0.878   1.549  14.036  0.1040  0.2820  0.3535
   21MPD2    H2  328   1.208   1.665  13.784 -0.1184  0.7338  0.0146
   21MPD2    H3  329   0.968   1.685  13.832 -0.7769  0.8174  1.4629
   21MPD2     N  330   0.993   1.419  14.188 -0.7197  0.2056 -0.5855
   21MPD2    H5  331   0.901   1.456  14.210 -0.5257  0.7630 -0.6903
   21MPD2    N1  332   1.385   1.511  13.904  0.0775 -0.3596  0.4542
   21MPD2    H7  333   1.423   1.420  13.925  0.7836 -0.6033 -1.8343
   22TCq2    C1  334   1.044   1.327  14.274 -0.4331  0.0346  0.9003
   22TCq2    O2  335   1.136   1.246  14.247 -0.1378  0.2466 -0.1654
   22TCq2    C2  336   0.986   1.323  14.407 -0.4929  0.6433 -0.0807
   22TCq2    C3  337   1.027   1.232  14.496 -1.0147 -0.1490  0.4328
   22TCq2    C4  338   1.019   1.256  14.632 -0.2466  0.2986  0.4349
   22TCq2    C5  339   0.983   1.373  14.684 -0.5399  0.0807 -0.7409
   22TCq2    C6  340   0.933   1.468  14.590  0.4324  0.1195  0.6450
   22TCq2    C7  341   0.944   1.442  14.459 -1.2321  0.3624  0.2922
   22TCq2    C8  342   0.929   1.609  14.640 -0.1662 -0.7022  0.1587
   22TCq2    O4  343   0.974   1.627  14.748  0.0645 -0.1364 -0.2519
   22TCq2    C9  344   1.059   1.150  14.718  0.1377  0.2903  0.3722
   22TCq2    O5  345   1.080   1.043  14.658  0.1782 -0.2731 -1.2585
   22TCq2    O6  346   1.070   1.176  14.844  0.6605 -0.0360 -0.2518
   22TCq2    H2  347   1.063   1.139  14.453 -2.1038 -0.1298 -0.5208
   22TCq2    H3  348   0.983   1.381  14.792 -1.2776 -0.2500 -0.7180
   22TCq2    H4  349   0.939   1.522  14.387 -0.4279 -0.5516 -0.7743
   23MPD2     C  350   3.060   2.593  14.430  0.1867 -0.0787  0.2672
   23MPD2    C1  351   2.966   2.575  14.537 -0.7446 -0.0480  0.2176
   23MPD2    C2  352   2.857   2.662  14.548  0.2785  1.0586  0.1449
   23MPD2    C3  353   2.835   2.754  14.450  0.4958  0.7441  0.7440
   23MPD2    C4  354   2.927   2.769  14.346 -0.1397  0.8734  0.4498
   23MPD2    C5  355   3.038   2.687  14.340 -0.5478  1.1334 -0.0306
   23MPD2     H  356   2.792   2.647  14.634 -0.6039 -2.0444 -1.0601
   23MPD2    H1  357   2.900   2.845  14.274 -0.2072 -0.1223 -0.5706
   23MPD2    H2  358   3.148   2.531  14.418  0.3413  0.6075 -2.2935
   23MPD2    H3  359   3.108   2.701  14.258  1.0306  1.1991  1.3354
   23MPD2     N  360   2.722   2.844  14.451 -0.0197 -0.2163  0.0604
   23MPD2    H5  361   2.730   2.920  14.385  1.0598 -1.2524 -1.0131
   23MPD2    N1  362   2.973   2.478  14.643 -0.0161  0.2769  0.5531
   23MPD2    H7  363   2.907   2.490  14.719 -1.8930 -1.0939 -0.8476
   24TCq2    C1  364   2.602   2.818  14.515 -0.1710 -0.1777  0.6495
   24TCq2    O2  365   2.574   2.714  14.578  0.6713 -0.0215  0.0543
   24TCq2    C2  366   2.483   2.883  14.465 -0.0944 -0.3622  0.5602
   24TCq2    C3  367   2.503   2.967  14.356  0.2432  0.2738 -0.5285
   24TCq2    C4  368   2.407   2.966  14.258 -0.0495 -0.4877  0.1426
   24TCq2    C5  369   2.295   2.890  14.263 -0.6139  1.1531 -0.1689
   24TCq2    C6  370   2.278   2.819  14.379 -0.4990  0.1957  0.0457
   24TCq2    C7  371   2.373   2.806  14.475  0.3895  0.1764  0.2682
   24TCq2    C8  372   2.149   2.774  14.425  0.2276 -0.6783 -0.0636
   24TCq2    O4  373   2.137   2.716  14.533 -0.6534 -0.2900 -0.1498
   24TCq2    C9  374   2.424   3.052  14.142 -0.2105  0.3615  0.7211
   24TCq2    O5  375   2.316   3.074  14.077  0.2158 -0.1980 -0.1042
   24TCq2    O6  376   2.542   3.080  14.108 -0.0183  0.0859 -0.2038
   24TCq2    H2  377   2.583   3.041  14.354 -0.2360  0.8213  0.4898
   24TCq2    H3  378   2.232   2.874  14.176 -2.5873  0.5814  1.3452
   24TCq2    H4  379   2.356   2.758  14.571 -0.4551 -0.8982 -0.4271
   25TMC2    C1  380   1.470   0.755  11.176 -0.3228 -0.3143  0.4929
   25TMC2    C2  381   1.587   0.817  11.206 -0.3190 -0.4302 -0.8098
   25TMC2    C3  382   1.585   0.917  11.305 -0.0353 -0.3277 -0.3647
   25TMC2    C4  383   1.350   0.806  11.211  0.3362  0.4871 -0.8139
   25TMC2    C5  384   1.350   0.901  11.307  0.4924  0.7221 -0.4556
   25TMC2    C6  385   1.468   0.955  11.361  0.4755  0.0039 -0.0406
   25TMC2     C  386   1.474   0.653  11.075  0.2230 -0.1568 -0.6686
   25TMC2     O  387   1.577   0.635  11.014  1.2018 -0.0761  0.0619
   25TMC2     H  388   1.684   0.777  11.176 -0.5512 -2.0649  0.6560
   25TMC2    H1  389   1.257   0.752  11.195  1.2486 -1.0106 -1.0689
   25TMC2    H2  390   1.455   1.042  11.424 -0.5792 -0.2416  0.0765
   25TMC2    C7  391   1.245   0.891  11.407  0.1842 -0.5280  0.1388
   25TMC2    C8  392   1.698   1.011  11.307  0.3032  0.4348 -0.0512
   25TMC2    O1  393   1.287   0.922  11.518  0.1353  0.1543 -0.0224
   25TMC2    O2  394   1.729   1.077  11.401  0.2454 -0.2417 -0.1595
   25TMC2    O5  395   1.709   1.052  11.180  0.2709  0.2452  0.0047
   25TMC2    H5  396   1.647   1.003  11.122 -1.6991  1.1440  1.3513
   26MPD2     C  397   1.276   0.339  10.738  0.3272 -0.0273  0.3164
   26MPD2    C1  398   1.190   0.338  10.852 -0.5338  0.0338 -0.3251
   26MPD2    C2  399   1.210   0.418  10.962  0.0987  0.2168 -0.6204
   26MPD2    C3  400   1.324   0.506  10.948 -0.1472  0.4920 -0.0466
   26MPD2    C4  401   1.401   0.512  10.832 -1.0724  0.0042 -0.0421
   26MPD2    C5  402   1.386   0.419  10.729 -0.3344  0.7148 -0.3190
   26MPD2     H  403   1.150   0.415  11.052 -0.5849  1.0168 -1.0477
   26MPD2    H1  404   1.492   0.570  10.821 -1.1702 -0.2156 -1.9566
   26MPD2    H2  405   1.264   0.272  10.655  1.3122 -3.5030  2.9874
   26MPD2    H3  406   1.454   0.417  10.645 -0.0738  1.9038 -0.1423
   26MPD2     N  407   1.354   0.587  11.060  0.1950 -0.3342 -0.0404
   26MPD2    H5  408   1.282   0.586  11.132  2.4698  2.0833  2.2431
   26MPD2    N1  409   1.083   0.246  10.825  0.2790 -0.0477 -0.1981
   26MPD2    H7  410   1.095   0.201  10.735  0.6424  1.4275 -0.8818
   27TMC2    C1  411   0.502   2.270  11.908 -0.3600 -0.5506 -0.1651
   27TMC2    C2  412   0.424   2.376  11.873  0.0367  0.0377  0.2021
   27TMC2    C3  413   0.473   2.471  11.788 -0.3708  0.2431 -0.3717
   27TMC2    C4  414   0.635   2.270  11.867 -1.1429 -0.1743  0.6577
   27TMC2    C5  415   0.688   2.374  11.798  0.1541 -0.5902  1.6955
   27TMC2    C6  416   0.598   2.464  11.741  0.3470  0.2213 -0.4352
   27TMC2     C  417   0.461   2.165  12.000  0.6232 -0.7950 -0.9554
   27TMC2     O  418   0.525   2.061  11.998 -0.0587  0.1296 -0.3876
   27TMC2     H  419   0.320   2.382  11.903  0.1482 -0.2668  0.6477
   27TMC2    H1  420   0.700   2.195  11.910  0.4293  1.2367  0.6991
   27TMC2    H2  421   0.636   2.545  11.679  1.1636 -0.3683 -0.7027
   27TMC2    C7  422   0.785   2.435  11.887  0.3846  0.5840  0.4244
   27TMC2    C8  423   0.381   2.575  11.750  0.8402 -0.2262  0.0601
   27TMC2    O1  424   0.831   2.363  11.973 -0.1385 -0.4227 -0.1670
   27TMC2    O2  425   0.408   2.648  11.657  0.0512  0.9788  0.3236
   27TMC2    O5  426   0.338   2.618  11.867 -0.1414  0.0266 -0.0664
   27TMC2    H5  427   0.310   2.552  11.934  0.4418  1.7798  1.9191
   28MPD2     C  428   0.121   1.950  12.312 -0.0505  0.4397  0.1921
   28MPD2    C1  429   0.098   2.085  12.310 -0.6276 -0.0178  0.5481
   28MPD2    C2  430   0.176   2.167  12.235  0.0472 -0.2826 -0.3082
   28MPD2    C3  431   0.270   2.116  12.152 -0.3007  0.1412  0.2254
   28MPD2    C4  432   0.288   1.978  12.146 -0.7907 -0.0062 -0.2257
   28MPD2    C5  433   0.215   1.895  12.230  0.2307  0.1056  0.1517
   28MPD2     H  434   0.179   2.275  12.246 -1.9255 -0.2767  0.0514
   28MPD2    H1  435   0.362   1.938  12.078 -1.7345 -0.7984 -0.7864
   28MPD2    H2  436   0.071   1.877  12.375 -1.0053  0.3530 -0.6593
   28MPD2    H3  437   0.233   1.788  12.220 -1.0472  0.0854 -1.9077
   28MPD2     N  438   0.353   2.201  12.067 -0.5929  0.3959 -0.1365
   28MPD2    H5  439   0.326   2.299  12.073 -1.4922  0.2431 -1.5698
   28MPD2    N1  440   4.720   2.125  12.399 -0.1097  0.0133 -0.1234
   28MPD2    H7  441   4.667   2.054  12.448 -0.4785 -0.2797 -0.9444
   29MPD2     C  442   0.127   4.429  13.506 -0.4926 -0.2220  0.4181
   29MPD2    C1  443   0.090   4.393  13.633  0.0288  0.5102  0.1086
   29MPD2    C2  444   0.084   4.493  13.724  0.7940 -0.1964  0.4453
   29MPD2    C3  445   0.106   4.625  13.691 -0.1431 -0.1003 -0.9853
   29MPD2    C4  446   0.156   4.648  13.567  0.0999 -0.5151 -0.7928
   29MPD2    C5  447   0.163   4.555  13.467 -0.1743 -0.1713  0.0891
   29MPD2     H  448   0.059   4.466  13.826  0.2763 -0.7016  0.1878
   29MPD2    H1  449   0.182   0.028  13.550 -3.4862  0.2898 -1.4015
   29MPD2    H2  450   0.109   4.355  13.429 -2.1893 -0.4420  1.0407
   29MPD2    H3  451   0.204   4.580  13.370 -0.2565  1.0556  0.3729
   29MPD2     N  452   0.088   0.018  13.776 -0.3851  0.7228  0.4524
   29MPD2    H5  453   0.121   0.108  13.741 -2.2783  1.7077  1.2091
   29MPD2    N1  454   0.070   4.259  13.667 -0.5025 -0.2253 -0.2384
   29MPD2    H7  455   0.043   4.249  13.764 -0.8161 -2.5329 -0.5820
   30TCq2    C1  456   0.050   0.010  13.906  0.1899  0.1356 -0.3133
   30TCq2    O2  457   0.036   4.640  13.978  0.2036 -0.3130  0.3519
   30TCq2    C2  458   0.022   0.139  13.954 -0.1465 -0.3427 -0.4938
   30TCq2    C3  459   0.001   0.153  14.089  0.8757 -0.2180 -0.6125
   30TCq2    C4  460   4.710   0.273  14.150 -0.3540 -0.0954  0.6091
   30TCq2    C5  461   4.723   0.387  14.073  0.5182 -0.0075 -0.0593
   30TCq2    C6  462   0.011   0.378  13.938  0.0279 -0.7908  0.4181
   30TCq2    C7  463   0.016   0.255  13.874 -0.7007 -0.1868 -0.1462
   30TCq2    C8  464   4.714   0.493  13.858  0.6584 -0.8116  0.5921
   30TCq2    O4  465   4.642   0.483  13.760 -0.0702  0.3137  0.2059
   30TCq2    C9  466   4.683   0.298  14.291 -0.5755  0.7174 -0.6616
   30TCq2    O5  467   4.716   0.409  14.333 -0.5323 -0.7642  0.1119
   30TCq2    O6  468   4.656   0.197  14.359  0.0281  0.2155 -0.1496
   30TCq2    H2  469   4.710   0.063  14.147 -0.0308 -1.1716 -2.2923
   30TCq2    H3  470   4.703   0.482  14.121  1.2218 -0.4953  1.2002
   30TCq2    H4  471   0.005   0.246  13.767 -1.9651 -1.0364  0.0479
   31MPD2     C  472   2.876   3.856  14.063 -0.4587  0.0828  0.1666
   31MPD2    C1  473   2.743   3.836  14.030 -0.6413  0.2568  0.9433
   31MPD2    C2  474   2.669   3.741  14.100  0.2548  0.0370  0.2475
   31MPD2    C3  475   2.731   3.673  14.209  0.6119 -0.4673  0.1163
   31MPD2    C4  476   2.855   3.713  14.248 -0.4528 -0.1781 -0.4499
   31MPD2    C5  477   2.932   3.797  14.175 -0.7222  0.0812  0.7073
   31MPD2     H  478   2.568   3.714  14.073  0.8743 -0.7914 -1.2417
   31MPD2    H1  479   2.901   3.659  14.330  0.4645  1.1301 -0.1059
   31MPD2    H2  480   2.942   3.915  14.000 -2.5490  1.2215 -0.9405
   31MPD2    H3  481   3.035   3.820  14.204  0.5294 -2.2473 -1.9601
   31MPD2     N  482   2.677   3.557  14.268  0.3685  0.7216  0.4467
   31MPD2    H5  483   2.736   3.522  14.343 -0.0050 -1.9342 -0.5034
   31MPD2    N1  484   2.694   3.900  13.909 -0.3521 -0.2100  0.7248
   31MPD2    H7  485   2.762   3.957  13.860 -1.4989 -0.8781 -1.6533
   32TCq2    C1  486   2.548   3.508  14.246 -0.2121  0.3021  1.0260
   32TCq2    O2  487   2.461   3.533  14.158  0.2621  0.2100  0.0111
   32TCq2    C2  488   2.509   3.409  14.343  0.1543  0.2622  0.3027
   32TCq2    C3  489   2.380   3.365  14.322 -0.7413 -0.1453  0.6414
   32TCq2    C4  490   2.318   3.283  14.409 -0.2923  0.1270 -0.1079
   32TCq2    C5  491   2.383   3.252  14.527 -0.9155  0.1707 -0.6861
   32TCq2    C6  492   2.515   3.297  14.547 -0.2664  0.7911  0.2450
   32TCq2    C7  493   2.584   3.369  14.451  0.2880 -0.6271  0.4995
   32TCq2    C8  494   2.567   3.286  14.687  0.0996  0.8298  0.0989
   32TCq2    O4  495   2.690   3.281  14.697  0.4539  0.1824  0.2507
   32TCq2    C9  496   2.181   3.242  14.390 -0.5866  0.4815  0.3059
   32TCq2    O5  497   2.138   3.254  14.271 -0.5472 -0.2704  0.1431
   32TCq2    O6  498   2.108   3.216  14.493  0.5076  0.6058  0.1097
   32TCq2    H2  499   2.323   3.384  14.231  0.3095 -1.1546 -0.2246
   32TCq2    H3  500   2.327   3.202  14.605  0.0168 -0.5644 -0.4934
   32TCq2    H4  501   2.690   3.386  14.461 -0.4758  3.0477  2.4795
   33MPD2     C  502   2.016   0.437   9.922 -0.8417  0.3020  0.2548
   33MPD2    C1  503   2.110   0.527   9.943 -0.3212  0.3460 -0.7508
   33MPD2    C2  504   2.188   0.575   9.832 -0.7152  1.0326 -0.5313
   33MPD2    C3  505   2.159   0.539   9.708  0.3533  0.6891  0.0022
   33MPD2    C4  506   2.058   0.439   9.696 -0.5888  0.0096 -0.0859
   33MPD2    C5  507   1.989   0.388   9.798  0.2068 -0.0962  0.3659
   33MPD2     H  508   2.264   0.651   9.849  0.9050 -0.4498 -1.2351
   33MPD2    H1  509   2.028   0.405   9.597 -0.6095 -0.4051  0.0671
   33MPD2    H2  510   1.956   0.395  10.002 -0.1683 -1.7018 -0.2871
   33MPD2    H3  511   1.905   0.322   9.779  0.9421 -0.1800 -2.6977
   33MPD2     N  512   2.215   0.598   9.587  0.1467 -0.2379 -0.1559
   33MPD2    H5  513   2.173   0.562   9.502 -1.5496  2.4898 -0.4448
   33MPD2    N1  514   2.114   0.579  10.076 -0.3307 -0.3582  0.0834
   33MPD2    H7  515   2.038   0.550  10.136 -1.6448  0.8871 -0.9673
   34TCq2    C1  516   2.325   0.675   9.578  0.1388 -0.6878 -0.3138
   34TCq2    O2  517   2.385   0.727   9.670  0.1026 -0.6408 -0.0897
   34TCq2    C2  518   2.363   0.712   9.439  0.3870 -0.1304  0.0801
   34TCq2    C3  519   2.277   0.708   9.334  0.2949  0.2419 -0.3697
   34TCq2    C4  520   2.325   0.732   9.206 -0.3596 -0.5345 -0.0177
   34TCq2    C5  521   2.447   0.792   9.193 -0.4559  0.2169  0.3511
   34TCq2    C6  522   2.530   0.797   9.307  0.2606  0.1491 -0.3572
   34TCq2    C7  523   2.488   0.762   9.432 -0.4561 -0.3311  0.5756
   34TCq2    C8  524   2.666   0.851   9.288 -0.4067 -0.4971  0.0253
   34TCq2    O4  525   2.715   0.928   9.372 -0.3824 -0.2153  0.2341
   34TCq2    C9  526   2.227   0.737   9.096 -0.6382 -0.3410  0.3360
   34TCq2    O5  527   2.261   0.832   9.019  0.2812 -0.3453  0.6826
   34TCq2    O6  528   2.133   0.655   9.087  0.3272  0.3607 -0.5264
   34TCq2    H2  529   2.172   0.681   9.337  0.2430  0.6987  2.1084
   34TCq2    H3  530   2.481   0.827   9.096 -0.7843  0.0506  0.1754
   34TCq2    H4  531   2.563   0.750   9.509 -0.8794  0.8612  1.1746
   35MPD2     C  532   4.342   3.149  11.724 -0.1577 -0.4868  0.0557
   35MPD2    C1  533   4.327   3.017  11.721  0.1546  0.1029 -0.3673
   35MPD2    C2  534   4.225   2.961  11.643  0.7065  0.3968 -0.1042
   35MPD2    C3  535   4.162   3.041  11.551 -0.0535 -0.6062  0.5654
   35MPD2    C4  536   4.189   3.180  11.555 -0.1626 -0.1057 -0.2125
   35MPD2    C5  537   4.280   3.232  11.634  0.2793 -0.1665 -0.3941
   35MPD2     H  538   4.176   2.865  11.655  0.0427  0.7677  0.1345
   35MPD2    H1  539   4.144   3.250  11.485 -0.0844 -1.2148 -1.3714
   35MPD2    H2  540   4.422   3.182  11.790  0.1617 -0.9522 -0.0975
   35MPD2    H3  541   4.303   3.338  11.630 -0.5763  0.1010  1.5424
   35MPD2     N  542   4.064   2.979  11.467  0.3127  0.4481  0.0661
   35MPD2    H5  543   4.036   2.882  11.479 -1.0803  0.3056 -4.4235
   35MPD2    N1  544   4.401   2.942  11.810 -0.6047  0.3819  0.0746
   35MPD2    H7  545   4.455   2.998  11.875 -1.5517 -1.0893  2.1386
   36TCq2    C1  546   4.021   3.045  11.354 -0.1792 -0.0133 -0.3752
   36TCq2    O2  547   4.062   3.147  11.302 -0.1778  0.9058 -0.0509
   36TCq2    C2  548   3.912   2.976  11.280 -0.0617  0.0717  0.1875
   36TCq2    C3  549   3.888   3.031  11.160 -0.5285 -1.0621  0.0715
   36TCq2    C4  550   3.791   2.967  11.081  0.0235 -0.0223 -0.1624
   36TCq2    C5  551   3.717   2.868  11.128 -0.5760 -0.6874  0.2316
   36TCq2    C6  552   3.748   2.816  11.257 -0.1604  0.0992 -0.2234
   36TCq2    C7  553   3.850   2.866  11.332  0.7343 -0.6176  0.5685
   36TCq2    C8  554   3.685   2.687  11.283  0.8442 -0.6247 -0.5218
   36TCq2    O4  555   3.574   2.669  11.232 -0.2285  0.6214 -0.4456
   36TCq2    C9  556   3.770   3.018  10.950 -0.4190  0.5337  0.2749
   36TCq2    O5  557   3.843   3.111  10.908 -0.0223  0.0140 -0.7375
   36TCq2    O6  558   3.686   2.964  10.881  0.3485 -0.2660 -0.0550
   36TCq2    H2  559   3.933   3.124  11.126 -0.8949 -0.2671  1.7259
   36TCq2    H3  560   3.640   2.827  11.064  0.1130  1.0128 -1.6619
   36TCq2    H4  561   3.870   2.825  11.430  0.3178 -1.3152  0.3669
   37TMC2    C1  562   1.611   2.774  11.756 -0.1822 -0.4944  0.0067
   37TMC2    C2  563   1.554   2.674  11.675 -0.4471  0.0254  0.4364
   37TMC2    C3  564   1.608   2.656  11.550 -0.6131  0.2533  0.2661
   37TMC2    C4  565   1.729   2.838  11.719 -0.2982  0.0952  0.4180
   37TMC2    C5  566   1.779   2.804  11.595 -0.1702 -0.1514 -0.1640
   37TMC2    C6  567   1.721   2.713  11.515  0.2968 -0.0430  0.5123
   37TMC2     C  568   1.553   2.806  11.883  0.0366 -0.1486 -0.3805
   37TMC2     O  569   1.437   2.765  11.882 -0.4429 -0.3595  0.1324
   37TMC2     H  570   1.458   2.632  11.702 -1.7492  2.0381 -1.0718
   37TMC2    H1  571   1.777   2.918  11.773  2.7460 -1.8944  0.6620
   37TMC2    H2  572   1.762   2.669  11.425  0.6357 -0.9738  1.1162
   37TMC2    C7  573   1.892   2.887  11.536 -0.6975 -0.4745 -0.4532
   37TMC2    C8  574   1.543   2.556  11.460  0.3379 -0.3542 -0.2077
   37TMC2    O1  575   1.945   2.965  11.611  0.2311  0.5042 -0.6733
   37TMC2    O2  576   1.601   2.511  11.365  0.2528 -0.1185 -0.0313
   37TMC2    O5  577   1.405   2.559  11.486 -0.6351 -0.1833  0.0105
   37TMC2    H5  578   1.378   2.633  11.545 -1.7003  0.0587 -0.7925
   38MPD2     C  579   1.525   2.911  12.382 -0.2679 -0.0642  0.3509
   38MPD2    C1  580   1.653   2.915  12.348  0.3863 -0.3802 -0.3111
   38MPD2    C2  581   1.684   2.888  12.214 -0.3045  0.2012 -0.1903
   38MPD2    C3  582   1.588   2.863  12.117 -0.1385  0.3301 -0.3690
   38MPD2    C4  583   1.457   2.859  12.155  0.2013 -0.4921 -0.0250
   38MPD2    C5  584   1.429   2.872  12.292  0.6520  0.9311  0.3380
   38MPD2     H  585   1.789   2.885  12.187 -0.1318  1.6409  0.3243
   38MPD2    H1  586   1.376   2.830  12.090 -0.8425 -1.2821  1.6371
   38MPD2    H2  587   1.495   2.914  12.486 -1.0140  0.9010  0.1015
   38MPD2    H3  588   1.328   2.858  12.328  1.3451 -1.1708  1.5205
   38MPD2     N  589   1.633   2.842  11.983 -0.2380  0.2877  0.0942
   38MPD2    H5  590   1.731   2.843  11.955 -0.4654 -1.6385 -0.7778
   38MPD2    N1  591   1.748   2.937  12.436 -0.4230 -0.2239  0.0826
   38MPD2    H7  592   1.842   2.921  12.401 -1.1513 -2.4448 -0.8562
   39MPD2     C  593   0.383   3.740   1.632  0.2705  0.5211  0.3311
   39MPD2    C1  594   0.340   3.825   1.730 -0.0587  0.1043 -0.3824
   39MPD2    C2  595   0.206   3.843   1.754  0.8269  0.5637  0.4196
   39MPD2    C3  596   0.111   3.771   1.689  0.1447  0.0319 -0.1094
   39MPD2    C4  597   0.154   3.675   1.594 -0.0883 -0.0481 -0.3437
   39MPD2    C5  598   0.286   3.672   1.562  0.3398 -0.3271 -0.3818
   39MPD2     H  599   0.182   3.913   1.835  1.9189  0.2337  1.0228
   39MPD2    H1  600   0.079   3.620   1.539  0.3669 -0.3876 -0.6270
   39MPD2    H2  601   0.487   3.724   1.610 -0.3028 -1.5845 -0.8334
   39MPD2    H3  602   0.320   3.606   1.483 -2.7608 -0.3300 -1.7189
   39MPD2     N  603   4.696   3.782   1.712  0.4596 -0.0548 -0.4616
   39MPD2    H5  604   4.637   3.730   1.648  1.9652 -0.0018 -1.9026
   39MPD2    N1  605   0.447   3.897   1.781 -0.2754  0.2467 -0.3980
   39MPD2    H7  606   0.533   3.875   1.732  0.4080 -0.9328  1.3298
   40TCq2    C1  607   0.430   4.008   1.862  0.5647  0.4354 -0.5761
   40TCq2    O2  608   0.340   4.039   1.934 -0.6138 -0.1530  0.1306
   40TCq2    C2  609   0.547   4.091   1.852  0.2733  0.1286  0.0653
   40TCq2    C3  610   0.523   4.220   1.876  0.2313 -0.0311  0.4097
   40TCq2    C4  611   0.617   4.314   1.850  0.4479  0.3512 -0.0547
   40TCq2    C5  612   0.737   4.283   1.798  0.3718 -0.0396  0.6384
   40TCq2    C6  613   0.762   4.152   1.775 -0.6971  0.1252  0.0618
   40TCq2    C7  614   0.670   4.050   1.800  0.3935 -0.0218  0.5575
   40TCq2    C8  615   0.897   4.105   1.740 -0.5403 -0.7396  0.4314
   40TCq2    O4  616   0.918   3.983   1.757  0.0467 -0.1673 -0.3220
   40TCq2    C9  617   0.586   4.450   1.876 -0.4585 -0.1993  0.0944
   40TCq2    O5  618   0.468   4.477   1.904 -0.6173  0.3560 -0.3018
   40TCq2    O6  619   0.673   4.529   1.836  0.2852  0.3047  0.1139
   40TCq2    H2  620   0.426   4.250   1.914 -0.8487  0.0288 -2.3697
   40TCq2    H3  621   0.813   4.359   1.786 -0.8947  1.1595  0.1960
   40TCq2    H4  622   0.693   3.944   1.793  0.7499  0.1351 -0.6241
   41TMC2    C1  623   3.436   2.539  13.739 -0.1636 -0.2350  0.1204
   41TMC2    C2  624   3.384   2.422  13.693 -0.2635 -0.3415 -0.2279
   41TMC2    C3  625   3.382   2.404  13.556  0.1138  0.0296  0.2229
   41TMC2    C4  626   3.469   2.639  13.656  0.6347  0.1176  0.1489
   41TMC2    C5  627   3.456   2.621  13.527  0.3187  0.6304 -1.2331
   41TMC2    C6  628   3.411   2.504  13.468  0.3411  0.0157  0.1123
   41TMC2     C  629   3.438   2.576  13.882 -0.1806  0.4892 -0.5601
   41TMC2     O  630   3.464   2.691  13.894  0.3685  0.7523 -0.1546
   41TMC2     H  631   3.345   2.350  13.764  2.1494 -3.1127 -1.7106
   41TMC2    H1  632   3.507   2.738  13.678 -0.4883  1.1468 -2.4055
   41TMC2    H2  633   3.386   2.494  13.363 -2.8856  0.5028  0.8212
   41TMC2    C7  634   3.447   2.749  13.453 -0.5184  0.1529 -0.6386
   41TMC2    C8  635   3.304   2.290  13.520 -0.1477  0.2892 -0.2293
   41TMC2    O1  636   3.398   2.847  13.504  0.4905  0.0091 -0.5520
   41TMC2    O2  637   3.235   2.283  13.416  0.2861  0.3613 -0.2693
   41TMC2    O5  638   3.336   2.178  13.589 -0.2754  0.1745  0.1899
   41TMC2    H5  639   3.421   2.176  13.638  1.0747 -0.5207 -2.1569
   42MPD2     C  640   3.425   2.384  14.196  0.1125  0.1759 -0.8942
   42MPD2    C1  641   3.407   2.493  14.113  0.0119 -0.6265  0.4728
   42MPD2    C2  642   3.394   2.619  14.176 -0.3096 -0.0249  0.8244
   42MPD2    C3  643   3.384   2.627  14.312 -0.6599 -0.3687  0.0670
   42MPD2    C4  644   3.401   2.519  14.399 -0.6287  0.2319 -0.6564
   42MPD2    C5  645   3.430   2.400  14.333 -0.1290 -0.4922 -0.1393
   42MPD2     H  646   3.403   2.708  14.114  1.8706 -0.9456 -0.1820
   42MPD2    H1  647   3.404   2.522  14.507 -0.9393  1.6353 -0.6908
   42MPD2    H2  648   3.443   2.283  14.162 -0.9633  0.0172 -0.9910
   42MPD2    H3  649   3.449   2.310  14.391 -1.1813 -1.2179 -0.9137
   42MPD2     N  650   3.377   2.751  14.374  0.4560 -0.0153 -0.1044
   42MPD2    H5  651   3.422   2.757  14.465 -2.2514 -4.5921  1.5110
   42MPD2    N1  652   3.422   2.473  13.973  0.0078 -0.2489 -0.2513
   42MPD2    H7  653   3.412   2.376  13.943 -3.7128  0.4275 -1.1840
   43MPD2     C  654   0.903   0.179   0.496  0.0544  0.4616  0.1158
   43MPD2    C1  655   0.987   0.162   0.608 -0.1089  0.6207 -0.4452
   43MPD2    C2  656   0.957   0.224   0.729 -0.3204 -0.3956 -0.5262
   43MPD2    C3  657   0.854   0.314   0.738  0.6717  0.1579  0.1371
   43MPD2    C4  658   0.781   0.335   0.628  0.3345  0.0509  0.0145
   43MPD2    C5  659   0.804   0.274   0.510  0.3486 -0.3802  0.4022
   43MPD2     H  660   1.013   0.197   0.818 -2.6809 -1.7770  0.5243
   43MPD2    H1  661   0.702   0.409   0.628 -1.1152 -1.5007  0.4420
   43MPD2    H2  662   0.931   0.142   0.398  0.8380  2.1242 -0.2755
   43MPD2    H3  663   0.744   0.302   0.423  3.9761  2.7177 -1.0771
   43MPD2     N  664   0.816   0.370   0.867 -0.1046  0.0777  0.0526
   43MPD2    H5  665   0.733   0.428   0.866  0.3833  0.8190  1.9524
   43MPD2    N1  666   1.102   0.081   0.602  0.0731 -0.1149  0.1932
   43MPD2    H7  667   1.165   0.093   0.681  1.7843 -2.1743 -0.8607
   44TCq2    C1  668   0.439   0.427   1.165 -0.0791 -0.1524 -0.2905
   44TCq2    O2  669   0.399   0.430   1.052  0.3262  0.4095 -0.3048
   44TCq2    C2  670   0.583   0.414   1.184  0.2757 -0.1041 -0.0945
   44TCq2    C3  671   0.646   0.463   1.297 -0.3918 -0.8116  0.5007
   44TCq2    C4  672   0.779   0.461   1.314  0.0570 -0.3462 -0.2829
   44TCq2    C5  673   0.856   0.427   1.208 -1.0629  0.1404 -0.2964
   44TCq2    C6  674   0.792   0.373   1.095  0.2640 -0.1489 -0.6217
   44TCq2    C7  675   0.653   0.362   1.080 -0.8328  0.2813 -0.2660
   44TCq2    C8  676   0.879   0.343   0.988  0.5139 -0.0433  0.0768
   44TCq2    O4  677   0.994   0.310   1.016  0.5875  0.4851  0.2291
   44TCq2    C9  678   0.844   0.506   1.434 -0.0359  0.5244  0.3845
   44TCq2    O5  679   0.772   0.579   1.507  0.7632 -0.2957  0.1634
   44TCq2    O6  680   0.968   0.490   1.437  0.2338  0.1376 -0.0497
   44TCq2    H2  681   0.593   0.517   1.374 -1.9481 -2.7102  0.7716
   44TCq2    H3  682   0.963   0.440   1.218 -0.9926  0.0554 -0.9306
   44TCq2    H4  683   0.609   0.312   0.994 -2.1480  0.0140  0.5797
   45TMC2    C1  684   0.432   3.162   9.255 -0.7113 -0.0448  0.2134
   45TMC2    C2  685   0.528   3.091   9.322 -0.1058  0.0613 -0.1351
   45TMC2    C3  686   0.603   3.143   9.422  0.0139  0.3498 -0.0819
   45TMC2    C4  687   0.423   3.294   9.272  0.7137 -0.5695  0.2432
   45TMC2    C5  688   0.506   3.345   9.372 -0.7291  0.0646 -0.1777
   45TMC2    C6  689   0.591   3.274   9.446  0.3477  0.1314  0.0379
   45TMC2     C  690   0.331   3.093   9.169 -0.5905 -0.0137 -0.0163
   45TMC2     O  691   0.380   2.997   9.111 -0.9210  0.4436  0.2175
   45TMC2     H  692   0.542   2.986   9.298 -0.7221 -0.2247  0.7599
   45TMC2    H1  693   0.372   3.356   9.199  0.0240  1.0410  2.1019
   45TMC2    H2  694   0.634   3.311   9.539 -1.9268 -0.5892  1.3785
   45TMC2    C7  695   0.499   3.488   9.404 -0.1126  0.1880 -0.8498
   45TMC2    C8  696   0.620   3.070   9.540  0.6062 -0.5690 -0.3720
   45TMC2    O1  697   0.594   3.527   9.470 -0.2601 -0.0747 -0.4904
   45TMC2    O2  698   0.528   3.002   9.585 -0.1045  0.2304  0.0292
   45TMC2    O5  699   0.733   3.019   9.506  0.2537 -0.3110 -0.2936
   45TMC2    H5  700   0.787   3.093   9.471 -0.0221  0.1224  0.2192
   46MPD2     C  701   0.079   2.951   9.102  0.5040  0.1890 -0.6728
   46MPD2    C1  702   0.089   3.084   9.126  0.0124  0.5993 -0.0409
   46MPD2    C2  703   4.694   3.162   9.133  0.6279 -0.0979  0.0508
   46MPD2    C3  704   4.574   3.111   9.097 -0.7896 -0.2629 -0.1624
   46MPD2    C4  705   4.570   2.978   9.059 -0.0673  0.6710  0.1249
   46MPD2    C5  706   4.680   2.900   9.066  1.1171  0.1445  1.0288
   46MPD2     H  707   4.702   3.267   9.157  0.4608 -0.4331  1.5937
   46MPD2    H1  708   4.475   2.935   9.030  1.9443 -1.8443 -2.7477
   46MPD2    H2  709   0.164   2.884   9.103 -0.1094 -0.6018 -1.1403
   46MPD2    H3  710   4.681   2.794   9.043  1.0878 -0.1703  2.4935
   46MPD2     N  711   4.453   3.198   9.109 -0.0353 -0.2776 -0.5389
   46MPD2    H5  712   4.472   3.297   9.123  0.3517 -0.4013 -0.1931
   46MPD2    N1  713   0.206   3.145   9.170  0.5659  0.5345 -0.0067
   46MPD2    H7  714   0.192   3.233   9.219 -0.3836  0.0323  0.6204
   47TMC2    C1  715   3.446   2.530   8.692  0.0637 -0.3476 -0.4050
   47TMC2    C2  716   3.376   2.407   8.668  0.0926 -0.5584  0.6037
   47TMC2    C3  717   3.238   2.401   8.677 -0.5770  0.2547  0.5197
   47TMC2    C4  718   3.369   2.636   8.730 -0.0040  0.3828  0.2171
   47TMC2    C5  719   3.230   2.630   8.738 -0.1624 -0.0412  0.8197
   47TMC2    C6  720   3.162   2.512   8.713 -0.3402 -0.1029 -0.9318
   47TMC2     C  721   3.590   2.536   8.719  0.5284  0.2410  0.1093
   47TMC2     O  722   3.622   2.643   8.768  0.3911  0.8364 -0.0934
   47TMC2     H  723   3.429   2.323   8.624  0.2431 -0.1442 -0.0160
   47TMC2    H1  724   3.422   2.730   8.738  0.4298  0.1805 -0.2313
   47TMC2    H2  725   3.055   2.511   8.732 -0.1165 -1.1305  0.2806
   47TMC2    C7  726   3.158   2.720   8.821 -0.0323  0.7742  0.5868
   47TMC2    C8  727   3.155   2.290   8.631  0.3617 -0.8143 -0.8007
   47TMC2    O1  728   3.040   2.722   8.823 -0.1016  0.3136 -0.2005
   47TMC2    O2  729   3.035   2.307   8.615  0.5147  0.6192 -0.0658
   47TMC2    O5  730   3.231   2.178   8.665 -0.4326 -0.2431 -0.1967
   47TMC2    H5  731   3.326   2.185   8.687 -0.5529 -0.3626  0.3824
   48MPD2     C  732   3.874   2.510   8.791  0.6179 -0.0286 -0.2132
   48MPD2    C1  733   3.792   2.399   8.750 -0.1123 -0.0324 -0.9050
   48MPD2    C2  734   3.848   2.268   8.747 -0.4817  0.2028 -0.7697
   48MPD2    C3  735   3.981   2.250   8.789  0.1264  0.2807 -0.0801
   48MPD2    C4  736   4.053   2.358   8.823 -0.3916 -0.3446 -0.0208
   48MPD2    C5  737   4.000   2.483   8.831 -0.1823  0.1583  0.4235
   48MPD2     H  738   3.777   2.188   8.727  0.9411 -1.6094  1.5214
   48MPD2    H1  739   4.151   2.356   8.869  0.6528 -0.6850 -2.2321
   48MPD2    H2  740   3.841   2.612   8.777  1.5622  0.1280 -1.3397
   48MPD2    H3  741   4.055   2.567   8.870  0.8301 -0.0266 -0.6153
   48MPD2     N  742   4.036   2.116   8.804 -0.0980 -0.4410 -0.1131
   48MPD2    H5  743   3.974   2.039   8.777 -1.4707  0.2694  0.9978
   48MPD2    N1  744   3.657   2.419   8.710  0.8477 -0.4335  0.1182
   48MPD2    H7  745   3.609   2.338   8.673  0.0750 -0.0193  0.2178
   49MPD2     C  746   0.509   0.380   9.640 -0.8286  0.9208  0.2461
   49MPD2    C1  747   0.517   0.345   9.773 -0.0409  0.5639 -0.6721
   49MPD2    C2  748   0.607   0.410   9.854  0.5982 -0.6897 -0.3051
   49MPD2    C3  749   0.698   0.505   9.808 -0.4127  0.1664  0.0445
   49MPD2    C4  750   0.683   0.546   9.670  0.1875  0.1818  0.5340
   49MPD2    C5  751   0.590   0.480   9.595  0.5830 -0.2389  0.4928
   49MPD2     H  752   0.627   0.368   9.952  1.5529 -1.0667 -0.6593
   49MPD2    H1  753   0.744   0.625   9.626 -0.2451  0.0512 -0.2957
   49MPD2    H2  754   0.429   0.340   9.578  0.0653  0.1446 -0.4054
   49MPD2    H3  755   0.574   0.519   9.495  0.4957 -2.2120 -0.2529
   49MPD2     N  756   0.803   0.566   9.877 -1.2686  0.3333  0.2654
   49MPD2    H5  757   0.865   0.621   9.818  2.2951 -2.9771  0.9027
   49MPD2    N1  758   0.448   0.242   9.828 -0.3817 -0.3948 -0.0531
   49MPD2    H7  759   0.460   0.227   9.928 -0.9062  0.2500  0.1085
   50TCq2    C1  760   0.364   0.158   9.764  0.4810 -0.4736 -0.2530
   50TCq2    O2  761   0.317   0.163   9.651  0.2273  0.1177  0.2287
   50TCq2    C2  762   0.303   0.064   9.855  0.1878  1.2954 -0.6394
   50TCq2    C3  763   0.238   4.683   9.793 -0.0648  0.0273 -0.4405
   50TCq2    C4  764   0.211   4.566   9.856  0.1556  0.1732  0.2763
   50TCq2    C5  765   0.259   4.546   9.979  0.0322 -0.2511  0.0358
   50TCq2    C6  766   0.326   4.649  10.040  0.0590 -0.0199 -0.7382
   50TCq2    C7  767   0.352   0.049   9.978 -0.7511 -0.8223  0.7394
   50TCq2    C8  768   0.358   4.651  10.180  0.0842 -0.2901 -0.0260
   50TCq2    O4  769   0.422   0.024  10.224 -0.6620  0.1528  1.0088
   50TCq2    C9  770   0.166   4.451   9.794  0.4718 -0.1505  0.3297
   50TCq2    O5  771   0.173   4.448   9.668 -0.2346 -0.0703  0.3799
   50TCq2    O6  772   0.134   4.347   9.864  0.4515 -0.1007  0.3128
   50TCq2    H2  773   0.220   4.693   9.686  1.2604  0.2758 -0.6356
   50TCq2    H3  774   0.240   4.451  10.028  0.7343 -1.2972 -1.7268
   50TCq2    H4  775   0.405   0.123  10.037 -0.4774  0.1079 -0.6631
   51MPD2     C  776   2.409   2.445   1.175  0.2917  0.0529  0.1906
   51MPD2    C1  777   2.415   2.566   1.105 -0.0025  0.5543 -0.2099
   51MPD2    C2  778   2.508   2.660   1.140  0.2054 -0.3034  0.0149
   51MPD2    C3  779   2.594   2.638   1.241 -0.1746 -0.0776  0.0378
   51MPD2    C4  780   2.600   2.515   1.300  0.2714  0.0932  0.4597
   51MPD2    C5  781   2.511   2.418   1.264 -0.9659  0.6121  0.2702
   51MPD2     H  782   2.500   2.760   1.098 -0.4017  0.6462  2.4290
   51MPD2    H1  783   2.676   2.482   1.370  1.3457 -0.0225 -0.7464
   51MPD2    H2  784   2.328   2.374   1.163  2.1814 -2.0275 -0.4000
   51MPD2    H3  785   2.514   2.319   1.306  0.9917  1.8605  3.0413
   51MPD2     N  786   2.691   2.726   1.287 -0.2049  0.1874 -0.1639
   51MPD2    H5  787   2.756   2.698   1.359  0.5458  1.2591 -0.4210
   51MPD2    N1  788   2.319   2.603   1.006  0.4654  0.1164 -0.1459
   51MPD2    H7  789   2.326   2.700   0.978 -2.4777  0.8614  1.7647
   52TCq2    C1  790   2.716   2.850   1.227  0.7689 -0.2989  0.6521
   52TCq2    O2  791   2.658   2.924   1.146 -0.0656 -0.4821  0.0867
   52TCq2    C2  792   2.844   2.902   1.269  0.0547  0.2475  0.0367
   52TCq2    C3  793   2.949   2.818   1.299  0.2287  0.5749 -0.4991
   52TCq2    C4  794   3.060   2.874   1.356 -0.2396  0.0785  0.1975
   52TCq2    C5  795   3.064   3.005   1.397 -0.3197 -0.2810 -0.7208
   52TCq2    C6  796   2.955   3.078   1.370  0.7539  0.6939  0.4266
   52TCq2    C7  797   2.844   3.033   1.305 -0.1610  0.1398  0.6934
   52TCq2    C8  798   2.942   3.215   1.422  0.3183  0.3315  0.8506
   52TCq2    O4  799   2.831   3.258   1.461  0.3317 -0.4642 -0.0973
   52TCq2    C9  800   3.174   2.796   1.382  0.8638 -0.3198 -0.1370
   52TCq2    O5  801   3.278   2.844   1.437 -0.1447  0.6114  1.0948
   52TCq2    O6  802   3.156   2.669   1.385 -0.5682 -0.1031 -0.3516
   52TCq2    H2  803   2.943   2.716   1.264 -1.1429  0.2493  0.6900
   52TCq2    H3  804   3.150   3.045   1.448  0.4950  1.1637 -3.2010
   52TCq2    H4  805   2.759   3.095   1.281 -0.2754  0.2209  1.3127
   53TMC2    C1  806   2.501   3.248  11.389  0.3055 -0.1935 -0.9290
   53TMC2    C2  807   2.623   3.191  11.422 -0.3966  0.2245 -0.4066
   53TMC2    C3  808   2.661   3.205  11.550  0.4383  0.4865  0.5772
   53TMC2    C4  809   2.416   3.306  11.480 -0.0841 -0.0209 -0.2628
   53TMC2    C5  810   2.455   3.304  11.614  0.3000 -0.8197  0.0299
   53TMC2    C6  811   2.585   3.266  11.646 -0.0030 -0.1448  0.3377
   53TMC2     C  812   2.430   3.174  11.292 -0.2880 -0.0867 -0.1529
   53TMC2     O  813   2.487   3.130  11.192  0.2253  0.0765 -0.1868
   53TMC2     H  814   2.694   3.148  11.353 -0.4149  0.4665 -0.5740
   53TMC2    H1  815   2.320   3.351  11.460 -0.1348  0.8499  1.9570
   53TMC2    H2  816   2.625   3.276  11.746 -0.7702  3.6437  0.2818
   53TMC2    C7  817   2.345   3.286  11.702 -0.3082 -0.7109  0.1168
   53TMC2    C8  818   2.806   3.196  11.575  0.5706  0.9313  0.2117
   53TMC2    O1  819   2.234   3.262  11.653 -0.1891  0.2415  0.1083
   53TMC2    O2  820   2.867   3.260  11.658  0.5833  0.2874  0.5314
   53TMC2    O5  821   2.833   3.065  11.563  0.2885  0.3387  0.1543
   53TMC2    H5  822   2.775   3.010  11.506  1.7364 -0.5863 -0.4276
   54MPD2     C  823   2.215   3.011  11.155 -0.8913  0.5814 -0.3715
   54MPD2    C1  824   2.210   3.056  11.289  0.2466 -0.7369 -0.3208
   54MPD2    C2  825   2.110   3.007  11.373 -0.1243  0.0406 -0.7886
   54MPD2    C3  826   2.018   2.910  11.327 -0.1434 -0.1550  0.0857
   54MPD2    C4  827   2.033   2.863  11.201  0.3962  0.1039 -0.4745
   54MPD2    C5  828   2.134   2.906  11.112 -0.0455 -0.5797  0.1570
   54MPD2     H  829   2.108   3.043  11.475 -2.0841 -0.0471 -0.8036
   54MPD2    H1  830   1.967   2.788  11.158 -0.2235  0.6458 -0.4703
   54MPD2    H2  831   2.293   3.051  11.091  0.2885 -0.5894  0.3064
   54MPD2    H3  832   2.147   2.868  11.012  0.5881  0.4048 -0.1420
   54MPD2     N  833   1.920   2.853  11.406  0.0703  0.5037 -0.0626
   54MPD2    H5  834   1.844   2.808  11.355 -0.1598  1.6424 -0.7048
   54MPD2    N1  835   2.307   3.134  11.350  0.5564  0.1692 -0.4807
   54MPD2    H7  836   2.302   3.148  11.451  2.0179  0.7970 -0.5068
   55MPD2     C  837   3.071   1.053   0.570  0.0302 -1.0635 -0.7965
   55MPD2    C1  838   2.981   0.959   0.607 -0.3231  0.5305  0.6194
   55MPD2    C2  839   2.882   0.933   0.515 -1.1746  0.4138  0.9297
   55MPD2    C3  840   2.882   0.992   0.393  0.0041 -0.2770  0.0396
   55MPD2    C4  841   2.978   1.082   0.353  0.0433  0.0834  0.2208
   55MPD2    C5  842   3.071   1.114   0.445 -0.4085  0.1457 -0.0198
   55MPD2     H  843   2.800   0.867   0.543 -2.0161  1.9298  2.0010
   55MPD2    H1  844   2.982   1.139   0.260  0.0860 -1.8768 -0.9815
   55MPD2    H2  845   3.156   1.070   0.636  0.1448 -0.4026 -1.1272
   55MPD2    H3  846   3.149   1.185   0.417  1.0769 -1.6455 -0.4911
   55MPD2     N  847   2.763   0.976   0.317  0.0365  0.3355  0.0509
   55MPD2    H5  848   2.688   0.934   0.370  1.0446 -0.7153  0.6327
   55MPD2    N1  849   2.982   0.914   0.742 -0.3087  0.8928 -0.0170
   55MPD2    H7  850   3.072   0.938   0.784 -0.1839 -0.4223  0.4621
   56TCq2    C1  851   2.904   0.813   0.800  0.1445 -0.2556  0.1258
   56TCq2    O2  852   2.804   0.753   0.758  0.4359 -0.2212  0.0806
   56TCq2    C2  853   2.944   0.791   0.936 -0.9102 -0.8807  0.2981
   56TCq2    C3  854   2.982   0.899   1.013  0.0671 -0.1193  0.1271
   56TCq2    C4  855   2.961   0.889   1.153 -0.1700 -0.0087  0.0250
   56TCq2    C5  856   2.910   0.773   1.213 -0.3307 -0.2846 -0.4257
   56TCq2    C6  857   2.887   0.661   1.132 -0.0766  0.5418  0.7016
   56TCq2    C7  858   2.907   0.665   0.991 -0.0907 -0.1290  0.3110
   56TCq2    C8  859   2.793   0.563   1.194  0.8793 -0.0389 -0.0958
   56TCq2    O4  860   2.782   0.565   1.314 -0.3808  0.0591  0.4302
   56TCq2    C9  861   2.978   1.009   1.228  0.0855 -0.2199  0.0565
   56TCq2    O5  862   2.949   1.111   1.161  0.3259  0.1324 -0.2083
   56TCq2    O6  863   2.950   0.986   1.349  0.8500  0.3544 -0.0757
   56TCq2    H2  864   2.999   1.001   0.981  0.9220 -0.3515 -0.1818
   56TCq2    H3  865   2.883   0.772   1.318 -2.6585 -1.4713 -1.0399
   56TCq2    H4  866   2.899   0.573   0.936  0.3359 -0.4327  0.7544
   57TMC2    C1  867   2.119   1.719  13.692 -0.1051 -0.2086 -0.0286
   57TMC2    C2  868   2.163   1.734  13.818  0.3562  0.4160  0.6545
   57TMC2    C3  869   2.293   1.688  13.851 -0.2668 -0.1519 -0.0921
   57TMC2    C4  870   2.199   1.662  13.591 -0.5075  0.7053  0.9302
   57TMC2    C5  871   2.323   1.620  13.629 -0.3707 -1.2798  0.4925
   57TMC2    C6  872   2.375   1.637  13.754  0.3848  0.1172  0.5073
   57TMC2     C  873   1.986   1.770  13.666  0.1230 -0.5201  0.5979
   57TMC2     O  874   1.936   1.842  13.754  0.0879  0.0905  0.3316
   57TMC2     H  875   2.111   1.793  13.893 -0.2543 -1.8132  2.0238
   57TMC2    H1  876   2.155   1.648  13.493  1.9772  0.6812 -0.1853
   57TMC2    H2  877   2.463   1.585  13.789 -0.9070  0.1824  3.8377
   57TMC2    C7  878   2.409   1.535  13.540 -0.7275  0.3044  0.0167
   57TMC2    C8  879   2.349   1.733  13.971 -0.5761 -0.8158  0.6103
   57TMC2    O1  880   2.504   1.484  13.597  0.2598 -0.0887 -0.2552
   57TMC2    O2  881   2.276   1.780  14.058  0.0998  0.1734 -0.5462
   57TMC2    O5  882   2.463   1.793  13.918 -0.4584 -0.2145  0.4984
   57TMC2    H5  883   2.519   1.748  13.851 -1.7679 -0.4249 -0.4524
   58MPD2     C  884   1.537   1.801  13.412 -0.3381  0.6154 -0.3951
   58MPD2    C1  885   1.572   1.848  13.535 -0.1846 -0.4547 -0.1003
   58MPD2    C2  886   1.700   1.826  13.580  0.5630 -0.8689 -0.3721
   58MPD2    C3  887   1.797   1.757  13.502  0.0122 -0.1172 -0.0726
   58MPD2    C4  888   1.763   1.714  13.376 -0.0360  0.1668 -0.1600
   58MPD2    C5  889   1.637   1.744  13.333  0.9639 -0.6153 -0.7269
   58MPD2     H  890   1.722   1.866  13.679  2.4564 -0.7144 -0.8577
   58MPD2    H1  891   1.835   1.664  13.313 -0.1443  1.2934 -1.1708
   58MPD2    H2  892   1.442   1.827  13.368 -1.1333  0.0048  0.9642
   58MPD2    H3  893   1.613   1.702  13.237 -0.2390  0.6601 -0.9812
   58MPD2     N  894   1.934   1.726  13.548 -0.0664  0.1938 -0.2682
   58MPD2    H5  895   1.992   1.671  13.487  1.4506  2.6240 -1.0067
   58MPD2    N1  896   1.482   1.921  13.618  0.1613 -0.2473 -0.0161
   58MPD2    H7  897   1.517   1.963  13.703  1.2360  1.0884 -1.1374
   59MPD2     C  898   4.166   1.929  12.863  0.2333  0.4260 -0.0710
   59MPD2    C1  899   4.281   1.897  12.790 -0.0401  0.4681 -0.7146
   59MPD2    C2  900   4.404   1.939  12.845  0.0459  0.1273  0.1966
   59MPD2    C3  901   4.413   2.016  12.960  0.1240 -0.6604 -0.0625
   59MPD2    C4  902   4.301   2.054  13.030  0.2045  0.1917  0.8363
   59MPD2    C5  903   4.187   2.007  12.974  0.0794  0.0677 -0.1368
   59MPD2     H  904   4.492   1.906  12.791 -0.0146 -2.2600  1.5980
   59MPD2    H1  905   4.296   2.106  13.125  0.6543  0.3698  0.7615
   59MPD2    H2  906   4.065   1.909  12.828 -0.1316  1.0855  0.6150
   59MPD2    H3  907   4.105   2.041  13.036 -0.6297 -1.1453 -0.4000
   59MPD2     N  908   4.534   2.063  13.014 -0.1217 -0.5182  0.1239
   59MPD2    H5  909   4.528   2.111  13.103 -2.4349 -0.8134  0.1204
   59MPD2    N1  910   4.276   1.825  12.665  0.2164  0.1087  0.5069
   59MPD2    H7  911   4.362   1.821  12.612  0.4101  2.0929  0.6623
   60TCq2    C1  912   4.171   1.757  12.619 -0.0771 -0.6119 -0.5311
   60TCq2    O2  913   4.057   1.741  12.658  0.2915 -0.0427  0.0799
   60TCq2    C2  914   4.183   1.720  12.476 -0.8655  0.4127 -0.0949
   60TCq2    C3  915   4.089   1.632  12.422 -0.0705 -0.6222  1.0183
   60TCq2    C4  916   4.100   1.608  12.288  0.2550  0.9908 -0.3522
   60TCq2    C5  917   4.181   1.673  12.205  0.9360  0.4003  0.1986
   60TCq2    C6  918   4.264   1.763  12.258 -0.0186 -0.3312 -0.2587
   60TCq2    C7  919   4.267   1.793  12.395  0.4326 -0.0578 -0.1616
   60TCq2    C8  920   4.381   1.813  12.183  0.2104 -0.2634 -1.0220
   60TCq2    O4  921   4.420   1.751  12.087  0.4664  0.7789 -0.0814
   60TCq2    C9  922   4.019   1.500  12.231  0.0248 -0.6579 -0.4445
   60TCq2    O5  923   4.019   1.477  12.107 -0.0131 -0.0248  0.3563
   60TCq2    O6  924   3.952   1.433  12.316 -0.3358 -0.6116 -0.3777
   60TCq2    H2  925   4.021   1.576  12.485 -2.1926 -1.3469 -1.9458
   60TCq2    H3  926   4.192   1.641  12.103  0.7970  0.4534  0.1680
   60TCq2    H4  927   4.342   1.861  12.435  0.5083  1.4522 -2.8908
   61MPD2     C  928   4.218   2.930  14.612  0.5064 -0.1508 -0.6841
   61MPD2    C1  929   4.123   3.029  14.590 -0.1596  0.5692 -0.0830
   61MPD2    C2  930   4.141   3.115  14.481 -0.0575  0.4255 -0.1035
   61MPD2    C3  931   4.254   3.118  14.400 -0.3919  0.2375  0.4405
   61MPD2    C4  932   4.353   3.041  14.451  0.6356 -0.4961 -0.2113
   61MPD2    C5  933   4.333   2.940  14.546 -0.1169  0.8196  0.4460
   61MPD2     H  934   4.062   3.186  14.457 -0.9367 -0.9715 -1.2841
   61MPD2    H1  935   4.440   3.042  14.386  0.8618  2.2658  0.1398
   61MPD2    H2  936   4.213   2.857  14.692 -0.5584  0.3361 -0.3021
   61MPD2    H3  937   4.406   2.863  14.566 -0.8595  0.1070  0.3877
   61MPD2     N  938   4.265   3.200  14.289  0.4032  0.1084 -0.2086
   61MPD2    H5  939   4.184   3.259  14.274 -0.3028 -1.1568 -1.4241
   61MPD2    N1  940   4.002   3.038  14.662 -0.1940  0.2407  0.3396
   61MPD2    H7  941   3.941   3.114  14.632  0.3895  0.7737  0.5141
   62TCq2    C1  942   3.968   2.970  14.772 -0.4750 -0.0339 -0.1106
   62TCq2    O2  943   4.012   2.857  14.801  0.1006  0.3679  0.5110
   62TCq2    C2  944   3.852   3.019  14.845 -0.1046  0.0816 -0.3467
   62TCq2    C3  945   3.785   2.924  14.920  0.0867 -0.1155 -0.2211
   62TCq2    C4  946   3.664   2.960  14.973  0.0375 -0.8880  0.4100
   62TCq2    C5  947   3.623   3.085  14.963  0.9023 -0.4907  0.3724
   62TCq2    C6  948   3.700   3.179  14.898 -0.0682 -0.3310 -0.7334
   62TCq2    C7  949   3.819   3.151  14.841 -0.0834  0.2677  0.3194
   62TCq2    C8  950   3.665   3.324  14.884 -0.3682 -0.5262  0.6228
   62TCq2    O4  951   3.753   3.394  14.836 -0.1149  0.2411 -0.8244
   62TCq2    C9  952   3.583   2.866  15.051 -0.6295 -0.2454  0.4668
   62TCq2    O5  953   3.633   2.752  15.074 -0.6689 -0.2421  0.0238
   62TCq2    O6  954   3.458   2.896  15.063  0.3418  0.1470  0.2033
   62TCq2    H2  955   3.827   2.824  14.921  0.7256  0.1589  0.1613
   62TCq2    H3  956   3.529   3.116  15.005  0.4278 -3.9535  1.8663
   62TCq2    H4  957   3.876   3.227  14.789  0.2368  0.4286  0.9057
   63TMC2    C1  958   3.602   3.278   9.743  0.3809  0.3319 -0.2605
   63TMC2    C2  959   3.641   3.278   9.875  0.0506  0.0143  0.3004
   63TMC2    C3  960   3.639   3.403   9.931  0.3010 -0.4341 -0.1176
   63TMC2    C4  961   3.594   3.393   9.669 -0.0102 -0.1088 -0.2762
   63TMC2    C5  962   3.632   3.507   9.727 -0.4200  0.3009 -0.1134
   63TMC2    C6  963   3.645   3.521   9.859  0.3799 -0.2839  0.9418
   63TMC2     C  964   3.515   3.173   9.694 -0.2695  0.6939 -0.1280
   63TMC2     O  965   3.478   3.176   9.580 -0.2692  0.4100 -0.1911
   63TMC2     H  966   3.625   3.198   9.947  1.2207  1.2411  1.9192
   63TMC2    H1  967   3.567   3.383   9.564 -1.8514 -1.5382  0.3297
   63TMC2    H2  968   3.660   3.620   9.901 -2.3886  0.0047  1.2285
   63TMC2    C7  969   3.608   3.630   9.654 -0.1006 -0.7631  0.5068
   63TMC2    C8  970   3.635   3.404  10.075 -0.4841  0.9489 -1.0709
   63TMC2    O1  971   3.600   3.730   9.721 -0.6029  0.1012 -0.3150
   63TMC2    O2  972   3.685   3.320  10.148 -0.2574 -0.4932 -0.3286
   63TMC2    O5  973   3.549   3.497  10.119 -0.0412  0.3574  0.5250
   63TMC2    H5  974   3.512   3.535  10.037 -0.1800 -0.8910  0.0144
   64MPD2     C  975   3.271   2.729   9.790  1.0363  0.8033  0.0999
   64MPD2    C1  976   3.328   2.771   9.902  0.9936 -0.1172  0.3188
   64MPD2    C2  977   3.387   2.897   9.902  0.4213  0.9323 -0.2470
   64MPD2    C3  978   3.401   2.977   9.786 -0.1104  0.3733 -0.3005
   64MPD2    C4  979   3.353   2.920   9.668  0.1791 -0.3206 -0.2540
   64MPD2    C5  980   3.279   2.801   9.678  0.5464 -0.1617  0.2086
   64MPD2     H  981   3.428   2.935   9.995 -1.2035  0.3041  0.7208
   64MPD2    H1  982   3.367   2.959   9.568  0.3171  0.7641  0.1972
   64MPD2    H2  983   3.215   2.637   9.796  2.0598  0.1329 -0.6091
   64MPD2    H3  984   3.230   2.763   9.589  0.9398 -1.0581  0.3762
   64MPD2     N  985   3.475   3.095   9.794 -0.0197 -0.5628 -0.1741
   64MPD2    H5  986   3.504   3.127   9.886  0.3295  1.0852 -0.8445
   64MPD2    N1  987   3.330   2.703  10.021 -0.2388  0.8525 -0.1542
   64MPD2    H7  988   3.386   2.737  10.098 -0.2106 -0.1528  0.2787
   65MPD2     C  989   4.493   2.375  15.498  0.2721  0.1497 -0.1654
   65MPD2    C1  990   4.476   2.359  15.360  0.1546  0.9252  0.3350
   65MPD2    C2  991   4.458   2.231  15.312 -0.0717  0.3590 -0.3637
   65MPD2    C3  992   4.428   2.128  15.403  0.0797 -0.0087  0.3866
   65MPD2    C4  993   4.426   2.151  15.540 -0.6985  0.1014  0.5659
   65MPD2    C5  994   4.463   2.274  15.591  0.4869 -0.8095 -0.0470
   65MPD2     H  995   4.453   2.214  15.205 -0.3123 -0.4506 -0.2221
   65MPD2    H1  996   4.412   2.065  15.604 -0.4138 -0.2783  0.1227
   65MPD2    H2  997   4.537   2.466  15.538  1.1659 -0.2873 -0.1753
   65MPD2    H3  998   4.466   2.303  15.696  0.1174  1.6446 -0.7179
   65MPD2     N  999   4.379   2.005  15.353 -0.3894  0.3346 -0.6314
   65MPD2    H5 1000   4.325   1.950  15.419  0.9836 -0.7238 -0.3939
   65MPD2    N1 1001   4.489   2.462  15.264  0.4168  0.4043 -0.0704
   65MPD2    H7 1002   4.484   2.427  15.169  0.2315  0.8545 -0.2254
   66TCq2    C1 1003   4.488   2.599  15.299  0.8031  0.5671 -0.3412
   66TCq2    O2 1004   4.450   2.651  15.403  0.3435  0.0951 -0.2231
   66TCq2    C2 1005   4.484   2.682  15.179  0.3413  0.2341  0.1572
   66TCq2    C3 1006   4.557   2.639  15.072  0.3187 -0.2789 -0.0646
   66TCq2    C4 1007   4.540   2.703  14.951  0.3574 -0.4440 -0.3801
   66TCq2    C5 1008   4.448   2.804  14.941  0.5751  0.0965 -0.4160
   66TCq2    C6 1009   4.398   2.857  15.053  0.6311  0.1478  0.4750
   66TCq2    C7 1010   4.408   2.794  15.172  0.1332  0.3747 -0.7078
   66TCq2    C8 1011   4.298   2.968  15.041  1.3114 -1.1868  0.3860
   66TCq2    O4 1012   4.259   2.995  14.929  0.3686 -0.1846  0.0732
   66TCq2    C9 1013   4.577   2.632  14.833  0.2101 -0.2189 -0.1285
   66TCq2    O5 1014   4.615   2.511  14.839 -0.2470  0.6347 -0.4751
   66TCq2    O6 1015   4.529   2.682  14.728 -1.0669  0.4272  0.2490
   66TCq2    H2 1016   4.615   2.549  15.079  0.6206  0.0052  1.0612
   66TCq2    H3 1017   4.413   2.838  14.844 -2.6349  0.3598  0.8333
   66TCq2    H4 1018   4.346   2.829  15.253 -2.5016 -0.3544 -2.4034
   67MPD2     C 1019   4.404   1.792  13.962 -0.2343  0.3921  0.0506
   67MPD2    C1 1020   4.345   1.921  13.971  0.1204  0.0293 -0.4291
   67MPD2    C2 1021   4.212   1.935  13.933 -0.3433 -0.1375  0.2903
   67MPD2    C3 1022   4.143   1.826  13.879  0.1458  0.4059  0.2245
   67MPD2    C4 1023   4.210   1.707  13.858 -0.0391 -0.9596 -0.9803
   67MPD2    C5 1024   4.339   1.691  13.897 -0.5476  0.2215  0.0594
   67MPD2     H 1025   4.164   2.029  13.958  1.0883  0.9135 -0.9310
   67MPD2    H1 1026   4.151   1.622  13.827  1.5985 -3.0442  1.6467
   67MPD2    H2 1027   4.500   1.774  14.009 -0.0866  2.5458  0.5521
   67MPD2    H3 1028   4.388   1.595  13.892  1.2715  1.1349  0.2018
   67MPD2     N 1029   4.006   1.834  13.845  0.1414 -0.4017 -0.4480
   67MPD2    H5 1030   3.967   1.749  13.806 -0.0389 -0.4499 -0.1667
   67MPD2    N1 1031   4.400   2.034  14.038  0.1288  0.2351  0.2491
   67MPD2    H7 1032   4.343   2.116  14.056  0.8646  0.2903  2.3039
   68TCq2    C1 1033   4.526   2.050  14.097 -0.4693 -0.1870  0.2900
   68TCq2    O2 1034   4.626   1.976  14.079  0.2050 -0.1617 -0.6786
   68TCq2    C2 1035   4.541   2.181  14.161 -0.3547 -0.2739  0.2153
   68TCq2    C3 1036   4.435   2.240  14.227 -0.1095  0.2716 -0.4557
   68TCq2    C4 1037   4.463   2.331  14.328  0.5788  0.1006 -0.3184
   68TCq2    C5 1038   4.588   2.370  14.344  0.3675 -0.0230 -0.1749
   68TCq2    C6 1039   4.689   2.308  14.281 -0.4589 -0.0076 -0.2750
   68TCq2    C7 1040   4.670   2.217  14.186 -0.0128 -0.3378 -0.9849
   68TCq2    C8 1041   0.097   2.303  14.334  0.7350 -0.0356  0.3261
   68TCq2    O4 1042   0.191   2.298  14.254  0.3512 -0.9115  0.2130
   68TCq2    C9 1043   4.363   2.379  14.418 -0.4536 -0.1360  0.5004
   68TCq2    O5 1044   4.245   2.372  14.376 -0.1359  0.4078 -0.0184
   68TCq2    O6 1045   4.390   2.436  14.526 -0.0019 -0.3229 -0.3233
   68TCq2    H2 1046   4.333   2.208  14.210  0.9036 -2.5642 -1.3520
   68TCq2    H3 1047   4.604   2.440  14.426  0.4634  0.2778 -0.4501
   68TCq2    H4 1048   0.032   2.162  14.147 -0.5249 -1.9277  0.1548
   69TMC2    C1 1049   2.129   3.589  12.286  0.7892 -0.5379 -0.3624
   69TMC2    C2 1050   2.012   3.624  12.229  0.3222 -0.3082 -0.0602
   69TMC2    C3 1051   2.023   3.665  12.096  0.4869  1.0270 -0.1188
   69TMC2    C4 1052   2.251   3.587  12.217 -0.0522  0.2211 -0.6947
   69TMC2    C5 1053   2.253   3.622  12.083  0.7875  0.7730 -0.1337
   69TMC2    C6 1054   2.143   3.667  12.020 -0.0093 -0.5625 -0.2317
   69TMC2     C 1055   2.125   3.510  12.409  0.2848 -0.4427  0.2421
   69TMC2     O 1056   2.031   3.542  12.478 -0.0533  0.1908  0.2953
   69TMC2     H 1057   1.913   3.619  12.275 -0.3193 -1.9508 -1.6418
   69TMC2    H1 1058   2.344   3.566  12.268 -0.1008 -1.8564 -1.4763
   69TMC2    H2 1059   2.136   3.694  11.915 -0.5190  0.8238  0.1564
   69TMC2    C7 1060   2.385   3.663  12.049 -0.2731 -0.4816 -0.8382
   69TMC2    C8 1061   1.899   3.681  12.022  0.2301 -0.1953  0.0858
   69TMC2    O1 1062   2.479   3.591  12.075  0.0714 -0.2410  0.3991
   69TMC2    O2 1063   1.791   3.622  12.042  0.3234  0.2713  0.0789
   69TMC2    O5 1064   1.908   3.808  11.980  0.5248 -0.3269 -0.0509
   69TMC2    H5 1065   1.993   3.856  11.974  1.2735 -1.7043 -0.4121
   70MPD2     C 1066   2.353   3.254  12.524 -0.0996  0.0209  0.1039
   70MPD2    C1 1067   2.233   3.322  12.517  0.0817 -0.3300 -0.0353
   70MPD2    C2 1068   2.137   3.306  12.617  0.1794 -0.1362  0.5708
   70MPD2    C3 1069   2.152   3.209  12.716 -0.2348 -0.3346 -0.4079
   70MPD2    C4 1070   2.266   3.139  12.724 -0.0627 -0.2370  0.3181
   70MPD2    C5 1071   2.361   3.158  12.624 -0.2030 -0.2869  0.5543
   70MPD2     H 1072   2.041   3.353  12.602  0.8898  0.7594 -1.2539
   70MPD2    H1 1073   2.282   3.073  12.808  0.3617  0.5374  0.8500
   70MPD2    H2 1074   2.440   3.266  12.461  0.3046 -1.9967  0.2607
   70MPD2    H3 1075   2.455   3.106  12.631 -0.3891 -0.6335  0.5112
   70MPD2     N 1076   2.056   3.186  12.820 -0.3717  0.3062 -0.4600
   70MPD2    H5 1077   2.076   3.122  12.896  0.6681 -1.5904 -2.3265
   70MPD2    N1 1078   2.226   3.416  12.416  0.1254  0.2934  0.4355
   70MPD2    H7 1079   2.285   3.413  12.333 -1.1892  1.4089 -0.5497
   71TMC2    C1 1080   0.042   3.377   1.791 -0.0210 -0.0060  0.1385
   71TMC2    C2 1081   0.178   3.402   1.803  0.1844 -0.3368 -0.3627
   71TMC2    C3 1082   0.210   3.474   1.914 -0.1517  0.3285  1.0604
   71TMC2    C4 1083   4.671   3.420   1.884 -0.8586 -0.1102  0.6798
   71TMC2    C5 1084   4.705   3.510   1.975 -0.2280  0.2666 -0.5162
   71TMC2    C6 1085   0.114   3.545   1.980  0.1111 -0.0497 -0.4516
   71TMC2     C 1086   0.006   3.278   1.703  0.4211 -0.2170  0.9745
   71TMC2     O 1087   0.070   3.280   1.601 -0.0789  0.4193 -0.2288
   71TMC2     H 1088   0.254   3.368   1.734  0.1957  1.5295 -1.2597
   71TMC2    H1 1089   4.569   3.383   1.886 -0.3529 -1.5820 -0.5695
   71TMC2    H2 1090   0.139   3.620   2.054  2.4176  0.1413 -1.4618
   71TMC2    C7 1091   4.616   3.611   2.031  0.3522  0.0845  0.3670
   71TMC2    C8 1092   0.351   3.508   1.930  0.4438  0.3345 -0.0865
   71TMC2    O1 1093   4.647   3.687   2.124  0.0539 -0.1829 -0.2537
   71TMC2    O2 1094   0.391   3.597   2.006  0.2518  0.0973  0.0463
   71TMC2    O5 1095   0.409   3.387   1.908  0.0460  0.0758  0.6417
   71TMC2    H5 1096   0.350   3.336   1.848 -1.3014 -2.1918  3.9419
   72MPD2     C 1097   4.419   2.901   1.536  0.4051 -0.2675 -0.3204
   72MPD2    C1 1098   4.476   3.012   1.470 -0.4775  0.4642  0.0402
   72MPD2    C2 1099   4.545   3.105   1.549  0.3576  0.2923  0.1467
   72MPD2    C3 1100   4.581   3.084   1.679 -0.4241  0.3204  0.2109
   72MPD2    C4 1101   4.526   2.970   1.736 -0.2655  0.0384  0.1345
   72MPD2    C5 1102   4.446   2.889   1.665 -0.3292 -0.2551  0.4744
   72MPD2     H 1103   4.564   3.201   1.502 -0.7054 -0.2276 -1.3727
   72MPD2    H1 1104   4.542   2.942   1.839 -0.7377  1.3372  0.5567
   72MPD2    H2 1105   4.366   2.819   1.489 -2.0580  1.7424 -1.0732
   72MPD2    H3 1106   4.400   2.806   1.717 -0.3653  0.2311  1.2249
   72MPD2     N 1107   4.648   3.184   1.759 -0.1824 -0.4243  0.6175
   72MPD2    H5 1108   4.639   3.187   1.860 -0.0325  1.2420  0.5790
   72MPD2    N1 1109   4.476   3.026   1.333  0.2147 -0.3021  0.1410
   72MPD2    H7 1110   4.514   3.111   1.292  0.4689  0.0958  1.2020
   73TMC2    C1 1111   4.091   0.874  13.577 -0.7608  0.0060  0.2958
   73TMC2    C2 1112   3.980   0.880  13.649  0.2668  0.0324 -0.3730
   73TMC2    C3 1113   3.999   0.884  13.785 -0.0832 -0.7573  0.2400
   73TMC2    C4 1114   4.216   0.846  13.630 -0.0899  0.1349  0.3192
   73TMC2    C5 1115   4.226   0.835  13.765  0.0948  0.4124  0.6600
   73TMC2    C6 1116   4.114   0.860  13.841  0.3263 -0.0428 -0.0075
   73TMC2     C 1117   4.106   0.991  13.487 -0.1639  0.0213  0.6364
   73TMC2     O 1118   4.218   1.043  13.503 -0.4892  0.0757  0.2040
   73TMC2     H 1119   3.883   0.894  13.602  0.5513 -2.7163 -1.7256
   73TMC2    H1 1120   4.300   0.825  13.565  0.4349  1.1009  0.6915
   73TMC2    H2 1121   4.110   0.849  13.949 -0.0684 -0.1614 -0.0333
   73TMC2    C7 1122   4.337   0.907  13.823  0.0363  0.3210 -0.4827
   73TMC2    C8 1123   3.878   0.877  13.862  0.0200  0.2482 -0.7203
   73TMC2    O1 1124   4.352   0.893  13.942  0.4336 -0.2891 -0.1469
   73TMC2    O2 1125   3.786   0.957  13.854 -0.6528 -0.3220 -0.3142
   73TMC2    O5 1126   3.871   0.749  13.896 -0.0445 -0.2084  0.6533
   73TMC2    H5 1127   3.957   0.700  13.896  1.6939  2.8691  0.8206
   74MPD2     C 1128   3.946   1.376  13.201 -0.7010 -0.2859 -1.0739
   74MPD2    C1 1129   4.050   1.365  13.288  1.0080  0.3265  0.0425
   74MPD2    C2 1130   4.073   1.238  13.343 -0.1769  0.5010  0.4772
   74MPD2    C3 1131   3.982   1.133  13.334 -0.0476 -0.6040 -0.0770
   74MPD2    C4 1132   3.863   1.162  13.269 -0.3724 -0.0355  0.1473
   74MPD2    C5 1133   3.850   1.282  13.200 -0.4991  0.3192 -0.1684
   74MPD2     H 1134   4.171   1.225  13.387  0.2680 -0.0463 -0.6956
   74MPD2    H1 1135   3.775   1.099  13.271 -0.2494 -0.2043  0.2289
   74MPD2    H2 1136   3.926   1.465  13.141 -0.4833  0.6037  0.1780
   74MPD2    H3 1137   3.759   1.285  13.142  0.3859  2.8229 -1.4068
   74MPD2     N 1138   3.999   1.013  13.408  0.6587  0.0121  0.4677
   74MPD2    H5 1139   3.913   0.960  13.415 -0.9352  2.7540  1.6587
   74MPD2    N1 1140   4.137   1.475  13.298 -0.2723  0.1171  0.5236
   74MPD2    H7 1141   4.095   1.559  13.258  0.1762 -1.2698 -2.8762
   75TCq2    C1 1142   3.919   1.946  13.849 -0.0028 -0.3404  0.4189
   75TCq2    O2 1143   3.940   2.054  13.902 -0.3677 -0.0318  0.2530
   75TCq2    C2 1144   3.797   1.916  13.786 -0.4121  0.7284 -0.1612
   75TCq2    C3 1145   3.740   1.798  13.805 -0.0679  0.3642  0.1138
   75TCq2    C4 1146   3.643   1.748  13.725  0.4601 -0.0410 -0.6047
   75TCq2    C5 1147   3.610   1.831  13.624 -0.0643  0.2734 -0.1785
   75TCq2    C6 1148   3.677   1.948  13.596 -0.0142  0.3257  0.2133
   75TCq2    C7 1149   3.775   1.989  13.676  0.7388 -0.3624 -0.2590
   75TCq2    C8 1150   3.622   2.018  13.479  0.3042  0.4158 -0.8019
   75TCq2    O4 1151   3.560   1.953  13.396 -0.3817 -0.2154  0.4395
   75TCq2    C9 1152   3.564   1.630  13.757  0.0235  0.1171  0.5750
   75TCq2    O5 1153   3.601   1.557  13.852  0.1651  0.2395 -0.2639
   75TCq2    O6 1154   3.467   1.602  13.684 -0.1637  0.3596 -0.0732
   75TCq2    H2 1155   3.761   1.734  13.890 -0.8331  3.5368  2.6919
   75TCq2    H3 1156   3.536   1.793  13.554 -2.0168 -0.4418  2.2914
   75TCq2    H4 1157   3.838   2.076  13.662  1.9906 -0.8901  2.0061
   76MPD2     C 1158   3.456   3.189  11.962 -0.6287 -0.3570 -0.6076
   76MPD2    C1 1159   3.346   3.143  11.883  0.5143 -0.5562  0.2624
   76MPD2    C2 1160   3.356   3.010  11.830 -0.1893 -0.3228  0.1835
   76MPD2    C3 1161   3.445   2.918  11.889  0.5659  0.1354 -0.6162
   76MPD2    C4 1162   3.529   2.965  11.991  0.0574 -0.1498 -0.0210
   76MPD2    C5 1163   3.546   3.100  12.018  0.1478  0.1640  0.4848
   76MPD2     H 1164   3.291   2.971  11.752  1.3233 -2.3811 -0.0640
   76MPD2    H1 1165   3.591   2.895  12.047 -0.2979  0.3379  0.9806
   76MPD2    H2 1166   3.473   3.289  12.001  0.9860 -1.6324  1.9547
   76MPD2    H3 1167   3.626   3.131  12.084  2.2829  0.4516 -2.2619
   76MPD2     N 1168   3.441   2.779  11.860 -0.4624 -0.2843 -0.2944
   76MPD2    H5 1169   3.492   2.722  11.927  0.2552 -0.1171 -0.6980
   76MPD2    N1 1170   3.248   3.243  11.839 -0.1306 -0.0213  1.0551
   76MPD2    H7 1171   3.208   3.227  11.747 -0.6095  0.6051  1.1521
   77TCq2    C1 1172   3.377   2.707  11.751  0.2480  0.3277  0.3007
   77TCq2    O2 1173   3.322   2.754  11.650  0.0184 -0.1627 -0.2220
   77TCq2    C2 1174   3.390   2.559  11.758  0.0587 -0.1419  0.7657
   77TCq2    C3 1175   3.302   2.485  11.676  0.1415 -0.2758  0.3784
   77TCq2    C4 1176   3.303   2.352  11.684  0.9150 -0.0370 -0.5743
   77TCq2    C5 1177   3.387   2.289  11.770  0.2728  0.7465 -0.1796
   77TCq2    C6 1178   3.471   2.364  11.845  0.0531  0.2214 -0.1214
   77TCq2    C7 1179   3.470   2.502  11.843 -0.3932  0.2438 -0.4434
   77TCq2    C8 1180   3.584   2.291  11.910  0.7678  0.4682 -0.4505
   77TCq2    O4 1181   3.608   2.171  11.888  0.9956  0.3094 -0.0333
   77TCq2    C9 1182   3.219   2.261  11.604  0.3388 -0.6558 -0.3573
   77TCq2    O5 1183   3.189   2.145  11.658 -0.0049  0.0096 -0.3745
   77TCq2    O6 1184   3.152   2.306  11.509 -0.1287 -0.0035  0.3332
   77TCq2    H2 1185   3.224   2.532  11.616  1.2368  0.7196 -0.2746
   77TCq2    H3 1186   3.388   2.181  11.773  0.1674  0.6374 -4.2006
   77TCq2    H4 1187   3.550   2.566  11.879 -0.7331  0.7799 -0.6357
   78MPD1     C 1188   4.064   3.288   2.287 -1.5468  0.0583 -0.2044
   78MPD1    C1 1189   4.182   3.285   2.222 -0.6748 -0.6020  0.7919
   78MPD1    C2 1190   4.246   3.170   2.198  0.4246  0.6144  0.2930
   78MPD1    C3 1191   4.179   3.048   2.218  0.3366 -0.7431  0.3225
   78MPD1    C4 1192   4.051   3.051   2.269  0.0473  0.3399 -0.0115
   78MPD1    C5 1193   4.000   3.167   2.313 -0.0867 -0.0473 -0.0447
   78MPD1     H 1194   4.347   3.173   2.158  0.8751 -0.2182  1.3668
   78MPD1    H1 1195   4.004   2.958   2.298  0.6725  0.2249  0.6260
   78MPD1    H2 1196   4.018   3.383   2.311 -0.4463 -0.0136  2.1657
   78MPD1    H3 1197   3.900   3.152   2.351 -0.3617  0.4836 -0.5542
   78MPD1     N 1198   4.235   2.925   2.181 -0.5992 -0.2874 -0.8313
   78MPD1    H5 1199   4.182   2.841   2.200 -0.1339 -0.3099  0.3956
   78MPD1    N1 1200   4.250   3.407   2.195  0.3982  0.1186  0.1527
   78MPD1    H6 1201   4.286   3.409   2.100 -0.2112  1.5383 -0.0571
   78MPD1    H7 1202   4.179   3.480   2.193  1.0011  0.7592  2.1596
   79TCq2    C1 1203   4.360   2.908   2.122 -0.0175 -0.0984  0.5673
   79TCq2    O2 1204   4.443   2.990   2.082  0.3745 -0.1077 -0.3309
   79TCq2    C2 1205   4.370   2.778   2.064 -0.3510 -0.4526  0.4487
   79TCq2    C3 1206   4.257   2.705   2.039 -0.0060 -0.1137  0.0083
   79TCq2    C4 1207   4.273   2.584   1.973  0.2848 -0.2533 -0.4472
   79TCq2    C5 1208   4.392   2.547   1.922 -0.6426 -0.2731 -0.1670
   79TCq2    C6 1209   4.502   2.623   1.942 -0.3523 -0.0065 -0.3127
   79TCq2    C7 1210   4.490   2.740   2.015 -0.9995 -0.0754  0.0354
   79TCq2    C8 1211   4.628   2.600   1.887 -0.2322 -0.1073  0.6082
   79TCq2    O4 1212   4.700   2.699   1.873  0.0706 -0.3432  0.0385
   79TCq2    C9 1213   4.168   2.492   1.965 -0.0651 -0.2455 -0.7872
   79TCq2    O5 1214   4.179   2.404   1.879  0.5313 -0.3122 -0.5737
   79TCq2    O6 1215   4.069   2.519   2.035  0.2328  0.3406  0.2647
   79TCq2    H2 1216   4.157   2.741   2.061  0.7592  1.0127  1.6334
   79TCq2    H3 1217   4.404   2.451   1.873  1.3183  0.0078 -0.2410
   79TCq2    H4 1218   4.576   2.794   2.054 -0.0843 -0.4898 -1.4188
   80MPD2     C 1219   2.564   2.928  12.124  0.3591  0.2079 -0.5659
   80MPD2    C1 1220   2.434   2.906  12.089  0.5683  0.7017 -0.6086
   80MPD2    C2 1221   2.343   2.896  12.193  0.1797  0.2905 -0.0838
   80MPD2    C3 1222   2.376   2.898  12.326 -0.2988 -0.5685 -0.2235
   80MPD2    C4 1223   2.505   2.910  12.361 -1.2122 -0.1275  0.1430
   80MPD2    C5 1224   2.595   2.925  12.257 -0.2453  0.1420 -0.2283
   80MPD2     H 1225   2.239   2.873  12.171 -0.1454  3.2866 -1.7118
   80MPD2    H1 1226   2.531   2.938  12.462 -0.8760  1.6446 -0.4368
   80MPD2    H2 1227   2.640   2.958  12.053 -1.1766  0.5888 -2.0538
   80MPD2    H3 1228   2.691   2.955  12.297  0.1487  0.4560 -1.4060
   80MPD2     N 1229   2.282   2.898  12.436  0.2435 -0.7742 -0.5700
   80MPD2    H5 1230   2.320   2.893  12.531  0.4018 -0.4844 -0.6196
   80MPD2    N1 1231   2.391   2.916  11.958  0.5655 -0.1804 -0.1422
   80MPD2    H7 1232   2.290   2.910  11.958  0.7917 -3.7266 -1.5432
   81TCq2    C1 1233   2.474   2.944  11.853 -0.7273  0.0128 -0.3656
   81TCq2    O2 1234   2.592   2.980  11.840 -0.6279 -0.1523 -0.1728
   81TCq2    C2 1235   2.419   2.892  11.727  0.2225 -0.3944 -0.3826
   81TCq2    C3 1236   2.500   2.915  11.621 -0.6393 -0.2709  0.0391
   81TCq2    C4 1237   2.484   2.841  11.506  0.3217  0.1627  0.3093
   81TCq2    C5 1238   2.384   2.753  11.488  0.0693 -0.1182  0.1728
   81TCq2    C6 1239   2.302   2.723  11.598 -0.1129  0.2989 -0.0970
   81TCq2    C7 1240   2.328   2.791  11.721  0.0440  0.4336 -0.2175
   81TCq2    C8 1241   2.182   2.648  11.589 -0.2410 -0.3599  0.3306
   81TCq2    O4 1242   2.175   2.600  11.475  0.0154  0.0232  0.2990
   81TCq2    C9 1243   2.573   2.854  11.395  0.1728  0.4242 -0.1753
   81TCq2    O5 1244   2.559   2.773  11.294  0.0627 -0.0263 -0.1488
   81TCq2    O6 1245   2.682   2.908  11.419  0.3133  0.5864 -0.4187
   81TCq2    H2 1246   2.582   2.986  11.625 -1.8140  0.9967  2.1418
   81TCq2    H3 1247   2.376   2.695  11.398  0.1578 -0.9523  0.7056
   81TCq2    H4 1248   2.281   2.757  11.812  1.3401 -2.6300 -0.6817
   82MPD2     C 1249   0.751   2.261  10.642  0.1481  0.2144  0.4837
   82MPD2    C1 1250   0.623   2.205  10.647  0.2476 -0.1832  0.5352
   82MPD2    C2 1251   0.611   2.067  10.651 -0.0430  1.4382  0.1911
   82MPD2    C3 1252   0.726   1.992  10.655  0.0216 -0.2048 -0.4279
   82MPD2    C4 1253   0.851   2.049  10.660 -0.0668 -0.3186 -0.2010
   82MPD2    C5 1254   0.863   2.186  10.660 -0.0334 -0.4713  0.0544
   82MPD2     H 1255   0.508   2.034  10.656  0.8907 -1.6109 -0.5117
   82MPD2    H1 1256   0.944   1.996  10.646  0.2780 -0.0015  0.8887
   82MPD2    H2 1257   0.766   2.368  10.634  0.0315  0.2651  0.9236
   82MPD2    H3 1258   0.962   2.226  10.647 -0.1277  0.6390  2.7561
   82MPD2     N 1259   0.718   1.852  10.680 -0.2659 -1.0207 -0.0257
   82MPD2    H5 1260   0.805   1.804  10.700 -0.1330 -1.2315 -1.0919
   82MPD2    N1 1261   0.508   2.284  10.657 -0.1355  0.6193 -0.1668
   82MPD2    H7 1262   0.524   2.381  10.631 -0.9259  0.9740  0.6404
   83TCq2    C1 1263   0.601   1.773  10.687  0.1184  0.0247 -0.0393
   83TCq2    O2 1264   0.492   1.804  10.641 -0.5070  0.7569  0.2224
   83TCq2    C2 1265   0.614   1.637  10.746 -0.3892 -0.3877  0.7589
   83TCq2    C3 1266   0.719   1.601  10.824 -0.0229 -0.8047  0.9162
   83TCq2    C4 1267   0.714   1.483  10.889  0.3938  0.3081 -0.7807
   83TCq2    C5 1268   0.606   1.397  10.871  0.0083  0.1341  0.4746
   83TCq2    C6 1269   0.505   1.435  10.794 -0.1595 -0.2977  0.2028
   83TCq2    C7 1270   0.504   1.560  10.733  0.3322 -0.2399  0.2178
   83TCq2    C8 1271   0.380   1.363  10.816  0.6646  0.1251 -0.7011
   83TCq2    O4 1272   0.377   1.291  10.916  0.6423  0.6712  0.5526
   83TCq2    C9 1273   0.829   1.445  10.979 -0.6999  0.3363  0.0002
   83TCq2    O5 1274   0.919   1.531  10.994  1.0285  0.9706  0.6482
   83TCq2    O6 1275   0.812   1.331  11.039 -1.2770  0.1240 -0.2006
   83TCq2    H2 1276   0.806   1.667  10.830  0.1076 -1.0918  2.1927
   83TCq2    H3 1277   0.596   1.308  10.932  1.4518 -2.5829 -3.2600
   83TCq2    H4 1278   0.415   1.592  10.680 -0.1129 -0.1241  1.0278
   84TCq2    C1 1279   0.829   0.556  10.015 -0.2714  0.2807 -0.2621
   84TCq2    O2 1280   0.746   0.520  10.101 -0.5953  0.0211 -0.0753
   84TCq2    C2 1281   0.946   0.617  10.059 -0.4306  0.3430 -0.5871
   84TCq2    C3 1282   1.027   0.676   9.966 -0.0882 -0.0005 -0.1882
   84TCq2    C4 1283   1.107   0.786  10.001 -0.3900  0.0490 -0.4004
   84TCq2    C5 1284   1.099   0.831  10.127 -0.9092 -0.3219  0.4399
   84TCq2    C6 1285   1.027   0.762  10.225  0.2258 -0.6091  0.0035
   84TCq2    C7 1286   0.946   0.657  10.192  0.6438 -0.7131 -0.3262
   84TCq2    C8 1287   1.027   0.822  10.360 -0.2061 -0.3801 -0.4731
   84TCq2    O4 1288   1.054   0.940  10.375  0.3532 -0.7302  0.4319
   84TCq2    C9 1289   1.192   0.840   9.898  0.5439  0.1856  0.3393
   84TCq2    O5 1290   1.186   0.780   9.788  0.1881 -0.3694  0.7069
   84TCq2    O6 1291   1.281   0.923   9.940  0.3009  0.0440 -0.0906
   84TCq2    H2 1292   1.023   0.644   9.863  1.9344 -0.3548 -0.1535
   84TCq2    H3 1293   1.154   0.920  10.154 -0.5437 -0.2240 -0.6125
   84TCq2    H4 1294   0.873   0.610  10.257 -0.9863  0.1557 -1.5517
   85MPD2     C 1295   2.089   3.410  16.231  0.1070 -0.0889 -0.1250
   85MPD2    C1 1296   1.991   3.402  16.132  0.0909  0.1076  0.0514
   85MPD2    C2 1297   1.977   3.497  16.038  0.2983  0.3500  1.7120
   85MPD2    C3 1298   2.066   3.600  16.032  0.5679  0.3655  0.1304
   85MPD2    C4 1299   2.165   3.607  16.123  1.5713 -0.0436 -0.2444
   85MPD2    C5 1300   2.171   3.517  16.224  0.7842 -0.4674  0.5897
   85MPD2     H 1301   1.895   3.494  15.967  1.1575 -0.5023  0.7612
   85MPD2    H1 1302   2.236   3.689  16.124  1.2673  0.2083  0.7281
   85MPD2    H2 1303   2.108   3.326  16.298 -1.5227 -0.3362  0.0392
   85MPD2    H3 1304   2.243   3.536  16.303 -0.2544 -0.8931  1.6611
   85MPD2     N 1305   2.036   3.696  15.934  0.0935  0.3550 -0.1179
   85MPD2    H5 1306   1.951   3.674  15.883 -1.1747  1.3722  1.5454
   85MPD2    N1 1307   1.911   3.291  16.113 -0.1689 -0.0320  0.1439
   85MPD2    H7 1308   1.862   3.287  16.025  1.5310  3.3684 -0.9323
   86TCq2    C1 1309   2.109   3.804  15.893  0.1855  0.4022 -0.0263
   86TCq2    O2 1310   2.231   3.828  15.908  0.4993 -0.0560 -0.1859
   86TCq2    C2 1311   2.021   3.899  15.817 -0.7862 -0.6933  0.2820
   86TCq2    C3 1312   1.889   3.932  15.846 -0.2531 -0.3374  0.3964
   86TCq2    C4 1313   1.833   4.034  15.773  0.2789 -0.4893 -0.0313
   86TCq2    C5 1314   1.900   4.115  15.690  0.1656  0.6467  1.1792
   86TCq2    C6 1315   2.030   4.077  15.665  0.8682 -0.0216  0.0794
   86TCq2    C7 1316   2.090   3.964  15.724 -0.9998 -0.2049  0.0981
   86TCq2    C8 1317   2.110   4.141  15.568  0.1688  0.3813 -0.9328
   86TCq2    O4 1318   2.217   4.088  15.543  0.2371  0.2560  0.5345
   86TCq2    C9 1319   1.695   4.072  15.805 -0.6068  0.2760 -0.0325
   86TCq2    O5 1320   1.616   3.983  15.840  0.1783 -0.0195  0.0346
   86TCq2    O6 1321   1.679   4.196  15.814  0.2071  0.2566 -0.9811
   86TCq2    H2 1322   1.835   3.865  15.912 -1.5084 -0.3716 -0.6606
   86TCq2    H3 1323   1.847   4.191  15.633  0.4144 -0.5548 -0.6140
   86TCq2    H4 1324   2.193   3.934  15.709 -0.5125 -0.0950  3.1626
   87MPD2     C 1325   4.119   1.412   1.190  0.1497 -0.2807  0.4627
   87MPD2    C1 1326   4.231   1.488   1.163 -0.0386  0.2407 -0.1711
   87MPD2    C2 1327   4.225   1.624   1.179 -0.7084 -0.2181  0.3802
   87MPD2    C3 1328   4.112   1.684   1.228 -0.1514 -0.9998  0.4845
   87MPD2    C4 1329   4.004   1.606   1.262 -0.0649 -0.3949 -0.3993
   87MPD2    C5 1330   4.004   1.471   1.241  0.1638  0.3201 -0.1470
   87MPD2     H 1331   4.313   1.685   1.157  0.7612 -2.8518 -0.9795
   87MPD2    H1 1332   3.911   1.648   1.299  0.7140  0.7139  0.2917
   87MPD2    H2 1333   4.113   1.306   1.168 -0.1799 -0.0352 -0.6035
   87MPD2    H3 1334   3.912   1.420   1.265 -0.0084  0.7430  0.0770
   87MPD2     N 1335   4.100   1.824   1.247  0.5392 -0.0017  0.2923
   87MPD2    H5 1336   4.010   1.864   1.273  1.3081  1.0292  1.4052
   87MPD2    N1 1337   4.348   1.422   1.117  0.1296  0.2832 -0.1310
   87MPD2    H7 1338   4.336   1.321   1.112 -0.6481  0.4764 -2.0038
   88TCq2    C1 1339   4.474   1.479   1.090  0.3244  0.0719  0.3691
   88TCq2    O2 1340   4.510   1.596   1.063 -0.1351 -0.9348 -0.5550
   88TCq2    C2 1341   4.579   1.379   1.095 -1.1090  0.2139 -0.1084
   88TCq2    C3 1342   4.699   1.410   1.169 -0.4176  0.1179  0.8641
   88TCq2    C4 1343   0.067   1.308   1.175  0.3691 -0.2137 -0.0717
   88TCq2    C5 1344   0.051   1.182   1.114 -0.0828  0.5900 -1.1221
   88TCq2    C6 1345   4.651   1.150   1.063 -1.0460 -0.6940 -0.5985
   88TCq2    C7 1346   4.556   1.253   1.049 -0.5451 -0.6158 -0.0434
   88TCq2    C8 1347   4.654   1.071   0.935  0.0563 -0.3475  1.0514
   88TCq2    O4 1348   4.591   1.112   0.836 -0.1916 -0.2482  0.0069
   88TCq2    C9 1349   0.191   1.349   1.222  0.1129 -0.7030 -0.6530
   88TCq2    O5 1350   0.198   1.465   1.274  0.2291  0.9179 -0.2548
   88TCq2    O6 1351   0.287   1.271   1.209  0.1476 -0.3414  0.3315
   88TCq2    H2 1352   4.714   1.513   1.196  1.2170  0.1989 -0.3649
   88TCq2    H3 1353   0.130   1.110   1.128  1.9943  3.2116  0.7528
   88TCq2    H4 1354   4.462   1.227   1.002 -0.7108 -1.0994  0.5598
   89MPD2     C 1355   1.186   4.073   1.669 -0.1443 -0.1769  0.1007
   89MPD2    C1 1356   1.113   4.186   1.637 -0.4038  0.4829 -0.4682
   89MPD2    C2 1357   1.171   4.293   1.576 -0.2453 -0.1801 -0.2311
   89MPD2    C3 1358   1.299   4.287   1.536 -0.6796 -0.2235 -0.0766
   89MPD2    C4 1359   1.376   4.174   1.567 -0.2804  0.0659  0.1481
   89MPD2    C5 1360   1.316   4.071   1.631 -0.7159  0.0468 -0.2710
   89MPD2     H 1361   1.117   4.385   1.557 -0.1051  0.3579  2.0041
   89MPD2    H1 1362   1.482   4.167   1.543 -0.1819  1.0574  0.2828
   89MPD2    H2 1363   1.145   3.992   1.728  0.0704 -1.0662 -0.9679
   89MPD2    H3 1364   1.369   3.980   1.655  0.2738  0.2696 -1.6380
   89MPD2     N 1365   1.357   4.400   1.470  0.2312  0.1114  0.1371
   89MPD2    H5 1366   1.295   4.474   1.439 -1.5875 -1.9125 -1.0242
   89MPD2    N1 1367   0.978   4.201   1.678  0.1361  0.5268 -0.2715
   89MPD2    H7 1368   0.931   4.289   1.657  0.2246  0.2688 -1.6048
   90TCq2    C1 1369   1.481   4.407   1.416 -0.4110  0.5884  0.0471
   90TCq2    O2 1370   1.576   4.327   1.425 -0.1236  0.2553  0.1923
   90TCq2    C2 1371   1.486   4.527   1.343  0.1089 -0.1642 -0.6713
   90TCq2    C3 1372   1.444   4.643   1.410  0.0397  0.6198  0.2131
   90TCq2    C4 1373   1.469   0.032   1.348  0.3066  0.4860 -0.0363
   90TCq2    C5 1374   1.520   0.039   1.220 -0.6104  0.6111 -0.0406
   90TCq2    C6 1375   1.536   4.643   1.150  0.0212  0.0290 -0.1351
   90TCq2    C7 1376   1.527   4.527   1.216 -0.0608 -0.6315  0.5925
   90TCq2    C8 1377   1.580   4.647   1.017 -0.3790  0.4227 -0.2584
   90TCq2    O4 1378   1.611   4.539   0.965 -0.6316  0.6462 -0.0018
   90TCq2    C9 1379   1.464   0.156   1.419  0.3098  0.2049 -0.2141
   90TCq2    O5 1380   1.486   0.260   1.352  0.2037 -0.3424  0.1086
   90TCq2    O6 1381   1.436   0.159   1.538  0.0062  0.0171 -0.1434
   90TCq2    H2 1382   1.414   4.654   1.513 -1.3486 -1.5473  0.0470
   90TCq2    H3 1383   1.550   0.134   1.178  1.6019 -0.0076  0.1278
   90TCq2    H4 1384   1.521   4.435   1.159 -0.8285 -0.2741  0.0950
   91TMC2    C1 1385   2.389   4.658  16.638 -0.5548 -0.4949  0.0715
   91TMC2    C2 1386   2.444   0.061  16.643 -0.5111  0.4709  0.2208
   91TMC2    C3 1387   2.363   0.169  16.673  0.3011  0.1743  0.3303
   91TMC2    C4 1388   2.260   4.637  16.677 -0.4221  0.2803 -0.4215
   91TMC2    C5 1389   2.191   0.023  16.718  0.6573 -0.4624 -0.0609
   91TMC2    C6 1390   2.230   0.149  16.706 -0.5571 -0.7206  0.0411
   91TMC2     C 1391   2.462   4.549  16.571  0.2162  0.2527 -0.3103
   91TMC2     O 1392   2.459   4.437  16.617  0.3559 -0.6292 -0.0835
   91TMC2     H 1393   2.550   0.073  16.624 -0.4112 -0.4544  0.1586
   91TMC2    H1 1394   2.212   4.540  16.674  0.1310 -0.0123  0.0484
   91TMC2    H2 1395   2.176   0.238  16.736  0.2171 -0.7188  1.4488
   91TMC2    C7 1396   2.049   0.007  16.736  0.2178  1.5171  0.3020
   91TMC2    C8 1397   2.425   0.289  16.729 -0.2505 -0.5509  0.4417
   91TMC2    O1 1398   2.016   4.637  16.803  0.3153 -0.3424 -0.6753
   91TMC2    O2 1399   2.403   0.331  16.843 -0.2993 -0.1876 -0.3041
   91TMC2    O5 1400   2.533   0.313  16.663  0.0528 -0.2075  0.0264
   91TMC2    H5 1401   2.548   0.265  16.579  1.4374  2.4499 -1.2474
   92MPD2     C 1402   2.637   4.396  16.390  0.3208  0.2028  0.5243
   92MPD2    C1 1403   2.615   4.537  16.378  0.0000 -0.2851 -0.0641
   92MPD2    C2 1404   2.688   4.608  16.294 -0.2758 -0.1588 -0.1317
   92MPD2    C3 1405   2.762   4.549  16.195  0.1476 -0.2531 -0.4729
   92MPD2    C4 1406   2.781   4.414  16.198  0.2086 -0.6359  0.5874
   92MPD2    C5 1407   2.728   4.339  16.300  0.2406  0.6997 -0.7407
   92MPD2     H 1408   2.669   4.714  16.288  0.6428 -0.0024 -0.3794
   92MPD2    H1 1409   2.845   4.376  16.119 -1.1646 -0.2321 -0.7122
   92MPD2    H2 1410   2.603   4.337  16.474 -2.3710  1.3400  0.2691
   92MPD2    H3 1411   2.752   4.234  16.310  1.2664  0.8599 -1.5685
   92MPD2     N 1412   2.825   4.622  16.095  0.0250 -0.4616 -0.1017
   92MPD2    H5 1413   2.873   4.565  16.027  0.5592  0.3800 -0.4260
   92MPD2    N1 1414   2.532   4.606  16.466 -0.2732 -0.2705  0.1745
   92MPD2    H7 1415   2.519   4.705  16.449 -2.3423 -1.0882 -2.9872
   93MPD2     C 1416   3.312   0.709  13.535 -0.3614 -0.2444  0.3007
   93MPD2    C1 1417   3.336   0.590  13.603 -0.1959  0.0476  0.3960
   93MPD2    C2 1418   3.225   0.513  13.638  0.3483  0.3205 -0.3237
   93MPD2    C3 1419   3.107   0.530  13.567 -0.1045  0.2088 -0.2801
   93MPD2    C4 1420   3.087   0.653  13.512 -0.3925  0.3147 -0.0941
   93MPD2    C5 1421   3.187   0.745  13.510  0.7048  0.3789 -0.4163
   93MPD2     H 1422   3.247   0.422  13.693 -1.4981  1.1237  1.7976
   93MPD2    H1 1423   2.989   0.681  13.474  0.1326 -0.4511 -2.0303
   93MPD2    H2 1424   3.397   0.772  13.513 -0.9508  0.3804 -0.1806
   93MPD2    H3 1425   3.156   0.840  13.469 -1.0566  0.2103  0.4980
   93MPD2     N 1426   3.009   0.430  13.547  0.5537  0.9595 -0.6446
   93MPD2    H5 1427   2.919   0.445  13.502 -0.9243 -0.1232  1.9725
   93MPD2    N1 1428   3.463   0.543  13.656 -0.2864 -0.2268  0.0642
   93MPD2    H7 1429   3.459   0.466  13.723  0.2563 -0.3087  0.0029
   94TCq2    C1 1430   3.579   0.603  13.631 -0.4251 -0.1686  0.1669
   94TCq2    O2 1431   3.612   0.669  13.536  0.0851 -0.2618 -0.5502
   94TCq2    C2 1432   3.683   0.552  13.713  0.0224 -0.6815 -0.7375
   94TCq2    C3 1433   3.640   0.490  13.833  0.6830  0.1765  0.6961
   94TCq2    C4 1434   3.720   0.399  13.889  0.0313  0.1972 -0.0948
   94TCq2    C5 1435   3.836   0.358  13.820  0.1102  0.6095  0.0419
   94TCq2    C6 1436   3.870   0.422  13.702  0.4565 -0.2434 -0.0119
   94TCq2    C7 1437   3.792   0.516  13.642 -0.9828 -0.4327  0.0807
   94TCq2    C8 1438   3.994   0.378  13.637  0.1614  0.1304  0.1168
   94TCq2    O4 1439   4.007   0.399  13.517 -0.2912 -0.5542 -0.3280
   94TCq2    C9 1440   3.688   0.332  14.010 -0.6247 -0.0705  0.3359
   94TCq2    O5 1441   3.607   0.389  14.091  0.0426  0.2821  0.1207
   94TCq2    O6 1442   3.738   0.217  14.043  0.4814  0.3657 -0.1556
   94TCq2    H2 1443   3.554   0.516  13.894  1.5094 -1.1338  2.4217
   94TCq2    H3 1444   3.887   0.278  13.872 -0.0228 -0.8076 -2.0568
   94TCq2    H4 1445   3.805   0.546  13.538 -1.1116 -0.1104  0.1568
   95TMC2    C1 1446   3.566   1.213  15.545  1.2713  0.0500  0.4531
   95TMC2    C2 1447   3.555   1.106  15.461 -0.0729  0.5416  0.6582
   95TMC2    C3 1448   3.428   1.063  15.433 -0.2922 -0.5017  0.6644
   95TMC2    C4 1449   3.457   1.268  15.609 -0.5973 -0.0365  0.1344
   95TMC2    C5 1450   3.337   1.211  15.584  0.5770 -0.6405 -0.0906
   95TMC2    C6 1451   3.319   1.108  15.500 -0.2656 -0.4732 -0.6187
   95TMC2     C 1452   3.674   1.298  15.515  0.0387  0.3741 -0.6639
   95TMC2     O 1453   3.759   1.266  15.435 -0.3940 -0.1647  0.6012
   95TMC2     H 1454   3.639   1.061  15.410 -0.0605  0.2410  0.9440
   95TMC2    H1 1455   3.454   1.340  15.689  2.1398  1.6995 -1.3587
   95TMC2    H2 1456   3.225   1.054  15.490 -0.3435  0.2101 -3.6922
   95TMC2    C7 1457   3.224   1.303  15.599 -0.2819 -0.3844 -0.4768
   95TMC2    C8 1458   3.412   0.937  15.357  0.2192  0.0591  0.0577
   95TMC2    O1 1459   3.247   1.424  15.617 -0.0926  0.2017 -0.9282
   95TMC2    O2 1460   3.310   0.915  15.287  0.4373 -0.3050 -0.4546
   95TMC2    O5 1461   3.498   0.845  15.403 -0.2072 -0.8535  0.1947
   95TMC2    H5 1462   3.577   0.865  15.457  0.1086 -2.3294  0.2697
   96MPD2     C 1463   3.901   1.754  15.603 -0.6907  0.0326 -0.4675
   96MPD2    C1 1464   3.919   1.665  15.499  1.1615 -0.0853 -0.0359
   96MPD2    C2 1465   3.847   1.542  15.498  0.2227 -0.6875 -0.6440
   96MPD2    C3 1466   3.756   1.510  15.599 -0.2617  0.0498  0.1962
   96MPD2    C4 1467   3.742   1.605  15.702  0.0341 -0.2556 -0.6317
   96MPD2    C5 1468   3.814   1.720  15.706  0.4940 -0.1458 -0.3145
   96MPD2     H 1469   3.871   1.471  15.420 -2.2608 -2.0540 -0.1451
   96MPD2    H1 1470   3.671   1.583  15.780 -1.7621  0.9131 -1.9286
   96MPD2    H2 1471   3.948   1.852  15.596  0.7700 -0.7420 -1.4274
   96MPD2    H3 1472   3.793   1.788  15.788 -1.1887 -0.0797 -0.8055
   96MPD2     N 1473   3.684   1.391  15.609  0.7344 -0.2753 -0.1871
   96MPD2    H5 1474   3.610   1.391  15.679  2.2334  1.4338  1.4136
   96MPD2    N1 1475   4.014   1.695  15.399 -0.1063 -0.5258  0.1779
   96MPD2    H7 1476   4.058   1.787  15.400  0.9191 -1.0139  0.8015
   97MPD2     C 1477   1.889   3.371   0.775 -0.6944 -0.2088 -0.3560
   97MPD2    C1 1478   1.762   3.342   0.732 -0.8423  0.3061  0.6350
   97MPD2    C2 1479   1.716   3.396   0.612  0.7730  0.8490 -0.3707
   97MPD2    C3 1480   1.803   3.473   0.538 -0.2196 -0.7868  0.0483
   97MPD2    C4 1481   1.926   3.510   0.590 -0.1570  0.7351 -0.0790
   97MPD2    C5 1482   1.970   3.464   0.708  0.4508 -0.1325 -0.4666
   97MPD2     H 1483   1.623   3.373   0.563  1.0281 -2.0531  0.5062
   97MPD2    H1 1484   1.986   3.575   0.528  1.0011 -1.2458 -1.0181
   97MPD2    H2 1485   1.929   3.328   0.866  1.1661  2.5702  0.1676
   97MPD2    H3 1486   2.060   3.503   0.752 -0.1597  0.5809  0.1395
   97MPD2     N 1487   1.787   3.521   0.408 -0.5393 -0.6989  0.4509
   97MPD2    H5 1488   1.861   3.582   0.376 -0.3272 -0.8725  0.6122
   97MPD2    N1 1489   1.691   3.246   0.814 -0.1926  0.2717  0.0577
   97MPD2    H7 1490   1.730   3.207   0.899  2.4377 -2.6286 -2.4749
   98TCq2    C1 1491   1.683   3.491   0.328 -0.0060  0.2148  0.5095
   98TCq2    O2 1492   1.602   3.397   0.340  0.7977 -0.1165 -0.1254
   98TCq2    C2 1493   1.678   3.578   0.207  0.8077 -0.2411 -0.8952
   98TCq2    C3 1494   1.596   3.541   0.108 -0.2969 -0.6656 -0.6870
   98TCq2    C4 1495   1.600   3.602  17.685 -0.2243 -0.1775  0.5016
   98TCq2    C5 1496   1.685   3.708  17.664  0.1195  0.9342  0.4597
   98TCq2    C6 1497   1.756   3.760   0.071 -0.0642 -0.6259  0.1147
   98TCq2    C7 1498   1.755   3.690   0.193 -0.6541 -0.1780  0.2009
   98TCq2    C8 1499   1.866   3.855   0.044  1.4060 -0.7476 -0.2288
   98TCq2    O4 1500   1.952   3.884   0.129  0.8633 -0.1888  0.6382
   98TCq2    C9 1501   1.524   3.547  17.574  0.0310 -0.1324  0.4846
   98TCq2    O5 1502   1.522   3.606  17.465 -0.0160 -1.0089  0.2714
   98TCq2    O6 1503   1.491   3.425  17.582 -0.4428  0.2673 -0.6659
   98TCq2    H2 1504   1.529   3.457   0.122 -0.3488 -0.3241  1.0664
   98TCq2    H3 1505   1.684   3.743  17.562  1.1552  1.0087  0.4772
   98TCq2    H4 1506   1.817   3.723   0.275 -1.1359  1.5690 -0.1293
   99MPD2     C 1507   4.681   0.473   1.314  0.0982  0.0600  0.3843
   99MPD2    C1 1508   0.040   0.534   1.408 -0.1530  0.1817 -0.4589
   99MPD2    C2 1509   0.176   0.512   1.398  0.0661 -0.1498  0.4250
   99MPD2    C3 1510   0.229   0.454   1.287  0.2936 -0.5283  0.0039
   99MPD2    C4 1511   0.149   0.400   1.187 -0.5923 -1.0536 -0.5183
   99MPD2    C5 1512   0.018   0.405   1.210  0.1783  0.2969  0.6366
   99MPD2     H 1513   0.246   0.551   1.471  0.5546 -0.8216  0.3076
   99MPD2    H1 1514   0.178   0.351   1.095  2.3099  0.7003 -0.5647
   99MPD2    H2 1515   4.574   0.486   1.310  0.2635  2.0134  2.8244
   99MPD2    H3 1516   4.682   0.355   1.134  0.4389  1.8096 -0.5613
   99MPD2     N 1517   0.373   0.458   1.275  0.0158 -0.5493  0.4731
   99MPD2    H5 1518   0.422   0.475   1.362  1.2683  2.3733 -0.7888
   99MPD2    N1 1519   4.712   0.621   1.516 -0.1172  0.2363  0.4519
   99MPD2    H7 1520   0.060   0.656   1.580  1.5919 -0.5921 -0.9887
  100TCq2    C1 1521   4.581   0.628   1.551 -0.1293 -0.3179 -0.1123
  100TCq2    O2 1522   4.482   0.612   1.479 -0.7740 -0.1875  0.5581
  100TCq2    C2 1523   4.563   0.706   1.671 -0.2742 -0.2222 -0.1781
  100TCq2    C3 1524   4.651   0.699   1.776 -0.0783  0.3627  0.1561
  100TCq2    C4 1525   4.631   0.770   1.888  0.4731  0.3407 -0.0669
  100TCq2    C5 1526   4.527   0.852   1.908  0.9663  0.2790  0.1030
  100TCq2    C6 1527   4.439   0.860   1.804  0.2965 -0.0992 -0.2962
  100TCq2    C7 1528   4.455   0.786   1.689 -0.4759 -0.6833  0.3668
  100TCq2    C8 1529   4.348   0.976   1.791  0.4032 -0.0678  0.0917
  100TCq2    O4 1530   4.399   1.089   1.809  0.2909  0.1586  0.3327
  100TCq2    C9 1531   4.711   0.742   2.001 -0.0854  0.5639 -0.3970
  100TCq2    O5 1532   4.677   0.805   2.110  0.0388 -0.3374 -0.3952
  100TCq2    O6 1533   0.093   0.675   1.992  0.0375 -0.4393 -0.0296
  100TCq2    H2 1534   0.019   0.642   1.776  0.2602  0.9077 -0.5206
  100TCq2    H3 1535   4.510   0.902   2.003  0.8865  1.8655 -0.7522
  100TCq2    H4 1536   4.386   0.790   1.605  0.7106  1.5354 -0.5007
  101MPD2     C 1537   0.721   2.481  12.685  0.0937 -0.3245  0.4724
  101MPD2    C1 1538   0.645   2.578  12.743  0.2064  0.2838  0.2414
  101MPD2    C2 1539   0.547   2.533  12.829 -0.8288  0.3181  0.2258
  101MPD2    C3 1540   0.524   2.401  12.854 -0.7643  0.0346  0.2985
  101MPD2    C4 1541   0.607   2.310  12.794 -0.6099 -0.6940 -0.4972
  101MPD2    C5 1542   0.709   2.353  12.714 -0.5593  0.2977 -0.8152
  101MPD2     H 1543   0.487   2.606  12.883 -1.1815  0.2664 -0.0933
  101MPD2    H1 1544   0.598   2.203  12.804  0.7142 -0.7657 -0.1075
  101MPD2    H2 1545   0.792   2.510  12.608  1.4670 -2.0838  1.0714
  101MPD2    H3 1546   0.768   2.279  12.661  0.0031 -1.0733  1.7225
  101MPD2     N 1547   0.405   2.367  12.921 -0.1824  0.4520 -0.3549
  101MPD2    H5 1548   0.348   2.446  12.949 -2.6618 -1.1764 -0.8511
  101MPD2    N1 1549   0.667   2.714  12.709 -0.0562  0.4432 -0.3568
  101MPD2    H7 1550   0.742   2.724  12.641  0.2080  2.1380  0.1713
  102TCq2    C1 1551   0.906   3.126  12.510 -0.0999 -0.0418  0.0226
  102TCq2    O2 1552   0.929   3.154  12.394 -0.6135 -0.0152 -0.1034
  102TCq2    C2 1553   0.770   3.086  12.553  0.9240 -0.1167  0.0186
  102TCq2    C3 1554   0.669   3.153  12.494  0.7274  0.0881  0.3715
  102TCq2    C4 1555   0.537   3.124  12.527 -1.0331  0.1303  0.2505
  102TCq2    C5 1556   0.504   3.014  12.601  0.3746 -0.4130  0.2572
  102TCq2    C6 1557   0.612   2.945  12.653  0.3058 -0.6497  0.5611
  102TCq2    C7 1558   0.741   2.977  12.632 -0.2164  0.2322  1.5420
  102TCq2    C8 1559   0.583   2.826  12.729 -0.1088 -0.2075  0.0305
  102TCq2    O4 1560   0.471   2.817  12.781 -0.0181  0.3372 -0.6459
  102TCq2    C9 1561   0.434   3.201  12.467  0.9775 -0.4390 -0.2307
  102TCq2    O5 1562   0.468   3.270  12.369  0.2404  0.3279  0.3060
  102TCq2    O6 1563   0.320   3.146  12.488  0.4299  0.2549 -0.1939
  102TCq2    H2 1564   0.692   3.241  12.433 -0.9594  0.0277 -0.3518
  102TCq2    H3 1565   0.402   2.982  12.618 -0.0337 -0.5601 -2.5280
  102TCq2    H4 1566   0.818   2.906  12.660 -0.3597  0.0889  1.5750
  103TMC2    C1 1567   3.882   2.651  12.573 -0.0197  0.4682  0.0033
  103TMC2    C2 1568   3.994   2.722  12.548 -0.3849 -0.2435  0.1094
  103TMC2    C3 1569   4.042   2.817  12.641  0.4340  0.8233  0.2751
  103TMC2    C4 1570   3.822   2.661  12.697 -0.2547 -0.1382  0.0262
  103TMC2    C5 1571   3.881   2.748  12.789 -0.1626 -0.9316  0.0975
  103TMC2    C6 1572   3.986   2.832  12.766 -0.6406 -0.2940 -0.3101
  103TMC2     C 1573   3.822   2.561  12.465 -0.5024 -0.2257  0.6720
  103TMC2     O 1574   3.702   2.567  12.463 -0.0931  0.1471 -0.1054
  103TMC2     H 1575   4.029   2.730  12.446 -0.9188  2.4713  0.1554
  103TMC2    H1 1576   3.733   2.603  12.718  0.1231 -1.2714 -1.5134
  103TMC2    H2 1577   4.027   2.889  12.848 -1.6397 -0.0914  0.0551
  103TMC2    C7 1578   3.802   2.742  12.913  0.1623 -0.0342  0.3693
  103TMC2    C8 1579   4.135   2.925  12.592  0.0757  0.0795  0.6888
  103TMC2    O1 1580   3.747   2.637  12.937  0.4503  0.8000  0.3130
  103TMC2    O2 1581   4.176   2.918  12.473 -1.0441 -0.3073 -0.0396
  103TMC2    O5 1582   4.113   3.040  12.657  0.3485 -0.0416  0.1917
  103TMC2    H5 1583   4.045   3.036  12.728  0.8458  1.2808  0.7402
  104MPD2     C 1584   3.971   2.302  12.245  0.0454  0.3432  0.2032
  104MPD2    C1 1585   3.882   2.406  12.282  0.0495 -0.3500  0.0891
  104MPD2    C2 1586   3.768   2.422  12.206  0.5126 -0.1494  0.4222
  104MPD2    C3 1587   3.746   2.336  12.101  0.4818 -0.5030  0.2801
  104MPD2    C4 1588   3.826   2.229  12.073  0.0305 -0.1123  0.9993
  104MPD2    C5 1589   3.940   2.215  12.142  0.3788 -0.3707  0.2497
  104MPD2     H 1590   3.697   2.501  12.225  0.2835  0.0286 -1.2089
  104MPD2    H1 1591   3.797   2.163  11.992  2.7534 -1.7998  1.4066
  104MPD2    H2 1592   4.060   2.284  12.305 -0.6822 -0.7184  0.9679
  104MPD2    H3 1593   4.009   2.137  12.111  0.9022  0.3698 -0.4390
  104MPD2     N 1594   3.633   2.371  12.015 -0.1990 -0.3678 -0.2903
  104MPD2    H5 1595   3.585   2.459  12.031 -0.2005 -0.1853 -1.2687
  104MPD2    N1 1596   3.917   2.485  12.395 -0.0923  0.1361 -0.0848
  104MPD2    H7 1597   4.011   2.482  12.434 -0.7500  0.0830  1.4822
  105MPD2     C 1598   0.465   1.137  17.124  0.5466  0.4092 -0.0210
  105MPD2    C1 1599   0.417   1.249  17.188  0.0423 -0.1466 -1.2080
  105MPD2    C2 1600   0.376   1.248  17.321 -0.0194 -0.3499  0.2645
  105MPD2    C3 1601   0.360   1.128  17.388  0.6479 -0.3585 -0.2820
  105MPD2    C4 1602   0.414   1.013  17.326  0.8753 -0.2357  0.3958
  105MPD2    C5 1603   0.464   1.016  17.198  0.3455  0.5223 -0.3975
  105MPD2     H 1604   0.348   1.348  17.355  0.9186 -0.6001  1.7569
  105MPD2    H1 1605   0.413   0.914  17.370 -1.2970 -1.0663 -1.5191
  105MPD2    H2 1606   0.504   1.134  17.023  0.6815  1.0777  0.0105
  105MPD2    H3 1607   0.490   0.919  17.156  1.3139  0.5705  0.1078
  105MPD2     N 1608   0.314   1.141  17.520  0.4477  0.6212 -0.5750
  105MPD2    H5 1609   0.296   1.235  17.554 -1.4555 -0.1500  0.5360
  105MPD2    N1 1610   0.414   1.373  17.115 -0.3125 -0.2551  0.4803
  105MPD2    H7 1611   0.377   1.454  17.164 -0.4254  1.6575 -2.7727
  106TCq2    C1 1612   0.290   1.042  17.600  0.3670  0.1778  0.0288
  106TCq2    O2 1613   0.316   0.924  17.592 -0.3806  0.0133 -0.5740
  106TCq2    C2 1614   0.235   1.090   0.028 -0.6765  0.1106 -0.0553
  106TCq2    C3 1615   0.193   1.218   0.049 -0.2054  0.6022 -0.1661
  106TCq2    C4 1616   0.156   1.257   0.174  0.1873 -0.4765 -0.8869
  106TCq2    C5 1617   0.153   1.167   0.275  0.2433 -0.5189  0.6408
  106TCq2    C6 1618   0.197   1.043   0.254  0.5574 -0.4442  0.1125
  106TCq2    C7 1619   0.252   1.003   0.132  0.1707  0.5005  0.1472
  106TCq2    C8 1620   0.202   0.939   0.356 -0.1703  0.3656 -0.0875
  106TCq2    O4 1621   0.266   0.834   0.335  0.1810 -0.3183  0.0038
  106TCq2    C9 1622   0.103   1.390   0.179  0.4498  0.0162 -0.2350
  106TCq2    O5 1623   0.026   1.405   0.273  0.2152  0.1431 -0.4027
  106TCq2    O6 1624   0.106   1.462   0.078  0.5975  0.0262  0.2280
  106TCq2    H2 1625   0.181   1.295  17.669  0.4176 -0.8461 -1.7315
  106TCq2    H3 1626   0.120   1.199   0.374  1.4674 -1.9245  1.4994
  106TCq2    H4 1627   0.294   0.904   0.121  0.4296  0.3229  2.7070
  107TMC2    C1 1628   1.049   1.285  11.213 -0.0233 -0.0548  0.2702
  107TMC2    C2 1629   1.132   1.375  11.147 -0.1618  0.4218 -0.3500
  107TMC2    C3 1630   1.179   1.340  11.029 -0.0589 -0.0157  0.2065
  107TMC2    C4 1631   1.055   1.160  11.174 -0.0506  0.2119  0.2001
  107TMC2    C5 1632   1.107   1.119  11.052 -0.0599 -0.1797 -0.3578
  107TMC2    C6 1633   1.166   1.218  10.978  0.5631  0.2591 -0.2520
  107TMC2     C 1634   0.957   1.332  11.318  0.6318  0.3831 -0.3107
  107TMC2     O 1635   0.903   1.247  11.384  0.1728  0.7083  0.1039
  107TMC2     H 1636   1.150   1.474  11.188 -0.2674  0.3279 -0.0709
  107TMC2    H1 1637   0.989   1.090  11.225  0.6054  0.7698  1.8144
  107TMC2    H2 1638   1.219   1.195  10.886  0.5095  0.0191 -0.2233
  107TMC2    C7 1639   1.072   0.994  10.995  0.3661 -0.4134 -0.2798
  107TMC2    C8 1640   1.245   1.426  10.944 -0.1344 -0.8038  0.6918
  107TMC2    O1 1641   1.048   0.915  11.079  0.3155 -0.4135 -0.3148
  107TMC2    O2 1642   1.360   1.418  10.902 -0.1169  0.3256 -0.0925
  107TMC2    O5 1643   1.160   1.525  10.911  0.3644  0.0927  0.1925
  107TMC2    H5 1644   1.072   1.514  10.953 -0.0530  1.3962 -0.3392
  108MPD2     C 1645   0.814   1.670  11.299 -0.3391 -0.4051 -0.3270
  108MPD2    C1 1646   0.858   1.556  11.366 -0.1707 -0.0037 -0.9568
  108MPD2    C2 1647   0.818   1.520  11.493 -0.3780  0.3667 -0.1983
  108MPD2    C3 1648   0.737   1.610  11.557  0.2278 -0.4979  0.0089
  108MPD2    C4 1649   0.693   1.721  11.495 -0.2596  0.8666 -0.6720
  108MPD2    C5 1650   0.729   1.745  11.368  0.3282 -0.1433 -0.6253
  108MPD2     H 1651   0.856   1.432  11.544  0.0917  0.2902 -0.6863
  108MPD2    H1 1652   0.622   1.785  11.547  0.7411  1.4194  0.0049
  108MPD2    H2 1653   0.847   1.699  11.200 -0.2315 -1.2090 -0.5211
  108MPD2    H3 1654   0.686   1.834  11.323 -0.1543  0.1137  0.3651
  108MPD2     N 1655   0.686   1.588  11.689 -0.5502 -0.0278 -0.2049
  108MPD2    H5 1656   0.631   1.667  11.719 -0.0791  0.6695 -1.1679
  108MPD2    N1 1657   0.932   1.468  11.295  0.5016 -0.1233 -0.1450
  108MPD2    H7 1658   0.960   1.501  11.203  0.7253 -0.0132 -0.0373
  109MPD2     C 1659   0.913   2.195   1.684  0.3127 -0.9903 -0.7612
  109MPD2    C1 1660   0.961   2.311   1.643 -0.1264 -1.0085  0.0450
  109MPD2    C2 1661   1.103   2.328   1.613  0.2377  0.8887  0.3911
  109MPD2    C3 1662   1.190   2.227   1.648  0.4414 -0.7722 -0.3294
  109MPD2    C4 1663   1.132   2.112   1.685  0.5158 -0.1643 -0.0334
  109MPD2    C5 1664   0.998   2.090   1.699  0.7008  0.1830 -0.0236
  109MPD2     H 1665   1.149   2.419   1.574  1.3493  0.1428 -0.0290
  109MPD2    H1 1666   1.188   2.024   1.716 -1.4489 -1.3832  0.0996
  109MPD2    H2 1667   0.806   2.177   1.688 -0.1426  1.8640 -0.3683
  109MPD2    H3 1668   0.963   1.990   1.720 -1.3279  0.9665  0.3788
  109MPD2     N 1669   1.330   2.243   1.633 -0.3464 -0.2304 -0.8433
  109MPD2    H5 1670   1.358   2.322   1.575  0.5456  0.4292  0.5008
  109MPD2    N1 1671   0.860   2.412   1.620  0.0727 -0.5024  0.0732
  109MPD2    H7 1672   0.763   2.382   1.623  0.5616 -2.0762  0.2334
  110TCq2    C1 1673   1.422   2.154   1.676 -0.1543  0.0261  0.8202
  110TCq2    O2 1674   1.410   2.061   1.753  0.1853 -0.4506 -0.8356
  110TCq2    C2 1675   1.552   2.198   1.642  0.2665 -0.0586  0.3714
  110TCq2    C3 1676   1.639   2.092   1.643  0.3442 -0.4877 -0.6272
  110TCq2    C4 1677   1.761   2.116   1.585 -0.1787 -0.4513 -0.6977
  110TCq2    C5 1678   1.792   2.231   1.520  0.4879 -0.1291 -0.0066
  110TCq2    C6 1679   1.697   2.334   1.513 -0.7748 -0.1547 -0.5651
  110TCq2    C7 1680   1.580   2.321   1.586 -0.1628  0.3653 -0.2025
  110TCq2    C8 1681   1.709   2.441   1.422 -0.3926 -0.3341 -0.1590
  110TCq2    O4 1682   1.607   2.503   1.396  0.4913  0.0773  0.4189
  110TCq2    C9 1683   1.845   1.998   1.562 -0.4845  0.3101  1.4913
  110TCq2    O5 1684   1.807   1.891   1.610  0.2221  0.0172 -0.2571
  110TCq2    O6 1685   1.914   2.002   1.457 -0.1161 -0.1713  0.7215
  110TCq2    H2 1686   1.607   1.994   1.678  1.2077 -0.3533  0.5353
  110TCq2    H3 1687   1.882   2.231   1.460  0.5930  1.2121  0.1482
  110TCq2    H4 1688   1.512   2.405   1.591  1.1742  1.4459 -0.1558
  111TMC2    C1 1689   0.938   2.941  11.349 -0.8139  0.0381 -0.7805
  111TMC2    C2 1690   0.867   2.855  11.434  0.4751 -0.3746  0.4588
  111TMC2    C3 1691   0.934   2.745  11.479 -0.7119 -0.1450 -0.2579
  111TMC2    C4 1692   1.073   2.927  11.338  0.4403 -0.4613  0.2931
  111TMC2    C5 1693   1.139   2.818  11.389 -0.1691  0.7955  0.0536
  111TMC2    C6 1694   1.069   2.722  11.456  0.1009 -0.3994 -0.2462
  111TMC2     C 1695   0.890   3.066  11.293 -0.1798  0.0284 -0.8382
  111TMC2     O 1696   0.946   3.111  11.195 -0.4765 -0.5841 -0.3743
  111TMC2     H 1697   0.760   2.874  11.435  0.4892 -0.4300  2.4228
  111TMC2    H1 1698   1.121   3.015  11.296 -0.6329 -0.3665 -0.7275
  111TMC2    H2 1699   1.109   2.642  11.515 -0.0032 -1.6407 -1.8557
  111TMC2    C7 1700   1.271   2.848  11.442 -0.4722 -0.5875 -0.3590
  111TMC2    C8 1701   0.878   2.668  11.588  0.2652  0.4023 -0.5574
  111TMC2    O1 1702   1.297   2.794  11.546 -0.0156  0.5234 -0.6633
  111TMC2    O2 1703   0.923   2.563  11.625 -0.4818 -0.5002  0.3782
  111TMC2    O5 1704   0.810   2.751  11.672 -0.1861 -0.0046  0.0409
  111TMC2    H5 1705   0.785   2.833  11.625  0.3144 -0.5782 -1.2100
  112MPD2     C 1706   0.519   3.414  11.248 -0.2433 -0.1623 -0.4220
  112MPD2    C1 1707   0.610   3.363  11.151 -0.2057  0.1645  0.5656
  112MPD2    C2 1708   0.708   3.271  11.189  0.0924 -0.1047  0.1014
  112MPD2    C3 1709   0.712   3.233  11.321  0.4133 -0.1841 -0.4787
  112MPD2    C4 1710   0.619   3.280  11.411 -0.0495 -0.4295 -0.5506
  112MPD2    C5 1711   0.523   3.368  11.376 -0.6989 -0.1436 -0.0761
  112MPD2     H 1712   0.762   3.217  11.111  0.1447  0.7556 -0.4580
  112MPD2    H1 1713   0.605   3.237  11.510 -2.7883  2.0417  0.1155
  112MPD2    H2 1714   0.451   3.493  11.218  0.7248  0.8049 -0.0846
  112MPD2    H3 1715   0.442   3.392  11.444  0.2531 -0.7308  1.2597
  112MPD2     N 1716   0.789   3.126  11.363 -0.3673 -0.3691  0.3954
  112MPD2    H5 1717   0.762   3.088  11.453 -2.4739 -2.1058 -0.9606
  112MPD2    N1 1718   0.606   3.416  11.021  0.2451 -0.3181  0.2991
  112MPD2    H7 1719   0.534   3.485  11.003 -0.7273 -1.3815  0.1089
  113MPD2     C 1720   3.169   0.660   0.669  0.3500  0.0724  0.4039
  113MPD2    C1 1721   3.228   0.628   0.786  0.0562 -0.5332 -0.6781
  113MPD2    C2 1722   3.203   0.504   0.844 -0.0419 -0.1007 -0.1237
  113MPD2    C3 1723   3.114   0.412   0.779  0.0026  0.5087 -0.3266
  113MPD2    C4 1724   3.057   0.454   0.664  0.2998 -0.2276 -0.0333
  113MPD2    C5 1725   3.081   0.576   0.606  0.5946 -0.2479  0.2531
  113MPD2     H 1726   3.250   0.480   0.938  0.3558 -2.0785 -0.8366
  113MPD2    H1 1727   2.993   0.382   0.614 -2.0589  1.2826  0.7784
  113MPD2    H2 1728   3.197   0.749   0.613  3.1924 -0.6313  0.6980
  113MPD2    H3 1729   3.037   0.615   0.515  0.4621  0.4280  0.6023
  113MPD2     N 1730   3.098   0.271   0.820 -0.9305 -0.7341 -0.4765
  113MPD2    H5 1731   3.041   0.211   0.761  0.2986 -0.5904 -1.8026
  113MPD2    N1 1732   3.313   0.714   0.856  0.3247 -0.0624  0.0534
  113MPD2    H7 1733   3.346   0.687   0.948  0.3013 -0.7388 -0.1406
  114TCq2    C1 1734   3.149   0.221   0.936  0.1814  0.1797 -0.9660
  114TCq2    O2 1735   3.231   0.270   1.016  0.7411 -0.3887 -0.3450
  114TCq2    C2 1736   3.136   0.074   0.935 -0.2920 -0.6286 -0.3402
  114TCq2    C3 1737   3.041   0.012   0.856  0.6967 -0.2474 -0.2817
  114TCq2    C4 1738   3.048   4.602   0.837 -0.2064 -0.3178 -0.2765
  114TCq2    C5 1739   3.140   4.530   0.896 -0.6304 -0.1954 -0.5241
  114TCq2    C6 1740   3.231   4.591   0.985 -0.2145 -0.4742  0.2899
  114TCq2    C7 1741   3.224   4.722   1.013  0.4818 -0.3282  0.7779
  114TCq2    C8 1742   3.331   4.496   1.043  0.4873 -0.3048  0.0034
  114TCq2    O4 1743   3.347   4.397   0.971 -0.4630 -0.0565 -0.5200
  114TCq2    C9 1744   2.953   4.543   0.740  0.6454  0.3624  0.5590
  114TCq2    O5 1745   2.891   4.444   0.782 -0.4899  0.7369 -0.3521
  114TCq2    O6 1746   2.965   4.575   0.616 -0.3674  0.1040  0.1525
  114TCq2    H2 1747   2.954   0.058   0.810  0.3493 -0.2076  0.4006
  114TCq2    H3 1748   3.133   4.425   0.873 -0.0456 -0.3193 -0.1436
  114TCq2    H4 1749   3.303   0.050   1.067 -0.3836  0.6841  1.0808
  115TMC2    C1 1750   4.295   3.439  17.221  0.1394 -0.6555 -0.2470
  115TMC2    C2 1751   4.354   3.487  17.335  0.2626 -0.3323 -0.1010
  115TMC2    C3 1752   4.355   3.619  17.358 -0.6239  0.0388  0.8929
  115TMC2    C4 1753   4.215   3.519  17.147  0.3100 -0.6591 -0.4677
  115TMC2    C5 1754   4.226   3.660  17.172 -0.1568  0.4193  0.1915
  115TMC2    C6 1755   4.290   3.711  17.280 -0.4455  0.6002 -0.1210
  115TMC2     C 1756   4.282   3.299  17.198 -0.1715 -0.9069 -0.0740
  115TMC2     O 1757   4.222   3.264  17.100  0.0749  0.2432 -0.4021
  115TMC2     H 1758   4.401   3.422  17.408 -0.0463  0.3096  0.6642
  115TMC2    H1 1759   4.162   3.487  17.058  1.1297 -2.0539 -0.4621
  115TMC2    H2 1760   4.290   3.816  17.306 -0.7023 -0.1831  3.0263
  115TMC2    C7 1761   4.165   3.756  17.087 -0.5903 -0.5840  0.3481
  115TMC2    C8 1762   4.363   3.646  17.504 -0.5336 -0.1334  0.2167
  115TMC2    O1 1763   4.067   3.721  17.024 -0.1382 -0.0035  0.2969
  115TMC2    O2 1764   4.307   3.580  17.586  0.0035  0.8774  0.3091
  115TMC2    O5 1765   4.405   3.776  17.505  0.1676  0.0153 -0.2731
  115TMC2    H5 1766   4.463   3.785  17.426  0.8825 -2.4149 -0.0517
  116MPD2     C 1767   4.316   2.804  17.324 -0.0841  0.6043  0.1266
  116MPD2    C1 1768   4.297   2.864  17.201  0.7346  0.8517 -0.4784
  116MPD2    C2 1769   4.292   3.004  17.192 -0.4952  0.1572 -0.2755
  116MPD2    C3 1770   4.316   3.078  17.309  0.0324 -0.0925 -0.0388
  116MPD2    C4 1771   4.344   3.022  17.430  0.3831  0.2996 -0.3720
  116MPD2    C5 1772   4.358   2.883  17.432  0.3596 -0.5502 -0.6652
  116MPD2     H 1773   4.254   3.056  17.104 -2.3658  1.1881  1.1440
  116MPD2    H1 1774   4.362   3.081  17.519  0.8245 -1.2085  0.5356
  116MPD2    H2 1775   4.329   2.696  17.334  1.4952  0.6410 -1.4980
  116MPD2    H3 1776   4.381   2.833  17.525  2.3180  2.1600  0.3298
  116MPD2     N 1777   4.313   3.218  17.307  0.0926 -0.4395  0.0415
  116MPD2    H5 1778   4.342   3.259  17.395  0.2385  1.6090 -0.9605
  116MPD2    N1 1779   4.293   2.781  17.088  0.0071 -0.0627  0.5320
  116MPD2    H7 1780   4.313   2.682  17.097 -1.2695 -0.3864 -0.2240
  117TMC2    C1 1781   2.795   0.486  13.830 -0.8170 -0.2796 -0.1947
  117TMC2    C2 1782   2.787   0.393  13.928 -0.5125  0.1677 -1.0367
  117TMC2    C3 1783   2.839   0.438  14.048 -0.1338 -0.0035 -0.2633
  117TMC2    C4 1784   2.851   0.609  13.840 -0.4525  0.1966  0.5412
  117TMC2    C5 1785   2.910   0.642  13.962  0.1447 -0.2750  0.6357
  117TMC2    C6 1786   2.911   0.554  14.060 -0.2932  0.0715 -0.0221
  117TMC2     C 1787   2.697   0.467  13.723  0.3117  0.0621 -0.5746
  117TMC2     O 1788   2.667   0.355  13.682 -0.4672  0.1327 -0.5145
  117TMC2     H 1789   2.722   0.307  13.921 -0.2571 -0.1785  0.6474
  117TMC2    H1 1790   2.856   0.677  13.757  0.4076 -1.0345 -0.4138
  117TMC2    H2 1791   2.950   0.576  14.159 -0.0714 -0.6925  0.0667
  117TMC2    C7 1792   3.030   0.726  13.948 -0.3853 -0.6088  0.2555
  117TMC2    C8 1793   2.859   0.346  14.158 -0.3608  0.0261  0.5995
  117TMC2    O1 1794   3.028   0.806  13.855  0.1715  0.3394  0.2434
  117TMC2    O2 1795   2.826   0.367  14.276  0.4014  0.0733  0.1238
  117TMC2    O5 1796   2.856   0.228  14.086 -0.4787 -0.2354  0.1892
  117TMC2    H5 1797   2.895   0.243  13.997 -2.5418  1.1332 -0.4826
  118MPD2     C 1798   3.359   0.709  14.115  0.2705  0.4617 -0.1312
  118MPD2    C1 1799   3.273   0.736  14.010 -0.3524  0.5520 -0.0515
  118MPD2    C2 1800   3.319   0.805  13.903 -0.1291 -0.2928  0.3169
  118MPD2    C3 1801   3.455   0.840  13.893 -0.6618 -1.0391 -0.1369
  118MPD2    C4 1802   3.537   0.812  14.003  0.6755  0.8169  0.1282
  118MPD2    C5 1803   3.492   0.748  14.116 -0.2174  0.3486 -0.3421
  118MPD2     H 1804   3.246   0.824  13.825 -0.4792 -1.5319  0.3363
  118MPD2    H1 1805   3.638   0.851  14.002  0.2569  1.9218  0.8090
  118MPD2    H2 1806   3.326   0.665  14.208  0.3738  0.9562  0.1355
  118MPD2    H3 1807   3.554   0.735  14.204 -0.8362  3.0986  0.4929
  118MPD2     N 1808   3.506   0.932  13.806 -0.0996 -0.5774 -0.0972
  118MPD2    H5 1809   3.605   0.950  13.816 -0.5018  1.4264  0.1093
  118MPD2    N1 1810   3.137   0.693  14.021  0.3481 -0.0396  0.0042
  118MPD2    H7 1811   3.117   0.630  14.099 -0.6947  0.3046  0.0216
  119MPD2     C 1812   1.710   2.221  13.499 -0.4476  0.5459  0.3917
  119MPD2    C1 1813   1.585   2.279  13.480  0.0267 -0.1643  0.1433
  119MPD2    C2 1814   1.539   2.302  13.352  0.3212  0.5836 -0.0122
  119MPD2    C3 1815   1.624   2.288  13.244 -0.4821  0.0083  0.3717
  119MPD2    C4 1816   1.754   2.238  13.269 -0.0057 -0.0557  0.4089
  119MPD2    C5 1817   1.792   2.205  13.392 -0.2891  0.2112  1.3469
  119MPD2     H 1818   1.436   2.334  13.339 -0.1466 -0.8600  0.0760
  119MPD2    H1 1819   1.822   2.227  13.185 -0.2290 -1.2893  0.3856
  119MPD2    H2 1820   1.752   2.199  13.597 -0.6789 -2.3040 -0.1452
  119MPD2    H3 1821   1.893   2.171  13.413 -0.2949 -1.5288 -1.5725
  119MPD2     N 1822   1.589   2.296  13.106  0.0327 -0.5910  0.5186
  119MPD2    H5 1823   1.657   2.269  13.037 -0.9995 -0.1103 -0.6898
  119MPD2    N1 1824   1.499   2.282  13.592  0.1637  0.4033 -0.6245
  119MPD2    H7 1825   1.541   2.251  13.679 -1.3874 -1.0770 -0.3924
  120TCq2    C1 1826   1.465   2.323  13.056  0.1693  0.0639 -0.3889
  120TCq2    O2 1827   1.369   2.360  13.122 -0.4799 -0.3418  0.1509
  120TCq2    C2 1828   1.449   2.306  12.909 -0.4250 -0.2891 -0.6932
  120TCq2    C3 1829   1.561   2.304  12.831 -0.2113 -0.6503  0.0190
  120TCq2    C4 1830   1.556   2.275  12.699  0.1112  0.1837  0.6286
  120TCq2    C5 1831   1.438   2.215  12.654 -0.6377  0.1005  0.0148
  120TCq2    C6 1832   1.332   2.206  12.733  0.0125 -0.7393 -0.1132
  120TCq2    C7 1833   1.333   2.243  12.866 -0.1704 -0.0076  0.4733
  120TCq2    C8 1834   1.215   2.126  12.694 -0.0329  0.2160 -0.4326
  120TCq2    O4 1835   1.173   2.119  12.580  0.6324 -0.6150  0.4028
  120TCq2    C9 1836   1.679   2.290  12.622 -0.0650  0.8570 -0.5979
  120TCq2    O5 1837   1.683   2.291  12.497 -0.3865  0.0781  0.0535
  120TCq2    O6 1838   1.783   2.282  12.687 -0.1067 -0.5377 -0.0316
  120TCq2    H2 1839   1.650   2.356  12.864  0.3368 -1.7140  0.2154
  120TCq2    H3 1840   1.421   2.193  12.549 -1.3798 -2.9654  0.7678
  120TCq2    H4 1841   1.246   2.247  12.931 -0.8897 -1.7221 -0.4008
  121TMC2    C1 1842   2.558   3.650  13.524 -0.3183  0.2137 -0.1799
  121TMC2    C2 1843   2.526   3.537  13.590  0.8373  0.3222 -0.5922
  121TMC2    C3 1844   2.396   3.513  13.618 -0.6352  0.6690  0.0073
  121TMC2    C4 1845   2.465   3.744  13.487  0.5571  0.1762  0.2840
  121TMC2    C5 1846   2.330   3.716  13.524 -0.3988 -0.2728  0.3591
  121TMC2    C6 1847   2.291   3.599  13.588  0.1399  0.5292 -0.1982
  121TMC2     C 1848   2.695   3.671  13.485 -0.2241  0.4641 -0.3017
  121TMC2     O 1849   2.782   3.653  13.572 -0.0481  0.4009  0.3707
  121TMC2     H 1850   2.607   3.474  13.626  0.2330 -1.2847 -2.0047
  121TMC2    H1 1851   2.482   3.841  13.441 -1.0405  1.0272  1.4684
  121TMC2    H2 1852   2.190   3.559  13.592  1.0930 -1.8357 -0.1732
  121TMC2    C7 1853   2.227   3.785  13.443  0.0403 -0.6674  0.4212
  121TMC2    C8 1854   2.365   3.378  13.661 -0.2807  0.2144 -0.1697
  121TMC2    O1 1855   2.274   3.846  13.350  0.0156 -0.7160  0.2652
  121TMC2    O2 1856   2.254   3.322  13.660  0.2559 -0.2123  0.0093
  121TMC2    O5 1857   2.456   3.358  13.760 -0.6565 -0.1714 -0.2457
  121TMC2    H5 1858   2.513   3.432  13.792 -0.9882  0.1243 -0.3379
  122MPD2     C 1859   2.946   3.712  13.326  0.2943 -0.3431  0.5772
  122MPD2    C1 1860   2.819   3.745  13.282 -0.4973  0.7983  0.7223
  122MPD2    C2 1861   2.807   3.804  13.154  0.3567 -0.4939 -0.2004
  122MPD2    C3 1862   2.918   3.824  13.070 -0.7379  0.8308  0.1994
  122MPD2    C4 1863   3.041   3.774  13.113  0.1870  0.7504  0.5570
  122MPD2    C5 1864   3.051   3.729  13.242 -0.6472  0.1323 -0.7122
  122MPD2     H 1865   2.704   3.827  13.131 -0.3628 -0.9977  2.4912
  122MPD2    H1 1866   3.125   3.759  13.046  0.7012  0.6795  1.2144
  122MPD2    H2 1867   2.954   3.664  13.422 -1.1910 -0.9297  0.3997
  122MPD2    H3 1868   3.151   3.698  13.272 -0.0501  1.6255 -1.1473
  122MPD2     N 1869   2.915   3.866  12.932 -0.3665  0.0815  1.1151
  122MPD2    H5 1870   3.009   3.885  12.899 -0.3614  0.1803  1.1838
  122MPD2    N1 1871   2.702   3.719  13.357  0.3083 -0.4774  0.3313
  122MPD2    H7 1872   2.613   3.730  13.310  0.0106 -2.1534  0.5068
  123MPD2     C 1873   0.244   1.949   9.017 -0.3864  0.1867  0.1052
  123MPD2    C1 1874   0.342   1.871   9.075  0.4530 -0.4253 -0.6357
  123MPD2    C2 1875   0.451   1.820   9.009  0.2443 -0.2417  0.2531
  123MPD2    C3 1876   0.459   1.845   8.873  0.0463  0.5859  0.2656
  123MPD2    C4 1877   0.360   1.929   8.810  0.4087 -0.6225  0.3506
  123MPD2    C5 1878   0.251   1.978   8.886 -0.7021  0.2317  0.3816
  123MPD2     H 1879   0.529   1.771   9.066  1.0890  1.4882  0.5557
  123MPD2    H1 1880   0.357   1.965   8.708  1.5157 -0.3450  0.4070
  123MPD2    H2 1881   0.158   1.988   9.072 -2.1708 -1.6884 -1.3646
  123MPD2    H3 1882   0.175   2.038   8.838 -1.4118 -0.4531  0.6426
  123MPD2     N 1883   0.570   1.797   8.802  0.6978  0.1618 -0.0309
  123MPD2    H5 1884   0.632   1.734   8.852  0.2611 -1.7339 -1.8587
  123MPD2    N1 1885   0.329   1.856   9.214 -0.0003  0.3408  0.4697
  123MPD2    H7 1886   0.247   1.903   9.251 -2.3451 -2.0326 -1.6831
  124TCq2    C1 1887   0.586   1.816   8.666  0.5607  0.0286 -0.0537
  124TCq2    O2 1888   0.516   1.870   8.587 -0.2226 -0.2339  0.4201
  124TCq2    C2 1889   0.709   1.756   8.622 -0.0623  0.5001  0.1855
  124TCq2    C3 1890   0.722   1.732   8.491  0.1210  0.2675  0.6391
  124TCq2    C4 1891   0.805   1.634   8.445 -0.0376  0.6861 -0.2530
  124TCq2    C5 1892   0.889   1.563   8.529 -0.6246  0.2333  0.7233
  124TCq2    C6 1893   0.885   1.606   8.660  0.0867  0.4186  0.1657
  124TCq2    C7 1894   0.803   1.704   8.706  0.7638  0.1460  0.2246
  124TCq2    C8 1895   0.951   1.534   8.769 -0.5499  0.3830  0.7906
  124TCq2    O4 1896   0.943   1.570   8.886 -0.3871  0.7076  0.1868
  124TCq2    C9 1897   0.809   1.608   8.303 -0.2848  0.8324  1.0352
  124TCq2    O5 1898   0.717   1.673   8.238 -0.3969  0.1742  0.2329
  124TCq2    O6 1899   0.912   1.563   8.252 -0.2454 -0.0289 -0.1510
  124TCq2    H2 1900   0.676   1.794   8.415  0.0559 -0.2418  0.2575
  124TCq2    H3 1901   0.953   1.489   8.482  0.0647 -0.7133  3.2036
  124TCq2    H4 1902   0.802   1.730   8.812 -0.4307  0.6005  0.0981
  125TMC2    C1 1903   2.515   3.105   9.379  0.4366 -0.6507  0.2916
  125TMC2    C2 1904   2.434   3.077   9.274  0.1682  0.1536 -1.1636
  125TMC2    C3 1905   2.500   3.045   9.159  0.2235  0.2546  0.4279
  125TMC2    C4 1906   2.646   3.131   9.373  0.1807 -0.1428  0.4934
  125TMC2    C5 1907   2.704   3.103   9.251  0.1769 -0.6172  0.5648
  125TMC2    C6 1908   2.635   3.066   9.139 -0.3029 -0.3088 -0.5125
  125TMC2     C 1909   2.450   3.114   9.509  0.2661 -0.4213 -0.2623
  125TMC2     O 1910   2.327   3.130   9.502  0.0559 -0.1037 -0.6477
  125TMC2     H 1911   2.328   3.058   9.280  0.4510 -0.4106  1.6147
  125TMC2    H1 1912   2.716   3.132   9.457  1.1097 -2.0198 -0.2497
  125TMC2    H2 1913   2.682   3.072   9.041 -0.8033  0.5549 -0.7009
  125TMC2    C7 1914   2.851   3.104   9.244  0.7955 -0.1607  1.0704
  125TMC2    C8 1915   2.432   2.986   9.043 -0.4896 -0.2315 -0.3439
  125TMC2    O1 1916   2.908   3.159   9.338  0.0563  0.2427 -0.5848
  125TMC2    O2 1917   2.309   2.995   9.056 -0.7821 -0.1378 -0.1310
  125TMC2    O5 1918   2.501   2.894   8.983  0.8389  0.6598  0.4124
  125TMC2    H5 1919   2.595   2.881   9.010  0.5141 -0.8831  0.7729
  126MPD1     C 1920   2.426   3.085  10.013  0.2890 -0.3070  0.6435
  126MPD1    C1 1921   2.555   3.082   9.984  0.3625 -0.3422 -0.5961
  126MPD1    C2 1922   2.588   3.069   9.846 -0.2367  0.0609  0.0533
  126MPD1    C3 1923   2.497   3.093   9.751 -0.2759  0.0685  0.2209
  126MPD1    C4 1924   2.372   3.117   9.793 -0.5018  0.8915 -0.2678
  126MPD1    C5 1925   2.329   3.096   9.918 -0.1777  0.5995 -0.6429
  126MPD1     H 1926   2.690   3.048   9.817 -0.1819  0.5004 -0.0737
  126MPD1    H1 1927   2.296   3.141   9.720 -3.4747 -3.2092  1.4533
  126MPD1    H2 1928   2.397   3.081  10.118 -2.0259 -0.6755  0.0049
  126MPD1    H3 1929   2.229   3.120   9.953  0.6562 -0.2940  2.4263
  126MPD1     N 1930   2.535   3.087   9.618  0.8148 -0.1499  0.0101
  126MPD1    H5 1931   2.635   3.072   9.607  0.5474 -1.9454  0.0942
  126MPD1    N1 1932   2.645   3.059  10.092 -0.3082  0.2445 -0.3204
  126MPD1    H6 1933   2.737   3.088  10.061  0.1076 -1.5499 -0.7738
  126MPD1    H7 1934   2.614   3.106  10.176 -2.9043 -1.1125 -0.5130
  127MPD2     C 1935   3.613   1.427   8.651  0.2022  0.2001 -0.4033
  127MPD2    C1 1936   3.590   1.507   8.761  0.3736 -0.5840  0.1282
  127MPD2    C2 1937   3.699   1.584   8.813 -0.8243  0.4244  0.2593
  127MPD2    C3 1938   3.825   1.581   8.754  0.3750  0.0360  0.1248
  127MPD2    C4 1939   3.846   1.494   8.644 -0.6029 -0.0225  0.1585
  127MPD2    C5 1940   3.737   1.417   8.593 -0.4645  0.2158 -1.0002
  127MPD2     H 1941   3.686   1.639   8.905  0.4170 -0.2650  0.8501
  127MPD2    H1 1942   3.944   1.480   8.600 -2.5323 -3.2113 -3.0970
  127MPD2    H2 1943   3.542   1.349   8.624  1.8811 -1.3356 -0.3474
  127MPD2    H3 1944   3.764   1.341   8.522  1.5313 -0.6726  0.7172
  127MPD2     N 1945   3.928   1.664   8.804 -0.0764 -0.6721  0.3198
  127MPD2    H5 1946   3.901   1.741   8.864 -0.5257  0.6006 -1.5017
  127MPD2    N1 1947   3.464   1.506   8.827 -0.5134 -0.5421  0.3807
  127MPD2    H7 1948   3.401   1.452   8.770 -0.9420 -1.4510  1.7302
  128TCq2    C1 1949   3.429   1.566   8.947  0.2188 -0.3893 -0.3837
  128TCq2    O2 1950   3.491   1.650   9.002 -0.2103 -0.0942  0.2337
  128TCq2    C2 1951   3.308   1.509   9.005  0.2889 -0.2211  0.5696
  128TCq2    C3 1952   3.262   1.563   9.118  0.4434  0.4368  0.6495
  128TCq2    C4 1953   3.151   1.504   9.177 -0.0151  0.2519 -1.2820
  128TCq2    C5 1954   3.108   1.380   9.129  0.0614  0.6183 -0.5949
  128TCq2    C6 1955   3.172   1.317   9.027  0.2183  0.2044  0.2003
  128TCq2    C7 1956   3.265   1.384   8.965  0.0761  0.9021  0.2206
  128TCq2    C8 1957   3.125   1.189   8.978 -0.3530  0.6821 -0.2059
  128TCq2    O4 1958   3.144   1.173   8.859 -0.0322 -0.1471  0.7093
  128TCq2    C9 1959   3.104   1.564   9.301 -0.2218  0.3195  0.0925
  128TCq2    O5 1960   2.992   1.524   9.342  0.5549 -0.0751  0.7124
  128TCq2    O6 1961   3.192   1.632   9.357  0.5465  0.2535 -0.0149
  128TCq2    H2 1962   3.310   1.654   9.153 -0.6904  0.7307  1.4114
  128TCq2    H3 1963   3.019   1.349   9.184 -0.0825 -0.1653 -1.2760
  128TCq2    H4 1964   3.305   1.343   8.873 -0.3550 -1.7218  1.1863
  129MPD2     C 1965   1.335   2.548   1.135  0.2364  0.6554 -0.0650
  129MPD2    C1 1966   1.429   2.444   1.141  0.7114  0.1845 -0.2108
  129MPD2    C2 1967   1.548   2.452   1.070  0.7219  0.9584 -0.3122
  129MPD2    C3 1968   1.580   2.570   1.006 -0.3550 -0.1364  0.2145
  129MPD2    C4 1969   1.489   2.673   1.000  0.1879  0.4291 -0.2597
  129MPD2    C5 1970   1.376   2.665   1.069 -0.0180  0.4394  0.0638
  129MPD2     H 1971   1.621   2.372   1.069 -1.0373 -0.6357 -1.5325
  129MPD2    H1 1972   1.527   2.763   0.952 -0.0824  2.1119  2.6664
  129MPD2    H2 1973   1.236   2.547   1.178 -0.3956 -2.5408 -1.6388
  129MPD2    H3 1974   1.307   2.748   1.070 -1.0799 -0.4368  0.1064
  129MPD2     N 1975   1.711   2.573   0.940 -0.4859  0.2766  0.8171
  129MPD2    H5 1976   1.761   2.485   0.939 -0.1931  0.4734 -1.0363
  129MPD2    N1 1977   1.404   2.316   1.201 -0.0161  0.0562 -0.1633
  129MPD2    H7 1978   1.476   2.247   1.188  1.0166  1.7390 -3.2879
  130TCq2    C1 1979   1.283   2.277   1.255 -0.1607  0.2001 -0.4521
  130TCq2    O2 1980   1.187   2.352   1.284 -0.1595 -0.0035  0.2765
  130TCq2    C2 1981   1.284   2.146   1.318 -0.1402  0.3132  0.6393
  130TCq2    C3 1982   1.392   2.060   1.314 -0.4086 -0.0524  0.9517
  130TCq2    C4 1983   1.369   1.931   1.348  0.4053  1.0723  0.0364
  130TCq2    C5 1984   1.240   1.887   1.378  0.1281  1.0817  0.1240
  130TCq2    C6 1985   1.139   1.972   1.387  0.1754  0.1166 -0.5048
  130TCq2    C7 1986   1.166   2.100   1.359  0.4090 -0.0066  0.1154
  130TCq2    C8 1987   1.002   1.940   1.403 -0.0378  0.1271  0.2632
  130TCq2    O4 1988   0.920   2.002   1.334  0.4035  0.1185 -0.3615
  130TCq2    C9 1989   1.471   1.833   1.335 -0.3666  0.6040  0.1549
  130TCq2    O5 1990   1.437   1.712   1.334  0.2581 -0.3260  0.2788
  130TCq2    O6 1991   1.587   1.881   1.326 -0.0436 -0.0974 -0.0289
  130TCq2    H2 1992   1.496   2.091   1.317 -0.1702 -0.6798 -1.1397
  130TCq2    H3 1993   1.217   1.782   1.394  2.2688  0.7143  0.8450
  130TCq2    H4 1994   1.083   2.169   1.363 -0.5751 -1.1723 -0.2167
  131MPD2     C 1995   0.941   2.364   9.782  0.0837  0.0193 -0.2777
  131MPD2    C1 1996   0.940   2.240   9.847  0.7544 -0.2882  0.1907
  131MPD2    C2 1997   0.845   2.144   9.808  0.6535 -0.1623  0.7162
  131MPD2    C3 1998   0.749   2.177   9.711 -0.1228  0.0575 -0.1301
  131MPD2    C4 1999   0.745   2.304   9.659  0.5210 -0.3869 -0.4718
  131MPD2    C5 2000   0.838   2.391   9.690  0.6137 -0.4315  1.3690
  131MPD2     H 2001   0.842   2.049   9.861 -2.0491 -0.7901 -0.5851
  131MPD2    H1 2002   0.666   2.327   9.588 -0.2137  1.6393  1.0105
  131MPD2    H2 2003   1.018   2.438   9.798 -1.2887  1.3128  0.3686
  131MPD2    H3 2004   0.826   2.494   9.658 -0.4205 -0.6140  1.1802
  131MPD2     N 2005   0.648   2.070   9.680  0.5471 -0.1243 -0.5207
  131MPD2    H5 2006   0.669   1.982   9.726 -3.8060 -0.0999  1.5347
  131MPD2    N1 2007   1.040   2.223   9.942 -0.0847  0.4180  0.3201
  131MPD2    H7 2008   1.109   2.298   9.939  0.5467 -0.2081 -0.7714
  132TCq2    C1 2009   1.409   2.350  10.243 -0.1547  0.3776  0.0515
  132TCq2    O2 2010   1.324   2.438  10.256  0.3414 -0.2387 -0.0449
  132TCq2    C2 2011   1.362   2.221  10.190  0.6182 -0.1426 -0.4609
  132TCq2    C3 2012   1.449   2.116  10.192 -0.3213  0.2940 -0.7670
  132TCq2    C4 2013   1.396   1.994  10.137  0.6696  0.1417  0.2671
  132TCq2    C5 2014   1.268   1.993  10.089  0.1804  0.9047 -0.0664
  132TCq2    C6 2015   1.203   2.109  10.070 -0.1652  0.0988  0.6547
  132TCq2    C7 2016   1.237   2.221  10.138  0.2285  0.3655  0.8966
  132TCq2    C8 2017   1.080   2.099   9.994  0.1723  0.4680  0.2098
  132TCq2    O4 2018   1.022   1.992   9.966 -0.1873 -0.2147 -0.4423
  132TCq2    C9 2019   1.477   1.876  10.117  0.0852 -0.5810 -0.1459
  132TCq2    O5 2020   1.417   1.772  10.081 -0.2776 -1.0159 -0.0144
  132TCq2    O6 2021   1.602   1.878  10.139  0.0562 -0.2358  0.0995
  132TCq2    H2 2022   1.548   2.111  10.235 -0.4605  1.8279 -0.2561
  132TCq2    H3 2023   1.232   1.911  10.027 -0.3182 -0.1513  1.6113
  132TCq2    H4 2024   1.176   2.310  10.130  0.0658  0.1854  0.1620
  133MPD2     C 2025   3.628   3.376   8.543  0.1904  0.3714  0.2020
  133MPD2    C1 2026   3.605   3.444   8.660 -0.4418  0.7000  0.1003
  133MPD2    C2 2027   3.699   3.443   8.761 -0.4828 -0.4465  0.4405
  133MPD2    C3 2028   3.811   3.358   8.750 -0.0788 -0.4208  0.2383
  133MPD2    C4 2029   3.831   3.291   8.627  0.4514  0.3716 -0.7978
  133MPD2    C5 2030   3.745   3.302   8.521 -0.1515  0.1305 -0.2318
  133MPD2     H 2031   3.671   3.485   8.857  2.5331  2.3570  0.0393
  133MPD2    H1 2032   3.918   3.228   8.615 -1.9768 -3.1460 -0.2443
  133MPD2    H2 2033   3.553   3.382   8.465 -0.8154 -0.9834  1.0741
  133MPD2    H3 2034   3.741   3.242   8.431 -1.5646  1.1023 -0.8202
  133MPD2     N 2035   3.908   3.339   8.852 -0.2715 -0.0013 -0.6607
  133MPD2    H5 2036   3.983   3.275   8.827  0.6558 -0.1730  2.6476
  133MPD2    N1 2037   3.480   3.517   8.671  0.3200 -0.5445 -0.1545
  133MPD2    H7 2038   3.412   3.510   8.596  1.2492 -2.0491 -0.8561
  134TCq2    C1 2039   3.431   3.598   8.771 -0.3200  0.4273  0.5491
  134TCq2    O2 2040   3.484   3.634   8.876 -0.4275 -0.0466  0.2076
  134TCq2    C2 2041   3.307   3.666   8.724 -0.7406  0.5700 -0.4520
  134TCq2    C3 2042   3.287   3.685   8.594  0.4288 -0.6941  0.1792
  134TCq2    C4 2043   3.177   3.754   8.552 -0.8691 -0.0463  0.3715
  134TCq2    C5 2044   3.092   3.811   8.642 -0.1789  0.0732 -0.1025
  134TCq2    C6 2045   3.124   3.802   8.773  0.0360  0.1659 -0.1258
  134TCq2    C7 2046   3.229   3.727   8.818  0.1302  0.8626  0.9514
  134TCq2    C8 2047   3.030   3.824   8.880  0.4014 -0.5299  0.6973
  134TCq2    O4 2048   3.071   3.847   8.996  0.9137 -0.6754  0.0657
  134TCq2    C9 2049   3.162   3.781   8.413  0.4713 -0.6732  0.0924
  134TCq2    O5 2050   3.063   3.852   8.379 -0.8431  0.3029 -0.0964
  134TCq2    O6 2051   3.241   3.732   8.327  0.5812 -0.0588  0.0530
  134TCq2    H2 2052   3.351   3.637   8.521  1.4836  0.4758  0.3441
  134TCq2    H3 2053   3.014   3.877   8.606 -2.1694 -2.6374 -0.7784
  134TCq2    H4 2054   3.253   3.712   8.923 -0.7147 -4.9703  0.3104
  135MPD2     C 2055   2.863   3.558   9.331 -0.7150 -0.2134 -1.0361
  135MPD2    C1 2056   2.842   3.477   9.222  0.8374  1.0595 -0.5162
  135MPD2    C2 2057   2.946   3.430   9.142  0.5832 -0.2106  0.0917
  135MPD2    C3 2058   3.073   3.467   9.173 -0.2924 -0.1847  0.3591
  135MPD2    C4 2059   3.092   3.538   9.293  0.0533  0.1195  0.1991
  135MPD2    C5 2060   2.993   3.579   9.372  0.3595 -0.4645  0.7238
  135MPD2     H 2061   2.919   3.378   9.051 -2.2378 -0.6542  1.2000
  135MPD2    H1 2062   3.190   3.573   9.322 -0.8758  1.0328  2.2028
  135MPD2    H2 2063   2.783   3.597   9.391  1.0131 -0.1989  1.2591
  135MPD2    H3 2064   3.020   3.623   9.468 -0.6834  0.1315  0.7307
  135MPD2     N 2065   3.182   3.444   9.080  0.5438 -0.2808  0.2574
  135MPD2    H5 2066   3.276   3.470   9.107  0.5504  1.0926 -1.0602
  135MPD2    N1 2067   2.705   3.442   9.183 -0.0865 -0.7353  0.2452
  135MPD2    H7 2068   2.705   3.381   9.102 -1.3769  1.6439 -1.5278
  136TCq2    C1 2069   2.598   3.460   9.265  0.0931  0.7491  0.1774
  136TCq2    O2 2070   2.596   3.485   9.382  0.1514  0.1898  0.2002
  136TCq2    C2 2071   2.471   3.439   9.205 -0.5183  0.6054  0.8418
  136TCq2    C3 2072   2.453   3.432   9.066 -0.2892  0.0946 -0.3459
  136TCq2    C4 2073   2.335   3.375   9.019  0.0380  0.0424 -1.0604
  136TCq2    C5 2074   2.237   3.346   9.104  0.2624 -0.2693  0.7431
  136TCq2    C6 2075   2.252   3.358   9.237 -0.5045  0.1196  0.5632
  136TCq2    C7 2076   2.371   3.399   9.290  0.6621  0.5142  0.7269
  136TCq2    C8 2077   2.133   3.339   9.322 -0.2413  0.0809  0.3225
  136TCq2    O4 2078   2.033   3.284   9.275  0.2164 -0.0119  0.4167
  136TCq2    C9 2079   2.320   3.365   8.877 -0.4189 -0.9199 -0.5389
  136TCq2    O5 2080   2.205   3.333   8.829 -0.0617 -0.2857 -0.1415
  136TCq2    O6 2081   2.417   3.392   8.798 -0.7614  0.1058 -0.2581
  136TCq2    H2 2082   2.533   3.462   8.999 -0.5492  0.1598 -0.6295
  136TCq2    H3 2083   2.143   3.307   9.067  0.8181  0.9707 -1.9312
  136TCq2    H4 2084   2.389   3.388   9.396 -2.3674 -0.1533  1.1726
  137MPD2     C 2085   2.890   2.713   9.910 -0.0623 -0.7898  0.2802
  137MPD2    C1 2086   2.871   2.793   9.800  0.9444  0.0101  0.0067
  137MPD2    C2 2087   2.928   2.918   9.801 -0.2640  0.0648  0.2466
  137MPD2    C3 2088   2.991   2.974   9.906  0.0206  0.0737  0.0550
  137MPD2    C4 2089   3.012   2.889  10.010  0.0659  0.5208 -0.3170
  137MPD2    C5 2090   2.964   2.764  10.013 -0.8365  0.0795 -0.0534
  137MPD2     H 2091   2.918   2.993   9.723  0.9364  2.2179  2.1484
  137MPD2    H1 2092   3.058   2.930  10.099 -1.8681 -0.3310  1.0783
  137MPD2    H2 2093   2.847   2.614   9.924 -0.5754 -0.0169  3.9760
  137MPD2    H3 2094   2.974   2.698  10.098  0.1748  1.8530  1.1897
  137MPD2     N 2095   3.029   3.111   9.904 -0.0648  0.2229  0.1019
  137MPD2    H5 2096   3.002   3.167   9.823  0.2163  0.6466  0.2982
  137MPD2    N1 2097   2.794   2.746   9.695 -0.1471 -0.9530 -0.0246
  137MPD2    H7 2098   2.756   2.652   9.698 -4.2910  0.7108 -0.1312
  138TCq2    C1 2099   2.788   2.807   9.571 -0.1465 -0.2770 -0.3972
  138TCq2    O2 2100   2.811   2.920   9.533 -0.2278  0.0652 -0.4830
  138TCq2    C2 2101   2.730   2.724   9.467 -0.6690  0.1382  0.3524
  138TCq2    C3 2102   2.761   2.753   9.339  0.3365 -0.5521  0.3112
  138TCq2    C4 2103   2.711   2.673   9.241 -0.0507 -0.5064 -0.2678
  138TCq2    C5 2104   2.615   2.577   9.269  0.0990 -0.3962  0.1570
  138TCq2    C6 2105   2.568   2.561   9.397 -0.8341 -0.8001  0.0033
  138TCq2    C7 2106   2.633   2.631   9.496 -0.3209 -0.0358  0.1006
  138TCq2    C8 2107   2.499   2.435   9.428  0.1046  0.0386  0.9886
  138TCq2    O4 2108   2.438   2.380   9.334  0.0052 -0.0970 -0.4299
  138TCq2    C9 2109   2.731   2.697   9.099 -0.5430 -0.1644  0.1106
  138TCq2    O5 2110   2.731   2.817   9.057  0.1484  0.1059  0.0547
  138TCq2    O6 2111   2.725   2.606   9.020 -0.0614  0.1410  0.6596
  138TCq2    H2 2112   2.837   2.825   9.309  0.8798 -1.5789 -0.8113
  138TCq2    H3 2113   2.560   2.532   9.187  1.7690 -2.1429 -0.0002
  138TCq2    H4 2114   2.611   2.616   9.601 -0.4784 -0.4554  0.0083
  139TMC2    C1 2115   2.529   1.505  12.958  0.4918  0.0699 -0.2397
  139TMC2    C2 2116   2.417   1.565  12.893  0.0861 -0.0055  0.0632
  139TMC2    C3 2117   2.395   1.689  12.945 -0.0888 -0.4005 -0.4941
  139TMC2    C4 2118   2.584   1.556  13.075 -0.6208  0.1088 -0.1078
  139TMC2    C5 2119   2.537   1.675  13.122  0.0161  0.1342  0.0745
  139TMC2    C6 2120   2.441   1.745  13.059  0.4153 -0.4736  0.3483
  139TMC2     C 2121   2.562   1.370  12.916 -0.2316  0.5645 -0.0261
  139TMC2     O 2122   2.486   1.299  12.849  0.3352  0.2192  0.6146
  139TMC2     H 2123   2.362   1.523  12.809  0.5106  1.4418 -0.9456
  139TMC2    H1 2124   2.652   1.501  13.138  1.2511  2.1010 -0.3944
  139TMC2    H2 2125   2.413   1.847  13.082  1.1995  0.3887 -2.5248
  139TMC2    C7 2126   2.578   1.714  13.255  0.6621  0.8100  0.6311
  139TMC2    C8 2127   2.287   1.770  12.891 -0.5108  0.1118 -0.4619
  139TMC2    O1 2128   2.694   1.685  13.290  0.4555 -0.1269  0.3588
  139TMC2    O2 2129   2.231   1.853  12.964  0.4511 -0.3721 -0.0856
  139TMC2    O5 2130   2.225   1.705  12.792 -0.2365  0.1725 -0.0369
  139TMC2    H5 2131   2.290   1.685  12.722 -0.6674 -0.2670 -0.3140
  140MPD2     C 2132   2.837   1.170  13.052 -0.9776 -0.3333 -0.1013
  140MPD2    C1 2133   2.727   1.193  12.973 -0.3205  0.6702  0.3715
  140MPD2    C2 2134   2.670   1.092  12.902 -0.3502 -0.1000 -0.2706
  140MPD2    C3 2135   2.724   0.969  12.888  0.7043 -0.6394 -0.3010
  140MPD2    C4 2136   2.835   0.942  12.963 -0.2245  0.0337 -0.0164
  140MPD2    C5 2137   2.884   1.039  13.050 -0.1675 -0.5351 -0.0606
  140MPD2     H 2138   2.579   1.109  12.844 -1.4026 -1.7488  0.9030
  140MPD2    H1 2139   2.890   0.850  12.949 -0.3633 -0.2300  1.1383
  140MPD2    H2 2140   2.898   1.242  13.104 -1.2570  1.1702 -1.8788
  140MPD2    H3 2141   2.967   1.005  13.109 -0.2085 -2.4824 -1.1232
  140MPD2     N 2142   2.659   0.877  12.804  0.3426 -0.0138  0.2519
  140MPD2    H5 2143   2.578   0.909  12.751  0.4884  1.4032  0.8663
  140MPD2    N1 2144   2.678   1.321  12.977  0.2251  0.1457  0.0915
  140MPD2    H7 2145   2.745   1.387  13.017 -1.1774  1.4894  0.2103
  141TCq2    C1 2146   3.328   2.868  14.311  0.0396  0.1824  0.0557
  141TCq2    O2 2147   3.263   2.881  14.211 -0.0511  0.1505 -0.3707
  141TCq2    C2 2148   3.341   2.974  14.402 -0.2626  0.2687 -0.0952
  141TCq2    C3 2149   3.324   2.955  14.538  0.1430 -0.4544  0.2470
  141TCq2    C4 2150   3.362   3.056  14.621  0.1444  0.3422  0.2595
  141TCq2    C5 2151   3.403   3.179  14.586 -0.2775  0.0021  0.6440
  141TCq2    C6 2152   3.408   3.194  14.449 -0.0985  0.0503 -0.7705
  141TCq2    C7 2153   3.385   3.096  14.360  0.2145  0.5319  0.0683
  141TCq2    C8 2154   3.474   3.311  14.401  0.2148  0.9395  0.1311
  141TCq2    O4 2155   3.468   3.413  14.477 -0.0410 -0.6534 -0.0670
  141TCq2    C9 2156   3.337   3.029  14.761  0.0501  0.5927 -0.2942
  141TCq2    O5 2157   3.297   2.913  14.789  0.0757 -0.1554  0.4935
  141TCq2    O6 2158   3.311   3.133  14.828 -0.2309  0.3189  0.0876
  141TCq2    H2 2159   3.289   2.862  14.580 -0.0897 -1.1899 -1.5469
  141TCq2    H3 2160   3.425   3.265  14.647 -0.2399 -0.9534  1.9696
  141TCq2    H4 2161   3.392   3.123  14.255 -0.7114 -0.5898 -0.2810
  142MPD2     C 2162   0.725   0.908   9.983  0.1363 -0.0920 -0.6889
  142MPD2    C1 2163   0.696   0.915   9.847 -0.6405 -0.6211 -0.3118
  142MPD2    C2 2164   0.774   1.002   9.767 -0.2242 -0.0895  0.4275
  142MPD2    C3 2165   0.882   1.071   9.829  0.4463  0.0911 -0.1862
  142MPD2    C4 2166   0.898   1.068   9.963 -0.0926  0.1787  0.2186
  142MPD2    C5 2167   0.821   0.983  10.042  0.2848 -0.0487 -0.8190
  142MPD2     H 2168   0.763   1.004   9.659  1.6744  1.7207  0.2728
  142MPD2    H1 2169   0.972   1.133  10.008 -1.1425  0.6690  1.2368
  142MPD2    H2 2170   0.671   0.836  10.043 -0.2183 -0.1419 -1.0669
  142MPD2    H3 2171   0.836   0.970  10.149  2.9112  2.5583 -0.8878
  142MPD2     N 2172   0.967   1.159   9.753 -0.3246  0.1929  0.3211
  142MPD2    H5 2173   1.036   1.208   9.808  0.1586  1.4047 -1.3442
  142MPD2    N1 2174   0.585   0.834   9.796  0.4895  0.4855 -0.1575
  142MPD2    H7 2175   0.530   0.768   9.851 -2.0623 -0.5536 -3.9668
  143TCq2    C1 2176   0.966   1.174   9.618  0.0759 -0.6527 -0.1448
  143TCq2    O2 2177   0.885   1.121   9.542 -0.1540 -0.1606 -0.5940
  143TCq2    C2 2178   1.084   1.234   9.562  0.4474 -0.3945 -0.3924
  143TCq2    C3 2179   1.158   1.320   9.634 -0.0579  0.1959 -0.5011
  143TCq2    C4 2180   1.219   1.419   9.561  0.2892  0.0208  0.3720
  143TCq2    C5 2181   1.241   1.415   9.427 -0.0415  0.2212  0.0546
  143TCq2    C6 2182   1.173   1.323   9.362 -0.6274  0.6374  0.4794
  143TCq2    C7 2183   1.093   1.234   9.428 -0.1806 -0.3182 -0.0882
  143TCq2    C8 2184   1.152   1.336   9.221 -0.5103  0.2085  0.3308
  143TCq2    O4 2185   1.176   1.445   9.164  0.0455  0.5617 -0.5941
  143TCq2    C9 2186   1.273   1.529   9.642 -0.8135  0.1503 -0.6917
  143TCq2    O5 2187   1.248   1.517   9.764  0.3384 -0.1079 -0.6444
  143TCq2    O6 2188   1.354   1.606   9.585  0.1654  0.7740  0.1861
  143TCq2    H2 2189   1.132   1.334   9.738  2.4155 -0.5068  0.1980
  143TCq2    H3 2190   1.288   1.498   9.377  1.5661 -0.7345 -0.0222
  143TCq2    H4 2191   1.040   1.154   9.378  0.4233 -0.4284 -0.5598
  144MPD2     C 2192   3.363   4.346   0.021  0.6574 -0.4876 -0.4851
  144MPD2    C1 2193   3.401   4.469  17.670 -0.2904 -0.1823  0.3542
  144MPD2    C2 2194   3.424   4.571   0.063  0.0485  0.0626  0.1164
  144MPD2    C3 2195   3.395   4.565   0.197 -0.2289  0.3156  0.5034
  144MPD2    C4 2196   3.334   4.451   0.235 -0.1266 -0.5940  0.3720
  144MPD2    C5 2197   3.327   4.333   0.152  0.8380 -0.7635 -0.6740
  144MPD2     H 2198   3.472   4.661   0.027 -1.3390  0.7418  0.0002
  144MPD2    H1 2199   3.295   4.434   0.335 -0.8398  0.9524  0.3482
  144MPD2    H2 2200   3.345   4.258  17.656  0.8411 -0.1727 -1.0029
  144MPD2    H3 2201   3.277   4.240   0.174 -1.0300  0.7406  1.3610
  144MPD2     N 2202   3.414   4.666   0.296  0.0670  0.6330 -0.0108
  144MPD2    H5 2203   3.389   4.650   0.393  0.9332  2.5678  0.5316
  144MPD2    N1 2204   3.422   4.488  17.528 -0.6541  0.1745  0.0652
  144MPD2    H7 2205   3.479   4.568  17.503  0.0230 -0.4435 -0.3653
  145TCq2    C1 2206   3.454   0.069   0.269  0.4122 -0.1872 -0.1325
  145TCq2    O2 2207   3.470   0.115   0.155 -0.5344  0.2868 -0.3701
  145TCq2    C2 2208   3.433   0.158   0.381 -0.0552 -0.1060 -0.2115
  145TCq2    C3 2209   3.381   0.287   0.352  0.6943 -0.3237 -1.0122
  145TCq2    C4 2210   3.372   0.380   0.455  0.7008  0.4621 -0.1208
  145TCq2    C5 2211   3.402   0.345   0.580  0.1329  0.2587 -0.0113
  145TCq2    C6 2212   3.436   0.214   0.616  0.3692  0.5489 -0.3730
  145TCq2    C7 2213   3.465   0.120   0.509  0.0792  0.8184  0.2982
  145TCq2    C8 2214   3.474   0.165   0.751  0.2917 -0.0864 -0.1810
  145TCq2    O4 2215   3.508   0.047   0.760 -0.2635 -0.1054  0.4068
  145TCq2    C9 2216   3.331   0.510   0.426  0.1670 -0.1316  0.6190
  145TCq2    O5 2217   3.398   0.608   0.464  0.2045  0.0773 -0.0114
  145TCq2    O6 2218   3.247   0.523   0.335  0.0937  0.4313  0.0974
  145TCq2    H2 2219   3.351   0.314   0.251 -0.1950 -0.3874 -0.7702
  145TCq2    H3 2220   3.408   0.430   0.647  0.8143  0.0690  0.1651
  145TCq2    H4 2221   3.484   0.017   0.540 -0.7785 -0.1298 -2.3284
  146TMC2    C1 2222   0.508   3.720  11.791 -0.4064  0.6606  0.0084
  146TMC2    C2 2223   0.462   3.748  11.665  0.1304 -0.7147  0.5206
  146TMC2    C3 2224   0.527   3.687  11.565 -0.3942 -0.2685  0.8127
  146TMC2    C4 2225   0.630   3.657  11.824 -0.0416 -1.1081 -0.0650
  146TMC2    C5 2226   0.702   3.615  11.718  0.1199  0.2517  0.1740
  146TMC2    C6 2227   0.653   3.631  11.592 -0.3082  0.6993  0.2320
  146TMC2     C 2228   0.440   3.787  11.898  0.5637  0.0362  0.7547
  146TMC2     O 2229   0.348   3.857  11.855 -0.1282  0.0875  0.2837
  146TMC2     H 2230   0.378   3.812  11.643 -0.8067 -2.1902 -0.1575
  146TMC2    H1 2231   0.650   3.617  11.922 -2.3243  0.0223  0.8568
  146TMC2    H2 2232   0.700   3.569  11.516 -1.3706  2.3218 -1.7302
  146TMC2    C7 2233   0.827   3.542  11.746  0.1977 -0.3202 -0.0276
  146TMC2    C8 2234   0.538   3.736  11.432 -0.3418 -0.2719  0.9361
  146TMC2    O1 2235   0.880   3.493  11.642  0.2443  0.0242 -0.2641
  146TMC2    O2 2236   0.641   3.782  11.385 -0.0100 -0.0085  0.0136
  146TMC2    O5 2237   0.412   3.771  11.397 -0.1778  0.0451 -0.1187
  146TMC2    H5 2238   0.352   3.713  11.450  2.2302 -1.4706  0.9732
  147MPD2     C 2239   1.250   3.474  12.027 -0.0503 -0.2924  0.1099
  147MPD2    C1 2240   1.151   3.521  12.110  0.1497 -0.0573 -0.4656
  147MPD2    C2 2241   1.018   3.539  12.060  0.1503  0.0291  0.0978
  147MPD2    C3 2242   0.994   3.523  11.927  0.9721 -0.8935 -0.0391
  147MPD2    C4 2243   1.094   3.469  11.846  0.1337  0.0785  0.1798
  147MPD2    C5 2244   1.223   3.450  11.898  0.7047 -0.0205 -0.1221
  147MPD2     H 2245   0.939   3.584  12.118 -0.5746 -0.9772 -0.0966
  147MPD2    H1 2246   1.071   3.446  11.743  0.6122  1.8696 -0.3390
  147MPD2    H2 2247   1.348   3.456  12.071  0.4641  0.6529 -0.6704
  147MPD2    H3 2248   1.297   3.413  11.828  0.4381  0.3242 -0.5885
  147MPD2     N 2249   0.868   3.558  11.878 -0.4834 -0.2410  0.2230
  147MPD2    H5 2250   0.802   3.599  11.944 -0.1309 -0.9232  0.9969
  147MPD2    N1 2251   1.183   3.533  12.247  0.1059 -0.0982  0.9730
  147MPD2    H7 2252   1.280   3.515  12.271 -0.3675 -1.1216  2.1128
  148MPD2     C 2253   0.862   2.906  10.487 -0.0254 -0.6440 -0.0289
  148MPD2    C1 2254   0.907   2.778  10.492  0.1672  0.4102 -0.3319
  148MPD2    C2 2255   0.820   2.682  10.442 -0.1672  0.1104 -0.1515
  148MPD2    C3 2256   0.700   2.716  10.383 -0.2397  0.2242 -0.4393
  148MPD2    C4 2257   0.663   2.844  10.371 -0.3852  0.6443 -0.1990
  148MPD2    C5 2258   0.748   2.933  10.427  0.4506 -0.2755 -0.0882
  148MPD2     H 2259   0.853   2.579  10.443  0.7660  0.3860 -1.1937
  148MPD2    H1 2260   0.570   2.872  10.322 -0.2734 -0.5679 -1.1269
  148MPD2    H2 2261   0.924   2.990  10.516  0.0148 -0.5643 -0.3493
  148MPD2    H3 2262   0.725   3.039  10.424 -0.5111 -0.4642  0.8142
  148MPD2     N 2263   0.595   2.627  10.346  0.4911 -0.3406  0.1303
  148MPD2    H5 2264   0.519   2.667  10.292 -0.8469 -0.1798  2.0996
  148MPD2    N1 2265   1.025   2.730  10.554 -0.3047  0.7947  0.5818
  148MPD2    H7 2266   1.070   2.647  10.517 -1.1805  2.2857 -3.8136
  149TCq2    C1 2267   1.102   2.802  10.637 -0.0153 -0.1151  0.4828
  149TCq2    O2 2268   1.091   2.919  10.679  0.2220  0.2111  0.3655
  149TCq2    C2 2269   1.224   2.736  10.664 -0.7154 -0.2340  0.0841
  149TCq2    C3 2270   1.341   2.807  10.660 -0.0797  0.4385  0.6483
  149TCq2    C4 2271   1.456   2.731  10.678  0.0639 -0.2615  0.0149
  149TCq2    C5 2272   1.447   2.593  10.680  0.1472  0.0772  0.1357
  149TCq2    C6 2273   1.331   2.528  10.695  0.1167 -0.5759  0.1019
  149TCq2    C7 2274   1.213   2.603  10.694 -1.0243  0.5154 -0.1370
  149TCq2    C8 2275   1.311   2.385  10.675 -0.4478  0.2446  0.3335
  149TCq2    O4 2276   1.207   2.342  10.721  0.0037 -0.5562  0.7132
  149TCq2    C9 2277   1.586   2.780  10.640 -0.5509  0.6386  0.0038
  149TCq2    O5 2278   1.591   2.888  10.575  0.0194  0.5638 -0.6205
  149TCq2    O6 2279   1.686   2.724  10.689  0.4851 -0.2891  0.7750
  149TCq2    H2 2280   1.354   2.914  10.651 -1.3174  0.7076  2.0751
  149TCq2    H3 2281   1.536   2.534  10.663  0.1942  0.2033 -0.0558
  149TCq2    H4 2282   1.116   2.561  10.719  0.3378 -1.0286  2.6012
  150MPD2     C 2283   2.165   2.317  11.895 -0.1237  0.6414 -0.4287
  150MPD2    C1 2284   2.235   2.258  11.792  0.0820 -0.4762 -0.2438
  150MPD2    C2 2285   2.352   2.323  11.759 -0.3274  0.3016  0.1402
  150MPD2    C3 2286   2.396   2.441  11.816  0.8502  0.7324  0.1716
  150MPD2    C4 2287   2.328   2.488  11.926 -0.3917  0.3856  0.3969
  150MPD2    C5 2288   2.212   2.426  11.957 -0.3971 -0.2619 -0.4433
  150MPD2     H 2289   2.393   2.285  11.667 -0.0281  1.7209 -0.3113
  150MPD2    H1 2290   2.343   2.587  11.968 -0.6437  1.2106 -1.4596
  150MPD2    H2 2291   2.075   2.273  11.935 -0.2303  1.0758 -0.1942
  150MPD2    H3 2292   2.145   2.476  12.026  0.7702  0.2435  0.3254
  150MPD2     N 2293   2.518   2.495  11.776 -0.1734  0.2915 -0.5616
  150MPD2    H5 2294   2.558   2.461  11.689  2.0090  0.5056  0.3617
  150MPD2    N1 2295   2.195   2.130  11.744 -0.3563 -0.2575  0.3232
  150MPD2    H7 2296   2.101   2.097  11.767 -0.4497 -1.0426 -1.2374
  151TCq2    C1 2297   2.584   2.592  11.847  0.1409  0.4873  0.4952
  151TCq2    O2 2298   2.577   2.616  11.969  0.5178 -0.0739 -0.3243
  151TCq2    C2 2299   2.702   2.637  11.792  0.3414 -0.5517 -0.1389
  151TCq2    C3 2300   2.739   2.614  11.662 -0.2415  0.1570 -0.2423
  151TCq2    C4 2301   2.878   2.620  11.635 -0.0175 -0.4480 -0.5515
  151TCq2    C5 2302   2.977   2.658  11.726  1.0107  0.6153  1.0494
  151TCq2    C6 2303   2.925   2.691  11.848 -0.0862 -0.2232  0.0265
  151TCq2    C7 2304   2.795   2.678  11.885  0.3366 -0.2265  0.6240
  151TCq2    C8 2305   3.014   2.693  11.957 -0.4032 -0.1301  0.2814
  151TCq2    O4 2306   2.977   2.765  12.047  0.2728  0.7200 -0.1376
  151TCq2    C9 2307   2.922   2.601  11.498 -0.1185 -0.4640  0.3390
  151TCq2    O5 2308   3.041   2.635  11.480 -0.0344 -0.3381 -0.0374
  151TCq2    O6 2309   2.841   2.572  11.411 -0.5412 -0.0074 -0.2818
  151TCq2    H2 2310   2.669   2.593  11.582  1.4162  4.6684 -2.8832
  151TCq2    H3 2311   3.083   2.658  11.705  0.5230 -2.1511 -1.5624
  151TCq2    H4 2312   2.777   2.702  11.989  0.2964 -0.2480  0.6219
  152MPD2     C 2313   1.758   1.777  12.338 -0.2765  0.7930  0.5663
  152MPD2    C1 2314   1.810   1.894  12.388  0.3530 -0.0556  0.2974
  152MPD2    C2 2315   1.738   2.013  12.387 -0.3221  0.3521 -0.6648
  152MPD2    C3 2316   1.612   2.013  12.324  0.2471 -0.2684  0.4833
  152MPD2    C4 2317   1.556   1.901  12.277  0.2522 -0.7105  0.5782
  152MPD2    C5 2318   1.631   1.781  12.284  0.0088 -1.1115  0.0417
  152MPD2     H 2319   1.784   2.106  12.418 -0.0642  0.4321 -1.2829
  152MPD2    H1 2320   1.451   1.896  12.249  0.7870  0.7155 -1.6535
  152MPD2    H2 2321   1.810   1.682  12.346  0.3260  1.0415 -0.4180
  152MPD2    H3 2322   1.586   1.689  12.247  1.7997 -2.0138  0.0597
  152MPD2     N 2323   1.563   2.143  12.305  0.2230  0.2947  0.2230
  152MPD2    H5 2324   1.617   2.213  12.355  1.2594 -0.1160 -0.3143
  152MPD2    N1 2325   1.950   1.892  12.432  0.6198 -0.4615 -0.4184
  152MPD2    H7 2326   2.004   1.806  12.424 -1.6884 -1.9948  0.4984
  153TCq2    C1 2327   2.022   2.000  12.479  0.6859  0.1747  0.6710
  153TCq2    O2 2328   1.981   2.112  12.505 -0.3054  0.1066 -0.3710
  153TCq2    C2 2329   2.163   1.980  12.495 -0.4350  0.5039  0.0463
  153TCq2    C3 2330   2.229   1.857  12.513 -0.9401  0.3114  0.3748
  153TCq2    C4 2331   2.366   1.853  12.499 -0.1508  0.1365 -0.3447
  153TCq2    C5 2332   2.444   1.959  12.464  0.2144  0.6601 -0.4010
  153TCq2    C6 2333   2.376   2.075  12.440 -0.4535 -0.3644  0.2847
  153TCq2    C7 2334   2.239   2.085  12.443 -0.3747  0.5656  1.2056
  153TCq2    C8 2335   2.451   2.190  12.396  0.0617 -0.0246  0.0298
  153TCq2    O4 2336   2.394   2.282  12.337 -0.5180 -0.0613  0.1030
  153TCq2    C9 2337   2.437   1.728  12.529  0.1771 -0.1185 -0.2305
  153TCq2    O5 2338   2.558   1.716  12.497 -0.0464 -0.4293 -0.4086
  153TCq2    O6 2339   2.377   1.645  12.596  0.3254 -0.4910 -0.2289
  153TCq2    H2 2340   2.186   1.768  12.557 -0.2800 -0.7516 -1.1455
  153TCq2    H3 2341   2.549   1.938  12.444 -0.2080 -1.1172 -0.7340
  153TCq2    H4 2342   2.193   2.174  12.403 -1.8435 -0.8266 -0.2095
  154MPD2     C 2343   3.985   1.552  17.441  0.2810  0.7743 -0.0248
  154MPD2    C1 2344   4.059   1.628  17.525  0.6275 -0.5881 -0.1275
  154MPD2    C2 2345   3.993   1.693  17.632 -0.1403  0.5333  0.0143
  154MPD2    C3 2346   3.857   1.680  17.651  0.0605  0.1621 -0.1145
  154MPD2    C4 2347   3.787   1.598  17.567 -0.0210  0.6507 -0.3980
  154MPD2    C5 2348   3.851   1.534  17.464  0.4683 -0.8052 -0.2589
  154MPD2     H 2349   4.040   1.750   0.016  0.7528 -3.9352  2.6563
  154MPD2    H1 2350   3.680   1.588  17.572 -0.0185 -0.1239 -1.7032
  154MPD2    H2 2351   4.022   1.518  17.345 -1.7501 -1.4203 -0.0322
  154MPD2    H3 2352   3.783   1.482  17.397 -0.6936 -2.3412  2.0854
  154MPD2     N 2353   3.796   1.751   0.062 -0.9847  0.5008  0.5466
  154MPD2    H5 2354   3.862   1.809   0.112 -1.8729 -0.5135  2.8863
  154MPD2    N1 2355   4.197   1.655  17.494  0.1562  0.1350 -0.2701
  154MPD2    H7 2356   4.232   1.635  17.401  1.0974 -0.6513  0.2609
  155TCq2    C1 2357   4.279   1.711  17.587 -0.0680  0.9043 -0.0920
  155TCq2    O2 2358   4.259   1.735   0.008 -0.1558 -0.2435  0.2405
  155TCq2    C2 2359   4.397   1.770  17.528  0.0419  0.1616  0.5018
  155TCq2    C3 2360   4.443   1.886  17.579 -0.0974 -0.6528 -0.5184
  155TCq2    C4 2361   4.548   1.954  17.529  0.5129 -0.6869 -0.1260
  155TCq2    C5 2362   4.607   1.905  17.425 -0.2776 -1.0617 -0.4837
  155TCq2    C6 2363   4.564   1.784  17.375  0.2938 -0.3255 -1.1051
  155TCq2    C7 2364   4.456   1.717  17.418  0.4072  0.2424  0.3949
  155TCq2    C8 2365   4.639   1.728  17.264 -0.0413 -0.7016  0.5525
  155TCq2    O4 2366   4.619   1.611  17.237 -0.2917  0.1354 -0.2743
  155TCq2    C9 2367   4.604   2.062  17.595 -0.5906  0.1693  0.0838
  155TCq2    O5 2368   4.721   2.101  17.574 -0.2669  0.3726 -0.3218
  155TCq2    O6 2369   4.553   2.086   0.011  0.1290 -0.0147  0.4968
  155TCq2    H2 2370   4.392   1.938  17.659 -0.5351 -0.5051 -0.8934
  155TCq2    H3 2371   4.697   1.957  17.393 -2.2046 -0.3215 -4.6997
  155TCq2    H4 2372   4.419   1.622  17.379 -1.4908  1.3257 -0.4473
  156MPD2     C 2373   2.331   3.943  11.352 -0.5997 -0.0839  0.0993
  156MPD2    C1 2374   2.259   4.048  11.295  0.2157 -0.3914  0.1385
  156MPD2    C2 2375   2.233   4.149  11.378  0.7640  0.0201  0.5897
  156MPD2    C3 2376   2.247   4.143  11.517  0.7735 -0.8287 -0.2629
  156MPD2    C4 2377   2.314   4.034  11.567 -0.1210  0.1097  0.6694
  156MPD2    C5 2378   2.357   3.932  11.489  0.3653  0.3130  0.4613
  156MPD2     H 2379   2.189   4.242  11.345  1.9036  0.5981  0.7337
  156MPD2    H1 2380   2.321   4.023  11.674  0.8216  0.7345  0.6689
  156MPD2    H2 2381   2.362   3.861  11.289 -2.3297 -0.4285 -0.3031
  156MPD2    H3 2382   2.404   3.845  11.533  1.6136  1.1352  0.7478
  156MPD2     N 2383   2.183   4.247  11.592  0.3063 -0.0615  0.1338
  156MPD2    H5 2384   2.145   4.322  11.536 -0.3098 -0.5493 -0.0912
  156MPD2    N1 2385   2.232   4.050  11.161  0.3931  0.8399 -0.1669
  156MPD2    H7 2386   2.251   3.970  11.101  2.0352 -0.1234  1.6093
  157TCq2    C1 2387   2.180   4.161  11.094 -0.3448 -0.2817  0.2609
  157TCq2    O2 2388   2.181   4.279  11.127 -0.5269  0.4619  0.1156
  157TCq2    C2 2389   2.150   4.127  10.957 -0.1847 -0.3758  0.0092
  157TCq2    C3 2390   2.115   3.995  10.921  0.2995  0.2120  0.6518
  157TCq2    C4 2391   2.087   3.975  10.790  0.4947  0.2771  0.4999
  157TCq2    C5 2392   2.080   4.080  10.694  0.3055  0.0358  0.8741
  157TCq2    C6 2393   2.102   4.209  10.742 -0.3809  0.2588 -0.0913
  157TCq2    C7 2394   2.134   4.232  10.874 -0.1781  0.5060  0.4768
  157TCq2    C8 2395   2.128   4.320  10.653  0.0565  0.0414  0.1120
  157TCq2    O4 2396   2.156   4.431  10.704 -0.6527  0.3098 -0.1891
  157TCq2    C9 2397   2.071   3.844  10.741  0.2821 -0.9911  0.0107
  157TCq2    O5 2398   2.057   3.825  10.617 -0.4562 -0.1131  0.1715
  157TCq2    O6 2399   2.054   3.755  10.829 -0.2200 -0.1127  0.4481
  157TCq2    H2 2400   2.124   3.905  10.980  1.4317 -0.1693 -0.0976
  157TCq2    H3 2401   2.064   4.055  10.590 -3.3214 -1.7473  1.8260
  157TCq2    H4 2402   2.166   4.331  10.905  2.2368  0.1007 -0.7255
  158TMC2    C1 2403   2.776   2.980  13.330  0.4748  0.2609  0.2909
  158TMC2    C2 2404   2.805   3.022  13.203  0.4902  0.0578 -0.0156
  158TMC2    C3 2405   2.704   3.068  13.120 -0.5566 -0.4527 -0.3958
  158TMC2    C4 2406   2.646   2.980  13.376  0.7176 -0.4794 -0.1051
  158TMC2    C5 2407   2.551   3.034  13.291 -0.7028  0.1940  0.7028
  158TMC2    C6 2408   2.574   3.085  13.169  0.4516 -0.4848  0.3640
  158TMC2     C 2409   2.889   2.952  13.424 -0.6754 -0.0596 -1.0161
  158TMC2     O 2410   3.000   2.996  13.391 -0.1668  0.7077 -0.5009
  158TMC2     H 2411   2.905   3.012  13.162  0.7630  1.4297  0.2919
  158TMC2    H1 2412   2.613   2.963  13.478  1.8014 -2.3809 -0.0609
  158TMC2    H2 2413   2.479   3.104  13.119  0.2301 -2.0398  0.1989
  158TMC2    C7 2414   2.409   3.045  13.331 -0.3510  0.4408  0.0060
  158TMC2    C8 2415   2.719   3.092  12.984 -0.1781  0.2472  0.1677
  158TMC2    O1 2416   2.352   3.149  13.306  0.5361  0.4767  0.6781
  158TMC2    O2 2417   2.833   3.107  12.936  0.4070  0.0092  0.5905
  158TMC2    O5 2418   2.626   3.014  12.922 -0.4106 -0.1552  0.2576
  158TMC2    H5 2419   2.536   3.011  12.959 -1.0223  2.7454 -1.0515
  159MPD2     C 2420   3.086   2.734  13.850  0.3759 -0.7625 -0.9402
  159MPD2    C1 2421   2.950   2.728  13.849  0.9844 -0.0331  0.3579
  159MPD2    C2 2422   2.873   2.781  13.748  0.2788  0.1975 -0.4543
  159MPD2    C3 2423   2.933   2.853  13.645 -0.4557  0.2988 -0.6702
  159MPD2    C4 2424   3.071   2.867  13.649 -0.0379 -0.1669 -0.1716
  159MPD2    C5 2425   3.147   2.802  13.746  0.7126 -0.1308 -0.1316
  159MPD2     H 2426   2.766   2.765  13.752  0.5168 -1.1300  0.4488
  159MPD2    H1 2427   3.126   2.908  13.566  1.2946 -1.4284  0.0803
  159MPD2    H2 2428   3.148   2.701  13.932  0.6310  0.5111 -0.6181
  159MPD2    H3 2429   3.255   2.801  13.739  0.7506  1.1316  0.3226
  159MPD2     N 2430   2.850   2.892  13.541  0.2794  0.2742  0.3299
  159MPD2    H5 2431   2.755   2.855  13.542  0.3465  0.0835 -0.4594
  159MPD2    N1 2432   2.886   2.658  13.951  0.0024 -0.0765  0.4701
  159MPD2    H7 2433   2.947   2.611  14.017 -2.0928 -0.6531  2.0099
  160TMC2    C1 2434   2.494   0.752   1.266 -0.1189 -0.1111  0.3532
  160TMC2    C2 2435   2.552   0.782   1.387 -0.4476 -0.1929  0.3240
  160TMC2    C3 2436   2.635   0.892   1.389  0.8108 -0.6071 -0.5596
  160TMC2    C4 2437   2.524   0.810   1.147  0.4636 -0.8253  0.4581
  160TMC2    C5 2438   2.602   0.924   1.153 -0.6174 -0.0871 -0.0313
  160TMC2    C6 2439   2.654   0.968   1.276 -0.3606  0.8708 -0.1131
  160TMC2     C 2440   2.373   0.681   1.272  0.1330 -0.3123 -0.4603
  160TMC2     O 2441   2.346   0.610   1.366 -0.0874  0.7546  0.3425
  160TMC2     H 2442   2.523   0.727   1.476  0.2030  0.1289  0.7382
  160TMC2    H1 2443   2.496   0.767   1.051 -3.6779  1.5566  0.6049
  160TMC2    H2 2444   2.706   1.063   1.277 -0.1326  0.7461 -0.1664
  160TMC2    C7 2445   2.598   1.006   1.031  0.0918  0.1894 -0.5933
  160TMC2    C8 2446   2.714   0.912   1.515  0.6497  0.2726  0.0393
  160TMC2    O1 2447   2.499   0.982   0.963  0.4773  0.0063  0.1319
  160TMC2    O2 2448   2.677   0.855   1.615 -0.0045  0.1296  0.2515
  160TMC2    O5 2449   2.758   1.038   1.513 -0.2656  0.0999  0.0409
  160TMC2    H5 2450   2.817   1.036   1.435 -0.2117 -1.1311  0.1090
  161MPD2     C 2451   2.094   0.572   1.217  0.1308 -1.3578 -0.3883
  161MPD2    C1 2452   2.157   0.680   1.151  0.7265  0.3529  0.0807
  161MPD2    C2 2453   2.080   0.765   1.075 -0.4057  0.4490 -0.7139
  161MPD2    C3 2454   1.941   0.741   1.067 -0.0288 -0.4398  0.0735
  161MPD2    C4 2455   1.882   0.627   1.125  0.3176  0.0516  0.0042
  161MPD2    C5 2456   1.960   0.541   1.196  0.0062 -0.5050 -0.9143
  161MPD2     H 2457   2.125   0.857   1.038 -0.4366  0.3176 -1.0776
  161MPD2    H1 2458   1.775   0.618   1.117  0.1155  1.0370  1.5105
  161MPD2    H2 2459   2.148   0.510   1.288 -0.6996 -1.6697 -0.0274
  161MPD2    H3 2460   1.925   0.448   1.239 -0.6767  0.6631  1.0650
  161MPD2     N 2461   1.854   0.828   0.998  0.2518  0.4212  0.8663
  161MPD2    H5 2462   1.755   0.805   0.998 -0.1988  2.3124 -2.6585
  161MPD2    N1 2463   2.291   0.725   1.173  0.5705  0.3662 -0.2179
  161MPD2    H7 2464   2.328   0.806   1.124 -0.0843  0.4431 -0.5945
  162TMC2    C1 2465   0.511   2.936   0.987  0.3503  0.2261  0.0843
  162TMC2    C2 2466   0.508   3.067   1.033  0.0961  0.1328  0.0334
  162TMC2    C3 2467   0.429   3.091   1.147  0.1420  0.0325  0.5970
  162TMC2    C4 2468   0.454   2.833   1.059  0.4482 -1.1325 -0.0045
  162TMC2    C5 2469   0.386   2.864   1.176 -0.0748 -0.0083  0.1708
  162TMC2    C6 2470   0.382   2.995   1.223  0.1593  0.2122  0.9415
  162TMC2     C 2471   0.571   2.917   0.856  0.2842 -0.4569  0.1220
  162TMC2     O 2472   0.573   2.800   0.815 -0.1156 -0.3993  0.9317
  162TMC2     H 2473   0.540   3.157   0.983 -3.9283  0.4239 -2.0686
  162TMC2    H1 2474   0.454   2.731   1.024 -1.1709 -1.1927  0.2010
  162TMC2    H2 2475   0.328   3.009   1.316  3.0037  1.1218  2.4385
  162TMC2    C7 2476   0.340   2.752   1.252 -0.1190 -1.0376  0.0648
  162TMC2    C8 2477   0.406   3.222   1.190  0.2526 -0.5052  0.0616
  162TMC2    O1 2478   0.395   2.645   1.231 -0.1729  0.1557  0.4203
  162TMC2    O2 2479   0.400   3.318   1.120 -0.1922  0.5636 -0.0636
  162TMC2    O5 2480   0.435   3.223   1.324  0.0437  0.9444 -0.1547
  162TMC2    H5 2481   0.469   3.136   1.354  0.8693  1.1186 -0.5978
  163MPD2     C 2482   0.791   3.097   0.417 -0.1164 -0.3973 -0.4429
  163MPD2    C1 2483   0.751   2.973   0.455  0.5915 -0.6631 -0.1882
  163MPD2    C2 2484   0.701   2.943   0.583  0.1018  0.1408 -0.2761
  163MPD2    C3 2485   0.678   3.046   0.671 -0.2937  0.0665 -0.2677
  163MPD2    C4 2486   0.716   3.173   0.637  0.0514 -0.5260  0.4193
  163MPD2    C5 2487   0.764   3.197   0.510 -0.3758 -0.1143  0.2240
  163MPD2     H 2488   0.666   2.845   0.611 -2.3246  1.2555  0.6242
  163MPD2    H1 2489   0.695   3.251   0.708  0.2963 -0.3463  0.2947
  163MPD2    H2 2490   0.837   3.108   0.320 -0.9606  0.2408 -0.7735
  163MPD2    H3 2491   0.794   3.293   0.470 -0.4334  0.1217  0.7490
  163MPD2     N 2492   0.607   3.037   0.793  0.1493  0.0970  0.8043
  163MPD2    H5 2493   0.578   3.117   0.848 -2.1790  0.2283 -0.6154
  163MPD2    N1 2494   0.772   2.879   0.349 -0.2311  0.4851  0.0750
  163MPD2    H7 2495   0.820   2.921   0.270  0.9906 -0.4855  0.3086
  164TCq2    C1 2496   1.359   2.305  11.100 -0.2948 -0.0495  0.8527
  164TCq2    O2 2497   1.264   2.226  11.118 -0.3994  0.2235  0.2448
  164TCq2    C2 2498   1.320   2.445  11.073  0.1965 -0.2742  0.3317
  164TCq2    C3 2499   1.415   2.539  11.061  0.9819 -0.4225  0.1762
  164TCq2    C4 2500   1.377   2.665  11.021  0.2401  0.5902  0.1212
  164TCq2    C5 2501   1.247   2.705  11.011 -0.0712  0.4036  0.1034
  164TCq2    C6 2502   1.156   2.607  11.041  0.1880 -0.1200  0.0159
  164TCq2    C7 2503   1.188   2.473  11.065 -0.9186  0.6887  0.6891
  164TCq2    C8 2504   1.024   2.644  11.055 -0.6088  0.4045  0.8906
  164TCq2    O4 2505   0.987   2.738  10.992 -0.0988 -0.2734  0.0965
  164TCq2    C9 2506   1.481   2.766  10.992  0.7917 -0.3162  0.0444
  164TCq2    O5 2507   1.597   2.722  10.976 -0.2367 -0.7190  0.0642
  164TCq2    O6 2508   1.451   2.883  10.975  0.1198 -0.2181  0.3664
  164TCq2    H2 2509   1.519   2.515  11.074  0.3647 -2.1499  1.9087
  164TCq2    H3 2510   1.219   2.804  10.979 -0.0589  0.3736  0.0009
  164TCq2    H4 2511   1.118   2.391  11.062 -1.5414  1.1864  1.5824
  165MPD2     C 2512   3.229   3.416   1.470  0.3931 -0.1441 -0.4372
  165MPD2    C1 2513   3.099   3.389   1.492 -0.1213 -0.2996  0.0008
  165MPD2    C2 2514   3.023   3.462   1.586  0.0397  0.9979 -0.0871
  165MPD2    C3 2515   3.077   3.575   1.650  0.4398  0.3706 -0.8158
  165MPD2    C4 2516   3.207   3.601   1.626  1.1262  0.2753  0.0911
  165MPD2    C5 2517   3.278   3.526   1.534  0.5017  0.3924  0.1563
  165MPD2     H 2518   2.918   3.436   1.593  0.5175 -0.2232  2.6223
  165MPD2    H1 2519   3.256   3.686   1.672  0.5699  0.4399  0.3734
  165MPD2    H2 2520   3.296   3.353   1.411  1.3597  0.5563 -0.0899
  165MPD2    H3 2521   3.376   3.569   1.520  0.6327 -0.3598 -1.3139
  165MPD2     N 2522   3.013   3.660   1.740  0.3040 -0.0923 -0.6687
  165MPD2    H5 2523   3.063   3.734   1.788 -1.4496  1.2340 -0.8739
  165MPD2    N1 2524   3.067   3.264   1.429 -0.1577  0.6121 -0.1113
  165MPD2    H7 2525   3.129   3.216   1.365 -1.1246 -0.9963  0.1605
  166TCq2    C1 2526   2.887   3.632   1.787 -0.0790 -0.3229 -0.1908
  166TCq2    O2 2527   2.804   3.543   1.769  0.7544  0.0107  0.1821
  166TCq2    C2 2528   2.841   3.737   1.877 -0.5310 -0.0092 -0.6977
  166TCq2    C3 2529   2.747   3.705   1.973 -0.4531  0.7143 -0.2540
  166TCq2    C4 2530   2.694   3.799   2.053  0.1122  0.7075  0.6654
  166TCq2    C5 2531   2.732   3.932   2.035 -0.3266 -1.2429 -0.0778
  166TCq2    C6 2532   2.833   3.955   1.937  0.2095  0.2366  0.5236
  166TCq2    C7 2533   2.890   3.859   1.859 -0.2166 -0.3935 -0.2335
  166TCq2    C8 2534   2.910   4.088   1.941  0.0635  0.0926  0.0144
  166TCq2    O4 2535   2.992   4.114   1.856  0.4491  0.4711  0.2882
  166TCq2    C9 2536   2.598   3.759   2.151  0.2529  0.7679  0.5861
  166TCq2    O5 2537   2.601   3.637   2.174 -0.6087  0.1055  0.2547
  166TCq2    O6 2538   2.535   3.852   2.209  0.1512 -0.4912  0.2734
  166TCq2    H2 2539   2.707   3.605   1.981 -0.8974  0.9192  0.1447
  166TCq2    H3 2540   2.698   4.013   2.099 -1.0218 -0.5883 -1.2715
  166TCq2    H4 2541   2.964   3.893   1.787 -0.3893  0.6059  0.0581
  167TMC2    C1 2542   0.384   2.518  12.491  0.2016 -0.2067 -0.2789
  167TMC2    C2 2543   0.305   2.570  12.586  0.5019  0.6404  0.1243
  167TMC2    C3 2544   0.229   2.482  12.661 -0.0566  0.8159 -0.3206
  167TMC2    C4 2545   0.395   2.381  12.467  0.2190 -0.1936  0.4939
  167TMC2    C5 2546   0.332   2.299  12.553 -0.1738  0.7810  0.2777
  167TMC2    C6 2547   0.244   2.348  12.646  0.6048 -0.3429 -0.2886
  167TMC2     C 2548   0.479   2.618  12.438  0.3441 -0.2414  0.6965
  167TMC2     O 2549   0.463   2.737  12.468 -0.1494 -0.5252 -0.0911
  167TMC2     H 2550   0.304   2.677  12.603  0.0292  0.6337  0.1369
  167TMC2    H1 2551   0.466   2.348  12.392 -1.2146 -0.7010 -0.6254
  167TMC2    H2 2552   0.189   2.294  12.723 -1.0925  1.7456 -0.0359
  167TMC2    C7 2553   0.370   2.158  12.561 -0.2745  0.0346  0.7422
  167TMC2    C8 2554   0.145   2.538  12.764  0.0127 -0.1477  0.1765
  167TMC2    O1 2555   0.306   2.097  12.642  0.3422 -0.3202 -0.0029
  167TMC2    O2 2556   0.129   2.476  12.869  0.0591 -0.2435 -0.6343
  167TMC2    O5 2557   0.056   2.608  12.699 -0.7200 -0.4124  0.0319
  167TMC2    H5 2558   0.077   2.634  12.607 -0.7395  1.3178  0.5111
  168MPD2     C 2559   0.632   2.775  12.245 -0.1512 -0.3955  0.1150
  168MPD2    C1 2560   0.630   2.637  12.248 -0.5092  0.4000 -0.5950
  168MPD2    C2 2561   0.682   2.570  12.135 -0.2166 -0.1122 -0.5682
  168MPD2    C3 2562   0.726   2.637  12.023 -0.0490  0.4969  0.5542
  168MPD2    C4 2563   0.722   2.777  12.029  0.6298 -0.2104 -0.8683
  168MPD2    C5 2564   0.678   2.842  12.138  0.2117  0.1588 -1.1863
  168MPD2     H 2565   0.683   2.462  12.138 -1.1812 -0.1741 -2.1394
  168MPD2    H1 2566   0.748   2.830  11.938 -0.3757  0.2880 -0.8682
  168MPD2    H2 2567   0.593   2.842  12.321  3.3646 -0.6325  2.1333
  168MPD2    H3 2568   0.675   2.950  12.143 -0.1803  0.0891  0.1081
  168MPD2     N 2569   0.762   2.568  11.907  0.3580 -0.2185 -0.2288
  168MPD2    H5 2570   0.772   2.630  11.827 -1.9127 -0.7697 -0.9582
  168MPD2    N1 2571   0.567   2.564  12.347  0.1740 -0.2770  0.3309
  168MPD2    H7 2572   0.576   2.463  12.347  2.7017 -0.0672 -0.9403
  169MPD1     C 2573   3.228   2.576   9.159  0.4936 -0.0075  0.2569
  169MPD1    C1 2574   3.340   2.648   9.202  0.3891  0.1815  1.1884
  169MPD1    C2 2575   3.468   2.596   9.187 -0.2491 -0.4072  0.3744
  169MPD1    C3 2576   3.485   2.477   9.121 -0.5404  0.1490  0.3284
  169MPD1    C4 2577   3.377   2.406   9.067  0.1948 -0.6920  0.1382
  169MPD1    C5 2578   3.250   2.460   9.091  0.2853 -0.2731 -0.1862
  169MPD1     H 2579   3.552   2.648   9.231  1.0624 -2.1034 -0.0943
  169MPD1    H1 2580   3.388   2.314   9.010  0.1852 -0.8524  0.3906
  169MPD1    H2 2581   3.127   2.608   9.179  0.5676 -0.4718  1.3856
  169MPD1    H3 2582   3.168   2.403   9.049  0.3996 -1.0585  0.6764
  169MPD1     N 2583   3.618   2.429   9.098  0.2308 -0.3287  0.7047
  169MPD1    H5 2584   3.680   2.491   9.150  0.2244 -0.3281  0.7116
  169MPD1    N1 2585   3.330   2.759   9.284 -0.3908 -0.2788 -0.4962
  169MPD1    H6 2586   3.243   2.801   9.253 -0.1038  0.2520 -0.5709
  169MPD1    H7 2587   3.404   2.826   9.267 -0.0483 -0.4530  0.2693
  170MPD1     C 2588   1.389   4.482  12.414 -0.6713 -0.7967 -0.2012
  170MPD1    C1 2589   1.497   4.475  12.502 -0.3116  0.3135  0.8506
  170MPD1    C2 2590   1.488   4.535  12.621  0.4183  0.0812  0.1079
  170MPD1    C3 2591   1.386   4.619  12.647 -0.4501  0.3238  0.2506
  170MPD1    C4 2592   1.280   4.638  12.564 -0.6110  0.2763 -0.3139
  170MPD1    C5 2593   1.282   4.564  12.446  0.3975  0.4698 -0.3290
  170MPD1     H 2594   1.573   4.529  12.688  0.0343  1.8792  0.7730
  170MPD1    H1 2595   1.189   4.694  12.579  0.1877  1.4703  0.0658
  170MPD1    H2 2596   1.384   4.420  12.325  0.4637  1.8155 -2.0839
  170MPD1    H3 2597   1.191   4.569  12.387 -0.5601 -2.7656  0.9430
  170MPD1     N 2598   1.380   4.685  12.780  0.0412  0.2582 -0.5402
  170MPD1    H5 2599   1.455   4.661  12.845 -0.7274 -0.6318  0.0082
  170MPD1    N1 2600   1.604   4.389  12.474  0.0576 -0.1987 -0.2121
  170MPD1    H6 2601   1.691   4.420  12.515 -1.0163  2.6099 -0.0429
  170MPD1    H7 2602   1.625   4.372  12.376  0.1044  0.3846 -0.3063
  171MPD1     C 2603   4.681   1.162  14.969  0.3064  0.3162 -0.3001
  171MPD1    C1 2604   4.645   1.039  14.931 -0.1163 -0.4331  0.1169
  171MPD1    C2 2605   4.642   0.946  15.030 -0.5378 -0.7256  0.2547
  171MPD1    C3 2606   4.673   0.978  15.162 -0.5947  0.1103  0.6965
  171MPD1    C4 2607   4.713   1.102  15.198  0.2492 -0.4687 -0.0253
  171MPD1    C5 2608   4.705   1.198  15.102 -0.3087  0.5057  0.3203
  171MPD1     H 2609   4.616   0.847  14.992 -3.0690  1.4662 -3.7143
  171MPD1    H1 2610   0.015   1.125  15.301  0.1266  2.6429 -0.6898
  171MPD1    H2 2611   4.695   1.246  14.901  1.9440  1.6076  1.6012
  171MPD1    H3 2612   0.005   1.303  15.117  4.1133 -0.6878  1.8595
  171MPD1     N 2613   4.669   0.878  15.265 -0.6978  0.3122 -0.3935
  171MPD1    H5 2614   4.663   0.915  15.359  0.4333  2.1471 -1.0431
  171MPD1    N1 2615   4.609   1.017  14.799  0.5118 -0.1918 -0.3300
  171MPD1    H6 2616   4.605   0.922  14.764 -0.2484 -0.2838  0.0268
  171MPD1    H7 2617   4.664   1.082  14.743 -0.3002  1.6548  1.0218
  172MPD1     C 2618   4.115   1.580   0.859 -0.1162 -0.1413 -1.2326
  172MPD1    C1 2619   4.222   1.562   0.775  0.4594 -0.0706  0.0686
  172MPD1    C2 2620   4.209   1.456   0.684  0.6153 -0.8134 -0.0649
  172MPD1    C3 2621   4.106   1.358   0.685 -0.9965 -0.3793  0.3859
  172MPD1    C4 2622   4.004   1.380   0.786  0.5578 -0.7077  0.1301
  172MPD1    C5 2623   4.011   1.488   0.865  0.1920 -0.6309  0.3043
  172MPD1     H 2624   4.288   1.437   0.613  0.9212 -2.1829  0.6292
  172MPD1    H1 2625   3.918   1.315   0.799 -0.3054  0.8384  2.0004
  172MPD1    H2 2626   4.116   1.652   0.940  1.2610 -0.1874 -1.2145
  172MPD1    H3 2627   3.927   1.515   0.928  0.5336 -1.8180  1.2876
  172MPD1     N 2628   4.091   1.252   0.587 -0.3321 -0.6566 -0.0461
  172MPD1    H5 2629   4.010   1.191   0.593 -0.6788 -0.3987 -2.0061
  172MPD1    N1 2630   4.335   1.642   0.774 -0.0941 -0.3367 -0.6814
  172MPD1    H6 2631   4.418   1.586   0.754  0.1864 -0.6369  1.3098
  172MPD1    H7 2632   4.333   1.686   0.866 -0.5147 -2.0358  0.1206
  173MPD1     C 2633   1.706   0.110  13.932 -1.1405  0.1609  0.3392
  173MPD1    C1 2634   1.588   0.101  13.866 -0.4549  0.7140 -0.2185
  173MPD1    C2 2635   1.478   0.085  13.942 -0.5261 -0.6760  0.2593
  173MPD1    C3 2636   1.483   0.065  14.081  0.2524 -1.0145  0.9745
  173MPD1    C4 2637   1.599   0.083  14.146 -0.1041 -0.5153  0.0593
  173MPD1    C5 2638   1.710   0.104  14.070 -0.4609  0.8735  0.3801
  173MPD1     H 2639   1.384   0.098  13.890 -0.4969 -1.5983 -0.0242
  173MPD1    H1 2640   1.607   0.085  14.254  0.3415 -1.9484  0.0636
  173MPD1    H2 2641   1.798   0.150  13.890  0.2092 -3.2404  0.0074
  173MPD1    H3 2642   1.799   0.121  14.129  0.0941 -1.9541  0.4006
  173MPD1     N 2643   1.358   0.040  14.138  0.2778  0.1902 -0.6726
  173MPD1    H5 2644   1.283   0.037  14.070  0.0912 -0.1517 -0.4517
  173MPD1    N1 2645   1.574   0.156  13.733 -0.6066 -0.1204 -0.2470
  173MPD1    H6 2646   1.486   0.133  13.687 -0.9090  1.8181 -0.6515
  173MPD1    H7 2647   1.647   0.118  13.673 -0.8838  1.4317 -1.5488
  174MPD1     C 2648   0.764   4.715  15.058 -0.1080  0.0947  0.4372
  174MPD1    C1 2649   0.864   4.627  15.024  0.4046 -0.3157 -0.0910
  174MPD1    C2 2650   0.908   4.622  14.900 -0.0111  0.1872 -0.4336
  174MPD1    C3 2651   0.866   4.704  14.794 -0.3010  0.3997  0.3449
  174MPD1    C4 2652   0.762   0.065  14.834 -0.2311 -0.3664  0.6970
  174MPD1    C5 2653   0.715   0.077  14.965  0.6328 -0.0433  0.4143
  174MPD1     H 2654   0.962   4.533  14.870  0.3479  1.7989 -4.6480
  174MPD1    H1 2655   0.722   0.129  14.756 -0.4919 -1.8365 -0.3560
  174MPD1    H2 2656   0.718   4.707  15.156 -2.0945  1.4468 -0.3698
  174MPD1    H3 2657   0.640   0.148  14.998 -0.9268 -0.4247 -2.3177
  174MPD1     N 2658   0.918   4.710  14.667  0.4291  0.4967  0.1257
  174MPD1    H5 2659   0.873   0.045  14.597  0.2782 -0.8933 -0.9336
  174MPD1    N1 2660   0.908   4.530  15.117 -0.1308  0.0176 -0.5329
  174MPD1    H6 2661   0.901   4.568  15.212  0.3765 -0.5796 -0.2570
  174MPD1    H7 2662   1.000   4.494  15.094 -0.3716  0.4156 -2.1394
  175MPD1     C 2663   4.424   0.331  15.084  0.5626 -0.0145 -0.5668
  175MPD1    C1 2664   4.451   0.237  15.181  0.2419  0.4759  0.2196
  175MPD1    C2 2665   4.399   0.258  15.312  0.2209 -0.3744 -0.0076
  175MPD1    C3 2666   4.318   0.365  15.346  0.6150  0.0530 -0.8801
  175MPD1    C4 2667   4.297   0.447  15.243  0.4077  0.5406  0.5908
  175MPD1    C5 2668   4.346   0.433  15.114 -0.2455  0.4171 -0.4352
  175MPD1     H 2669   4.419   0.182  15.386 -0.3845 -0.1970  0.3399
  175MPD1    H1 2670   4.234   0.533  15.260 -0.4132  0.4572 -2.0358
  175MPD1    H2 2671   4.453   0.319  14.980 -1.1904 -2.6860 -0.7343
  175MPD1    H3 2672   4.317   0.499  15.033 -0.2827  0.8504 -0.0682
  175MPD1     N 2673   4.275   0.398  15.478 -0.5687 -0.0264  0.1414
  175MPD1    H5 2674   4.235   0.490  15.495  1.1722  0.5559  0.9911
  175MPD1    N1 2675   4.506   0.112  15.155  0.0912 -0.3719  0.8288
  175MPD1    H6 2676   4.566   0.079  15.230 -1.1234 -0.0725  1.9192
  175MPD1    H7 2677   4.557   0.119  15.067  1.5323 -0.1164  1.6844
  176MPD1     C 2678   0.375   2.507   0.073 -0.3727  0.3287 -0.1516
  176MPD1    C1 2679   0.413   2.507  17.637 -0.0218  0.2352  0.6065
  176MPD1    C2 2680   0.422   2.637  17.577 -0.6311  0.6272  0.1755
  176MPD1    C3 2681   0.388   2.754  17.642  0.0729 -0.1683 -0.3310
  176MPD1    C4 2682   0.349   2.750   0.076  0.4192 -0.8427  0.1152
  176MPD1    C5 2683   0.346   2.630   0.133 -0.3639 -0.0318  0.2567
  176MPD1     H 2684   0.460   2.643  17.476 -1.8024  0.9237 -0.2461
  176MPD1    H1 2685   0.298   2.832   0.126  1.5947 -1.1439  1.8165
  176MPD1    H2 2686   0.380   2.418   0.134  1.9592  0.3016 -0.3953
  176MPD1    H3 2687   0.313   2.625   0.236  1.6152  3.6179  1.0619
  176MPD1     N 2688   0.387   2.871  17.564 -0.1045  0.5847  0.3556
  176MPD1    H5 2689   0.404   2.864  17.464  3.0214  2.4755  0.7416
  176MPD1    N1 2690   0.452   2.387  17.571  0.2280 -0.4402 -0.5523
  176MPD1    H6 2691   0.403   2.303  17.601  1.5382 -1.4525 -1.2233
  176MPD1    H7 2692   0.451   2.401  17.470  1.7284 -0.5015 -0.5903
  177MPD1     C 2693   0.179   1.432   8.904 -0.2222  0.2685 -0.2954
  177MPD1    C1 2694   0.065   1.366   8.852 -0.5235  0.2890  0.2895
  177MPD1    C2 2695   4.671   1.450   8.840 -0.0710  0.0703 -0.1546
  177MPD1    C3 2696   4.670   1.588   8.880  0.2415 -0.0632 -0.3728
  177MPD1    C4 2697   0.060   1.644   8.933  0.5126 -0.4910  0.4044
  177MPD1    C5 2698   0.174   1.560   8.942 -0.2440 -0.5784  0.1340
  177MPD1     H 2699   4.577   1.406   8.809 -0.3018 -0.8300  1.8306
  177MPD1    H1 2700   0.069   1.745   8.971  0.4504 -0.1347 -0.5210
  177MPD1    H2 2701   0.273   1.380   8.920 -0.4870 -0.3651 -0.7838
  177MPD1    H3 2702   0.260   1.612   8.982  0.7588 -0.3578 -2.3188
  177MPD1     N 2703   4.544   1.653   8.872 -0.0693 -0.0986 -0.1975
  177MPD1    H5 2704   4.476   1.593   8.825  0.5374 -1.3288  0.4783
  177MPD1    N1 2705   0.072   1.236   8.804  0.3376  0.0962  0.5903
  177MPD1    H6 2706   0.132   1.182   8.866  0.4917 -1.8950 -1.2688
  177MPD1    H7 2707   4.707   1.186   8.802  1.7073 -2.2624 -0.8723
  178MPD1     C 2708   1.017   3.774   0.053 -0.2244  0.2522  0.6218
  178MPD1    C1 2709   0.951   3.770  17.623 -0.1291  0.1660 -0.3052
  178MPD1    C2 2710   1.031   3.746  17.508 -0.6496 -0.0809 -0.3267
  178MPD1    C3 2711   1.171   3.730  17.517  0.1770  0.0766  0.1758
  178MPD1    C4 2712   1.228   3.742  17.641  0.3081 -0.3795  0.3468
  178MPD1    C5 2713   1.151   3.755   0.060 -0.3967 -0.4774 -0.6362
  178MPD1     H 2714   0.982   3.744  17.412 -2.0494 -1.7127  0.4337
  178MPD1    H1 2715   1.334   3.729  17.659  1.1326  1.8922 -3.0278
  178MPD1    H2 2716   0.957   3.783   0.142 -0.3333  1.8173  0.3989
  178MPD1    H3 2717   1.207   3.754   0.152 -1.7589  1.4129  0.2223
  178MPD1     N 2718   1.249   3.697  17.402 -0.0862  0.7475  0.4886
  178MPD1    H5 2719   1.348   3.691  17.423 -0.2513  1.9357  1.6028
  178MPD1    N1 2720   0.808   3.768  17.613  0.0504  0.0620 -0.5720
  178MPD1    H6 2721   0.784   3.812  17.525  0.7955  1.4276 -0.1086
  178MPD1    H7 2722   0.767   3.827  17.686  2.1768 -1.3734  1.8048
  179MPD1     C 2723   0.997   2.497  15.398 -0.0508  0.3312 -0.7276
  179MPD1    C1 2724   0.963   2.434  15.278  0.1292 -0.6109 -0.1442
  179MPD1    C2 2725   0.912   2.302  15.275  0.0287  0.2396  0.1598
  179MPD1    C3 2726   0.877   2.242  15.397  0.0070  0.6596  0.3847
  179MPD1    C4 2727   0.900   2.309  15.517 -0.5418  0.0733  0.0500
  179MPD1    C5 2728   0.951   2.438  15.515  0.3768  0.2217 -0.6193
  179MPD1     H 2729   0.903   2.246  15.183  0.2765 -0.9627  0.8713
  179MPD1    H1 2730   0.877   2.257  15.609 -1.3918 -0.3457 -0.3981
  179MPD1    H2 2731   1.040   2.596  15.412 -0.8536  0.4456  0.8746
  179MPD1    H3 2732   0.972   2.487  15.609 -1.3498 -0.4981  0.1321
  179MPD1     N 2733   0.826   2.109  15.409  0.4533 -0.1184  0.6107
  179MPD1    H5 2734   0.808   2.073  15.502 -2.1694 -1.8740 -0.5732
  179MPD1    N1 2735   1.026   2.489  15.163 -0.7040  0.0849 -0.6867
  179MPD1    H6 2736   1.024   2.591  15.165 -0.8673  0.0597  0.6407
  179MPD1    H7 2737   0.960   2.459  15.092 -0.7438 -0.9939 -0.1869
  180MPD1     C 2738   0.623   2.588  15.068 -0.6658 -0.1149 -0.0661
  180MPD1    C1 2739   0.560   2.544  14.960  0.3633 -0.3195  0.1762
  180MPD1    C2 2740   0.551   2.638  14.857 -0.7347  1.2393  0.5770
  180MPD1    C3 2741   0.620   2.751  14.859 -0.5310  1.1627 -0.3442
  180MPD1    C4 2742   0.701   2.783  14.972 -0.2191  0.7126  0.1648
  180MPD1    C5 2743   0.692   2.697  15.077  0.0783  0.5798 -0.8813
  180MPD1     H 2744   0.503   2.602  14.766 -0.1655  2.6760 -0.2938
  180MPD1    H1 2745   0.764   2.871  14.984 -1.7967  1.9537 -0.6170
  180MPD1    H2 2746   0.618   2.525  15.156  0.7520  0.9830  0.7971
  180MPD1    H3 2747   0.753   2.723  15.164  1.2766 -0.6856 -1.3445
  180MPD1     N 2748   0.622   2.833  14.736 -0.1625  0.1727  0.0618
  180MPD1    H5 2749   0.566   2.802  14.657 -0.0570 -0.7049  0.3303
  180MPD1    N1 2750   0.489   2.419  14.953 -0.2655 -0.3665 -0.2728
  180MPD1    H6 2751   0.487   2.387  14.856 -0.5422  0.8076 -0.6505
  180MPD1    H7 2752   0.544   2.349  15.004 -0.5599  0.8844  1.7439
  181MPD1     C 2753   4.187   0.619   8.782 -0.0166  0.2693  0.0326
  181MPD1    C1 2754   4.138   0.723   8.845 -0.0511  0.0488 -0.3084
  181MPD1    C2 2755   4.025   0.713   8.914 -0.2317  0.1125 -0.5319
  181MPD1    C3 2756   3.968   0.596   8.943 -0.4093 -0.6444 -0.5430
  181MPD1    C4 2757   4.012   0.484   8.882 -0.1574  0.1621 -0.2386
  181MPD1    C5 2758   4.125   0.500   8.800  0.2154 -0.0184 -0.3220
  181MPD1     H 2759   3.976   0.801   8.953  2.0923  2.2371 -2.4337
  181MPD1    H1 2760   3.967   0.386   8.887  2.0415 -0.6349  3.6018
  181MPD1    H2 2761   4.267   0.622   8.709  0.5285 -1.0028  0.5734
  181MPD1    H3 2762   4.155   0.418   8.735  3.2646  0.8727 -0.0556
  181MPD1     N 2763   3.854   0.578   9.027  0.3245  0.2930  0.2628
  181MPD1    H5 2764   3.818   0.483   9.025  2.2774 -0.4157 -0.9646
  181MPD1    N1 2765   4.177   0.851   8.808 -0.2307  0.1202 -1.1451
  181MPD1    H6 2766   4.163   0.923   8.879  2.6806  0.2857 -0.7659
  181MPD1    H7 2767   4.266   0.861   8.760  0.6736 -0.1058  0.4925
  182MPD1     C 2768   4.167   3.634   1.481 -0.5768  0.1198  0.2077
  182MPD1    C1 2769   4.147   3.546   1.380 -0.2751 -0.4096  0.6356
  182MPD1    C2 2770   4.076   3.577   1.268  0.4799  0.2430  0.4638
  182MPD1    C3 2771   3.997   3.691   1.271  0.3847 -0.6262 -0.1563
  182MPD1    C4 2772   3.996   3.768   1.383 -0.6568  0.0652  0.4214
  182MPD1    C5 2773   4.084   3.739   1.485  0.6646  0.2808 -0.1028
  182MPD1     H 2774   4.091   3.527   1.173  0.9009  0.1032  0.6048
  182MPD1    H1 2775   3.934   3.855   1.396 -0.4772  0.7744 -3.4448
  182MPD1    H2 2776   4.238   3.629   1.563 -0.3338  0.9677  0.0455
  182MPD1    H3 2777   4.099   3.802   1.572 -0.8338 -0.4553  0.6761
  182MPD1     N 2778   3.918   3.737   1.166 -0.4935  0.1144 -0.0097
  182MPD1    H5 2779   3.880   3.830   1.178  0.0990  0.5420 -1.4327
  182MPD1    N1 2780   4.235   3.440   1.369 -0.2032 -0.5106  0.0634
  182MPD1    H6 2781   4.190   3.351   1.344  0.6484 -0.9322  0.0263
  182MPD1    H7 2782   4.273   3.414   1.459 -0.7453 -3.4319 -0.5475
  183MPD1     C 2783   4.520   0.196   8.992 -0.2252 -0.7232  0.6947
  183MPD1    C1 2784   4.570   0.290   9.083  0.2191 -0.4521 -0.3867
  183MPD1    C2 2785   4.481   0.373   9.146 -1.3926  0.2056  0.1615
  183MPD1    C3 2786   4.348   0.375   9.106 -0.2424  0.7387  0.6643
  183MPD1    C4 2787   4.311   0.292   9.002  0.8634 -0.0946  0.6919
  183MPD1    C5 2788   4.397   0.202   8.942  0.6749  0.1978 -0.7185
  183MPD1     H 2789   4.515   0.449   9.215  2.8065 -1.8073  0.2860
  183MPD1    H1 2790   4.213   0.277   8.958  1.4412 -0.9818 -0.2683
  183MPD1    H2 2791   4.588   0.126   8.946  0.1950  0.2832 -0.2033
  183MPD1    H3 2792   4.367   0.134   8.863 -0.2876 -0.3245  0.1032
  183MPD1     N 2793   4.250   0.444   9.176 -0.3043 -0.1665  0.0571
  183MPD1    H5 2794   4.275   0.533   9.218  1.5694 -1.6456  2.0963
  183MPD1    N1 2795   4.706   0.281   9.130  0.4854 -0.2589  0.1374
  183MPD1    H6 2796   0.025   0.366   9.166 -0.3611 -1.1579  3.2223
  183MPD1    H7 2797   0.054   0.238   9.072  1.3962  0.6968  0.5667
  184MPD1     C 2798   3.976   1.653   9.962 -0.0037  0.2356 -0.6206
  184MPD1    C1 2799   4.048   1.757   9.904 -0.9186  0.5166 -0.9288
  184MPD1    C2 2800   3.970   1.875   9.885  0.2827 -0.2844 -0.3414
  184MPD1    C3 2801   3.833   1.881   9.906 -0.3287 -0.1714 -0.1507
  184MPD1    C4 2802   3.764   1.768   9.953  0.2156  0.4296  0.0242
  184MPD1    C5 2803   3.838   1.656   9.980  0.5687 -0.6942 -0.4184
  184MPD1     H 2804   4.031   1.963   9.868  1.6901 -0.9442  1.4367
  184MPD1    H1 2805   3.656   1.768   9.959  0.2583 -2.2082  1.1507
  184MPD1    H2 2806   4.027   1.559   9.983  0.9014  0.0975 -3.4425
  184MPD1    H3 2807   3.791   1.563  10.008  0.8070 -0.4015  0.9476
  184MPD1     N 2808   3.751   2.000   9.883 -0.1714 -0.0199 -0.5352
  184MPD1    H5 2809   3.657   1.998   9.920 -0.3684  1.8457 -0.9509
  184MPD1    N1 2810   4.192   1.750   9.902  0.1032 -0.5074 -0.0809
  184MPD1    H6 2811   4.227   1.809   9.827  0.9060 -1.8297 -0.7428
  184MPD1    H7 2812   4.214   1.652   9.886 -2.4369 -0.8312 -1.4252
  185MPD1     C 2813   2.908   2.397   9.469  0.5993 -0.5284  0.6174
  185MPD1    C1 2814   2.937   2.293   9.559 -0.2551  0.0456  0.3764
  185MPD1    C2 2815   3.055   2.292   9.627  0.4150 -0.2010  0.0081
  185MPD1    C3 2816   3.163   2.372   9.593  0.1161 -0.0246  0.3830
  185MPD1    C4 2817   3.135   2.462   9.492 -0.3551 -0.0242 -0.6144
  185MPD1    C5 2818   3.012   2.476   9.439 -0.4796  0.1201 -0.4782
  185MPD1     H 2819   3.055   2.209   9.697  2.0669 -0.4259 -0.2646
  185MPD1    H1 2820   3.211   2.527   9.450 -1.0941  1.3360  0.1547
  185MPD1    H2 2821   2.806   2.413   9.433  0.7398  1.3176  1.0625
  185MPD1    H3 2822   2.996   2.559   9.371 -1.3966  1.9434  1.9794
  185MPD1     N 2823   3.292   2.376   9.656  0.1210  0.6526 -0.8575
  185MPD1    H5 2824   3.358   2.443   9.618  0.0908  1.1838  0.0326
  185MPD1    N1 2825   2.835   2.215   9.620 -0.0159 -0.4309 -0.5237
  185MPD1    H6 2826   2.762   2.176   9.561  1.1446 -2.5447 -0.6084
  185MPD1    H7 2827   2.867   2.137   9.678 -0.3179  0.3018  0.6149
  186MPD1     C 2828   1.714   1.799  15.515  0.7824  0.0716 -0.6399
  186MPD1    C1 2829   1.708   1.760  15.648  0.4643  0.1180  0.7409
  186MPD1    C2 2830   1.644   1.843  15.738 -0.2184  0.1139 -0.0068
  186MPD1    C3 2831   1.568   1.952  15.694 -0.3693 -0.8957  0.1618
  186MPD1    C4 2832   1.566   1.992  15.559 -0.1264 -0.3237  0.5630
  186MPD1    C5 2833   1.646   1.913  15.475  0.2643  0.4004  0.5891
  186MPD1     H 2834   1.664   1.824  15.843 -0.6512 -2.5146 -0.3975
  186MPD1    H1 2835   1.515   2.081  15.523  1.2577  1.8611  3.9801
  186MPD1    H2 2836   1.769   1.737  15.445  0.5109  0.9167 -1.5980
  186MPD1    H3 2837   1.645   1.932  15.368  0.1392  2.4362  0.9493
  186MPD1     N 2838   1.502   2.037  15.787  0.3871 -0.0751  0.0233
  186MPD1    H5 2839   1.473   2.125  15.745  0.1793 -0.9581 -1.6673
  186MPD1    N1 2840   1.791   1.655  15.690 -0.8213  0.6993 -0.2213
  186MPD1    H6 2841   1.882   1.699  15.702 -0.3974  0.3393 -1.9536
  186MPD1    H7 2842   1.809   1.597  15.607 -0.2405 -0.9745  1.0715
  187MPD1     C 2843   4.626   4.534  17.086  0.0369 -0.1007 -0.6794
  187MPD1    C1 2844   0.021   4.554  17.020 -0.4937  0.0086  0.3940
  187MPD1    C2 2845   0.111   4.447  17.004 -0.4349 -0.2082 -0.1890
  187MPD1    C3 2846   0.075   4.322  17.045 -0.6825  0.3659  0.1798
  187MPD1    C4 2847   4.668   4.297  17.093  0.3332  0.6188 -0.3847
  187MPD1    C5 2848   4.583   4.401  17.111 -0.1711 -0.1464 -0.4621
  187MPD1     H 2849   0.208   4.469  16.962 -0.2833 -0.8301 -0.1608
  187MPD1    H1 2850   4.633   4.198  17.121  1.3018  0.7394  1.2247
  187MPD1    H2 2851   4.558   4.614  17.109 -1.2388 -1.5596  0.6685
  187MPD1    H3 2852   4.481   4.401  17.148  0.3280 -3.9180  0.9498
  187MPD1     N 2853   0.155   4.203  17.022 -0.0338  0.1123 -0.8056
  187MPD1    H5 2854   0.111   4.113  17.036  0.9645 -0.0947  0.9790
  187MPD1    N1 2855   0.052   4.692  16.997 -0.1266 -0.6502  0.4465
  187MPD1    H6 2856   4.700   0.038  17.003  0.4436 -0.0007  0.1282
  187MPD1    H7 2857   0.120   4.705  16.922  0.0220 -0.4173  0.6208
  188MPD1     C 2858   0.323   4.107  10.439  0.9996  0.1804  0.5246
  188MPD1    C1 2859   0.449   4.060  10.427  0.1259 -0.2767 -0.1610
  188MPD1    C2 2860   0.472   3.976  10.325  0.4955 -0.2949 -0.2874
  188MPD1    C3 2861   0.368   3.916  10.257 -0.3440  0.6373 -0.3723
  188MPD1    C4 2862   0.235   3.940  10.294  0.5966 -0.2957 -0.0307
  188MPD1    C5 2863   0.215   4.054  10.368  0.6648 -0.2641 -0.1747
  188MPD1     H 2864   0.577   3.964  10.302  0.0211 -3.3401 -0.7906
  188MPD1    H1 2865   0.152   3.900  10.236  0.4736 -1.0847  0.6911
  188MPD1    H2 2866   0.295   4.202  10.483 -0.4976  0.6326 -1.3772
  188MPD1    H3 2867   0.117   4.101  10.369  0.3174 -1.0298  1.1431
  188MPD1     N 2868   0.397   3.835  10.147  0.0217 -0.3672  0.0096
  188MPD1    H5 2869   0.496   3.834  10.123  0.7143 -2.6000  2.9431
  188MPD1    N1 2870   0.555   4.129  10.487  0.2194  0.2097 -0.1228
  188MPD1    H6 2871   0.529   4.168  10.577  0.2565  0.9547 -0.4426
  188MPD1    H7 2872   0.639   4.072  10.495 -0.4446 -1.0619 -2.0628
  189MPD1     C 2873   2.278   4.527   0.901 -0.1204 -0.0477  0.7866
  189MPD1    C1 2874   2.250   4.411   0.844  0.0557  0.9351  0.4732
  189MPD1    C2 2875   2.263   4.401   0.704  0.4286  0.2498 -0.2311
  189MPD1    C3 2876   2.285   4.518   0.629 -0.0354 -0.0521 -0.0847
  189MPD1    C4 2877   2.301   4.639   0.699  0.6184 -0.3127  0.2802
  189MPD1    C5 2878   2.306   4.638   0.831 -0.0224 -0.3400 -0.0396
  189MPD1     H 2879   2.259   4.306   0.652 -0.4133 -0.0405  0.3674
  189MPD1    H1 2880   2.294   0.013   0.653  2.4760 -0.7346 -0.8632
  189MPD1    H2 2881   2.287   4.525   1.009  0.9572 -2.3806  0.6526
  189MPD1    H3 2882   2.315   0.011   0.880  0.4939 -1.0460  1.2582
  189MPD1     N 2883   2.284   4.507   0.489  0.0042  0.1795 -0.3914
  189MPD1    H5 2884   2.289   4.417   0.441 -0.2933 -0.6991  1.2242
  189MPD1    N1 2885   2.251   4.294   0.930 -0.3358 -0.1606 -0.1772
  189MPD1    H6 2886   2.232   4.330   1.024  1.3366 -1.2781  0.5833
  189MPD1    H7 2887   2.176   4.233   0.896  0.2369 -1.2908  0.6120
  190MPD1     C 2888   1.005   3.499  15.058 -0.5896 -0.3236  0.0217
  190MPD1    C1 2889   1.088   3.387  15.036  0.0006  0.0851  0.3236
  190MPD1    C2 2890   1.200   3.375  15.117  0.6325 -0.0286  0.3579
  190MPD1    C3 2891   1.233   3.461  15.221 -0.2230  0.2816 -0.0902
  190MPD1    C4 2892   1.154   3.573  15.235  0.1688  0.1696 -0.1398
  190MPD1    C5 2893   1.043   3.588  15.154 -0.7793 -0.2764  0.5592
  190MPD1     H 2894   1.261   3.286  15.105  0.0055 -0.8905  3.6399
  190MPD1    H1 2895   1.160   3.634  15.324 -0.4111  2.4869 -1.6837
  190MPD1    H2 2896   0.913   3.512  15.001 -0.0846  2.3962 -0.1944
  190MPD1    H3 2897   0.969   3.661  15.185  0.1210  1.4357 -1.2609
  190MPD1     N 2898   1.343   3.426  15.305 -0.8043  0.0965  0.0358
  190MPD1    H5 2899   1.394   3.341  15.282 -0.0711  0.4846  0.2344
  190MPD1    N1 2900   1.063   3.312  14.916  0.0176  0.6069  0.3985
  190MPD1    H6 2901   1.089   3.213  14.912  1.8183  1.0267  1.7222
  190MPD1    H7 2902   0.965   3.324  14.892 -0.0438 -1.0370 -0.2054
  191MPD1     C 2903   0.173   4.332  11.947 -0.2491  0.1343 -0.6452
  191MPD1    C1 2904   0.152   4.359  12.084  0.1385  0.6013  0.1133
  191MPD1    C2 2905   0.199   4.482  12.133 -0.1691  0.0733 -0.1273
  191MPD1    C3 2906   0.237   4.586  12.046  0.1893  0.2512 -0.2680
  191MPD1    C4 2907   0.240   4.558  11.910  0.4295 -0.5463 -0.0651
  191MPD1    C5 2908   0.227   4.427  11.867 -0.0007  0.5127 -0.5400
  191MPD1     H 2909   0.182   4.500  12.238 -2.0640 -1.6564 -0.1401
  191MPD1    H1 2910   0.275   4.626  11.832  2.1521 -0.6536  0.6135
  191MPD1    H2 2911   0.145   4.241  11.895 -0.0142  0.8282 -1.9925
  191MPD1    H3 2912   0.252   4.402  11.765 -0.3894  0.8237 -0.7143
  191MPD1     N 2913   0.260   4.712  12.106 -0.4850  0.4112 -0.0659
  191MPD1    H5 2914   0.240   4.720  12.205 -0.9768 -0.5337 -0.0916
  191MPD1    N1 2915   0.121   4.246  12.161  0.4535  0.3159 -0.4131
  191MPD1    H6 2916   0.060   4.176  12.119  0.5394 -0.5102  0.8186
  191MPD1    H7 2917   0.111   4.265  12.261  0.2625 -0.5470 -0.2676
  192MPD1     C 2918   0.014   0.204  12.858  0.3352 -0.4555  0.2092
  192MPD1    C1 2919   0.001   0.336  12.804  0.2198 -0.4028 -0.1723
  192MPD1    C2 2920   0.072   0.356  12.688  0.2988 -0.1439  0.5131
  192MPD1    C3 2921   0.138   0.253  12.619  0.1175  0.2810  0.0635
  192MPD1    C4 2922   0.140   0.128  12.678  0.2267 -0.1047  0.3281
  192MPD1    C5 2923   0.077   0.099  12.794 -0.1062  0.0535  0.0380
  192MPD1     H 2924   0.079   0.456  12.646 -0.7966 -1.1606 -2.0546
  192MPD1    H1 2925   0.195   0.048  12.630 -1.2678  0.1603 -1.8202
  192MPD1    H2 2926   4.698   0.178  12.956 -3.2615  0.0907 -1.1363
  192MPD1    H3 2927   0.093   0.008  12.850 -1.9342 -0.1930  0.1386
  192MPD1     N 2928   0.210   0.270  12.504  0.4640 -0.3834  0.3552
  192MPD1    H5 2929   0.276   0.197  12.478 -1.9183 -1.3329 -3.0446
  192MPD1    N1 2930   4.660   0.440  12.865 -0.0331 -0.3856 -0.2196
  192MPD1    H6 2931   0.009   0.504  12.897 -0.2392 -0.3617  0.1991
  192MPD1    H7 2932   4.613   0.410  12.950 -0.6811  1.7602  0.1675
  193MPD1     C 2933   4.695   0.365  16.577 -0.0267  0.2147 -0.4206
  193MPD1    C1 2934   0.093   0.341  16.631 -0.7715 -0.1908 -0.2596
  193MPD1    C2 2935   0.181   0.448  16.632  0.2358 -0.3621  0.2555
  193MPD1    C3 2936   0.161   0.565  16.565  0.2637  0.8752 -0.3883
  193MPD1    C4 2937   0.040   0.579  16.502 -0.6123  0.2037  0.4242
  193MPD1    C5 2938   4.669   0.489  16.517  0.0385 -1.2980  0.6772
  193MPD1     H 2939   0.273   0.429  16.686  0.4236 -0.8915 -0.2499
  193MPD1    H1 2940   0.015   0.668  16.447 -2.6905 -0.6738 -0.0197
  193MPD1    H2 2941   4.611   0.297  16.577  0.0035  0.1775 -0.5582
  193MPD1    H3 2942   4.574   0.505  16.468  1.0095  1.9035 -0.1411
  193MPD1     N 2943   0.259   0.658  16.546  0.6970  0.4704 -0.2686
  193MPD1    H5 2944   0.226   0.749  16.516 -1.0812 -0.0843 -0.0535
  193MPD1    N1 2945   0.113   0.223  16.708  0.0560  0.3356  0.0500
  193MPD1    H6 2946   0.206   0.193  16.683 -0.6021 -1.2194 -0.4767
  193MPD1    H7 2947   0.050   0.156  16.664  0.6490  0.0257 -0.3231
  194MPD1     C 2948   2.781   2.746  15.842  0.1333 -0.0171 -0.5548
  194MPD1    C1 2949   2.779   2.617  15.789  0.6499 -0.0890  0.7193
  194MPD1    C2 2950   2.796   2.514  15.877  0.1161  0.5246  0.0103
  194MPD1    C3 2951   2.787   2.535  16.015  0.0617 -0.3657  0.1164
  194MPD1    C4 2952   2.764   2.663  16.062 -0.0391  0.2541 -0.0782
  194MPD1    C5 2953   2.770   2.764  15.973 -0.3068 -0.6844 -0.0859
  194MPD1     H 2954   2.830   2.420  15.837 -1.4727  1.3935 -3.4301
  194MPD1    H1 2955   2.753   2.683  16.168 -0.7164  3.5400 -0.7434
  194MPD1    H2 2956   2.808   2.824  15.772 -0.9291 -0.7086 -1.7130
  194MPD1    H3 2957   2.757   2.864  16.011 -1.1935  0.0006 -2.1973
  194MPD1     N 2958   2.807   2.434  16.113 -0.2297 -0.1959  0.1219
  194MPD1    H5 2959   2.777   2.448  16.209 -1.0263 -0.1866 -0.1310
  194MPD1    N1 2960   2.819   2.602  15.651 -0.5657  0.1919  0.4234
  194MPD1    H6 2961   2.780   2.511  15.626 -3.0507  1.6461 -0.9647
  194MPD1    H7 2962   2.784   2.674  15.588  0.9895  1.4017  0.9435
  195MPD1     C 2963   0.249   4.417   1.113  0.6054 -0.3133  0.1894
  195MPD1    C1 2964   0.332   4.313   1.146 -0.3955 -0.2019 -0.3777
  195MPD1    C2 2965   0.319   4.197   1.071 -0.3109  0.6245  0.5303
  195MPD1    C3 2966   0.220   4.173   0.975  0.1176  0.6562  0.1318
  195MPD1    C4 2967   0.142   4.279   0.944 -0.2335 -0.3427  0.0695
  195MPD1    C5 2968   0.157   4.400   1.012  0.2748 -0.0715 -0.1329
  195MPD1     H 2969   0.385   4.114   1.091  2.2532  2.4846 -0.3000
  195MPD1    H1 2970   0.075   4.278   0.859 -0.7514 -0.0805  0.4684
  195MPD1    H2 2971   0.250   4.515   1.158 -2.3145 -0.6695  1.0124
  195MPD1    H3 2972   0.082   4.477   1.002 -0.9972 -1.6465 -2.7370
  195MPD1     N 2973   0.204   4.052   0.898  0.4121 -0.8426  0.0999
  195MPD1    H5 2974   0.146   4.059   0.815 -0.2752 -1.1507  0.5630
  195MPD1    N1 2975   0.447   4.338   1.224  0.7756 -0.5983 -0.0305
  195MPD1    H6 2976   0.427   4.422   1.279  0.2202  1.3115 -3.1696
  195MPD1    H7 2977   0.443   4.261   1.291  1.1015 -1.0490 -0.5319
  196MPD1     C 2978   4.550   2.331   0.608 -0.3447 -0.1384  0.2381
  196MPD1    C1 2979   4.559   2.452   0.538 -0.0784 -0.3665 -0.5955
  196MPD1    C2 2980   4.552   2.565   0.616  0.6526 -0.2129  0.0488
  196MPD1    C3 2981   4.543   2.560   0.755 -0.3911  0.4336 -0.0886
  196MPD1    C4 2982   4.527   2.433   0.814  0.0522 -0.5658  0.5182
  196MPD1    C5 2983   4.542   2.319   0.739  0.8042  0.4816  0.7981
  196MPD1     H 2984   4.539   2.659   0.563 -1.1138  0.9256  2.4656
  196MPD1    H1 2985   4.526   2.414   0.921 -0.8683  2.0891  0.9883
  196MPD1    H2 2986   4.545   2.233   0.562 -1.4153 -0.0380  0.1447
  196MPD1    H3 2987   4.537   2.223   0.788  1.0878 -0.9361 -1.9692
  196MPD1     N 2988   4.536   2.675   0.835  0.4736  0.1657 -0.1251
  196MPD1    H5 2989   4.531   2.664   0.936 -0.6483  1.5392 -0.0340
  196MPD1    N1 2990   4.549   2.459   0.399  0.0511 -0.9474 -0.1579
  196MPD1    H6 2991   4.609   2.533   0.363 -2.2445  0.2168 -1.5201
  196MPD1    H7 2992   4.580   2.371   0.356  1.2557 -0.5494 -0.1144
  197MPD1     C 2993   3.710   0.406  17.093 -0.0993 -0.2418 -0.5063
  197MPD1    C1 2994   3.749   0.512  17.174 -0.0811 -0.1182 -0.1226
  197MPD1    C2 2995   3.766   0.640  17.117  0.1596 -0.1288 -0.1276
  197MPD1    C3 2996   3.738   0.660  16.983  0.1191  0.0972  0.3536
  197MPD1    C4 2997   3.699   0.553  16.907 -0.9482 -0.2040 -0.0142
  197MPD1    C5 2998   3.679   0.428  16.963  0.9935  0.4398 -0.1703
  197MPD1     H 2999   3.796   0.727  17.175 -1.9189  1.1228 -0.8963
  197MPD1    H1 3000   3.691   0.568  16.800 -0.6138  0.9202  0.1184
  197MPD1    H2 3001   3.707   0.304  17.130  0.2103  0.6464  1.9402
  197MPD1    H3 3002   3.648   0.345  16.901  2.1507  0.4108 -0.7132
  197MPD1     N 3003   3.769   0.782  16.911 -0.4650 -0.0715 -0.2606
  197MPD1    H5 3004   3.756   0.770  16.811  1.5847  0.3341 -0.5923
  197MPD1    N1 3005   3.781   0.486  17.306 -0.3646  0.0376  0.1857
  197MPD1    H6 3006   3.729   0.415  17.358  0.3252  0.3462  1.2971
  197MPD1    H7 3007   3.790   0.568  17.366 -1.4031 -0.0584  0.4745
  198MPD1     C 3008   0.735   0.426  15.672  0.0663 -1.2803  0.7457
  198MPD1    C1 3009   0.839   0.403  15.589 -0.3791  1.0171  0.2127
  198MPD1    C2 3010   0.962   0.376  15.656 -0.3234 -0.8255 -0.0588
  198MPD1    C3 3011   0.972   0.350  15.791  0.2823 -0.2870 -0.0923
  198MPD1    C4 3012   0.864   0.376  15.870 -0.4606 -0.3126 -0.0181
  198MPD1    C5 3013   0.745   0.411  15.809  0.0232  0.3086  0.1484
  198MPD1     H 3014   1.043   0.366  15.585  0.1687 -1.0283  0.5332
  198MPD1    H1 3015   0.870   0.377  15.978 -0.9147 -1.5678  0.0239
  198MPD1    H2 3016   0.638   0.444  15.629  0.4871 -1.0564 -0.1124
  198MPD1    H3 3017   0.652   0.416  15.865  1.2579 -1.4716  2.3662
  198MPD1     N 3018   1.102   0.316  15.843  0.2879  0.5055  0.4163
  198MPD1    H5 3019   1.173   0.320  15.771 -0.3479  1.1926 -0.1701
  198MPD1    N1 3020   0.832   0.441  15.454 -0.0513 -0.2042 -0.1233
  198MPD1    H6 3021   0.746   0.407  15.411  0.2252  0.8701 -1.5331
  198MPD1    H7 3022   0.829   0.542  15.442 -0.6507 -0.1321  0.6065
  199MPD1     C 3023   3.028   1.382   9.789  0.0269  0.1283  0.7413
  199MPD1    C1 3024   2.979   1.333   9.667 -0.5020  0.0634  0.0184
  199MPD1    C2 3025   3.071   1.289   9.572 -0.3473  0.5580  0.5403
  199MPD1    C3 3026   3.208   1.287   9.603 -0.3337 -0.2757  0.6181
  199MPD1    C4 3027   3.255   1.346   9.723  1.0636 -0.1369  0.4424
  199MPD1    C5 3028   3.160   1.390   9.813  0.6534 -0.7840  0.2561
  199MPD1     H 3029   3.034   1.244   9.481 -1.8046  0.0951  1.3491
  199MPD1    H1 3030   3.358   1.353   9.755  0.5090 -1.4609  2.4520
  199MPD1    H2 3031   2.956   1.417   9.863 -0.9694  0.0967 -0.2182
  199MPD1    H3 3032   3.191   1.434   9.907  1.0146 -0.1139 -0.1726
  199MPD1     N 3033   3.303   1.232   9.507 -0.1244  0.0633 -0.5995
  199MPD1    H5 3034   3.402   1.238   9.528 -0.1679  0.5000 -0.5146
  199MPD1    N1 3035   2.837   1.354   9.641  0.3197 -0.3658  0.3304
  199MPD1    H6 3036   2.777   1.347   9.723 -2.3126 -2.2824 -1.7576
  199MPD1    H7 3037   2.796   1.286   9.577  0.3977 -1.3498  1.3444
  200MPD1     C 3038   1.346   0.741  14.138 -0.4532  0.2491  0.1149
  200MPD1    C1 3039   1.419   0.639  14.087 -0.2872 -0.8598  0.0724
  200MPD1    C2 3040   1.547   0.620  14.124  0.3472 -1.3520 -0.2127
  200MPD1    C3 3041   1.615   0.709  14.205 -0.1906 -0.4043  0.7300
  200MPD1    C4 3042   1.542   0.821  14.245 -0.5396 -0.0267 -0.0555
  200MPD1    C5 3043   1.405   0.839  14.212  0.3042 -0.3347  0.1083
  200MPD1     H 3044   1.599   0.533  14.085  1.0509  0.6518 -3.7692
  200MPD1    H1 3045   1.587   0.902  14.301 -2.8337  1.5536 -0.4924
  200MPD1    H2 3046   1.239   0.737  14.121 -0.4172  1.6479 -0.4350
  200MPD1    H3 3047   1.338   0.909  14.261  1.0294  0.6944 -0.3570
  200MPD1     N 3048   1.752   0.697  14.225 -0.1605  0.1872  0.0766
  200MPD1    H5 3049   1.798   0.614  14.188 -1.2942  0.1151 -1.1924
  200MPD1    N1 3050   1.356   0.542  14.007  0.2001 -0.1002  0.2327
  200MPD1    H6 3051   1.301   0.591  13.937 -1.0993  0.3589  1.5581
  200MPD1    H7 3052   1.422   0.488  13.951  0.1673  0.4617 -0.3402
  201MPD1     C 3053   3.698   4.601  12.104  0.0913 -0.1646 -0.3002
  201MPD1    C1 3054   3.720   4.473  12.077 -0.0358 -1.3914 -0.6716
  201MPD1    C2 3055   3.752   4.385  12.175  0.0988  0.2537  0.2956
  201MPD1    C3 3056   3.791   4.433  12.302  0.2661 -0.1661  0.4904
  201MPD1    C4 3057   3.763   4.562  12.332 -0.8285  0.2939  0.1341
  201MPD1    C5 3058   3.726   4.648  12.231  0.8097 -0.2489 -0.0742
  201MPD1     H 3059   3.769   4.280  12.153 -1.9578 -0.1458  0.6747
  201MPD1    H1 3060   3.792   4.610  12.425  1.9019  1.3382 -1.2592
  201MPD1    H2 3061   3.652   4.674  12.039 -0.9129 -1.1586 -0.7004
  201MPD1    H3 3062   3.712   0.030  12.249  1.3734 -0.0306 -0.8856
  201MPD1     N 3063   3.845   4.333  12.389  0.3710 -0.0569  0.5179
  201MPD1    H5 3064   3.861   4.239  12.354  1.5745  0.6048 -0.7122
  201MPD1    N1 3065   3.674   4.414  11.958  0.8598  0.1824  0.5623
  201MPD1    H6 3066   3.736   4.338  11.931  0.3954  0.0711 -0.1895
  201MPD1    H7 3067   3.669   4.479  11.879  2.4468 -1.2430 -0.7232
  202MPD1     C 3068   4.126   4.302   9.085  0.2252 -0.1339 -0.5611
  202MPD1    C1 3069   4.110   4.179   9.154  1.0280 -0.2112  0.1093
  202MPD1    C2 3070   4.133   4.181   9.291 -0.2108  0.3000  0.0585
  202MPD1    C3 3071   4.126   4.300   9.364  0.9643  0.3732  0.0903
  202MPD1    C4 3072   4.092   4.416   9.302  0.1701 -1.0118  0.1669
  202MPD1    C5 3073   4.100   4.418   9.158  0.0171 -0.3897  0.0416
  202MPD1     H 3074   4.126   4.086   9.343 -1.1872  0.5593  0.4130
  202MPD1    H1 3075   4.091   4.513   9.350  1.8576 -1.0380  0.2572
  202MPD1    H2 3076   4.138   4.299   8.977 -2.5336 -2.2271 -0.8005
  202MPD1    H3 3077   4.089   4.511   9.104 -1.2737 -0.4293  0.2391
  202MPD1     N 3078   4.140   4.297   9.502  0.4005  0.4329  0.2877
  202MPD1    H5 3079   4.121   4.388   9.541  2.3056  1.3919 -1.0218
  202MPD1    N1 3080   4.143   4.065   9.077 -0.8316  0.8389 -0.1688
  202MPD1    H6 3081   4.115   4.067   8.979 -0.2367 -2.1284 -0.3914
  202MPD1    H7 3082   4.112   3.974   9.110 -0.7072  1.0904  0.6454
  203MPD1     C 3083   2.522   0.860  11.879  0.0369 -0.3287  0.3137
  203MPD1    C1 3084   2.590   0.784  11.782  0.1437 -0.2701 -0.3501
  203MPD1    C2 3085   2.621   0.653  11.815 -0.4347 -0.3977  0.2953
  203MPD1    C3 3086   2.598   0.602  11.939  0.4973  0.2283 -0.2773
  203MPD1    C4 3087   2.538   0.674  12.035 -0.4034  0.5686 -0.0932
  203MPD1    C5 3088   2.491   0.799  11.996 -0.1021  0.3945  0.0117
  203MPD1     H 3089   2.664   0.589  11.738  0.3755  2.0810 -1.3110
  203MPD1    H1 3090   2.529   0.630  12.133 -0.5213 -0.3190 -0.5033
  203MPD1    H2 3091   2.501   0.964  11.858  1.1715 -0.2185 -0.2914
  203MPD1    H3 3092   2.437   0.860  12.068 -0.2217  0.4349 -0.1116
  203MPD1     N 3093   2.646   0.472  11.957 -0.3403  0.3080 -0.1686
  203MPD1    H5 3094   2.689   0.421  11.881  0.6026 -0.0969  0.6297
  203MPD1    N1 3095   2.620   0.834  11.659 -0.2813  0.1776  0.3245
  203MPD1    H6 3096   2.677   0.772  11.602 -0.8945 -1.0382  1.0521
  203MPD1    H7 3097   2.528   0.839  11.616  0.2956  0.2169 -0.8964
  204MPD1     C 3098   3.573   1.246   0.163  0.8330 -0.6540  0.3626
  204MPD1    C1 3099   3.480   1.148   0.194 -0.2399 -0.6713 -0.2216
  204MPD1    C2 3100   3.394   1.107   0.098 -0.2320  0.3831  0.0534
  204MPD1    C3 3101   3.421   1.151  17.664 -0.0374  0.5748 -0.2128
  204MPD1    C4 3102   3.518   1.239  17.631 -0.2898  0.1139  0.5429
  204MPD1    C5 3103   3.598   1.292   0.035 -0.7279  0.0912 -0.7888
  204MPD1     H 3104   3.314   1.039   0.124 -0.6359  1.8018  2.4347
  204MPD1    H1 3105   3.550   1.256  17.529 -0.5592 -0.2038  0.4047
  204MPD1    H2 3106   3.644   1.283   0.236 -0.1678  1.2480  0.3605
  204MPD1    H3 3107   3.672   1.366   0.006  1.0271 -1.8337 -1.1871
  204MPD1     N 3108   3.330   1.106  17.567  0.4962  0.2549  0.1235
  204MPD1    H5 3109   3.262   1.037  17.598 -0.2657  1.4172  1.0260
  204MPD1    N1 3110   3.461   1.114   0.336  0.2838  0.2742  0.2906
  204MPD1    H6 3111   3.558   1.102   0.365  0.4847 -1.5699 -1.1431
  204MPD1    H7 3112   3.415   1.025   0.356  1.1242 -0.0344  0.8373
  205MPD1     C 3113   2.820   4.640  16.640  0.1832 -0.1413 -0.0780
  205MPD1    C1 3114   2.782   4.531  16.715 -0.6334  0.6473  0.0348
  205MPD1    C2 3115   2.760   4.550  16.852  0.2965  0.6525  0.1545
  205MPD1    C3 3116   2.764   4.676  16.912 -0.6541 -0.3287 -0.0273
  205MPD1    C4 3117   2.793   0.060  16.830  0.0065 -0.0531  0.1628
  205MPD1    C5 3118   2.837   0.038  16.700 -0.4545  0.9797 -1.0669
  205MPD1     H 3119   2.745   4.459  16.910  3.2754  0.4611  0.6494
  205MPD1    H1 3120   2.787   0.164  16.861 -1.1595 -0.2410  0.5837
  205MPD1    H2 3121   2.860   4.627  16.540 -0.2586 -1.9993 -0.0146
  205MPD1    H3 3122   2.870   0.128  16.648  0.0910  2.2370  1.4524
  205MPD1     N 3123   2.754   4.706  17.053 -0.4381 -0.4054  0.2753
  205MPD1    H5 3124   2.763   0.079  17.085  1.4029 -0.0142 -1.3847
  205MPD1    N1 3125   2.800   4.403  16.665  0.8987  0.9699 -0.1009
  205MPD1    H6 3126   2.782   4.405  16.565 -1.1051 -2.1920  0.1762
  205MPD1    H7 3127   2.757   4.323  16.710 -0.0113  1.9063  0.6863
  206MPD1     C 3128   3.428   3.151  15.873  0.9312 -0.8070 -0.1211
  206MPD1    C1 3129   3.394   3.013  15.869 -0.2895 -0.9601 -0.1135
  206MPD1    C2 3130   3.272   2.992  15.802 -0.2519 -0.1202  1.0413
  206MPD1    C3 3131   3.216   3.075  15.711 -0.2543  0.1211  0.0112
  206MPD1    C4 3132   3.273   3.205  15.702 -0.2130  0.1742  0.1977
  206MPD1    C5 3133   3.373   3.240  15.786  0.3342 -0.2011  0.6382
  206MPD1     H 3134   3.227   2.895  15.817  0.2201 -0.3662  0.8661
  206MPD1    H1 3135   3.235   3.277  15.630  0.5389 -0.5400 -0.9312
  206MPD1    H2 3136   3.483   3.191  15.958  1.3023 -1.2888 -0.1387
  206MPD1    H3 3137   3.394   3.346  15.795  1.3023 -0.3236 -0.1203
  206MPD1     N 3138   3.114   3.041  15.622  0.2723 -0.0143  0.1411
  206MPD1    H5 3139   3.102   3.109  15.547  0.3761 -0.7347 -0.5279
  206MPD1    N1 3140   3.439   2.922  15.965  0.4385 -0.0697  0.6445
  206MPD1    H6 3141   3.533   2.925  16.004  1.0280  1.3390 -0.8717
  206MPD1    H7 3142   3.437   2.826  15.932  0.5540  0.3295 -0.4951
  207MPD1     C 3143   4.676   1.200   9.124  0.3854 -0.1294 -0.0498
  207MPD1    C1 3144   4.607   1.091   9.165  0.4405  0.4132 -0.7376
  207MPD1    C2 3145   4.662   1.013   9.264  0.3139 -0.0298 -0.5115
  207MPD1    C3 3146   0.053   1.054   9.325  0.1645  0.2300  0.2577
  207MPD1    C4 3147   0.109   1.179   9.292  0.0275  0.8560 -0.1680
  207MPD1    C5 3148   0.052   1.257   9.195  0.0746 -0.1354 -0.6049
  207MPD1     H 3149   4.609   0.925   9.298 -0.7691 -0.3568 -3.0291
  207MPD1    H1 3150   0.181   1.220   9.362 -0.5762 -1.1967  1.6448
  207MPD1    H2 3151   4.626   1.263   9.052 -3.1866 -0.5012  2.1022
  207MPD1    H3 3152   0.087   1.357   9.172  0.4911  0.0952  0.9971
  207MPD1     N 3153   0.125   0.977   9.420 -0.0030  0.6095 -0.4877
  207MPD1    H5 3154   0.202   1.030   9.458 -0.2627  0.2767  0.5087
  207MPD1    N1 3155   4.493   1.044   9.086  0.3667 -0.6721 -0.1572
  207MPD1    H6 3156   4.430   1.119   9.059  1.8594  0.7673  0.3256
  207MPD1    H7 3157   4.447   0.965   9.132 -0.3819 -1.4920 -2.3547
  208MPD1     C 3158   3.288   4.188  16.846  0.3212 -0.1159  0.0080
  208MPD1    C1 3159   3.183   4.206  16.933  0.7573 -0.1026  0.1012
  208MPD1    C2 3160   3.195   4.156  17.061 -0.4006  0.0887  0.4840
  208MPD1    C3 3161   3.311   4.098  17.111 -0.4598  0.6364 -1.6953
  208MPD1    C4 3162   3.422   4.091  17.023 -0.5932 -0.0289 -0.1382
  208MPD1    C5 3163   3.404   4.120  16.890  0.4798 -0.4611 -0.5770
  208MPD1     H 3164   3.108   4.161  17.125 -1.1289 -0.4669 -0.4536
  208MPD1    H1 3165   3.515   4.039  17.044 -1.1999 -0.1739  2.2569
  208MPD1    H2 3166   3.292   4.226  16.745 -0.7232 -0.0379 -0.0012
  208MPD1    H3 3167   3.486   4.104  16.821  2.0217 -1.6460  1.5175
  208MPD1     N 3168   3.315   4.041  17.240 -0.6361 -0.3181  0.3071
  208MPD1    H5 3169   3.228   4.043  17.293 -1.9295  1.4584 -1.9072
  208MPD1    N1 3170   3.068   4.270  16.885  0.5997  0.7309 -0.0791
  208MPD1    H6 3171   3.072   4.309  16.792  0.2130 -0.7839 -0.7286
  208MPD1    H7 3172   3.036   4.343  16.949 -0.0978  1.0929 -0.8504
  209MPD1     C 3173   4.258   4.349  10.790  0.0312 -0.5427  0.1586
  209MPD1    C1 3174   4.288   4.464  10.871  0.2233  0.2556  0.5625
  209MPD1    C2 3175   4.374   4.555  10.819 -0.5333  0.1922  0.8197
  209MPD1    C3 3176   4.431   4.537  10.696  0.5031 -0.0581  0.0519
  209MPD1    C4 3177   4.397   4.432  10.618 -0.1249 -0.5639 -0.7301
  209MPD1    C5 3178   4.318   4.335  10.663  0.3530  0.0630 -0.6972
  209MPD1     H 3179   4.405   4.643  10.875  4.0550 -0.5458 -0.5526
  209MPD1    H1 3180   4.423   4.421  10.513  0.4815  0.7648 -0.7113
  209MPD1    H2 3181   4.178   4.280  10.812 -2.3290  1.8185 -1.1010
  209MPD1    H3 3182   4.282   4.258  10.595  2.9563 -0.7910 -1.1225
  209MPD1     N 3183   4.513   4.637  10.646 -0.3887  0.4203 -0.2242
  209MPD1    H5 3184   4.554   4.698  10.715  0.5414 -2.4212  1.7263
  209MPD1    N1 3185   4.238   4.472  11.000  0.1069 -0.0367  0.1360
  209MPD1    H6 3186   4.144   4.433  11.007 -0.1502  0.5060 -0.2915
  209MPD1    H7 3187   4.237   4.566  11.038  1.1536 -0.0157  0.1184
  210MPD1     C 3188   0.609   0.397  10.958 -0.4916 -0.7282  0.6598
  210MPD1    C1 3189   0.490   0.336  11.006  0.4146  1.0421 -0.0835
  210MPD1    C2 3190   0.411   0.269  10.920 -0.2461  0.1373 -0.1288
  210MPD1    C3 3191   0.430   0.273  10.783 -0.1807 -0.3072  0.3345
  210MPD1    C4 3192   0.539   0.342  10.743 -0.2045  0.4843 -0.7271
  210MPD1    C5 3193   0.628   0.401  10.823 -0.6755 -0.0045  0.9395
  210MPD1     H 3194   0.321   0.225  10.962  0.6419  0.0541  1.6992
  210MPD1    H1 3195   0.553   0.352  10.635  0.0356 -3.3137 -1.0198
  210MPD1    H2 3196   0.675   0.448  11.027 -0.4891  0.7943 -0.4561
  210MPD1    H3 3197   0.703   0.470  10.786 -2.1687 -0.6584 -3.3389
  210MPD1     N 3198   0.341   0.222  10.690  0.2046 -0.2492 -0.3494
  210MPD1    H5 3199   0.366   0.235  10.592  0.2219 -0.7411 -0.4078
  210MPD1    N1 3200   0.471   0.327  11.148  0.0479  0.0168  0.2363
  210MPD1    H6 3201   0.516   0.407  11.191 -2.6989  0.7636  1.6829
  210MPD1    H7 3202   0.375   0.326  11.181  0.4869  0.3965  1.5043
  211MPD1     C 3203   3.418   4.354  15.500 -0.0005  1.0201 -0.3058
  211MPD1    C1 3204   3.367   4.312  15.617  1.0359  0.1287  0.4013
  211MPD1    C2 3205   3.273   4.394  15.681 -0.4891  0.0387  0.6554
  211MPD1    C3 3206   3.222   4.506  15.629  0.4776  0.1540 -0.0818
  211MPD1    C4 3207   3.276   4.547  15.506 -0.4176  0.1451 -0.4063
  211MPD1    C5 3208   3.373   4.469  15.443  0.3953 -0.5781  0.0907
  211MPD1     H 3209   3.254   4.366  15.784  0.9793  0.0956  0.9337
  211MPD1    H1 3210   3.240   4.635  15.455 -0.1374 -0.4773 -1.6702
  211MPD1    H2 3211   3.493   4.296  15.448  0.5116  1.0291  0.4194
  211MPD1    H3 3212   3.412   4.501  15.347  0.4901  1.2138  0.7298
  211MPD1     N 3213   3.112   4.572  15.692  0.2821 -0.8024 -0.2905
  211MPD1    H5 3214   3.086   4.526  15.778 -0.8925 -0.6711 -0.5802
  211MPD1    N1 3215   3.426   4.193  15.670 -0.0141 -0.3871 -0.0862
  211MPD1    H6 3216   3.354   4.143  15.720 -2.8449  1.7893 -1.9797
  211MPD1    H7 3217   3.465   4.126  15.604 -2.7412 -1.5731 -0.4772
  212MPD1     C 3218   2.428   2.823  16.279  0.1670 -0.6289 -0.6926
  212MPD1    C1 3219   2.327   2.884  16.348 -0.6216  0.4994 -0.0936
  212MPD1    C2 3220   2.237   2.808  16.420 -0.2446 -0.0452 -0.5330
  212MPD1    C3 3221   2.249   2.673  16.435  0.7181  0.7694 -0.0744
  212MPD1    C4 3222   2.346   2.606  16.360 -0.6096  0.7059  0.0809
  212MPD1    C5 3223   2.432   2.683  16.278 -0.6808 -0.9877  0.4935
  212MPD1     H 3224   2.151   2.852  16.470 -1.3689 -2.2842 -0.5260
  212MPD1    H1 3225   2.369   2.501  16.371  0.6144  1.0566  0.9025
  212MPD1    H2 3226   2.499   2.885  16.225 -0.6152  1.9917  1.3073
  212MPD1    H3 3227   2.510   2.633  16.222 -1.1068 -0.8524 -0.2057
  212MPD1     N 3228   2.158   2.595  16.505  0.2840  0.0957  0.1533
  212MPD1    H5 3229   2.153   2.499  16.471  1.4001  0.3434 -0.7255
  212MPD1    N1 3230   2.303   3.021  16.337 -0.3570  0.3287  0.2538
  212MPD1    H6 3231   2.250   3.059  16.415  1.1531  0.2163  1.3457
  212MPD1    H7 3232   2.383   3.083  16.329  1.4781 -2.0825 -0.1334
  213MPD1     C 3233   0.843   3.616  15.751 -0.5187 -0.8080 -0.8308
  213MPD1    C1 3234   0.771   3.502  15.727 -0.0597  0.3624  0.3068
  213MPD1    C2 3235   0.665   3.513  15.632 -0.1072  0.0639 -0.3366
  213MPD1    C3 3236   0.607   3.639  15.604  0.6344 -1.0279 -0.8653
  213MPD1    C4 3237   0.663   3.744  15.668 -0.2078 -0.2213  0.4569
  213MPD1    C5 3238   0.775   3.731  15.741  0.1990  0.0297 -0.3607
  213MPD1     H 3239   0.631   3.422  15.586  2.0447 -0.1590 -1.4509
  213MPD1    H1 3240   0.620   3.843  15.659 -1.1024 -0.8000 -1.5900
  213MPD1    H2 3241   0.934   3.619  15.810 -0.8050 -1.3180 -0.3565
  213MPD1    H3 3242   0.822   3.821  15.779 -1.4958  0.5236  0.5474
  213MPD1     N 3243   0.495   3.650  15.521 -0.4087  0.2648 -0.5175
  213MPD1    H5 3244   0.453   3.565  15.486  1.5551 -1.3389  1.0602
  213MPD1    N1 3245   0.840   3.382  15.730  0.4080  0.3794 -0.3244
  213MPD1    H6 3246   0.773   3.305  15.732 -0.1602  0.9154  2.0465
  213MPD1    H7 3247   0.886   3.383  15.821  0.3191  1.0681 -0.2881
  214MPD1     C 3248   4.715   2.950  15.175  0.3222 -0.3237 -0.6032
  214MPD1    C1 3249   0.061   2.983  15.290 -0.4413 -0.5052 -0.0921
  214MPD1    C2 3250   0.114   3.113  15.296  0.2806  0.0646 -0.7366
  214MPD1    C3 3251   0.077   3.215  15.206  0.8537  0.2505 -0.5246
  214MPD1    C4 3252   0.001   3.181  15.098 -0.2439 -0.4916 -0.2514
  214MPD1    C5 3253   4.697   3.048  15.080 -0.3782  0.3119 -0.3832
  214MPD1     H 3254   0.177   3.126  15.383 -0.0883  0.2106 -0.4892
  214MPD1    H1 3255   4.696   3.245  15.015  1.3953  1.6170  0.8054
  214MPD1    H2 3256   4.684   2.848  15.155  1.9864 -0.8062 -0.7768
  214MPD1    H3 3257   4.632   3.025  14.997  0.1474  2.0956 -1.2861
  214MPD1     N 3258   0.112   3.353  15.208  0.4671 -0.5981  0.2903
  214MPD1    H5 3259   0.069   3.402  15.130  2.3264  0.4432 -0.0531
  214MPD1    N1 3260   0.102   2.881  15.375 -0.1098 -0.3046  0.0033
  214MPD1    H6 3261   0.136   2.916  15.464 -0.8089 -0.0098  0.1558
  214MPD1    H7 3262   0.037   2.809  15.408  0.4716 -1.0932 -0.5907
  215MPD1     C 3263   4.093   0.207  10.597 -0.2579  0.6363  0.3447
  215MPD1    C1 3264   4.151   0.199  10.723 -1.0932 -0.1131 -0.5829
  215MPD1    C2 3265   4.291   0.229  10.742  0.1261  0.0466  0.7607
  215MPD1    C3 3266   4.360   0.269  10.629  0.3473 -0.0905  0.7244
  215MPD1    C4 3267   4.300   0.264  10.502 -0.2050  0.5404  0.4722
  215MPD1    C5 3268   4.168   0.227  10.487 -0.6216  0.0902  0.1468
  215MPD1     H 3269   4.326   0.243  10.844  1.2906 -0.5453  0.4456
  215MPD1    H1 3270   4.365   0.294  10.421 -0.1445  0.4390  0.4834
  215MPD1    H2 3271   3.990   0.187  10.570  0.2294 -0.6042 -0.5820
  215MPD1    H3 3272   4.135   0.224  10.384 -0.8763  3.9281  0.1353
  215MPD1     N 3273   4.478   0.342  10.656 -0.1098  0.2404 -0.2384
  215MPD1    H5 3274   4.493   0.326  10.755  0.7261 -3.3201 -0.9684
  215MPD1    N1 3275   4.056   0.191  10.832  0.0397  0.1255 -0.1841
  215MPD1    H6 3276   4.100   0.144  10.912  0.4784 -0.6116 -0.8549
  215MPD1    H7 3277   3.979   0.129  10.807 -2.9642  3.9184 -0.1780
  216MPD1     C 3278   2.929   0.710  16.485  0.1243 -0.1747  0.6604
  216MPD1    C1 3279   2.984   0.740  16.610  0.4005 -0.1619 -0.7354
  216MPD1    C2 3280   2.895   0.811  16.696 -0.5432  0.3067 -0.3877
  216MPD1    C3 3281   2.763   0.847  16.657  0.2775 -0.3866 -0.2205
  216MPD1    C4 3282   2.714   0.810  16.536  0.2694 -0.0426 -0.9096
  216MPD1    C5 3283   2.805   0.743  16.451  0.1193 -0.1908 -0.2033
  216MPD1     H 3284   2.936   0.849  16.789 -0.0331 -1.1802  0.0004
  216MPD1    H1 3285   2.625   0.861  16.499 -1.5841 -1.8986  1.0069
  216MPD1    H2 3286   2.981   0.660  16.404  0.4247  0.6855  0.3260
  216MPD1    H3 3287   2.778   0.721  16.348 -0.6158  1.6520 -0.4105
  216MPD1     N 3288   2.698   0.927  16.753 -0.8280 -0.6904 -0.2146
  216MPD1    H5 3289   2.755   0.958  16.831  1.6099 -1.5380 -1.6773
  216MPD1    N1 3290   3.126   0.724  16.625 -0.1143  0.3523 -0.0708
  216MPD1    H6 3291   3.158   0.636  16.587 -1.8732 -0.5301  0.5159
  216MPD1    H7 3292   3.145   0.713  16.724 -0.2518  0.3910 -0.0394
  217MPD1     C 3293   3.235   2.711   8.354 -0.8683 -0.2918 -0.4691
  217MPD1    C1 3294   3.352   2.778   8.345  0.6553  0.2299  0.3960
  217MPD1    C2 3295   3.380   2.883   8.431 -0.8911  0.1106  0.8235
  217MPD1    C3 3296   3.281   2.939   8.517 -0.0213  0.6500 -0.3175
  217MPD1    C4 3297   3.164   2.867   8.510  0.1090 -0.4236 -0.4810
  217MPD1    C5 3298   3.142   2.756   8.436 -0.1728 -0.0506  0.2374
  217MPD1     H 3299   3.466   2.943   8.406  2.0108 -3.1619  3.0471
  217MPD1    H1 3300   3.079   2.899   8.569 -1.0748 -0.8028 -1.9887
  217MPD1    H2 3301   3.210   2.632   8.284 -0.2461 -0.6015 -0.3431
  217MPD1    H3 3302   3.042   2.715   8.444 -0.4571  0.8025  1.0077
  217MPD1     N 3303   3.296   3.032   8.625  0.0287 -1.1106  0.5391
  217MPD1    H5 3304   3.208   3.056   8.672  0.4419  0.9210  0.3002
  217MPD1    N1 3305   3.433   2.755   8.225  0.7922 -0.0496 -0.1511
  217MPD1    H6 3306   3.532   2.779   8.228  1.1870 -1.2633 -3.5433
  217MPD1    H7 3307   3.429   2.655   8.206 -0.5351 -0.0046 -0.1111
  218MPD1     C 3308   4.097   0.142  12.955 -0.0430  0.0803 -0.0738
  218MPD1    C1 3309   4.223   0.109  12.989 -0.2320  0.0318 -0.1072
  218MPD1    C2 3310   4.327   0.165  12.907  0.6540  0.2075  0.5086
  218MPD1    C3 3311   4.287   0.230  12.786  0.3380 -0.0369  0.1391
  218MPD1    C4 3312   4.155   0.262  12.760 -0.0301 -0.2654 -0.1223
  218MPD1    C5 3313   4.063   0.218  12.851 -0.3271 -0.1143 -0.4818
  218MPD1     H 3314   4.430   0.137  12.924  1.8441  4.0147 -0.5358
  218MPD1    H1 3315   4.123   0.324  12.676  0.3412  3.1957  2.2717
  218MPD1    H2 3316   4.011   0.114  13.014 -0.2793  1.1271  0.0688
  218MPD1    H3 3317   3.957   0.236  12.839 -0.1297  3.0969  2.6256
  218MPD1     N 3318   4.393   0.246  12.694  0.0990 -0.5501  0.0350
  218MPD1    H5 3319   4.480   0.209  12.731  1.3633 -0.1982 -2.5785
  218MPD1    N1 3320   4.263   0.030  13.104  0.2886  0.0167 -0.2953
  218MPD1    H6 3321   4.192   4.688  13.135 -0.1961  1.3881  1.5176
  218MPD1    H7 3322   4.346   4.702  13.077 -0.6781 -2.4592  1.4622
  219MPD1     C 3323   4.700   0.830  11.938 -0.0568  0.1529 -0.4441
  219MPD1    C1 3324   0.006   0.700  11.894 -0.0765  0.2531 -0.2122
  219MPD1    C2 3325   4.703   0.603  11.987  0.4013  0.6718 -0.3072
  219MPD1    C3 3326   4.657   0.618  12.110 -0.6044  0.2405 -0.0288
  219MPD1    C4 3327   4.624   0.743  12.151  0.5580  0.0850 -0.5789
  219MPD1    C5 3328   4.659   0.850  12.072 -0.0263  0.2292  0.7721
  219MPD1     H 3329   0.005   0.502  11.955 -2.8094 -0.4252  0.6405
  219MPD1    H1 3330   4.565   0.756  12.242 -1.1822 -0.0860 -1.6843
  219MPD1    H2 3331   4.700   0.917  11.873  0.8643  0.1224 -0.4804
  219MPD1    H3 3332   4.626   0.949  12.100  0.6540  0.3769  1.0278
  219MPD1     N 3333   4.644   0.506  12.204  0.1228  0.2369  0.0505
  219MPD1    H5 3334   4.591   0.534  12.286 -1.5968 -2.2823 -0.1689
  219MPD1    N1 3335   0.033   0.681  11.760 -0.7049  0.8958 -0.3210
  219MPD1    H6 3336   0.090   0.598  11.746 -2.9032 -0.7017  0.2191
  219MPD1    H7 3337   0.070   0.762  11.711  1.1183 -0.0091 -0.4210
  220MPD1     C 3338   4.685   1.675   9.254 -0.1816  0.7005  0.1608
  220MPD1    C1 3339   4.571   1.661   9.325  0.2735  0.4728  0.1260
  220MPD1    C2 3340   4.580   1.569   9.432  0.4471  0.2412  0.1880
  220MPD1    C3 3341   4.700   1.501   9.467  1.0014 -0.2525  0.4012
  220MPD1    C4 3342   0.091   1.531   9.393  0.5873  0.1523  1.1031
  220MPD1    C5 3343   0.079   1.618   9.286  0.4886  0.0954 -0.5079
  220MPD1     H 3344   4.489   1.545   9.485 -0.5691  0.1340 -1.5891
  220MPD1    H1 3345   0.186   1.487   9.421  1.8034  0.2627 -2.8955
  220MPD1    H2 3346   4.691   1.740   9.167 -2.1117  3.4232  2.0626
  220MPD1    H3 3347   0.168   1.640   9.228 -0.7277 -0.4273 -2.6134
  220MPD1     N 3348   4.694   1.410   9.568 -0.6454 -0.1056 -0.1723
  220MPD1    H5 3349   4.609   1.404   9.623  0.5820 -1.5348  1.5934
  220MPD1    N1 3350   4.450   1.696   9.265 -0.2423  0.2529 -0.2960
  220MPD1    H6 3351   4.367   1.694   9.323  0.3710 -1.6936  0.4898
  220MPD1    H7 3352   4.457   1.773   9.198 -1.0405 -0.4043 -1.1248
  221MPD1     C 3353   2.133   4.586  16.315 -0.0192  0.2201  0.2050
  221MPD1    C1 3354   2.185   4.554  16.195  0.0053 -0.3636 -0.1981
  221MPD1    C2 3355   2.240   4.426  16.174  0.5800 -0.1484  0.1039
  221MPD1    C3 3356   2.241   4.336  16.279  0.1943 -0.6106 -0.5656
  221MPD1    C4 3357   2.174   4.373  16.392 -0.2402 -0.2293  0.0510
  221MPD1    C5 3358   2.111   4.492  16.410  0.1955 -0.3545  0.1037
  221MPD1     H 3359   2.295   4.406  16.083  0.9309  2.4959 -0.2477
  221MPD1    H1 3360   2.157   4.309  16.478 -1.8176  0.8021  0.4975
  221MPD1    H2 3361   2.093   4.686  16.325  0.7390  0.5634 -0.1452
  221MPD1    H3 3362   2.049   4.512  16.497 -0.9458 -0.0613 -0.7755
  221MPD1     N 3363   2.329   4.221  16.286 -0.3588  0.4234 -0.3981
  221MPD1    H5 3364   2.333   4.168  16.372  1.6129 -0.5809 -1.1146
  221MPD1    N1 3365   2.213   4.662  16.106  0.2296  0.0326  0.0429
  221MPD1    H6 3366   2.149   0.017  16.118  0.3269 -0.3254  2.8687
  221MPD1    H7 3367   2.231   4.646  16.007 -0.6173 -0.2602 -0.0635
  222MPD1     C 3368   2.116   1.984  16.865 -0.1193 -0.8637  0.7621
  222MPD1    C1 3369   2.187   2.103  16.859 -0.3370 -0.1211 -0.2260
  222MPD1    C2 3370   2.144   2.216  16.927 -0.1962 -0.2715 -0.3388
  222MPD1    C3 3371   2.021   2.210  16.991  0.2529 -0.2797  0.7583
  222MPD1    C4 3372   1.949   2.098  16.994 -0.4622  0.0931  0.2196
  222MPD1    C5 3373   2.005   1.982  16.943 -0.6984 -0.3109 -0.4498
  222MPD1     H 3374   2.208   2.303  16.935  1.3905 -1.5336  0.6066
  222MPD1    H1 3375   1.849   2.089  17.037  0.2268 -2.1199  1.3303
  222MPD1    H2 3376   2.149   1.890  16.821 -0.7084  0.7145 -2.9853
  222MPD1    H3 3377   1.959   1.884  16.951 -0.2387 -0.5185 -0.3506
  222MPD1     N 3378   1.966   2.326  17.051  0.2583 -0.1635 -0.0707
  222MPD1    H5 3379   1.868   2.312  17.071  0.1564 -0.8998 -1.0905
  222MPD1    N1 3380   2.322   2.091  16.834 -0.2593 -1.2741  0.2854
  222MPD1    H6 3381   2.343   2.021  16.764  1.7673 -2.2247  1.8364
  222MPD1    H7 3382   2.364   2.182  16.819 -0.9465 -1.2557 -1.4932
  223MPD1     C 3383   1.389   2.168  17.638 -0.9912  0.4767 -0.0728
  223MPD1    C1 3384   1.426   2.124  17.513 -0.0980  0.2415 -0.0227
  223MPD1    C2 3385   1.499   2.211  17.430  0.8289  0.3254 -0.2434
  223MPD1    C3 3386   1.532   2.341  17.469  0.6154  0.8255 -0.6258
  223MPD1    C4 3387   1.484   2.388  17.583 -0.4935 -0.7904  0.1914
  223MPD1    C5 3388   1.419   2.301  17.670 -0.9418  0.1865  0.0319
  223MPD1     H 3389   1.543   2.176  17.337  3.1033  2.7378 -0.0894
  223MPD1    H1 3390   1.494   2.494  17.604  4.0012 -0.9606 -1.0701
  223MPD1    H2 3391   1.337   2.110   0.018  1.5647 -0.8591  0.6753
  223MPD1    H3 3392   1.386   2.338   0.071  2.7195 -1.1708  1.8042
  223MPD1     N 3393   1.626   2.409  17.381 -0.3166 -0.5240  0.3193
  223MPD1    H5 3394   1.656   2.360  17.297 -1.1196 -0.5255  0.0394
  223MPD1    N1 3395   1.399   1.988  17.468  0.3753 -0.3753 -0.4437
  223MPD1    H6 3396   1.318   1.940  17.507  0.1740  0.8363  0.6487
  223MPD1    H7 3397   1.392   1.973  17.368  3.6346 -0.7149 -0.6387
  224MPD1     C 3398   3.403   4.044   8.530 -0.0588  0.3065 -0.3152
  224MPD1    C1 3399   3.539   4.056   8.528 -0.1984 -0.6862  0.1882
  224MPD1    C2 3400   3.605   4.107   8.645 -0.2105 -0.0538  0.4010
  224MPD1    C3 3401   3.539   4.126   8.761  0.0370  0.2718 -0.3059
  224MPD1    C4 3402   3.403   4.113   8.759  0.3642  0.3306 -0.2936
  224MPD1    C5 3403   3.338   4.078   8.644  0.8431  0.7167 -0.4702
  224MPD1     H 3404   3.707   4.143   8.637 -0.1149 -1.1376 -3.1732
  224MPD1    H1 3405   3.341   4.144   8.842  1.0406 -1.2766  0.8090
  224MPD1    H2 3406   3.354   4.030   8.434 -1.5665  2.2270  0.1743
  224MPD1    H3 3407   3.230   4.082   8.640  0.7993 -0.9493 -0.7321
  224MPD1     N 3408   3.594   4.161   8.885  0.2026 -0.0355 -0.0865
  224MPD1    H5 3409   3.539   4.146   8.969  1.0649  2.3106  0.8892
  224MPD1    N1 3410   3.609   4.045   8.410 -0.5774 -0.1006  0.5636
  224MPD1    H6 3411   3.710   4.033   8.415 -0.2588  1.8480 -1.6263
  224MPD1    H7 3412   3.574   3.964   8.359 -0.3622 -0.8464  1.5829
  225MPD1     C 3413   4.650   1.583  12.464  0.2723 -0.7634  0.0200
  225MPD1    C1 3414   4.524   1.531  12.493 -0.0326 -0.2098 -0.2016
  225MPD1    C2 3415   4.451   1.472  12.386 -0.7645  0.4248  0.4296
  225MPD1    C3 3416   4.510   1.454  12.262 -0.5878  0.1516  0.3516
  225MPD1    C4 3417   4.638   1.496  12.240  0.0012  0.2074  0.2762
  225MPD1    C5 3418   4.701   1.560  12.339  0.8313 -0.2878  1.0162
  225MPD1     H 3419   4.352   1.439  12.415 -1.8188  3.7882  0.7061
  225MPD1    H1 3420   4.680   1.489  12.140 -1.0917  1.1859 -0.2418
  225MPD1    H2 3421   4.708   1.626  12.545 -0.5799  0.9540 -0.2988
  225MPD1    H3 3422   0.079   1.597  12.333  0.6166  0.3950  1.6865
  225MPD1     N 3423   4.442   1.400  12.146 -0.0893 -0.0008  0.1139
  225MPD1    H5 3424   4.479   1.406  12.052  2.7159 -0.1224  1.2056
  225MPD1    N1 3425   4.449   1.572  12.606 -0.0743 -0.3384  0.0045
  225MPD1    H6 3426   4.377   1.502  12.617 -0.7308  0.0706 -1.5777
  225MPD1    H7 3427   4.504   1.583  12.691 -0.3783 -2.3563  0.4459
  226MPD1     C 3428   3.347   1.507  10.196 -0.6460  0.2044  0.2397
  226MPD1    C1 3429   3.340   1.623  10.131  0.5468 -0.5362  0.5710
  226MPD1    C2 3430   3.386   1.626   9.995  0.4165 -0.5417  0.3733
  226MPD1    C3 3431   3.465   1.519   9.946  0.7167  0.6614  0.3065
  226MPD1    C4 3432   3.477   1.405  10.023  0.3682  0.7203 -0.1553
  226MPD1    C5 3433   3.414   1.403  10.148 -0.3168  0.0644  0.6780
  226MPD1     H 3434   3.383   1.719   9.941 -0.3881  0.1131  1.5366
  226MPD1    H1 3435   3.533   1.319   9.987  0.8326  0.3360  1.4614
  226MPD1    H2 3436   3.310   1.492  10.297  0.6695 -0.2230  0.6613
  226MPD1    H3 3437   3.410   1.314  10.210 -0.7555 -0.4401 -0.0696
  226MPD1     N 3438   3.527   1.543   9.822  0.6420 -0.2106 -0.4682
  226MPD1    H5 3439   3.497   1.625   9.770 -1.3756  0.7717  2.2393
  226MPD1    N1 3440   3.257   1.724  10.182 -0.6071  0.0844 -0.0635
  226MPD1    H6 3441   3.285   1.812  10.140  0.4406  0.1267  0.7229
  226MPD1    H7 3442   3.257   1.736  10.284 -4.1441  0.7874 -0.1777
  227MPD1     C 3443   3.416   2.226   9.375 -0.5831  0.3665  0.5405
  227MPD1    C1 3444   3.357   2.108   9.395  0.8015  0.9167  0.4228
  227MPD1    C2 3445   3.427   1.999   9.434 -0.2608 -0.5253 -0.2501
  227MPD1    C3 3446   3.556   2.003   9.461 -0.0174  0.0329 -0.2615
  227MPD1    C4 3447   3.628   2.123   9.455 -0.3202  0.6384  0.3317
  227MPD1    C5 3448   3.554   2.237   9.412  0.1326  0.0299 -0.6240
  227MPD1     H 3449   3.383   1.901   9.434 -2.3484  0.4189  0.3225
  227MPD1    H1 3450   3.727   2.123   9.499 -0.2274 -0.2370  0.1120
  227MPD1    H2 3451   3.359   2.317   9.362 -0.8385  0.2121  0.5695
  227MPD1    H3 3452   3.595   2.337   9.414  0.2366 -0.0533  1.2543
  227MPD1     N 3453   3.620   1.880   9.485 -0.2697 -0.2815 -0.1344
  227MPD1    H5 3454   3.553   1.804   9.487  2.6381 -2.8373  0.0659
  227MPD1    N1 3455   3.229   2.095   9.345  0.6909  0.5609  0.1600
  227MPD1    H6 3456   3.182   2.012   9.380 -1.4288  1.6182 -0.1957
  227MPD1    H7 3457   3.166   2.174   9.350  1.6569  1.4739 -1.8475
  228MPD1     C 3458   1.805   4.026  12.472  0.1231 -0.5032  0.8889
  228MPD1    C1 3459   1.783   3.923  12.383 -0.0411 -0.5143  0.3297
  228MPD1    C2 3460   1.690   3.836  12.428  0.7776 -0.0530 -0.0197
  228MPD1    C3 3461   1.603   3.859  12.537 -0.1464  0.1694  0.4742
  228MPD1    C4 3462   1.615   3.966  12.614  0.4621  0.7311 -0.2619
  228MPD1    C5 3463   1.721   4.043  12.582  0.0562 -0.8888  0.4174
  228MPD1     H 3464   1.660   3.753  12.365  3.2441  1.2004 -2.8409
  228MPD1    H1 3465   1.552   3.988  12.700  1.4262  3.0085 -0.1247
  228MPD1    H2 3466   1.885   4.095  12.448  0.9374 -0.5241  3.4926
  228MPD1    H3 3467   1.736   4.128  12.648  1.4327 -3.0049  2.8108
  228MPD1     N 3468   1.494   3.775  12.559 -0.6119 -0.2112 -0.0112
  228MPD1    H5 3469   1.496   3.679  12.526  1.1753  0.1769 -1.0711
  228MPD1    N1 3470   1.868   3.911  12.275 -1.1618  0.3630  0.7479
  228MPD1    H6 3471   1.932   3.988  12.257 -0.1268 -0.3632  1.2948
  228MPD1    H7 3472   1.821   3.865  12.197 -2.6683  1.2505  1.1353
  229MPD1     C 3473   0.908   2.327  13.940  0.4373  0.2124  0.4184
  229MPD1    C1 3474   0.977   2.362  14.055  0.1329 -0.3507  0.5731
  229MPD1    C2 3475   1.033   2.257  14.132  0.5673 -0.6858 -0.3566
  229MPD1    C3 3476   1.005   2.122  14.106  0.1972 -0.2060  0.2660
  229MPD1    C4 3477   0.932   2.090  13.991 -0.9107 -0.5423 -0.3924
  229MPD1    C5 3478   0.877   2.193  13.919 -0.1056 -0.3726 -0.5348
  229MPD1     H 3479   1.094   2.289  14.216  0.5193  3.0697 -1.7660
  229MPD1    H1 3480   0.919   1.987  13.961  3.6817 -0.9842 -0.9263
  229MPD1    H2 3481   0.889   2.405  13.867 -1.9329 -1.1017 -0.3604
  229MPD1    H3 3482   0.841   2.179  13.817 -0.2094 -2.3161 -0.2293
  229MPD1     N 3483   1.054   2.021  14.191 -0.1920 -1.1503  0.6346
  229MPD1    H5 3484   1.032   1.927  14.160  0.2808 -0.5312 -1.6201
  229MPD1    N1 3485   1.022   2.489  14.077 -0.1295 -0.0716  0.6079
  229MPD1    H6 3486   0.962   2.553  14.024 -1.4582 -0.9374  1.0697
  229MPD1    H7 3487   1.034   2.509  14.176 -0.5760 -1.1280  0.8697
  230MPD1     C 3488   1.515   1.768  15.171 -0.2118 -0.4569  0.0819
  230MPD1    C1 3489   1.566   1.686  15.079  0.2193  0.2555  0.2800
  230MPD1    C2 3490   1.520   1.688  14.946 -0.3442 -1.2714 -0.3293
  230MPD1    C3 3491   1.433   1.790  14.906  0.0117  0.7468 -0.6467
  230MPD1    C4 3492   1.391   1.885  15.000 -0.2850  0.8461 -0.1568
  230MPD1    C5 3493   1.433   1.870  15.130 -0.1408 -0.1074 -0.1027
  230MPD1     H 3494   1.553   1.619  14.869 -0.7889  0.4489 -2.0695
  230MPD1    H1 3495   1.328   1.970  14.979 -0.3536  0.7208 -0.4572
  230MPD1    H2 3496   1.540   1.758  15.276  1.0037 -1.1240 -0.2757
  230MPD1    H3 3497   1.403   1.947  15.201  1.3002 -0.2162  0.6186
  230MPD1     N 3498   1.383   1.782  14.768  0.0671  0.2893  0.0641
  230MPD1    H5 3499   1.421   1.711  14.707  1.4926  0.5744  0.6065
  230MPD1    N1 3500   1.648   1.575  15.113  0.2597 -0.2445 -0.1205
  230MPD1    H6 3501   1.685   1.601  15.204 -0.8976  1.3539 -0.0977
  230MPD1    H7 3502   1.717   1.555  15.041 -0.2574 -0.5778 -0.5284
  231MPD1     C 3503   4.537   3.881  14.894 -0.1265 -0.1106 -0.0762
  231MPD1    C1 3504   4.486   3.845  14.771  0.3359 -0.8489  0.3751
  231MPD1    C2 3505   4.546   3.887  14.654 -0.1852  0.6982 -0.2245
  231MPD1    C3 3506   4.658   3.965  14.651 -0.3128  0.8021  0.2140
  231MPD1    C4 3507   4.711   3.995  14.778  0.0440 -0.3737  0.1541
  231MPD1    C5 3508   4.650   3.947  14.893 -0.0075 -0.9584 -0.5606
  231MPD1     H 3509   4.504   3.855  14.559  2.0420  1.8265 -1.5979
  231MPD1    H1 3510   0.081   4.050  14.789  1.4739 -2.0386 -3.4936
  231MPD1    H2 3511   4.497   3.858  14.991  0.4086 -0.4803  0.0574
  231MPD1    H3 3512   4.704   3.966  14.985 -1.2940  0.1827 -0.0332
  231MPD1     N 3513   4.711   4.007  14.531 -0.7121 -0.2183 -0.1643
  231MPD1    H5 3514   4.671   3.981  14.442  1.1513  1.4107 -1.4551
  231MPD1    N1 3515   4.364   3.780  14.774 -0.6172  0.7133  0.2251
  231MPD1    H6 3516   4.348   3.721  14.856  0.8793  3.4554  2.4861
  231MPD1    H7 3517   4.353   3.730  14.686  1.0437 -0.3018  0.6002
  232MPD1     C 3518   1.480   1.517  17.381  0.2417 -0.0393  0.5242
  232MPD1    C1 3519   1.448   1.412  17.298 -0.1151 -0.0537  0.5728
  232MPD1    C2 3520   1.324   1.359  17.303 -0.4987 -0.2564 -0.6024
  232MPD1    C3 3521   1.234   1.399  17.399  0.0198  0.3148  0.3350
  232MPD1    C4 3522   1.274   1.496  17.493  0.5399 -0.6565  0.1301
  232MPD1    C5 3523   1.393   1.556  17.476 -0.0570 -0.0785 -0.1166
  232MPD1     H 3524   1.295   1.273  17.243 -0.8318 -1.2827  1.0175
  232MPD1    H1 3525   1.217   1.533  17.577  1.7395  0.4808  0.4376
  232MPD1    H2 3526   1.566   1.581  17.364 -0.9441  1.2010 -0.7511
  232MPD1    H3 3527   1.425   1.641  17.535  0.7256 -1.1015  0.9364
  232MPD1     N 3528   1.102   1.345  17.397 -0.3115 -0.5218  0.5465
  232MPD1    H5 3529   1.077   1.289  17.316 -0.4382 -2.0478  1.6408
  232MPD1    N1 3530   1.550   1.375  17.206  0.6220  0.0237  0.1117
  232MPD1    H6 3531   1.550   1.276  17.181 -1.6424 -0.5788  2.4906
  232MPD1    H7 3532   1.644   1.389  17.242  0.0429 -2.9550  2.8874
  233MPD1     C 3533   3.258   0.404   1.463  0.4668 -0.2327  0.3225
  233MPD1    C1 3534   3.207   0.353   1.346 -0.0304  0.9155  0.4958
  233MPD1    C2 3535   3.170   0.219   1.347  0.0247 -1.3773  0.1394
  233MPD1    C3 3536   3.196   0.139   1.452 -0.1066 -0.0477 -0.5936
  233MPD1    C4 3537   3.254   0.194   1.564  0.0322  0.0541  0.3453
  233MPD1    C5 3538   3.280   0.326   1.577 -0.4346  0.1206  0.5977
  233MPD1     H 3539   3.129   0.175   1.257  1.8178  0.6513 -1.6387
  233MPD1    H1 3540   3.278   0.129   1.647 -2.7883  0.3969  1.4514
  233MPD1    H2 3541   3.305   0.502   1.469  1.6321 -0.8810  1.8139
  233MPD1    H3 3542   3.332   0.350   1.668  0.2525 -1.6425  0.6833
  233MPD1     N 3543   3.174   0.003   1.463 -0.0883 -0.4953 -0.6067
  233MPD1    H5 3544   3.232   4.682   1.533 -1.6408  1.4734  1.9217
  233MPD1    N1 3545   3.179   0.439   1.237 -0.0216  0.1791  0.2582
  233MPD1    H6 3546   3.263   0.496   1.229  1.0780 -1.4050  0.5242
  233MPD1    H7 3547   3.184   0.382   1.153 -0.9484  0.6190 -0.0955
  234MPD1     C 3548   4.254   3.069  10.422 -0.3021 -0.1592 -0.5970
  234MPD1    C1 3549   4.199   3.200  10.423 -0.6860 -0.5744  0.1508
  234MPD1    C2 3550   4.192   3.269  10.309 -0.1116 -0.0684  0.1516
  234MPD1    C3 3551   4.214   3.208  10.189  0.3406  0.3012 -0.1218
  234MPD1    C4 3552   4.235   3.068  10.191 -0.7175  0.3001 -0.9792
  234MPD1    C5 3553   4.259   3.000  10.309 -0.9675 -0.5670  0.5825
  234MPD1     H 3554   4.160   3.372  10.313  3.0538  0.9262 -0.8468
  234MPD1    H1 3555   4.234   3.009  10.099  3.1363 -1.8003  0.3417
  234MPD1    H2 3556   4.278   3.022  10.517 -1.2227 -0.5785 -0.5679
  234MPD1    H3 3557   4.277   2.893  10.306 -1.7447 -0.6531 -1.1400
  234MPD1     N 3558   4.171   3.277  10.071  0.2111 -0.5045  0.0405
  234MPD1    H5 3559   4.129   3.368  10.084 -0.1281 -0.5380 -0.8074
  234MPD1    N1 3560   4.175   3.272  10.543 -0.1680 -0.5903  0.0299
  234MPD1    H6 3561   4.102   3.343  10.539  0.1888 -0.2364 -0.1635
  234MPD1    H7 3562   4.136   3.213  10.617  1.9406  0.6683  2.1448
  235MPD1     C 3563   4.679   1.634  10.069  0.0008  0.3886  0.8685
  235MPD1    C1 3564   4.636   1.677   9.944  0.0056  0.2046 -0.5162
  235MPD1    C2 3565   0.007   1.679   9.842 -0.4132 -0.2435  0.5312
  235MPD1    C3 3566   0.137   1.655   9.875 -0.1468 -0.2595 -0.0620
  235MPD1    C4 3567   0.175   1.634  10.005  0.2189  0.0306 -0.4263
  235MPD1    C5 3568   0.081   1.624  10.104 -0.5257  0.1062  0.1772
  235MPD1     H 3569   4.700   1.688   9.738 -0.9217 -1.4266  0.5781
  235MPD1    H1 3570   0.278   1.628  10.038  0.5563 -1.1514 -1.7395
  235MPD1    H2 3571   4.609   1.626  10.152 -1.3199 -2.7557 -0.5258
  235MPD1    H3 3572   0.103   1.593  10.206 -1.8323 -0.2384  0.3581
  235MPD1     N 3573   0.230   1.678   9.773 -0.4207 -0.6251 -0.4169
  235MPD1    H5 3574   0.192   1.722   9.690 -1.0867  2.4468  1.5123
  235MPD1    N1 3575   4.497   1.682   9.918 -0.1788 -0.5977 -0.2935
  235MPD1    H6 3576   4.441   1.710   9.999 -0.6165 -1.4064 -0.3126
  235MPD1    H7 3577   4.472   1.752   9.849  0.4476 -1.5621 -1.4902
  236MPD1     C 3578   0.008   2.941   9.873  0.0092  0.0792 -0.3809
  236MPD1    C1 3579   4.693   2.820   9.853  0.4016 -0.0181  0.4381
  236MPD1    C2 3580   0.037   2.714   9.904  0.7037 -0.2350  0.1900
  236MPD1    C3 3581   0.148   2.739   9.982 -0.4484 -0.1108 -0.4858
  236MPD1    C4 3582   0.180   2.876  10.004  0.0569  0.6181  0.0445
  236MPD1    C5 3583   0.116   2.977   9.938 -0.2302  0.8007  0.6546
  236MPD1     H 3584   0.004   2.611   9.896  0.4248 -0.1699  0.5061
  236MPD1    H1 3585   0.262   2.898  10.072  1.1588  0.5509 -1.2528
  236MPD1    H2 3586   4.670   3.017   9.826  1.5164  0.6952 -1.3716
  236MPD1    H3 3587   0.130   3.084   9.941  0.5075  0.6692  2.0055
  236MPD1     N 3588   0.236   2.648  10.050  0.3050 -0.6092  0.7219
  236MPD1    H5 3589   0.296   2.685  10.123 -1.0586  0.8753  1.0812
  236MPD1    N1 3590   4.571   2.799   9.789  0.3083 -0.4333  0.1176
  236MPD1    H6 3591   4.589   2.725   9.721  2.0446 -1.0295  1.2329
  236MPD1    H7 3592   4.531   2.876   9.735 -1.0817 -0.5570  0.9869
  237MPD1     C 3593   4.518   4.290  15.411 -0.2872 -0.2904 -0.0088
  237MPD1    C1 3594   4.383   4.291  15.418  0.5427  0.0166  0.2480
  237MPD1    C2 3595   4.312   4.405  15.390 -0.0817  0.5645  0.1315
  237MPD1    C3 3596   4.373   4.514  15.332 -0.2103  1.0593  0.0558
  237MPD1    C4 3597   4.511   4.515  15.319  0.0323  0.4679 -0.2398
  237MPD1    C5 3598   4.583   4.402  15.361  0.2323  0.2148  0.3551
  237MPD1     H 3599   4.204   4.405  15.399  0.1476  0.9132  2.9034
  237MPD1    H1 3600   4.562   4.594  15.266  0.6468 -0.0195 -0.3790
  237MPD1    H2 3601   4.583   4.210  15.445 -1.4724 -0.4589  1.8421
  237MPD1    H3 3602   4.691   4.409  15.351 -0.0544  0.9829 -2.0261
  237MPD1     N 3603   4.288   4.614  15.270  0.1258 -0.1316 -0.5983
  237MPD1    H5 3604   4.337   4.697  15.239  0.3243 -0.6309 -1.6040
  237MPD1    N1 3605   4.322   4.182  15.478 -0.2470 -0.2312 -0.0107
  237MPD1    H6 3606   4.382   4.102  15.460  1.7552  1.7787 -2.2699
  237MPD1    H7 3607   4.226   4.167  15.447 -0.0891  1.1139 -1.1438
  238MPD1     C 3608   1.687   3.702  15.052  0.7223 -0.1110 -0.3880
  238MPD1    C1 3609   1.691   3.811  14.965 -0.6238  0.2578  0.1273
  238MPD1    C2 3610   1.577   3.840  14.892  0.4467 -0.4587 -0.2865
  238MPD1    C3 3611   1.457   3.774  14.919 -0.0491 -0.2895  0.3167
  238MPD1    C4 3612   1.451   3.681  15.027 -0.4179 -0.1701  0.2252
  238MPD1    C5 3613   1.570   3.649  15.089  0.3860 -0.0824  0.0510
  238MPD1     H 3614   1.584   3.897  14.800 -1.2037  0.0166 -0.1149
  238MPD1    H1 3615   1.357   3.635  15.055  0.2551 -2.1959 -0.8259
  238MPD1    H2 3616   1.779   3.665  15.096  1.0104 -1.7270 -2.3631
  238MPD1    H3 3617   1.578   3.575  15.168 -3.4420 -0.6252 -0.0453
  238MPD1     N 3618   1.337   3.813  14.862  0.4263  0.1149 -0.2638
  238MPD1    H5 3619   1.263   3.744  14.874  0.7837 -0.4723 -1.5133
  238MPD1    N1 3620   1.812   3.857  14.912  0.1258  0.5392 -0.0309
  238MPD1    H6 3621   1.873   3.867  14.993  1.2889  1.4147 -1.0193
  238MPD1    H7 3622   1.805   3.947  14.866 -1.1165  1.0502  1.1535
  239MPD1     C 3623   1.493   0.268  14.550 -0.0454  0.2003 -0.0922
  239MPD1    C1 3624   1.353   0.258  14.573  0.0756  1.2449 -0.3438
  239MPD1    C2 3625   1.270   0.290  14.473  0.1290  0.7523  0.7402
  239MPD1    C3 3626   1.319   0.332  14.347 -0.3679 -0.8858  0.1280
  239MPD1    C4 3627   1.457   0.330  14.320  0.7488 -0.3549 -0.4229
  239MPD1    C5 3628   1.543   0.304  14.427  0.5646 -0.0873  0.3764
  239MPD1     H 3629   1.167   0.307  14.504 -0.1321 -0.2799  0.4246
  239MPD1    H1 3630   1.503   0.362  14.228 -0.8012 -0.0322 -1.0981
  239MPD1    H2 3631   1.570   0.253  14.625  0.1369  0.4765 -0.2251
  239MPD1    H3 3632   1.647   0.322  14.400 -0.3069  1.6048 -1.8911
  239MPD1     N 3633   1.243   0.372  14.237 -0.1034 -0.0949 -0.2231
  239MPD1    H5 3634   1.289   0.408  14.154  0.6382  0.7805  0.5675
  239MPD1    N1 3635   1.304   0.251  14.700  0.2842  0.0567 -0.5326
  239MPD1    H6 3636   1.203   0.254  14.700  0.2942  0.0893 -1.6730
  239MPD1    H7 3637   1.334   0.178  14.766  0.3817 -1.6249 -2.4449
  240MPD1     C 3638   1.230   4.571  13.869 -0.0673  0.1386 -0.5834
  240MPD1    C1 3639   1.096   4.584  13.905 -0.2167 -0.0479 -0.0595
  240MPD1    C2 3640   1.038   4.496  13.994 -0.6722  0.6450 -0.1911
  240MPD1    C3 3641   1.118   4.423  14.079  0.4063 -0.0355 -0.4760
  240MPD1    C4 3642   1.255   4.424  14.061  0.2333  0.2211 -0.3561
  240MPD1    C5 3643   1.305   4.488  13.951 -0.0261 -0.4790 -0.2485
  240MPD1     H 3644   0.933   4.487  14.020 -1.1581  1.2283 -1.9604
  240MPD1    H1 3645   1.321   4.366  14.124  0.1357 -2.2320 -2.5518
  240MPD1    H2 3646   1.278   4.628  13.791 -0.9295 -1.6100 -2.3956
  240MPD1    H3 3647   1.413   4.486  13.939  0.2254 -1.7801  2.2996
  240MPD1     N 3648   1.055   4.352  14.183 -0.1190 -0.2907 -0.6379
  240MPD1    H5 3649   0.957   4.327  14.176 -0.2061  0.4311 -2.0807
  240MPD1    N1 3650   1.013   4.663  13.819 -0.1962  0.2915 -0.7075
  240MPD1    H6 3651   1.064   0.017  13.778 -0.0580  0.1669 -0.7700
  240MPD1    H7 3652   0.942   4.709  13.876 -1.8722 -2.2657 -0.7315
  241MPD1     C 3653   1.213   4.272  15.180 -0.2631 -0.1727  0.4457
  241MPD1    C1 3654   1.139   4.157  15.146 -0.4879  0.6692 -0.5058
  241MPD1    C2 3655   1.080   4.158  15.017  0.1335  0.0234 -0.2513
  241MPD1    C3 3656   1.113   4.251  14.919  0.3394 -0.3985  0.5376
  241MPD1    C4 3657   1.194   4.358  14.960 -0.6984  0.1516  0.1628
  241MPD1    C5 3658   1.242   4.368  15.086  0.4331 -0.2790 -0.5391
  241MPD1     H 3659   1.000   4.089  14.996  0.3121 -0.3386  0.2554
  241MPD1    H1 3660   1.222   4.433  14.887  2.0707 -1.2871 -0.2566
  241MPD1    H2 3661   1.262   4.294  15.274  1.3786  0.0670 -0.4688
  241MPD1    H3 3662   1.307   4.447  15.121 -1.1290  0.6028  0.3829
  241MPD1     N 3663   1.066   4.256  14.784  0.3862  0.2832  0.5813
  241MPD1    H5 3664   1.096   4.335  14.729  1.6450 -0.3534  0.3704
  241MPD1    N1 3665   1.079   4.075  15.244  0.1150  0.4862 -0.6408
  241MPD1    H6 3666   1.146   4.058  15.319 -1.3455 -2.0473  0.0881
  241MPD1    H7 3667   1.055   3.984  15.206 -1.0021  0.6497 -0.3182
  242MPD1     C 3668   1.553   3.405  14.891  0.4313 -0.7163 -0.0237
  242MPD1    C1 3669   1.454   3.375  14.798 -0.0299  0.1040  0.3935
  242MPD1    C2 3670   1.391   3.250  14.817  1.1784  0.1409 -0.2061
  242MPD1    C3 3671   1.424   3.159  14.917  0.1992 -0.4940 -0.1947
  242MPD1    C4 3672   1.526   3.180  15.001 -0.0581  0.0560 -0.4115
  242MPD1    C5 3673   1.597   3.300  14.978  0.6552  0.0204 -0.1443
  242MPD1     H 3674   1.306   3.234  14.751  0.6675  1.0058  0.2449
  242MPD1    H1 3675   1.574   3.108  15.067  2.6132 -0.5551 -3.0258
  242MPD1    H2 3676   1.618   3.489  14.867 -0.1297 -0.5618 -0.9855
  242MPD1    H3 3677   1.683   3.315  15.041  0.3616  1.5406 -0.0856
  242MPD1     N 3678   1.358   3.035  14.936 -0.8994 -0.8030 -0.1200
  242MPD1    H5 3679   1.394   2.988  15.018  0.6740  0.1234 -0.2778
  242MPD1    N1 3680   1.408   3.469  14.702  0.4036  0.0752  0.0670
  242MPD1    H6 3681   1.471   3.545  14.676  0.3590  0.0781 -0.0346
  242MPD1    H7 3682   1.366   3.427  14.619 -2.2718  1.8931  0.4874
  243MPD1     C 3683   2.332   0.721  17.219 -0.1747  0.0815 -0.5295
  243MPD1    C1 3684   2.445   0.685  17.151  0.9913 -0.1528  0.5820
  243MPD1    C2 3685   2.444   0.661  17.015  0.0398  0.7849 -0.1561
  243MPD1    C3 3686   2.320   0.676  16.949 -0.0728  0.4590 -0.5899
  243MPD1    C4 3687   2.200   0.701  17.018  0.1890  0.3739  0.2984
  243MPD1    C5 3688   2.212   0.723  17.153  0.3009  0.5963  0.0253
  243MPD1     H 3689   2.538   0.639  16.965  0.6680 -1.0798  1.8353
  243MPD1    H1 3690   2.099   0.700  16.979  0.5055  3.0885 -0.5836
  243MPD1    H2 3691   2.334   0.751  17.323  1.0770  0.4607 -0.6585
  243MPD1    H3 3692   2.127   0.737  17.219 -0.6493  1.0469 -1.3047
  243MPD1     N 3693   2.338   0.656  16.808 -0.1385  0.3262  0.0147
  243MPD1    H5 3694   2.435   0.651  16.778 -0.2761 -0.4026 -0.3009
  243MPD1    N1 3695   2.567   0.682  17.212  0.2453 -0.1006  0.2527
  243MPD1    H6 3696   2.632   0.616  17.170  0.5671  1.6763 -2.0060
  243MPD1    H7 3697   2.561   0.655  17.310  2.3700  0.2043  0.4754
  244MPD1     C 3698   1.890   0.075  15.988 -0.2662  0.6023  0.8599
  244MPD1    C1 3699   1.965   0.172  15.931 -0.4320  0.5171  0.0800
  244MPD1    C2 3700   2.038   0.258  16.011 -0.0189 -0.1993  0.3651
  244MPD1    C3 3701   2.041   0.237  16.151 -0.7083  0.8632  0.9474
  244MPD1    C4 3702   1.959   0.141  16.211 -1.0153 -0.0776 -0.1764
  244MPD1    C5 3703   1.887   0.069  16.122 -1.0913  0.7602 -0.8040
  244MPD1     H 3704   2.084   0.347  15.971 -0.0149  0.4836  1.8907
  244MPD1    H1 3705   1.943   0.129  16.317 -0.9648 -0.4815 -0.2142
  244MPD1    H2 3706   1.836   4.722  15.933  2.1992 -0.7311  0.3035
  244MPD1    H3 3707   1.820   4.714  16.158 -1.3517  0.9433 -0.8898
  244MPD1     N 3708   2.132   0.321  16.227  0.2962  0.0779  0.3220
  244MPD1    H5 3709   2.194   0.382  16.175 -0.0619  0.4026  0.2781
  244MPD1    N1 3710   1.984   0.176  15.791  0.1431  0.0504  0.1644
  244MPD1    H6 3711   1.903   0.132  15.749  0.7834 -1.1783  0.2076
  244MPD1    H7 3712   2.012   0.269  15.761  0.3323  0.7265  2.4197
  245MPD1     C 3713   3.753   1.884  12.953  0.0417 -0.1037  0.0724
  245MPD1    C1 3714   3.754   1.896  13.090 -0.6590 -0.7686  0.0494
  245MPD1    C2 3715   3.809   2.005  13.143 -0.0446 -0.2751 -0.3829
  245MPD1    C3 3716   3.847   2.109  13.072 -0.2323 -0.4515  0.0272
  245MPD1    C4 3717   3.842   2.100  12.931  0.1750 -0.1677 -0.7094
  245MPD1    C5 3718   3.799   1.984  12.875 -0.4947 -0.2617  0.2710
  245MPD1     H 3719   3.816   2.005  13.251  1.4127  0.8101 -0.4727
  245MPD1    H1 3720   3.888   2.165  12.858 -0.0139  0.0429 -0.6415
  245MPD1    H2 3721   3.731   1.790  12.904  2.0485 -0.9437  0.8209
  245MPD1    H3 3722   3.803   1.978  12.767  0.0140  2.0256  0.1649
  245MPD1     N 3723   3.915   2.209  13.136  0.6294  0.4521 -0.0589
  245MPD1    H5 3724   3.923   2.201  13.236  0.0660 -0.5267 -0.0880
  245MPD1    N1 3725   3.719   1.786  13.167 -0.6645  0.0450 -0.0099
  245MPD1    H6 3726   3.662   1.815  13.246 -0.5683  0.0681  0.0507
  245MPD1    H7 3727   3.663   1.724  13.109  2.8701 -1.7283 -1.4685
  246MPD1     C 3728   2.567   3.771   9.090 -0.1088  0.2387  0.2834
  246MPD1    C1 3729   2.551   3.780   8.955 -0.2778 -0.2443  0.4323
  246MPD1    C2 3730   2.666   3.788   8.876  0.2663  0.6717  0.1439
  246MPD1    C3 3731   2.787   3.798   8.933  0.0825  0.0872  0.2816
  246MPD1    C4 3732   2.804   3.796   9.075 -0.0025  0.0850 -0.0742
  246MPD1    C5 3733   2.688   3.777   9.146  0.2594 -0.4628  0.2651
  246MPD1     H 3734   2.661   3.812   8.770 -0.7022 -1.4085 -0.2978
  246MPD1    H1 3735   2.897   3.790   9.131  0.6398 -0.1319 -1.1633
  246MPD1    H2 3736   2.476   3.754   9.147 -2.2978  1.0058 -3.0170
  246MPD1    H3 3737   2.689   3.782   9.254 -2.3966 -2.0373  0.3734
  246MPD1     N 3738   2.902   3.807   8.846  0.6492  0.3468  0.0664
  246MPD1    H5 3739   2.879   3.789   8.748 -3.0342  1.8421  0.6722
  246MPD1    N1 3740   2.416   3.783   8.898 -0.1279 -0.2844 -0.2011
  246MPD1    H6 3741   2.345   3.745   8.960  1.8263 -0.6429  1.8429
  246MPD1    H7 3742   2.420   3.726   8.814 -0.1495 -1.0077  0.2820
  247MPD1     C 3743   2.731   1.414  15.534 -0.2102  0.7942 -0.0920
  247MPD1    C1 3744   2.832   1.496  15.561  0.1863 -0.3861  0.2685
  247MPD1    C2 3745   2.960   1.443  15.563 -0.8895 -0.2803  0.4246
  247MPD1    C3 3746   2.979   1.300  15.564 -0.3605  0.0930  0.8089
  247MPD1    C4 3747   2.871   1.217  15.534  0.0829  0.0894  0.0412
  247MPD1    C5 3748   2.753   1.280  15.518  0.5903  0.0596  0.1820
  247MPD1     H 3749   3.040   1.514  15.575 -0.8561 -0.5392  1.7312
  247MPD1    H1 3750   2.871   1.109  15.525  1.2303  0.0724  0.2057
  247MPD1    H2 3751   2.629   1.451  15.532  0.1694  1.8657  0.0378
  247MPD1    H3 3752   2.672   1.213  15.492  1.9482 -1.6042  0.2266
  247MPD1     N 3753   3.102   1.236  15.591 -0.3162  0.0187  0.7142
  247MPD1    H5 3754   3.107   1.134  15.592 -2.1528 -0.0690  0.7389
  247MPD1    N1 3755   2.814   1.635  15.558  0.5496 -0.4036 -0.4009
  247MPD1    H6 3756   2.893   1.697  15.571 -0.4569  0.6503  0.7704
  247MPD1    H7 3757   2.746   1.670  15.626  0.7827  1.1557 -0.9728
  248MPD1     C 3758   0.219   1.801  16.856  0.3663 -0.0966 -0.4579
  248MPD1    C1 3759   0.201   1.922  16.910 -0.9789 -0.3950 -0.7014
  248MPD1    C2 3760   0.115   1.928  17.020 -0.4419  0.8375 -0.0545
  248MPD1    C3 3761   0.051   1.813  17.074  0.0926  1.1653  0.6360
  248MPD1    C4 3762   0.076   1.694  17.015 -0.8512 -0.2158 -0.4642
  248MPD1    C5 3763   0.162   1.690  16.907 -0.3800 -0.6806  0.1562
  248MPD1     H 3764   0.081   2.024  17.059  0.2603  0.9717  0.2339
  248MPD1    H1 3765   0.025   1.602  17.044  2.4064 -0.9583  2.8296
  248MPD1    H2 3766   0.294   1.794  16.777 -1.0255  2.6881 -1.9977
  248MPD1    H3 3767   0.174   1.594  16.857  0.9009 -1.2954  1.6537
  248MPD1     N 3768   4.689   1.827  17.184  0.5787 -0.1212 -0.4982
  248MPD1    H5 3769   4.686   1.922  17.221 -1.3450 -1.4619  2.7220
  248MPD1    N1 3770   0.245   2.036  16.841 -0.0485 -0.0460 -0.8397
  248MPD1    H6 3771   0.228   2.117  16.900 -3.5680 -1.0901 -0.4140
  248MPD1    H7 3772   0.211   2.052  16.747  1.3379 -0.2058 -1.3743
  249MPD1     C 3773   0.231   4.460  10.638  0.0149  0.4220  0.3694
  249MPD1    C1 3774   0.130   4.429  10.550  0.4327 -0.2173  0.2636
  249MPD1    C2 3775   0.149   4.458  10.414  0.7339  0.0956 -0.6697
  249MPD1    C3 3776   0.249   4.540  10.372  0.8403 -0.1072 -0.6661
  249MPD1    C4 3777   0.345   4.581  10.467 -0.5789 -0.1586 -0.5306
  249MPD1    C5 3778   0.328   4.538  10.597 -0.0946  0.0825  0.4729
  249MPD1     H 3779   0.073   4.413  10.351  0.5494  1.1025 -1.1726
  249MPD1    H1 3780   0.434   4.638  10.444 -0.7958  0.9491  1.3357
  249MPD1    H2 3781   0.221   4.444  10.745 -0.5223 -1.7548 -0.0061
  249MPD1    H3 3782   0.408   4.564  10.666  0.7557 -1.6249  0.1324
  249MPD1     N 3783   0.263   4.569  10.234  0.4579 -0.0645 -0.9166
  249MPD1    H5 3784   0.188   4.534  10.177  0.2501  1.3434 -1.4995
  249MPD1    N1 3785   0.030   4.348  10.597 -0.2160 -0.4756 -0.5464
  249MPD1    H6 3786   0.026   4.360  10.698  1.0070 -0.8366 -0.4602
  249MPD1    H7 3787   4.667   4.373  10.548  0.6330  0.9713 -1.2954
  250MPD2     C 3788   1.828   0.776  13.108 -0.7325 -0.2148 -0.5504
  250MPD2    C1 3789   1.828   0.809  12.973 -0.0964  0.6005  0.4296
  250MPD2    C2 3790   1.793   0.709  12.879  0.7464 -0.3174  0.1240
  250MPD2    C3 3791   1.749   0.584  12.928 -0.2770  0.7197  0.4508
  250MPD2    C4 3792   1.740   0.562  13.063 -0.5340  0.0946  0.1164
  250MPD2    C5 3793   1.785   0.657  13.151  0.9576  0.2688  0.2121
  250MPD2     H 3794   1.771   0.724  12.774  2.3091 -1.3005 -0.3494
  250MPD2    H1 3795   1.704   0.468  13.104  0.0284  0.0009  0.3969
  250MPD2    H2 3796   1.843   0.851  13.185  2.1945 -0.4630 -0.8556
  250MPD2    H3 3797   1.775   0.641  13.258 -0.4290  0.4825  0.1060
  250MPD2     N 3798   1.700   0.472  12.847  0.1424  0.4572  0.3402
  250MPD2    H5 3799   1.658   0.397  12.902 -3.8024  4.1784  2.3858
  250MPD2    N1 3800   1.854   0.944  12.944  0.6239  0.3661 -0.0256
  250MPD2    H7 3801   1.851   1.008  13.024 -0.5517 -0.2985  0.4637
  251TMC3    C1 3802   1.894   1.133  12.814 -0.5231 -0.6933 -0.0943
  251TMC3    C2 3803   1.961   1.190  12.915  1.0626  1.1699  0.9775
  251TMC3    C3 3804   2.011   1.318  12.890  0.3881 -0.2892 -0.1665
  251TMC3    C4 3805   1.886   1.181  12.689 -0.0909 -0.0332  0.0472
  251TMC3    C5 3806   1.947   1.296  12.659  0.3266 -0.0092  0.1851
  251TMC3    C6 3807   2.007   1.370  12.763 -1.2127 -0.0458  0.5357
  251TMC3     C 3808   1.864   0.992  12.817 -0.5447  0.3309 -0.2277
  251TMC3     O 3809   1.866   0.940  12.708 -0.1969 -0.1871  0.0388
  251TMC3     H 3810   1.976   1.141  13.011 -2.3037  1.1443  1.4994
  251TMC3    H1 3811   1.814   1.143  12.617  1.3208 -1.3701 -0.6525
  251TMC3    H2 3812   2.066   1.458  12.742  1.3555 -1.2822  2.5847
  251TMC3    C7 3813   2.020   1.303  12.533 -0.6096 -0.0530  0.5696
  251TMC3    C8 3814   2.109   1.370  12.981 -0.1001 -0.5328 -0.3543
  251TMC3    O1 3815   2.094   1.400  12.518  0.5818  0.4363  0.1120
  251TMC3    O2 3816   2.102   1.491  13.010 -0.2986 -0.0645 -0.3908
  252TMC3    C1 3817   3.791   2.272   9.104 -0.4818 -0.1498 -0.1823
  252TMC3    C2 3818   3.874   2.376   9.130  0.6888 -0.5206  0.8033
  252TMC3    C3 3819   3.995   2.341   9.188  1.0691  0.1722  0.3342
  252TMC3    C4 3820   3.817   2.139   9.132 -0.0777 -0.4160 -0.8905
  252TMC3    C5 3821   3.940   2.112   9.174  0.4412 -0.2439  0.1300
  252TMC3    C6 3822   4.029   2.210   9.204 -0.5020  0.1160 -0.0725
  252TMC3     C 3823   3.652   2.303   9.061  0.0136  0.3025 -0.3349
  252TMC3     O 3824   3.586   2.206   9.017 -0.4616  0.3787 -0.2232
  252TMC3     H 3825   3.860   2.481   9.104  2.5752 -0.3599  0.4933
  252TMC3    H1 3826   3.744   2.068   9.094  0.5456 -1.5660  0.0620
  252TMC3    H2 3827   4.136   2.192   9.206 -0.6801 -1.0618 -0.7712
  252TMC3    C7 3828   3.990   1.973   9.181 -0.1558 -0.3798 -0.5871
  252TMC3    C8 3829   4.079   2.452   9.229  0.4685 -0.0945 -0.4617
  252TMC3    O1 3830   4.113   1.968   9.188 -0.2203 -0.4487 -0.5298
  252TMC3    O2 3831   4.076   2.556   9.170 -0.0051 -0.0673 -0.3712
  253MPD2     C 3832   3.983   0.149  15.478 -0.0892  0.0339  0.0495
  253MPD2    C1 3833   3.853   0.190  15.494 -0.6932 -0.1874  0.6017
  253MPD2    C2 3834   3.772   0.123  15.581 -0.2975  0.4380  0.0057
  253MPD2    C3 3835   3.820   0.018  15.656  0.5535  0.1678 -0.1609
  253MPD2    C4 3836   3.953   4.706  15.646  0.1875 -0.0702 -0.4039
  253MPD2    C5 3837   4.034   0.051  15.557 -0.1902 -0.3260 -0.3900
  253MPD2     H 3838   3.666   0.146  15.586  0.2560  2.8080  0.9728
  253MPD2    H1 3839   3.996   4.627  15.708 -1.1147 -0.8652 -0.5088
  253MPD2    H2 3840   4.046   0.194  15.401 -0.9065  0.2693 -0.4756
  253MPD2    H3 3841   4.138   0.022  15.554  0.3571  1.7093 -0.6737
  253MPD2     N 3842   3.742   4.668  15.751  0.5201 -0.7443  0.2763
  253MPD2    H5 3843   3.790   4.598  15.806  0.4876 -1.6732 -0.8767
  253MPD2    N1 3844   3.787   0.274  15.409  0.7790 -0.2199 -0.1466
  253MPD2    H7 3845   3.687   0.263  15.403  0.9101 -0.9873 -1.0137
  254TMC3    C1 3846   3.547   4.624  15.876 -0.6938 -0.1577 -0.5022
  254TMC3    C2 3847   3.410   4.643  15.883 -0.2921 -0.0907 -0.1049
  254TMC3    C3 3848   3.358   4.695  16.000  0.4214 -0.2920  0.1432
  254TMC3    C4 3849   3.626   4.632  15.990  0.6869  0.1881  0.0230
  254TMC3    C5 3850   3.565   4.671  16.108  0.2067  0.5286  0.5775
  254TMC3    C6 3851   3.429   4.710  16.112 -0.1566 -0.4812 -0.0955
  254TMC3     C 3852   3.603   4.681  15.757 -0.5056 -0.0171 -0.2007
  254TMC3     O 3853   3.525   0.019  15.685 -0.3774 -0.2889 -0.2291
  254TMC3     H 3854   3.345   4.638  15.796  0.9430 -2.0553 -0.9013
  254TMC3    H1 3855   3.733   4.611  15.991  0.9501  1.4722 -0.4618
  254TMC3    H2 3856   3.403   0.054  16.193 -1.6396 -0.5632 -0.5192
  254TMC3    C7 3857   3.625   4.632  16.232 -0.4385 -0.6326  0.0940
  254TMC3    C8 3858   3.268   0.086  15.982  0.6466 -0.3119 -0.0685
  254TMC3    O1 3859   3.745   4.626  16.244 -0.3788  0.0042 -0.4733
  254TMC3    O2 3860   3.201   0.109  16.078 -0.7272 -0.1990 -0.0245
  255MPD2     C 3861   2.706   3.658  10.569  0.2178 -0.0867 -0.3055
  255MPD2    C1 3862   2.652   3.642  10.447  0.3704  0.7930  0.5009
  255MPD2    C2 3863   2.736   3.633  10.342  0.3599 -0.0714  0.0357
  255MPD2    C3 3864   2.876   3.635  10.362 -0.4182  0.2984 -0.5972
  255MPD2    C4 3865   2.930   3.654  10.493  0.2658  0.0926 -0.5641
  255MPD2    C5 3866   2.842   3.669  10.591  1.3414  0.2658 -0.5203
  255MPD2     H 3867   2.699   3.605  10.244  0.4983 -0.3064  0.0515
  255MPD2    H1 3868   3.034   3.660  10.520  0.2709 -2.2833 -0.0748
  255MPD2    H2 3869   2.632   3.661  10.648 -1.2524 -0.3863 -1.6454
  255MPD2    H3 3870   2.881   3.682  10.691  0.5153 -0.6369 -0.0811
  255MPD2     N 3871   2.948   3.609  10.247  0.1335  0.1332  0.7219
  255MPD2    H5 3872   2.904   3.625  10.157 -0.3305 -2.5501  0.4785
  255MPD2    N1 3873   2.511   3.634  10.432  0.0343 -0.1254 -0.1030
  255MPD2    H7 3874   2.457   3.619  10.516 -0.3630  0.7111 -0.2022
  256TMC3    C1 3875   2.343   3.563  10.278 -0.3295 -0.3979  0.5326
  256TMC3    C2 3876   2.277   3.588  10.160  0.2987  0.0591 -0.6189
  256TMC3    C3 3877   2.199   3.486  10.106 -0.4203  0.5302 -0.0196
  256TMC3    C4 3878   2.328   3.448  10.341  0.0668 -0.4506 -0.1850
  256TMC3    C5 3879   2.255   3.348  10.284  0.7527 -0.2166  0.9894
  256TMC3    C6 3880   2.194   3.360  10.165  0.8374 -0.4922 -0.9426
  256TMC3     C 3881   2.451   3.650  10.309  0.5262 -0.3297 -1.0731
  256TMC3     O 3882   2.490   3.708  10.210  0.2847 -0.0029 -0.0325
  256TMC3     H 3883   2.288   3.680  10.103  0.5911 -1.1015 -2.4573
  256TMC3    H1 3884   2.391   3.420  10.424  1.0534  1.1140 -0.4146
  256TMC3    H2 3885   2.142   3.276  10.122 -1.0826  0.6107 -0.7519
  256TMC3    C7 3886   2.286   3.207  10.321 -0.3482  0.4663 -0.6400
  256TMC3    C8 3887   2.175   3.491   9.966 -0.0453  0.3221  0.2096
  256TMC3    O1 3888   2.201   3.124  10.297 -0.0049  0.0355 -0.3642
  256TMC3    O2 3889   2.252   3.558   9.901  0.1450  0.3370 -0.1982
  257MPD2     C 3890   0.763   0.706  12.997  0.0020 -0.0852 -0.3381
  257MPD2    C1 3891   0.891   0.744  12.976 -0.4118 -0.4622  0.1002
  257MPD2    C2 3892   0.985   0.638  12.996  0.8764  0.5910 -0.0756
  257MPD2    C3 3893   0.961   0.515  13.058 -0.3066 -0.0982 -0.1404
  257MPD2    C4 3894   0.837   0.494  13.098 -0.6239  0.1799  0.4091
  257MPD2    C5 3895   0.738   0.586  13.059  0.1276  0.3312 -0.3433
  257MPD2     H 3896   1.091   0.648  12.977  0.7630 -0.0495 -1.0249
  257MPD2    H1 3897   0.807   0.403  13.148  0.7116 -0.6296 -0.2854
  257MPD2    H2 3898   0.686   0.782  12.991 -0.2704 -0.4396 -1.3843
  257MPD2    H3 3899   0.637   0.581  13.098  0.2558 -0.6033 -0.1363
  257MPD2     N 3900   1.058   0.411  13.076  0.1952  0.1918 -0.0412
  257MPD2    H5 3901   1.144   0.420  13.023  0.9855  1.6945  1.4799
  257MPD2    N1 3902   0.921   0.864  12.911 -0.2044  0.4492 -0.1224
  257MPD2    H7 3903   0.836   0.916  12.892 -1.0653 -0.4597  1.2465
  258TMC3    C1 3904   1.135   0.192  13.110  0.2703 -0.1165 -0.1519
  258TMC3    C2 3905   1.194   0.194  12.992  0.3151 -0.2224 -0.0228
  258TMC3    C3 3906   1.286   0.094  12.959 -0.8350  0.2651 -0.7189
  258TMC3    C4 3907   1.149   0.088  13.196 -0.3044 -0.4264 -0.2633
  258TMC3    C5 3908   1.240   4.718  13.164 -0.0080  0.1571  0.4277
  258TMC3    C6 3909   1.323   4.719  13.055 -0.1103  0.4361 -0.5684
  258TMC3     C 3910   1.053   0.296  13.154  0.4832 -0.4897  1.0596
  258TMC3     O 3911   0.968   0.258  13.231 -0.2079 -0.0622  0.2958
  258TMC3     H 3912   1.173   0.264  12.912 -0.1700  0.7175  0.9275
  258TMC3    H1 3913   1.096   0.090  13.291  0.7503  1.4286  0.3047
  258TMC3    H2 3914   1.383   4.634  13.025 -0.2349  0.3151 -0.4763
  258TMC3    C7 3915   1.241   4.599  13.251  0.6262 -0.4767 -1.0820
  258TMC3    C8 3916   1.282   0.053  12.819  0.0663 -0.0502  0.3672
  258TMC3    O1 3917   1.133   4.568  13.299 -0.0755  0.6256  0.3808
  258TMC3    O2 3918   1.194   0.107  12.754  0.2100 -0.3337  0.2094
  259MPD2     C 3919   0.404   0.800   1.419  0.2296 -0.2340  0.3869
  259MPD2    C1 3920   0.309   0.838   1.328  0.2944  0.6799  0.0059
  259MPD2    C2 3921   0.348   0.846   1.195 -0.1903  1.0107 -0.2808
  259MPD2    C3 3922   0.474   0.799   1.153 -0.1949 -0.2072  0.4498
  259MPD2    C4 3923   0.557   0.752   1.251  0.2027  0.9267 -0.2511
  259MPD2    C5 3924   0.530   0.758   1.384  0.2024  0.5998  0.1574
  259MPD2     H 3925   0.279   0.883   1.121  0.6485  0.9699 -1.0839
  259MPD2    H1 3926   0.655   0.718   1.221  0.1191  3.2106 -3.1439
  259MPD2    H2 3927   0.372   0.806   1.522 -1.9911  1.5382 -0.3885
  259MPD2    H3 3928   0.609   0.736   1.454 -0.1673  2.7193  1.2184
  259MPD2     N 3929   0.514   0.803   1.016 -0.2034 -0.0948 -0.4953
  259MPD2    H5 3930   0.452   0.849   0.950 -1.4747  0.4163  1.0551
  259MPD2    N1 3931   0.182   0.870   1.372  0.2117 -0.2015 -0.1093
  259MPD2    H7 3932   0.167   0.857   1.472  0.9809  1.2306  0.1853
  260TMC3    C1 3933   0.649   0.792   0.823  0.1159 -0.4858  0.0314
  260TMC3    C2 3934   0.577   0.898   0.775  0.1973 -0.5216 -0.7742
  260TMC3    C3 3935   0.626   0.955   0.655  0.2240  0.3608  0.7017
  260TMC3    C4 3936   0.756   0.737   0.761 -0.4013  0.4928  0.3686
  260TMC3    C5 3937   0.795   0.802   0.642 -0.0349 -0.7700  0.2979
  260TMC3    C6 3938   0.729   0.906   0.587 -0.4142  0.1109 -0.2105
  260TMC3     C 3939   0.634   0.764   0.964 -0.1645  0.0644 -0.0301
  260TMC3     O 3940   0.728   0.704   1.015  0.6099  0.1065  0.2020
  260TMC3     H 3941   0.495   0.944   0.828 -0.6587 -0.4134 -2.2083
  260TMC3    H1 3942   0.801   0.646   0.800 -1.8819 -0.1909  0.4807
  260TMC3    H2 3943   0.771   0.961   0.504  1.3157  0.2268  0.7331
  260TMC3    C7 3944   0.855   0.735   0.531 -0.5768 -0.2993  0.7466
  260TMC3    C8 3945   0.555   1.072   0.606  0.0502 -0.9585 -0.0609
  260TMC3    O1 3946   0.800   0.749   0.422 -0.0839  0.2667  0.1424
  260TMC3    O2 3947   0.488   1.126   0.690 -0.6232  0.1432  0.3649
  261MPD2     C 3948   1.291   0.409  12.112 -0.8163 -0.6445 -0.1645
  261MPD2    C1 3949   1.418   0.455  12.155  0.5195 -0.6946  0.0950
  261MPD2    C2 3950   1.491   0.543  12.079  0.3294  1.0605 -0.7502
  261MPD2    C3 3951   1.452   0.578  11.956 -0.2061 -0.3012 -0.0198
  261MPD2    C4 3952   1.333   0.525  11.915 -0.5234 -0.3695 -0.5136
  261MPD2    C5 3953   1.256   0.440  11.988  0.6955 -0.4432  0.0120
  261MPD2     H 3954   1.589   0.575  12.111 -0.9799  2.3933  1.9301
  261MPD2    H1 3955   1.299   0.554  11.816  1.0972  2.6403 -0.2045
  261MPD2    H2 3956   1.230   0.345  12.175  3.1025 -0.4903  3.7484
  261MPD2    H3 3957   1.169   0.396  11.942  1.1763 -1.0739 -0.2878
  261MPD2     N 3958   1.533   0.663  11.879 -0.2672  0.0589  0.3061
  261MPD2    H5 3959   1.615   0.700  11.926  0.4829 -0.8844 -0.2834
  261MPD2    N1 3960   1.482   0.410  12.282  0.3630  0.4210 -0.8469
  261MPD2    H7 3961   1.558   0.468  12.316  2.3409 -2.4950 -0.3993
  262TMC3    C1 3962   1.638   0.754  11.714 -0.6702  0.5019  0.0910
  262TMC3    C2 3963   1.674   0.874  11.764  0.8805  1.0794 -0.3061
  262TMC3    C3 3964   1.795   0.918  11.725 -0.4728 -0.4601 -1.0159
  262TMC3    C4 3965   1.698   0.686  11.619 -0.8617 -0.1703  0.1779
  262TMC3    C5 3966   1.823   0.729  11.582 -1.3282  0.4049  0.0415
  262TMC3    C6 3967   1.872   0.844  11.639  0.7763  0.6380  0.3386
  262TMC3     C 3968   1.510   0.705  11.753  0.5118  0.4296  0.5828
  262TMC3     O 3969   1.443   0.651  11.665  0.1776 -0.1338 -0.0507
  262TMC3     H 3970   1.610   0.938  11.823 -2.3683 -0.9599 -1.6354
  262TMC3    H1 3971   1.666   0.589  11.581 -1.1170 -0.2275  0.5398
  262TMC3    H2 3972   1.969   0.888  11.619  1.8190 -1.4051  0.8496
  262TMC3    C7 3973   1.866   0.694  11.443 -0.5599  0.0030  0.5327
  262TMC3    C8 3974   1.842   1.054  11.754 -0.4442 -0.2230  0.2349
  262TMC3    O1 3975   1.822   0.588  11.401 -0.6737  0.1297  0.0814
  262TMC3    O2 3976   1.943   1.092  11.696 -0.4872 -0.2158 -0.0834
  263MPD2     C 3977   3.167   4.346  10.890 -0.0697 -0.3350  0.3064
  263MPD2    C1 3978   3.195   4.468  10.952 -0.2356  0.3566  0.2482
  263MPD2    C2 3979   3.152   4.586  10.893 -0.3027 -0.0841  0.6674
  263MPD2    C3 3980   3.073   4.580  10.783 -0.1094  0.6837  0.2004
  263MPD2    C4 3981   3.032   4.459  10.738 -0.1643 -0.2901 -0.1366
  263MPD2    C5 3982   3.080   4.342  10.782 -0.1899 -1.1205 -0.2306
  263MPD2     H 3983   3.178   4.683  10.936 -0.5615  0.5008 -0.4926
  263MPD2    H1 3984   2.958   4.451  10.659 -2.6885  3.2592  1.9204
  263MPD2    H2 3985   3.208   4.253  10.927  1.4506 -0.2825 -1.2345
  263MPD2    H3 3986   3.056   4.244  10.743 -0.0762 -1.7618  1.3131
  263MPD2     N 3987   3.029   4.700  10.728  0.4373  0.3138  0.6215
  263MPD2    H5 3988   3.041   0.065  10.776  0.8115 -0.0739  1.2347
  263MPD2    N1 3989   3.284   4.462  11.061 -0.5383  0.1842 -0.6272
  263MPD2    H7 3990   3.298   4.367  11.094 -0.6384  0.8121  1.1777
  264TMC3    C1 3991   2.983   0.123  10.562 -0.6148 -0.3450  0.1421
  264TMC3    C2 3992   2.922   0.218  10.642  0.1093  0.0744  0.0835
  264TMC3    C3 3993   2.911   0.338  10.580  0.0555 -0.3025  0.5554
  264TMC3    C4 3994   3.032   0.143  10.434  0.4054  0.0867 -0.1605
  264TMC3    C5 3995   3.015   0.268  10.384 -0.4868 -0.2117  0.3980
  264TMC3    C6 3996   2.944   0.366  10.453  0.1322  0.2889 -0.0667
  264TMC3     C 3997   2.989   4.713  10.600 -0.0047 -0.2168  0.7759
  264TMC3     O 3998   2.983   4.633  10.508 -0.1288 -0.1729  0.1163
  264TMC3     H 3999   2.892   0.196  10.744 -0.4463 -2.0781 -0.5519
  264TMC3    H1 4000   3.081   0.068  10.373  0.1511  0.6321 -1.0368
  264TMC3    H2 4001   2.936   0.463  10.403 -0.3261  0.2234 -0.1133
  264TMC3    C7 4002   3.123   0.324  10.313  0.1791 -0.2151  0.5207
  264TMC3    C8 4003   2.939   0.451  10.658  0.4636 -0.8343 -0.9853
  264TMC3    O1 4004   3.165   0.279  10.207 -0.4113  0.4584  0.1006
  264TMC3    O2 4005   2.976   0.549  10.596 -0.3104 -0.5783  0.1074
  265MPD2     C 4006   0.092   0.051  15.423  0.9450 -0.5264  0.5228
  265MPD2    C1 4007   0.109   0.156  15.332 -0.7879 -0.2641  0.1547
  265MPD2    C2 4008   0.167   0.140  15.205 -0.0719  0.4632 -0.0651
  265MPD2    C3 4009   0.210   0.016  15.164 -0.2763 -0.3037  0.2622
  265MPD2    C4 4010   0.182   4.635  15.252  0.5273  0.3831  0.0070
  265MPD2    C5 4011   0.120   4.650  15.372  0.6144 -0.2738  0.5903
  265MPD2     H 4012   0.174   0.232  15.148  2.0318 -0.8186 -1.9059
  265MPD2    H1 4013   0.206   4.538  15.209 -0.3843 -0.5794  1.6448
  265MPD2    H2 4014   0.064   0.060  15.527  0.7977  1.1846  0.3205
  265MPD2    H3 4015   0.104   4.560  15.431 -0.0332 -0.9894 -0.6808
  265MPD2     N 4016   0.264   4.708  15.043  0.1094 -0.4777 -0.1448
  265MPD2    H5 4017   0.284   4.608  15.035 -2.6401 -0.9956 -0.7363
  265MPD2    N1 4018   0.075   0.292  15.361  0.5703 -0.1827  0.0601
  265MPD2    H7 4019   0.120   0.363  15.303 -1.5943  0.5621 -0.6933
  266TMC3    C1 4020   4.705   0.467  15.480 -0.6497 -0.5325  0.3596
  266TMC3    C2 4021   4.717   0.524  15.597  0.1096  0.1248  0.7733
  266TMC3    C3 4022   4.692   0.656  15.598 -0.0298  0.0113 -0.5330
  266TMC3    C4 4023   4.661   0.529  15.366  0.2693 -0.1227  0.1117
  266TMC3    C5 4024   4.649   0.667  15.369  0.3691  0.7427  0.9519
  266TMC3    C6 4025   4.653   0.726  15.493  0.3327  0.3335  0.1687
  266TMC3     C 4026   4.720   0.325  15.464 -0.2814  0.0237  0.2999
  266TMC3     O 4027   4.657   0.252  15.541 -0.2489  0.5748 -0.7555
  266TMC3     H 4028   0.034   0.485  15.690 -0.2686 -0.7133  0.5871
  266TMC3    H1 4029   4.647   0.476  15.273 -1.0145  0.2645  0.0904
  266TMC3    H2 4030   4.630   0.832  15.497  2.4566  0.8595 -1.5664
  266TMC3    C7 4031   4.651   0.742  15.245  0.3946  0.2844  0.7865
  266TMC3    C8 4032   4.672   0.715  15.734  0.3419 -0.3902 -0.2031
  266TMC3    O1 4033   4.669   0.675  15.148 -0.0124  0.7031  0.2427
  266TMC3    O2 4034   4.639   0.634  15.815  0.9416  0.3270  0.0360
  267MPD2     C 4035   3.030   1.327  17.526 -0.2478  0.2256  0.1677
  267MPD2    C1 4036   2.998   1.403  17.414  0.1808 -0.3482 -0.1620
  267MPD2    C2 4037   2.904   1.354  17.322 -0.4411 -0.1290  0.3943
  267MPD2    C3 4038   2.858   1.223  17.349 -0.2633  0.0439 -0.4224
  267MPD2    C4 4039   2.889   1.149  17.465 -1.0272 -0.8219 -0.6451
  267MPD2    C5 4040   2.982   1.199  17.553 -0.5219 -0.1065  0.2788
  267MPD2     H 4041   2.866   1.409  17.237 -0.1391  0.0359  0.3700
  267MPD2    H1 4042   2.854   1.047  17.478  1.3632 -1.5189  0.3023
  267MPD2    H2 4043   3.093   1.374  17.600  2.2371 -0.7541 -1.2850
  267MPD2    H3 4044   3.019   1.153  17.644 -2.7412  0.2080  1.3422
  267MPD2     N 4045   2.767   1.166  17.255  0.1811  0.6658 -0.1380
  267MPD2    H5 4046   2.740   1.071  17.281 -0.3168  1.0549  0.7938
  267MPD2    N1 4047   3.049   1.533  17.401  0.2299  0.5395  0.4530
  267MPD2    H7 4048   3.124   1.563  17.463  1.4380 -0.2572 -0.6281
  268TMC3    C1 4049   3.077   1.748  17.349 -0.0332 -0.3040 -0.1177
  268TMC3    C2 4050   3.111   1.843  17.251  0.0118 -0.2621  0.2760
  268TMC3    C3 4051   3.166   1.963  17.296 -0.2755  0.1484  0.2461
  268TMC3    C4 4052   3.091   1.770  17.478 -0.2962 -0.3521 -0.2423
  268TMC3    C5 4053   3.162   1.886  17.515 -0.4726  0.6726 -0.1731
  268TMC3    C6 4054   3.208   1.974  17.426 -0.4552 -0.1937 -0.0522
  268TMC3     C 4055   3.017   1.623  17.309  0.2187  0.3177  0.2790
  268TMC3     O 4056   2.966   1.616  17.200  0.4951 -0.1258  0.6197
  268TMC3     H 4057   3.088   1.823  17.147 -1.7743 -1.8336  0.9718
  268TMC3    H1 4058   3.055   1.701  17.554  1.0203 -0.0707  0.6292
  268TMC3    H2 4059   3.247   2.070  17.455 -2.6999  0.7753 -0.2972
  268TMC3    C7 4060   3.176   1.899  17.658 -0.7452  0.0041  0.7721
  268TMC3    C8 4061   3.225   2.056  17.196 -0.2983 -0.2884  0.0689
  268TMC3    O1 4062   3.104   1.826   0.026 -0.4987 -0.2955 -0.4078
  268TMC3    O2 4063   3.317   2.131  17.232 -0.1540 -0.1214 -0.4987
  269MPD2     C 4064   2.921   0.694  15.431  0.0626  0.0497  0.0060
  269MPD2    C1 4065   2.797   0.698  15.377  0.6777  0.7186  0.4511
  269MPD2    C2 4066   2.755   0.810  15.308  0.1206 -0.2854  0.1698
  269MPD2    C3 4067   2.843   0.914  15.292  0.1083  0.0583  0.5740
  269MPD2    C4 4068   2.968   0.901  15.341 -0.2388 -0.4218 -0.0372
  269MPD2    C5 4069   3.009   0.796  15.408  0.0607  0.2484  0.1216
  269MPD2     H 4070   2.652   0.821  15.279  0.9354  1.3486 -2.0950
  269MPD2    H1 4071   3.047   0.975  15.335 -0.3636 -0.2061  0.9588
  269MPD2    H2 4072   2.954   0.605  15.483 -0.7565 -0.1328  0.2225
  269MPD2    H3 4073   3.110   0.788  15.445 -0.5225 -0.7550  1.4935
  269MPD2     N 4074   2.794   1.029  15.233  0.4839  0.6984 -0.1732
  269MPD2    H5 4075   2.693   1.031  15.218  0.6546 -1.5048 -1.5624
  269MPD2    N1 4076   2.711   0.584  15.393 -0.8345  0.5497  0.5053
  269MPD2    H7 4077   2.751   0.514  15.455  2.3247  1.4346 -0.5437
  270TMC3    C1 4078   2.521   0.445  15.404 -0.0587 -0.1321 -0.3106
  270TMC3    C2 4079   2.387   0.426  15.394 -0.0090 -0.3032  0.5685
  270TMC3    C3 4080   2.322   0.325  15.459 -0.1033  0.0080 -0.1776
  270TMC3    C4 4081   2.593   0.345  15.458 -0.0225  0.5908 -0.5590
  270TMC3    C5 4082   2.531   0.247  15.521 -0.3640  0.0651  0.2057
  270TMC3    C6 4083   2.399   0.233  15.524  0.0477 -0.0607 -0.2238
  270TMC3     C 4084   2.576   0.577  15.367 -0.0993  0.4335 -0.3095
  270TMC3     O 4085   2.497   0.659  15.321 -0.4016  0.3251 -0.0725
  270TMC3     H 4086   2.336   0.502  15.336 -0.4644 -1.5344 -0.6487
  270TMC3    H1 4087   2.701   0.352  15.469  0.1478 -0.5643 -1.4634
  270TMC3    H2 4088   2.354   0.138  15.554  0.5024 -0.6691 -1.4774
  270TMC3    C7 4089   2.602   0.118  15.517  0.7138  0.2880 -0.4386
  270TMC3    C8 4090   2.228   0.252  15.372  0.3641  0.5389 -0.4433
  270TMC3    O1 4091   2.680   0.099  15.424 -0.4040 -0.4313 -0.4525
  270TMC3    O2 4092   2.130   0.195  15.419 -0.1912  0.8603  0.1271
  271MPD2     C 4093   1.763   0.447  13.501  0.5970  0.1097 -0.2978
  271MPD2    C1 4094   1.787   0.503  13.623  0.2527 -0.3787  0.0068
  271MPD2    C2 4095   1.709   0.610  13.675  0.0427  0.1009 -0.5514
  271MPD2    C3 4096   1.595   0.640  13.599  0.5062 -0.1951  0.4730
  271MPD2    C4 4097   1.567   0.582  13.483  0.5330 -0.3183 -0.5322
  271MPD2    C5 4098   1.652   0.488  13.433  0.6843 -0.1799  0.4230
  271MPD2     H 4099   1.712   0.653  13.775  0.0888  0.1366 -0.5682
  271MPD2    H1 4100   1.470   0.602  13.441 -0.4801 -2.5579  0.7619
  271MPD2    H2 4101   1.820   0.358  13.474  0.3016 -1.2658  3.6829
  271MPD2    H3 4102   1.625   0.455  13.333 -1.4458  2.2986  0.1667
  271MPD2     N 4103   1.486   0.722  13.643 -0.4582 -0.1688  0.5473
  271MPD2    H5 4104   1.398   0.717  13.593  0.5185 -1.1271 -1.0669
  271MPD2    N1 4105   1.891   0.455  13.706 -0.4322 -0.8298 -0.0171
  271MPD2    H7 4106   1.912   0.508  13.790  1.2122  0.0684 -1.0028
  272TMC3    C1 4107   2.022   0.302  13.828  0.3595 -0.5819  0.0714
  272TMC3    C2 4108   2.099   0.193  13.838 -0.2024  0.7275  0.2156
  272TMC3    C3 4109   2.147   0.154  13.956 -0.2439  0.0933 -0.1693
  272TMC3    C4 4110   1.972   0.357  13.945 -0.2808  0.3077 -0.4133
  272TMC3    C5 4111   2.020   0.312  14.064 -0.1316  0.3211  0.2206
  272TMC3    C6 4112   2.102   0.201  14.076  0.2742  0.0606 -0.1464
  272TMC3     C 4113   1.953   0.332  13.699  0.0971 -0.3916  0.9986
  272TMC3     O 4114   1.947   0.238  13.616 -0.1176 -0.4366  0.9518
  272TMC3     H 4115   2.128   0.157  13.741  0.9182 -4.0661  2.3295
  272TMC3    H1 4116   1.889   0.426  13.952 -0.6707 -0.3852  1.8702
  272TMC3    H2 4117   2.163   0.167  14.159 -1.4718 -0.5101  0.9296
  272TMC3    C7 4118   1.962   0.361  14.186  0.2560 -0.3298 -0.1955
  272TMC3    C8 4119   2.275   0.106  13.932  0.6118  0.9278  0.1378
  272TMC3    O1 4120   1.843   0.391  14.180 -0.2003  0.2913 -0.4511
  272TMC3    O2 4121   2.344   0.151  13.838  0.3800 -0.0421  0.2051
  273MPD2     C 4122   3.359   3.865  11.766 -0.2503 -0.4860  0.0399
  273MPD2    C1 4123   3.414   3.739  11.744 -0.4344  0.0529 -0.4937
  273MPD2    C2 4124   3.397   3.669  11.624  0.1817 -0.1315 -0.1463
  273MPD2    C3 4125   3.332   3.738  11.524  0.3878 -0.6092  1.0903
  273MPD2    C4 4126   3.296   3.874  11.544  0.7546 -0.2167  0.2477
  273MPD2    C5 4127   3.307   3.934  11.665  0.7786 -0.1725  0.1145
  273MPD2     H 4128   3.443   3.573  11.603  4.6349  2.1495 -0.7029
  273MPD2    H1 4129   3.249   3.929  11.464  0.8852 -0.3019  0.1130
  273MPD2    H2 4130   3.366   3.918  11.860 -3.8068  0.1794 -0.0441
  273MPD2    H3 4131   3.265   4.033  11.678  2.5451  0.6693 -0.5282
  273MPD2     N 4132   3.307   3.693  11.388 -0.3932 -0.5495  0.2320
  273MPD2    H5 4133   3.279   3.765  11.322  0.9905 -0.7299 -0.5474
  273MPD2    N1 4134   3.487   3.692  11.854 -0.3359  0.5296 -0.0399
  273MPD2    H7 4135   3.501   3.743  11.940 -2.1417 -0.5766  0.8975
  274TMC3    C1 4136   3.388   3.572  11.207  0.5692 -0.2811  0.0314
  274TMC3    C2 4137   3.309   3.627  11.116  0.9840 -0.0947 -0.2901
  274TMC3    C3 4138   3.366   3.714  11.028 -0.6427 -0.0428 -0.3981
  274TMC3    C4 4139   3.521   3.594  11.214 -0.7134  0.6118 -0.2085
  274TMC3    C5 4140   3.580   3.677  11.122 -0.4856  0.5952  0.7242
  274TMC3    C6 4141   3.503   3.726  11.022  0.1552 -0.3060 -0.1918
  274TMC3     C 4142   3.347   3.574  11.343 -0.7392 -0.1395  0.8261
  274TMC3     O 4143   3.375   3.476  11.407 -0.0796  0.0644  0.1734
  274TMC3     H 4144   3.201   3.621  11.126  1.1407  1.5756  2.3429
  274TMC3    H1 4145   3.570   3.555  11.303 -0.5490  0.4015 -0.3918
  274TMC3    H2 4146   3.543   3.802  10.955 -1.0428 -1.3180 -2.0379
  274TMC3    C7 4147   3.680   3.767  11.172 -0.6100 -0.1062  0.4222
  274TMC3    C8 4148   3.290   3.781  10.915 -0.5374 -0.4620  0.0586
  274TMC3    O1 4149   3.712   3.858  11.100  0.2760  0.3921  0.5406
  274TMC3    O2 4150   3.358   3.842  10.831  0.1629  0.2883  0.1786
  275MPD2     C 4151   3.429   1.288  13.880 -0.1072  0.1423  0.4351
  275MPD2    C1 4152   3.401   1.221  13.995  0.3785  0.3834 -0.3216
  275MPD2    C2 4153   3.273   1.182  14.026  0.5479 -0.2279  0.9299
  275MPD2    C3 4154   3.172   1.219  13.942  0.5553  0.0151 -0.4375
  275MPD2    C4 4155   3.201   1.286  13.822  0.3314  0.7462 -1.0366
  275MPD2    C5 4156   3.329   1.331  13.800  0.7379  0.2310  0.3951
  275MPD2     H 4157   3.258   1.121  14.115 -0.2532 -0.7275  0.4535
  275MPD2    H1 4158   3.120   1.314  13.756 -0.6510  0.1783 -0.0709
  275MPD2    H2 4159   3.523   1.339  13.861 -1.1469  1.4328 -1.2562
  275MPD2    H3 4160   3.360   1.376  13.706 -1.0844 -0.5115 -0.5653
  275MPD2     N 4161   3.039   1.178  13.968  0.0990 -0.0350  0.4485
  275MPD2    H5 4162   2.962   1.202  13.906  1.0986  1.1708 -0.2971
  275MPD2    N1 4163   3.504   1.188  14.085 -0.3189 -0.4085  0.1687
  275MPD2    H7 4164   3.490   1.122  14.161 -2.4208 -0.4903 -0.2775
  276TMC3    C1 4165   3.710   1.180  14.201  0.7952  0.5020 -0.1485
  276TMC3    C2 4166   3.711   1.050  14.228 -0.6311  0.0824 -0.8034
  276TMC3    C3 4167   3.767   1.014  14.349  0.0914  0.1038  0.6626
  276TMC3    C4 4168   3.759   1.271  14.286 -0.2009  0.1087  0.0606
  276TMC3    C5 4169   3.812   1.235  14.405  0.0923 -1.2349 -0.0386
  276TMC3    C6 4170   3.809   1.102  14.441 -0.1147  0.4672  0.2454
  276TMC3     C 4171   3.635   1.235  14.084  0.0038 -0.1898 -0.2541
  276TMC3     O 4172   3.675   1.341  14.044 -0.5339  0.6785 -0.1649
  276TMC3     H 4173   3.692   0.980  14.148 -1.0471 -0.9308  0.1769
  276TMC3    H1 4174   3.755   1.376  14.259 -0.2213 -0.0718 -0.6268
  276TMC3    H2 4175   3.854   1.074  14.536  0.9467 -0.2444 -0.4668
  276TMC3    C7 4176   3.896   1.324  14.481  0.3854 -0.5123  0.1822
  276TMC3    C8 4177   3.803   0.871  14.365 -0.3623  0.0825  0.1581
  276TMC3    O1 4178   3.916   1.299  14.597 -0.2855 -0.4655 -0.0157
  276TMC3    O2 4179   3.807   0.794  14.269 -0.0662 -0.4528 -0.6505
  277MPD2     C 4180   0.401   0.502  12.823  0.7485  0.1856  0.0509
  277MPD2    C1 4181   0.295   0.549  12.899  0.0620  0.4670  0.4235
  277MPD2    C2 4182   0.250   0.480  13.007  0.2489 -0.0492  0.1616
  277MPD2    C3 4183   0.304   0.357  13.036  0.2209 -0.5605 -0.3383
  277MPD2    C4 4184   0.419   0.313  12.966 -0.0972 -0.7579  0.9788
  277MPD2    C5 4185   0.469   0.383  12.857  0.1328 -0.1466  0.0806
  277MPD2     H 4186   0.162   0.513  13.060 -0.1666 -2.1920  0.8130
  277MPD2    H1 4187   0.469   0.218  12.983 -0.1514 -1.2195 -1.4176
  277MPD2    H2 4188   0.435   0.566  12.743  1.3702  1.5452  1.3974
  277MPD2    H3 4189   0.544   0.337  12.795  0.4825 -0.2197  0.5571
  277MPD2     N 4190   0.227   0.275  13.124 -0.6012 -0.7648  0.0943
  277MPD2    H5 4191   0.151   0.327  13.167  0.1804 -1.1855  1.9796
  277MPD2    N1 4192   0.241   0.666  12.842 -0.2731  0.1793 -0.3583
  277MPD2    H7 4193   0.290   0.702  12.760  1.2374 -0.9905  0.0458
  278TMC3    C1 4194   0.112   0.079  13.200  0.6593  0.7935  0.2007
  278TMC3    C2 4195   0.061   4.684  13.151  0.3085 -0.1432  0.2957
  278TMC3    C3 4196   4.653   4.659  13.173 -0.4392  0.3808 -0.4945
  278TMC3    C4 4197   0.037   0.159  13.281  0.5225 -0.8040 -0.0131
  278TMC3    C5 4198   4.635   0.110  13.319 -0.6602  0.1960  0.7366
  278TMC3    C6 4199   4.574   0.005  13.260 -0.2636 -1.0142 -0.0870
  278TMC3     C 4200   0.233   0.135  13.133  0.1862  0.1134 -1.0604
  278TMC3     O 4201   0.303   0.047  13.079 -1.0561 -0.1379 -0.8669
  278TMC3     H 4202   0.127   4.630  13.084  0.8033  2.3600 -1.2220
  278TMC3    H1 4203   0.073   0.251  13.325 -1.4667  0.0879 -0.2369
  278TMC3    H2 4204   4.480   4.687  13.296 -1.7816  1.4571 -1.1868
  278TMC3    C7 4205   4.587   0.172  13.439 -0.0494 -0.9809  0.6702
  278TMC3    C8 4206   4.582   4.550  13.101 -0.6741 -0.5486  0.1366
  278TMC3    O1 4207   4.672   0.214  13.516 -0.3391 -0.4965  0.4296
  278TMC3    O2 4208   4.464   4.571  13.076 -0.0465  0.5323 -0.0400
  279MPD2     C 4209   4.614   0.819   0.167  0.6115 -0.1273  0.4748
  279MPD2    C1 4210   4.488   0.837   0.099  0.0398  0.3042 -0.3152
  279MPD2    C2 4211   4.483   0.787  17.661 -0.3706  0.4528  0.2504
  279MPD2    C3 4212   4.597   0.721  17.610  0.4634 -0.1616  0.5431
  279MPD2    C4 4213   4.713   0.708  17.682  0.3257  0.2295 -0.0134
  279MPD2    C5 4214   4.718   0.761   0.112  0.4052  0.0571  0.0969
  279MPD2     H 4215   4.395   0.795  17.599 -1.4932 -0.5465  1.7202
  279MPD2    H1 4216   0.082   0.661  17.649  1.5579  2.1494  0.7475
  279MPD2    H2 4217   4.615   0.854   0.270  0.1384  1.5987 -0.1163
  279MPD2    H3 4218   0.091   0.752   0.161  1.4759  0.2367 -1.9953
  279MPD2     N 4219   4.608   0.659  17.483 -0.0883 -0.5122  0.0599
  279MPD2    H5 4220   4.697   0.619  17.455  0.8319  1.0356  0.7599
  279MPD2    N1 4221   4.384   0.916   0.163 -0.2212  0.3114 -0.1400
  279MPD2    H7 4222   4.386   0.949   0.258  2.1323 -0.3127  0.0231
  280TMC3    C1 4223   4.168   1.022   0.193  0.2958 -0.6596 -0.0218
  280TMC3    C2 4224   4.226   1.080   0.303  0.0809  0.0313  0.5379
  280TMC3    C3 4225   4.135   1.107   0.402 -0.5582  0.0046 -0.1181
  280TMC3    C4 4226   4.043   0.976   0.182  0.2841 -0.3697 -0.7545
  280TMC3    C5 4227   3.958   1.002   0.292 -0.1831  0.1810  0.4234
  280TMC3    C6 4228   3.999   1.069   0.405  0.2145  0.0593 -0.2553
  280TMC3     C 4229   4.260   0.943   0.107 -0.5803  0.5784  0.3238
  280TMC3     O 4230   4.221   0.908  17.692  0.3708 -0.1683 -0.4294
  280TMC3     H 4231   4.332   1.105   0.306  0.4092 -1.2185 -0.3032
  280TMC3    H1 4232   4.015   0.913   0.098  0.4553  0.5260 -1.4907
  280TMC3    H2 4233   3.925   1.090   0.482 -0.7065  0.0203 -1.1186
  280TMC3    C7 4234   3.815   0.982   0.279  0.1519  0.4019  0.7533
  280TMC3    C8 4235   4.180   1.217   0.493 -0.1149 -0.4259 -0.2053
  280TMC3    O1 4236   3.733   0.984   0.371  0.4230 -0.3587 -0.0141
  280TMC3    O2 4237   4.291   1.259   0.470 -0.0400 -0.1535 -0.1972
  281TMC3    C1 4238   2.627   0.676  12.673  0.3991  0.1213 -0.2886
  281TMC3    C2 4239   2.552   0.743  12.579  0.0812 -0.2482 -0.0773
  281TMC3    C3 4240   2.455   0.669  12.522 -0.8407 -0.2358  0.4373
  281TMC3    C4 4241   2.619   0.543  12.700  0.2609  0.4947  0.2654
  281TMC3    C5 4242   2.511   0.479  12.637 -0.4669 -0.1185 -0.0814
  281TMC3    C6 4243   2.430   0.541  12.550  0.0047  0.2841  0.0050
  281TMC3     C 4244   2.709   0.750  12.771 -0.4253 -0.3369  0.1491
  281TMC3     O 4245   2.803   0.684  12.815  0.7029 -0.9903  0.2138
  281TMC3     H 4246   2.565   0.850  12.563 -2.0456 -0.4764 -3.3513
  281TMC3    H1 4247   2.672   0.509  12.788 -0.0880  0.1795  0.3529
  281TMC3    H2 4248   2.342   0.490  12.512 -0.4984  1.6218 -0.6343
  281TMC3    C7 4249   2.474   0.342  12.671  0.5804 -0.1136  0.4465
  281TMC3    C8 4250   2.337   0.746  12.484 -0.3287  0.3990 -0.6600
  281TMC3    O1 4251   2.412   0.278  12.592 -0.1736 -0.5984  0.6607
  281TMC3    O2 4252   2.226   0.706  12.512 -0.1235  0.1166 -0.4578
  282MPD2     C 4253   0.385   2.151  14.711 -0.2118  0.3098 -0.4564
  282MPD2    C1 4254   0.261   2.156  14.768 -0.1708 -0.0334  0.2820
  282MPD2    C2 4255   0.173   2.210  14.679 -0.2390 -0.9881  0.5531
  282MPD2    C3 4256   0.207   2.254  14.554 -0.3254 -0.6014  0.5544
  282MPD2    C4 4257   0.335   2.226  14.500 -0.5126 -0.0014 -0.0419
  282MPD2    C5 4258   0.429   2.180  14.583 -0.1984 -0.3821 -0.0093
  282MPD2     H 4259   0.068   2.218  14.707  0.1850  0.9146  1.5949
  282MPD2    H1 4260   0.357   2.250  14.397 -1.0218 -1.3834 -0.4719
  282MPD2    H2 4261   0.462   2.108  14.773  1.6779  1.7320 -1.8429
  282MPD2    H3 4262   0.531   2.154  14.558  0.2855  0.4491  1.0690
  282MPD2     N 4263   0.095   2.292  14.473 -0.0610  0.2264  0.4828
  282MPD2    H5 4264   0.007   2.313  14.518 -0.1188  0.6034  0.1944
  282MPD2    N1 4265   0.235   2.116  14.904  0.6895  0.1397 -0.2119
  282MPD2    H7 4266   0.140   2.148  14.920  0.4895 -0.1871 -0.7410
  283TMC3    C1 4267   0.270   2.097  15.137  0.2047 -0.4510  0.0562
  283TMC3    C2 4268   0.369   2.144  15.218  0.5235 -0.4050 -0.7118
  283TMC3    C3 4269   0.345   2.140  15.350 -0.3433 -0.3166  0.1502
  283TMC3    C4 4270   0.165   2.027  15.184  0.2827 -0.2262  0.1321
  283TMC3    C5 4271   0.150   2.012  15.321  0.0389  0.4112 -0.2546
  283TMC3    C6 4272   0.236   2.076  15.407  0.5425 -1.0957 -0.1684
  283TMC3     C 4273   0.322   2.071  15.006  0.2106 -0.0899  0.1604
  283TMC3     O 4274   0.440   2.043  14.988  0.3912  0.3972  0.7109
  283TMC3     H 4275   0.453   2.195  15.172  1.3243 -0.9467  0.1716
  283TMC3    H1 4276   0.089   2.007  15.109  0.3700  0.8546 -0.2440
  283TMC3    H2 4277   0.212   2.077  15.513 -1.9272 -1.1375 -0.7289
  283TMC3    C7 4278   0.057   1.911  15.375  0.1967 -0.1673 -0.4493
  283TMC3    C8 4279   0.406   2.229  15.439  0.8305 -0.2909  0.7409
  283TMC3    O1 4280   0.031   1.925  15.493  0.4192  0.1761 -0.2405
  283TMC3    O2 4281   0.431   2.184  15.546 -0.4100  0.3202 -0.2119
  284MPD2     C 4282   2.685   1.986  11.310 -0.0226 -0.2772 -0.5285
  284MPD2    C1 4283   2.801   1.914  11.329  0.1572  0.1282  0.2990
  284MPD2    C2 4284   2.815   1.813  11.422 -0.5791  0.0226  0.0659
  284MPD2    C3 4285   2.707   1.799  11.505  0.0632 -0.6680  0.5862
  284MPD2    C4 4286   2.590   1.876  11.488  0.3033  0.2564 -0.5712
  284MPD2    C5 4287   2.581   1.968  11.385  0.2519  0.0814  0.8129
  284MPD2     H 4288   2.910   1.764  11.438 -0.7848  0.0411  1.3533
  284MPD2    H1 4289   2.503   1.864  11.552 -0.5250  0.0943 -1.7403
  284MPD2    H2 4290   2.673   2.064  11.236  1.6231 -0.3444 -0.8642
  284MPD2    H3 4291   2.491   2.027  11.373  0.7131  0.3690 -1.1926
  284MPD2     N 4292   2.697   1.724  11.620 -0.0939 -0.8121  0.4854
  284MPD2    H5 4293   2.648   1.771  11.695  1.4190  0.2488  0.7970
  284MPD2    N1 4294   2.926   1.950  11.275  0.4295 -0.0197  0.0227
  284MPD2    H7 4295   3.001   1.884  11.289  1.1435  0.6537 -0.6582
  285TMC3    C1 4296   3.085   2.063  11.161 -0.3203  0.6610 -0.5804
  285TMC3    C2 4297   3.139   1.938  11.137 -0.7531  0.9698 -0.7423
  285TMC3    C3 4298   3.273   1.918  11.139  0.2433 -0.5087 -0.7261
  285TMC3    C4 4299   3.159   2.162  11.207  0.0806 -0.2614  0.8402
  285TMC3    C5 4300   3.296   2.138  11.210  0.2275  0.3411 -0.3379
  285TMC3    C6 4301   3.355   2.017  11.170 -0.7279  0.6419 -0.4669
  285TMC3     C 4302   2.950   2.068  11.203  0.8364  1.4123  0.0905
  285TMC3     O 4303   2.897   2.176  11.218  0.1300 -0.0663  0.3536
  285TMC3     H 4304   3.080   1.852  11.107  1.0507 -0.1613 -1.1299
  285TMC3    H1 4305   3.113   2.255  11.239  0.1893 -0.6794  2.2177
  285TMC3    H2 4306   3.463   2.012  11.182 -0.7925  1.5631  0.5382
  285TMC3    C7 4307   3.378   2.242  11.265 -0.1846  0.4621 -1.1360
  285TMC3    C8 4308   3.327   1.789  11.110 -0.3751 -0.5319  0.1102
  285TMC3    O1 4309   3.350   2.359  11.258 -0.1193 -0.9490 -0.1852
  285TMC3    O2 4310   3.256   1.712  11.050  0.2912 -0.0340  0.4139
  286MPD2     C 4311   4.011   4.411   2.158  0.6750 -0.0946 -0.6840
  286MPD2    C1 4312   3.961   4.377   2.033 -0.3019 -0.5892  0.4960
  286MPD2    C2 4313   4.026   4.296   1.947  0.1891 -0.9905  0.3873
  286MPD2    C3 4314   4.151   4.259   1.977  0.3006  0.4922 -0.3576
  286MPD2    C4 4315   4.209   4.297   2.096  0.2851  0.2137 -0.2868
  286MPD2    C5 4316   4.139   4.376   2.188 -0.4023 -0.0835  0.3103
  286MPD2     H 4317   3.982   4.274   1.850  2.5289 -0.2125 -0.8324
  286MPD2    H1 4318   4.312   4.287   2.126  0.6841 -1.9806 -2.3418
  286MPD2    H2 4319   3.952   4.475   2.223  0.0568 -0.4574 -0.8829
  286MPD2    H3 4320   4.184   4.394   2.286 -0.7110 -1.0150  0.6230
  286MPD2     N 4321   4.239   4.185   1.899 -0.7555  0.3113  0.0550
  286MPD2    H5 4322   4.333   4.185   1.937 -0.2797  0.3179 -1.1460
  286MPD2    N1 4323   3.840   4.431   1.985 -0.2587 -0.2665 -0.1322
  286MPD2    H7 4324   3.816   4.393   1.894 -0.1583  0.3436 -0.4131
  287TMC3    C1 4325   4.312   4.033   1.728  0.3714 -0.2746 -0.0478
  287TMC3    C2 4326   4.286   4.005   1.597  0.0573  0.2563  0.0593
  287TMC3    C3 4327   4.383   3.931   1.535 -0.0725  0.3590 -0.8862
  287TMC3    C4 4328   4.418   3.988   1.796  0.1081 -0.0198 -0.3893
  287TMC3    C5 4329   4.510   3.908   1.727  0.0485 -1.3583  0.0146
  287TMC3    C6 4330   4.497   3.894   1.591  0.1605 -0.0465  0.3368
  287TMC3     C 4331   4.201   4.112   1.792 -0.1369 -0.1571 -0.5588
  287TMC3     O 4332   4.095   4.112   1.731 -0.4702 -0.4307 -0.2277
  287TMC3     H 4333   4.190   4.021   1.550  1.3871 -0.1442 -2.8056
  287TMC3    H1 4334   4.425   4.014   1.902 -2.6231 -2.0993  0.2954
  287TMC3    H2 4335   4.562   3.833   1.530  3.2734  1.6772  1.9602
  287TMC3    C7 4336   4.636   3.883   1.782  0.1024 -0.2638 -0.1408
  287TMC3    C8 4337   4.369   3.911   1.394  0.3965  0.5677  0.2126
  287TMC3    O1 4338   4.680   3.950   1.873 -0.9520  0.0011 -0.6581
  287TMC3    O2 4339   4.425   3.814   1.346 -0.1374 -0.1246  0.1635
  288TMC3    C1 4340   1.053   4.655  14.482 -0.1602  0.9210 -0.6004
  288TMC3    C2 4341   0.950   4.703  14.403 -0.2443 -0.3905 -0.4515
  288TMC3    C3 4342   0.984   0.010  14.275  0.1732  0.5070  0.3980
  288TMC3    C4 4343   1.185   4.648  14.438  0.1257 -0.0343 -0.6062
  288TMC3    C5 4344   1.211   4.701  14.314 -0.4859  0.3324  0.1348
  288TMC3    C6 4345   1.111   0.012  14.229 -0.2609 -0.4724 -0.2833
  288TMC3     C 4346   1.023   4.630  14.619 -0.2239  0.1878 -0.7262
  288TMC3     O 4347   1.102   4.561  14.680 -0.1058  0.0822  0.2684
  288TMC3     H 4348   0.846   4.712  14.432 -0.0810 -0.1688  0.0540
  288TMC3    H1 4349   1.264   4.605  14.500  1.4409  0.6386 -1.8200
  288TMC3    H2 4350   1.122   0.023  14.122 -2.2236  0.5402 -0.3899
  288TMC3    C7 4351   1.348   4.715  14.269 -0.5864  0.1796 -0.2839
  288TMC3    C8 4352   0.877   0.025  14.174  0.1683 -0.0753  0.3350
  288TMC3    O1 4353   1.440   4.692  14.349 -0.2359  1.1279 -0.1650
  288TMC3    O2 4354   0.900   0.088  14.072  0.9290  0.3439 -0.3853
  289MPD2     C 4355   0.425   3.887  14.461 -0.0042  0.2114 -0.1463
  289MPD2    C1 4356   0.471   3.984  14.376 -0.1065  0.0380  0.1243
  289MPD2    C2 4357   0.421   3.997  14.247  0.5424 -0.5718 -0.2934
  289MPD2    C3 4358   0.317   3.909  14.210 -0.2589  0.4695 -0.1619
  289MPD2    C4 4359   0.259   3.824  14.302 -0.2032  0.3759 -0.1417
  289MPD2    C5 4360   0.314   3.814  14.424 -0.2136  0.0517  0.5824
  289MPD2     H 4361   0.465   4.073  14.184  2.9807 -1.4457  0.3325
  289MPD2    H1 4362   0.186   3.756  14.262  0.5310 -0.5388  0.0697
  289MPD2    H2 4363   0.467   3.857  14.557 -0.4626 -1.9979 -0.6262
  289MPD2    H3 4364   0.291   3.735  14.494 -1.1429 -1.4091 -1.3630
  289MPD2     N 4365   0.274   3.889  14.078 -0.8971 -0.1940  0.3032
  289MPD2    H5 4366   0.196   3.825  14.065 -1.5352  0.3542  1.4580
  289MPD2    N1 4367   0.591   4.051  14.420 -0.1688  0.2751  0.0965
  289MPD2    H7 4368   0.616   4.044  14.518 -0.1570 -2.3017 -0.0931
  290TMC3    C1 4369   0.230   3.943  13.846 -0.2039  0.8600 -0.4863
  290TMC3    C2 4370   0.174   4.049  13.784  0.6046 -0.8825  0.1292
  290TMC3    C3 4371   0.122   4.030  13.657 -0.2784 -0.3259 -0.8113
  290TMC3    C4 4372   0.208   3.816  13.803  0.5833  0.5162 -0.1427
  290TMC3    C5 4373   0.154   3.799  13.683 -0.2092 -0.5639  0.5412
  290TMC3    C6 4374   0.109   3.906  13.604 -0.2060 -0.5502 -0.3873
  290TMC3     C 4375   0.312   3.970  13.967  0.0623 -0.5044 -0.4035
  290TMC3     O 4376   0.386   4.069  13.960  0.1155 -0.5110  0.1396
  290TMC3     H 4377   0.212   4.146  13.816  0.0507 -1.2934  2.0212
  290TMC3    H1 4378   0.266   3.739  13.853 -0.8594 -1.2593 -1.2006
  290TMC3    H2 4379   0.083   3.892  13.499 -0.8839 -3.0713  0.0941
  290TMC3    C7 4380   0.117   3.669  13.629  0.1079  0.4384  0.3512
  290TMC3    C8 4381   0.078   4.148  13.586  0.4697 -0.4568  1.0397
  290TMC3    O1 4382   0.060   3.672  13.519 -0.3899 -0.1261 -0.2520
  290TMC3    O2 4383   0.036   4.145  13.472 -0.1535 -0.9188  0.3439
  291MPD2     C 4384   0.081   3.071   1.094 -0.5617 -0.4848 -0.1967
  291MPD2    C1 4385   0.129   3.080   0.967 -0.2201  0.1143 -0.3621
  291MPD2    C2 4386   0.157   3.202   0.914  0.4819 -0.2542 -0.2947
  291MPD2    C3 4387   0.118   3.320   0.983 -0.3715 -0.2422  0.6730
  291MPD2    C4 4388   0.068   3.307   1.111  0.4395 -0.3042  0.4985
  291MPD2    C5 4389   0.048   3.184   1.165 -0.3881 -0.4279  0.9066
  291MPD2     H 4390   0.203   3.207   0.817  0.3276  1.2243 -0.2958
  291MPD2    H1 4391   0.033   3.396   1.163  3.1033  0.1043  1.5731
  291MPD2    H2 4392   0.053   2.976   1.138 -2.7323 -0.0002 -0.5389
  291MPD2    H3 4393   0.012   3.167   1.265  0.3595  0.4386  1.3244
  291MPD2     N 4394   0.135   3.452   0.927  0.0111  0.1247 -0.3663
  291MPD2    H5 4395   0.117   3.525   0.996 -1.8772 -0.5622 -0.1397
  291MPD2    N1 4396   0.152   2.959   0.889 -0.0173  0.4699  0.1531
  291MPD2    H7 4397   0.207   2.962   0.804  1.3481 -1.0390  0.9885
  292TMC3    C1 4398   0.132   2.726   0.830  0.2235  0.1896 -0.0620
  292TMC3    C2 4399   0.153   2.602   0.890 -0.3387  0.3046 -0.0003
  292TMC3    C3 4400   0.176   2.500   0.804  0.2203  0.3243 -0.3471
  292TMC3    C4 4401   0.129   2.749   0.691  0.7767  0.2113  0.5343
  292TMC3    C5 4402   0.156   2.636   0.616  0.5076  0.2472 -0.3342
  292TMC3    C6 4403   0.176   2.513   0.672  0.5328 -0.2836 -0.0722
  292TMC3     C 4404   0.114   2.832   0.925  0.0364 -0.5095 -0.4741
  292TMC3     O 4405   0.051   2.790   1.024 -0.1494  0.3752 -0.1711
  292TMC3     H 4406   0.171   2.599   0.997  1.6481  0.7506 -0.3242
  292TMC3    H1 4407   0.107   2.847   0.650 -2.3468 -0.7561 -0.0794
  292TMC3    H2 4408   0.202   2.430   0.607 -0.4958 -0.7380  0.0897
  292TMC3    C7 4409   0.132   2.643   0.476 -0.0271 -0.3140 -0.1603
  292TMC3    C8 4410   0.153   2.358   0.845  0.0244 -0.2558  0.1441
  292TMC3    O1 4411   0.151   2.540   0.412  0.5856 -0.0578  0.1300
  292TMC3    O2 4412   0.201   2.266   0.774 -0.1312 -0.6788 -0.4329
  293MPD2     C 4413   1.306   0.778  12.233  0.0904 -0.5055 -0.5907
  293MPD2    C1 4414   1.211   0.709  12.297 -0.5779 -0.7458  0.1300
  293MPD2    C2 4415   1.238   0.686  12.434  0.3546  0.0115 -0.5195
  293MPD2    C3 4416   1.356   0.728  12.497 -0.0620 -0.4697 -0.5960
  293MPD2    C4 4417   1.440   0.803  12.421  0.5814 -0.0509 -0.3569
  293MPD2    C5 4418   1.426   0.816  12.288 -0.3377  0.2175  0.1686
  293MPD2     H 4419   1.167   0.627  12.491 -1.0491 -1.6983 -4.0084
  293MPD2    H1 4420   1.530   0.838  12.470 -0.2709  1.2412  0.2943
  293MPD2    H2 4421   1.293   0.811  12.131  1.0986 -0.6504 -0.7632
  293MPD2    H3 4422   1.497   0.871  12.227  2.4268  0.1579  3.3792
  293MPD2     N 4423   1.366   0.714  12.638 -0.5882  0.3108 -0.4486
  293MPD2    H5 4424   1.294   0.660  12.685  0.7892 -0.6815  0.5114
  293MPD2    N1 4425   1.097   0.665  12.224 -0.1377  0.1660  0.4482
  293MPD2    H7 4426   1.097   0.699  12.128  1.9640  2.2211  1.1732
  294TMC3    C1 4427   0.919   0.522  12.161 -0.1286  0.4508 -0.3264
  294TMC3    C2 4428   0.860   0.398  12.181  0.7390  0.1523 -0.9063
  294TMC3    C3 4429   0.807   0.331  12.075  0.7087  0.5160 -0.5934
  294TMC3    C4 4430   0.909   0.579  12.037  0.0548 -0.5075  0.0158
  294TMC3    C5 4431   0.844   0.507  11.934 -0.0076  0.2210 -0.4817
  294TMC3    C6 4432   0.801   0.374  11.944 -0.4973 -0.4594  0.5343
  294TMC3     C 4433   1.003   0.582  12.268 -0.0438  0.2315  0.0846
  294TMC3     O 4434   0.991   0.542  12.383 -0.1767 -0.1749  0.3179
  294TMC3     H 4435   0.860   0.356  12.281  1.1274  2.2583 -0.0170
  294TMC3    H1 4436   0.942   0.680  12.015  2.5661 -1.2859  0.2215
  294TMC3    H2 4437   0.747   0.321  11.866 -1.2619  0.1140  0.6749
  294TMC3    C7 4438   0.805   0.570  11.810  0.2720 -0.5765 -0.1033
  294TMC3    C8 4439   0.739   0.209  12.100 -0.1919  0.3132  0.1722
  294TMC3    O1 4440   0.699   0.540  11.758  0.1228  0.0111 -0.7549
  294TMC3    O2 4441   0.732   0.171  12.218 -0.3182 -0.4677 -0.9134
  295MPD2     C 4442   2.400   3.268   0.592  0.2987  0.1383 -0.1747
  295MPD2    C1 4443   2.320   3.207   0.492  0.3899 -0.5098 -0.5755
  295MPD2    C2 4444   2.270   3.083   0.509 -0.3998  0.6706  0.3524
  295MPD2    C3 4445   2.305   3.011   0.622  0.7708  0.3543 -0.1725
  295MPD2    C4 4446   2.397   3.066   0.712  0.1462  0.1505 -0.1528
  295MPD2    C5 4447   2.444   3.192   0.699  0.6497  0.7056  0.2825
  295MPD2     H 4448   2.196   3.048   0.439 -0.5634 -1.5508  1.6276
  295MPD2    H1 4449   2.436   3.018   0.801  2.0588  0.4189 -0.8516
  295MPD2    H2 4450   2.440   3.368   0.574  1.5164 -0.2089  0.6108
  295MPD2    H3 4451   2.525   3.227   0.762  0.1340  1.2590  0.6337
  295MPD2     N 4452   2.247   2.891   0.662 -0.2777 -0.2466  0.5561
  295MPD2    H5 4453   2.265   2.867   0.759  1.8187 -3.3782 -0.6027
  295MPD2    N1 4454   2.309   3.257   0.360 -0.0745  0.5651 -0.1224
  295MPD2    H7 4455   2.254   3.201   0.296 -1.0974  1.0246  0.3435
  296TMC3    C1 4456   2.077   2.738   0.695  0.0160 -0.0429  0.0067
  296TMC3    C2 4457   2.163   2.679   0.778  0.4273 -0.2439  0.2316
  296TMC3    C3 4458   2.110   2.606   0.881  0.6067  0.6100 -0.2463
  296TMC3    C4 4459   1.941   2.727   0.708 -0.0705  1.3592  0.1331
  296TMC3    C5 4460   1.894   2.649   0.806  0.3754  0.5311  0.2427
  296TMC3    C6 4461   1.977   2.586   0.892 -0.0156  0.0823 -0.2138
  296TMC3     C 4462   2.127   2.838   0.605  0.1937 -0.5323  0.3768
  296TMC3     O 4463   2.060   2.876   0.508  0.6710  0.1789  0.2294
  296TMC3     H 4464   2.266   2.663   0.746  0.3321 -1.7605  0.6978
  296TMC3    H1 4465   1.879   2.784   0.640 -0.2168  1.4206  0.3171
  296TMC3    H2 4466   1.945   2.539   0.984  1.3878 -2.3777 -0.9864
  296TMC3    C7 4467   1.768   2.677   0.864 -0.2310  0.0070 -0.0583
  296TMC3    C8 4468   2.208   2.533   0.961 -0.2545  1.2167  0.8821
  296TMC3    O1 4469   1.724   2.788   0.843 -0.1849 -0.2114  0.4028
  296TMC3    O2 4470   2.178   2.418   0.993  0.2198 -0.3459 -0.6840
  297MPD2     C 4471   4.233   0.609  16.270  0.0818  0.8094 -0.2701
  297MPD2    C1 4472   4.254   0.625  16.131 -0.0259  0.0739  0.0608
  297MPD2    C2 4473   4.293   0.751  16.087 -0.0707  0.1364  0.0602
  297MPD2    C3 4474   4.313   0.858  16.174 -0.2164  0.6627 -0.8205
  297MPD2    C4 4475   4.288   0.843  16.312 -0.3867 -0.0850 -0.6176
  297MPD2    C5 4476   4.257   0.715  16.353 -0.4539 -0.4161 -0.2672
  297MPD2     H 4477   4.306   0.773  15.982  1.4052 -1.4734 -0.0913
  297MPD2    H1 4478   4.306   0.916  16.390  0.2648  0.4982 -1.3127
  297MPD2    H2 4479   4.186   0.523  16.316  1.5884  1.2181  2.0493
  297MPD2    H3 4480   4.244   0.706  16.460  0.1731  2.4928  0.0541
  297MPD2     N 4481   4.346   0.984  16.114 -0.3776  1.4688 -0.4962
  297MPD2    H5 4482   4.360   0.987  16.014  0.6181 -1.7414 -0.4421
  297MPD2    N1 4483   4.227   0.529  16.031 -0.4397 -0.0915 -0.2555
  297MPD2    H7 4484   4.247   0.567  15.938 -1.4917  0.8426 -0.0987
  298TMC3    C1 4485   4.127   0.355  15.916 -1.0951 -0.3832 -0.1625
  298TMC3    C2 4486   4.211   0.322  15.820 -0.1621  0.1243 -0.7229
  298TMC3    C3 4487   4.193   0.360  15.690 -0.0549 -0.4132  0.0245
  298TMC3    C4 4488   4.014   0.430  15.888  0.7212  0.3021  0.1433
  298TMC3    C5 4489   3.992   0.475  15.759 -0.5442 -0.7957  0.1043
  298TMC3    C6 4490   4.079   0.434  15.653  0.5421 -0.1290 -0.1293
  298TMC3     C 4491   4.188   0.396  16.039 -0.2819  0.0101  0.1659
  298TMC3     O 4492   4.155   0.340  16.138  0.3884  0.3297  0.3952
  298TMC3     H 4493   4.296   0.258  15.837 -1.4698 -1.2257  0.6927
  298TMC3    H1 4494   3.959   0.462  15.976  1.0898 -1.5108  1.0243
  298TMC3    H2 4495   4.048   0.455  15.551  1.1024  1.0608 -0.0660
  298TMC3    C7 4496   3.858   0.511  15.720  0.1773 -0.4403  0.5070
  298TMC3    C8 4497   4.281   0.313  15.586 -0.4664 -0.4053  0.2788
  298TMC3    O1 4498   3.828   0.498  15.602  0.0716  0.4009  0.3820
  298TMC3    O2 4499   4.346   0.212  15.614  0.1726  0.1092  0.3272
  299MPD2     C 4500   0.242   1.248  10.167 -0.0816 -0.4237 -0.4038
  299MPD2    C1 4501   0.170   1.162  10.246 -0.2257 -0.1416 -0.1512
  299MPD2    C2 4502   0.038   1.123  10.204 -0.3461  0.4265 -0.1574
  299MPD2    C3 4503   4.697   1.183  10.102 -0.1039 -0.3970 -0.2395
  299MPD2    C4 4504   0.049   1.267  10.026 -0.4231 -0.3837 -0.2296
  299MPD2    C5 4505   0.185   1.302  10.056  0.3195  0.3211  1.0208
  299MPD2     H 4506   4.702   1.058  10.266 -1.2453  0.3948 -1.0498
  299MPD2    H1 4507   4.722   1.330   9.954 -2.9073 -0.2336  1.6140
  299MPD2    H2 4508   0.338   1.291  10.195 -0.6666 -0.4090  1.6224
  299MPD2    H3 4509   0.242   1.374   9.997 -0.5817  1.6829  1.7941
  299MPD2     N 4510   4.562   1.168  10.068 -0.1251 -0.2921 -0.6339
  299MPD2    H5 4511   4.527   1.235  10.000 -3.2344  0.9578  2.2080
  299MPD2    N1 4512   0.227   1.112  10.362  0.3460  0.2656  0.2830
  299MPD2    H7 4513   0.316   1.153  10.390  0.7503 -0.6262  0.3037
  300TMC3    C1 4514   4.337   1.119  10.102 -0.6290  0.3209 -0.6057
  300TMC3    C2 4515   4.298   1.242  10.141 -0.7251  0.2140  0.0130
  300TMC3    C3 4516   4.164   1.248  10.172 -0.9315 -0.1127  0.2918
  300TMC3    C4 4517   4.255   1.016  10.115 -0.2354  0.1604  0.0424
  300TMC3    C5 4518   4.132   1.024  10.164  0.1046 -0.3166  0.3836
  300TMC3    C6 4519   4.078   1.142  10.191 -0.7073 -0.0739 -0.3851
  300TMC3     C 4520   4.475   1.076  10.119 -0.0147 -0.3239 -0.0599
  300TMC3     O 4521   4.491   0.976  10.188 -0.1351 -0.2191 -0.3786
  300TMC3     H 4522   4.367   1.326  10.142  0.6232 -0.8914  0.5155
  300TMC3    H1 4523   4.294   0.918  10.088  0.9059  0.2711  1.3026
  300TMC3    H2 4524   3.976   1.149  10.228 -1.0617 -0.4951 -1.2702
  300TMC3    C7 4525   4.070   0.902  10.216 -0.3779  0.4590  0.0545
  300TMC3    C8 4526   4.119   1.382  10.213 -0.0873  0.2711  0.2707
  300TMC3    O1 4527   4.105   0.794  10.167  0.1183 -0.2430 -0.2548
  300TMC3    O2 4528   4.211   1.465  10.227 -0.3812  0.1245  0.4063
  301MPD2     C 4529   1.858   1.859   0.933 -0.1685 -0.0471  0.0399
  301MPD2    C1 4530   1.730   1.801   0.928  0.8087  0.1147  0.2556
  301MPD2    C2 4531   1.713   1.673   0.882 -0.3582 -0.1034 -0.2547
  301MPD2    C3 4532   1.818   1.587   0.869  0.3972  0.3610 -0.6130
  301MPD2    C4 4533   1.944   1.643   0.881  0.1064  0.1858  1.0463
  301MPD2    C5 4534   1.967   1.779   0.905  0.1657 -0.1394  0.5000
  301MPD2     H 4535   1.618   1.625   0.862  0.3183 -1.1446 -0.9744
  301MPD2    H1 4536   2.027   1.574   0.874 -1.4468 -1.7098  1.1793
  301MPD2    H2 4537   1.873   1.963   0.960 -0.0812 -0.5195  1.7728
  301MPD2    H3 4538   2.068   1.817   0.912  0.8845 -1.8938 -0.3575
  301MPD2     N 4539   1.811   1.444   0.856  0.3934  0.2305 -0.4902
  301MPD2    H5 4540   1.897   1.393   0.844  0.4477  0.4235 -0.9330
  301MPD2    N1 4541   1.623   1.892   0.949 -0.0046 -0.1020 -0.7050
  301MPD2    H7 4542   1.654   1.979   0.992  1.5773 -0.4211 -1.1885
  302TMC3    C1 4543   1.694   1.236   0.830  0.7578  0.3345  0.0035
  302TMC3    C2 4544   1.793   1.165   0.884 -1.0519  0.1021  0.7093
  302TMC3    C3 4545   1.776   1.030   0.886 -0.0323 -0.1438 -0.4148
  302TMC3    C4 4546   1.577   1.181   0.786 -0.1317 -0.2775  0.1705
  302TMC3    C5 4547   1.573   1.040   0.792  0.5738  0.0911 -0.5184
  302TMC3    C6 4548   1.674   0.963   0.837 -0.8795 -0.0410 -0.1037
  302TMC3     C 4549   1.689   1.376   0.852 -0.9303 -0.0255  0.4641
  302TMC3     O 4550   1.575   1.421   0.865 -1.1536 -0.0504  0.1977
  302TMC3     H 4551   1.882   1.213   0.922 -0.0836 -0.3987 -0.9275
  302TMC3    H1 4552   1.498   1.240   0.742  0.4743  1.5576  1.5379
  302TMC3    H2 4553   1.670   0.855   0.838 -0.6499 -0.0337  1.6467
  302TMC3    C7 4554   1.473   0.975   0.709 -0.5252 -0.2184 -0.2401
  302TMC3    C8 4555   1.884   0.959   0.952  0.1061  0.0816  0.0757
  302TMC3    O1 4556   1.492   0.864   0.668  0.3466  0.1559  0.6070
  302TMC3    O2 4557   1.991   1.019   0.963 -0.4683  0.4874 -0.5683
  303MPD2     C 4558   2.698   0.485   9.530 -0.0258  0.3358 -0.3753
  303MPD2    C1 4559   2.640   0.379   9.461  0.1672 -0.7916 -0.7124
  303MPD2    C2 4560   2.693   0.344   9.336  0.0669 -0.2894 -0.2691
  303MPD2    C3 4561   2.810   0.402   9.295  0.3968 -0.3696  0.1115
  303MPD2    C4 4562   2.862   0.512   9.369 -0.6137 -0.0650 -0.0862
  303MPD2    C5 4563   2.797   0.561   9.475  0.0475  0.2319 -0.1017
  303MPD2     H 4564   2.645   0.257   9.294  1.2809 -1.0028 -0.1618
  303MPD2    H1 4565   2.952   0.559   9.334 -0.9748 -0.9286 -2.1956
  303MPD2    H2 4566   2.651   0.517   9.622  0.8590 -1.1589  0.6004
  303MPD2    H3 4567   2.831   0.654   9.519  2.2213 -0.6662  0.1434
  303MPD2     N 4568   2.883   0.356   9.180 -0.1515 -0.3857  0.1836
  303MPD2    H5 4569   2.961   0.414   9.151 -1.7711  1.1210 -1.1764
  303MPD2    N1 4570   2.528   0.304   9.513  0.3015  0.0266 -0.9861
  303MPD2    H7 4571   2.492   0.229   9.455  1.0913 -0.4274 -0.8809
  304TMC3    C1 4572   2.381   0.211   9.671 -0.8144 -0.3309  0.9133
  304TMC3    C2 4573   2.281   0.199   9.573  0.2474 -0.3121 -0.5044
  304TMC3    C3 4574   2.189   0.102   9.589 -0.2780 -0.3335 -0.6443
  304TMC3    C4 4575   2.381   0.138   9.789  0.1607  0.3972 -0.6248
  304TMC3    C5 4576   2.292   0.031   9.790  0.2220 -0.1891 -0.0656
  304TMC3    C6 4577   2.196   0.020   9.697 -0.1682 -0.1956  0.4044
  304TMC3     C 4578   2.481   0.304   9.640  0.3870  0.5168 -0.3147
  304TMC3     O 4579   2.530   0.359   9.738 -0.2592  0.2737  0.6644
  304TMC3     H 4580   2.275   0.263   9.486  1.1284 -0.2444 -0.5206
  304TMC3    H1 4581   2.458   0.147   9.863 -0.1351  1.1136 -0.4085
  304TMC3    H2 4582   2.115   4.672   9.711 -0.6474  0.5052  1.2279
  304TMC3    C7 4583   2.362   4.624   9.803  0.3131  0.3412 -0.0766
  304TMC3    C8 4584   2.154   0.037   9.474  0.6502 -0.1548  0.3258
  304TMC3    O1 4585   2.460   4.619   9.874  0.6131  0.5798  0.4751
  304TMC3    O2 4586   2.162   4.639   9.482 -0.7400 -0.8886  0.3005
  305MPD2     C 4587   0.093   2.008  13.813  0.1840 -0.4267 -0.5949
  305MPD2    C1 4588   0.182   2.102  13.773 -0.1546  0.1806  0.3041
  305MPD2    C2 4589   0.166   2.159  13.653  0.1264 -0.2107 -0.0350
  305MPD2    C3 4590   0.060   2.124  13.568 -0.1861  0.0134  0.8738
  305MPD2    C4 4591   4.689   2.037  13.609 -0.1680  0.6166  0.1817
  305MPD2    C5 4592   4.710   1.973  13.728 -0.4867  0.2971  1.4614
  305MPD2     H 4593   0.238   2.231  13.615 -0.1577  0.9281  1.5658
  305MPD2    H1 4594   4.601   2.013  13.552 -0.2817  2.9171 -0.5997
  305MPD2    H2 4595   0.110   1.959  13.909  1.1956  0.2216 -0.4449
  305MPD2    H3 4596   4.651   1.890  13.764 -0.1493 -0.3040  0.6145
  305MPD2     N 4597   0.043   2.181  13.441  0.2763 -0.3582 -0.5867
  305MPD2    H5 4598   4.695   2.140  13.382 -0.5544 -0.7901  0.6979
  305MPD2    N1 4599   0.290   2.129  13.864 -0.2193  0.5186 -0.4184
  305MPD2    H7 4600   0.301   2.070  13.945 -0.1530  1.6819  0.4144
  306TMC3    C1 4601   0.493   2.238  13.949 -0.3592 -0.2885 -0.2182
  306TMC3    C2 4602   0.522   2.137  14.042 -0.0531  0.0735 -0.2120
  306TMC3    C3 4603   0.598   2.169  14.155  0.0206 -0.6062  0.6837
  306TMC3    C4 4604   0.541   2.361  13.963  0.1620 -0.1797 -0.7142
  306TMC3    C5 4605   0.623   2.388  14.076 -0.9386 -0.1668  0.7548
  306TMC3    C6 4606   0.646   2.299  14.177 -0.4695  0.1985 -0.1831
  306TMC3     C 4607   0.389   2.227  13.845 -0.5376 -0.5578 -0.1984
  306TMC3     O 4608   0.381   2.323  13.768 -0.4635  0.4250  0.0676
  306TMC3     H 4609   0.491   2.035  14.022 -0.0697  0.0408 -0.0154
  306TMC3    H1 4610   0.531   2.448  13.899  3.0036 -0.6969 -1.8636
  306TMC3    H2 4611   0.722   2.319  14.252 -0.5914 -1.0897  0.2902
  306TMC3    C7 4612   0.662   2.527  14.099  0.6276 -0.7034  0.2242
  306TMC3    C8 4613   0.658   2.063  14.241 -0.1283  0.5020  0.0606
  306TMC3    O1 4614   0.670   2.602  14.003 -0.6368  0.4285  0.0748
  306TMC3    O2 4615   0.646   1.949  14.206 -0.3825  0.4589 -0.4792
  307MPD2     C 4616   2.600   0.342   1.264 -0.6573 -0.2978  0.1519
  307MPD2    C1 4617   2.604   0.411   1.146  0.5299  0.2201 -0.7418
  307MPD2    C2 4618   2.497   0.396   1.058 -0.5615  0.1419 -0.5381
  307MPD2    C3 4619   2.380   0.324   1.094 -0.8253  0.1303 -1.3469
  307MPD2    C4 4620   2.377   0.269   1.222 -0.5736  0.2945  0.1764
  307MPD2    C5 4621   2.488   0.273   1.296 -0.2306 -0.6886 -0.0972
  307MPD2     H 4622   2.497   0.450   0.964  2.8923 -1.2400 -1.3163
  307MPD2    H1 4623   2.291   0.218   1.263  0.2851 -1.5623 -0.3194
  307MPD2    H2 4624   2.683   0.341   1.334 -2.6524 -0.4661  2.5146
  307MPD2    H3 4625   2.482   0.229   1.395  1.8199  2.3050  1.3423
  307MPD2     N 4626   2.273   0.334   1.005  0.5661 -0.2572 -0.4645
  307MPD2    H5 4627   2.293   0.373   0.913  1.2957  0.0909 -0.1597
  307MPD2    N1 4628   2.707   0.505   1.104 -0.2649  0.0639  0.4141
  307MPD2    H7 4629   2.710   0.537   1.007  0.3034 -1.1891  0.0257
  308TMC3    C1 4630   1.941   0.202   0.734  0.2479 -0.1874  0.1667
  308TMC3    C2 4631   1.900   0.329   0.701 -0.2962 -0.5031  0.9876
  308TMC3    C3 4632   1.965   0.433   0.767 -0.1791 -0.3989  0.1100
  308TMC3    C4 4633   2.025   0.172   0.845 -0.8824  0.4592  0.0104
  308TMC3    C5 4634   2.075   0.282   0.907 -0.8145  0.1267 -0.6243
  308TMC3    C6 4635   2.062   0.412   0.868 -0.3803  0.0501 -0.1582
  308TMC3     C 4636   1.950   0.112   0.625  0.0619 -0.7188  0.0374
  308TMC3     O 4637   1.968   4.718   0.660  0.2678  0.0208  0.3964
  308TMC3     H 4638   1.826   0.346   0.623  0.8337 -1.9871 -0.3924
  308TMC3    H1 4639   2.051   0.070   0.872 -0.3474  0.5336 -0.2171
  308TMC3    H2 4640   2.094   0.484   0.943  2.1989 -0.3547 -0.8698
  308TMC3    C7 4641   2.160   0.258   1.018  0.5197 -0.7741 -0.1434
  308TMC3    C8 4642   1.942   0.571   0.726 -0.1496 -0.1732  1.5253
  308TMC3    O1 4643   2.133   0.168   1.099  0.1276  0.6379 -0.0833
  308TMC3    O2 4644   1.830   0.596   0.687 -0.2981  0.2708 -0.2959
  309MPD2     C 4645   1.945   0.869  16.604 -0.0738 -0.0086  0.1989
  309MPD2    C1 4646   1.854   0.830  16.504  0.1090 -0.9404 -0.7803
  309MPD2    C2 4647   1.721   0.796  16.535  0.0308  0.6770  0.0614
  309MPD2    C3 4648   1.686   0.784  16.667  0.5943 -0.1343  0.9391
  309MPD2    C4 4649   1.773   0.825  16.762 -0.0301  0.0914 -0.3764
  309MPD2    C5 4650   1.901   0.866  16.731  0.0964  0.2681 -0.5592
  309MPD2     H 4651   1.643   0.778  16.462  2.8083 -0.6646 -2.5661
  309MPD2    H1 4652   1.740   0.829  16.865 -0.9676  3.1063 -0.8024
  309MPD2    H2 4653   2.044   0.903  16.577 -0.8013  0.6893 -1.5920
  309MPD2    H3 4654   1.970   0.892  16.810 -0.5475 -0.2362  0.1741
  309MPD2     N 4655   1.555   0.743  16.709  0.1882  1.1850  0.2335
  309MPD2    H5 4656   1.543   0.721  16.807  0.9500  0.1406  0.0898
  309MPD2    N1 4657   1.889   0.830  16.368 -0.7401 -0.1557 -0.0838
  309MPD2    H7 4658   1.815   0.828  16.298 -1.1437 -1.6055  0.3765
  310TMC3    C1 4659   2.039   0.816  16.187  0.6209 -0.0356  0.4177
  310TMC3    C2 4660   1.978   0.919  16.122  0.1265  0.3163 -0.1224
  310TMC3    C3 4661   2.032   0.952  16.000 -0.7239  0.6774 -0.4589
  310TMC3    C4 4662   2.134   0.733  16.135 -0.2541 -0.1113  0.4360
  310TMC3    C5 4663   2.176   0.768  16.011 -0.1857 -0.3457 -0.4483
  310TMC3    C6 4664   2.127   0.875  15.946 -1.0743 -0.4368 -0.3931
  310TMC3     C 4665   2.025   0.801  16.331  0.2646  0.6311 -0.8133
  310TMC3     O 4666   2.131   0.798  16.392  0.2976 -0.4500 -0.3579
  310TMC3     H 4667   1.902   0.983  16.164 -0.5325 -0.6059  0.0981
  310TMC3    H1 4668   2.175   0.649  16.191  0.0312  0.4739  1.1084
  310TMC3    H2 4669   2.151   0.900  15.843 -1.1817 -0.3303 -0.3924
  310TMC3    C7 4670   2.304   0.713  15.970 -0.5053  0.0756  0.6227
  310TMC3    C8 4671   1.968   1.057  15.927  0.0694  0.2563 -0.3921
  310TMC3    O1 4672   2.318   0.599  16.014 -0.2433 -0.2579 -0.0966
  310TMC3    O2 4673   1.849   1.071  15.960 -0.2244 -1.1374  0.9008
  311MPD2     C 4674   3.965   2.030  12.422 -0.4297  0.0259  0.6494
  311MPD2    C1 4675   3.987   2.131  12.516 -0.1671 -0.0286  0.0953
  311MPD2    C2 4676   3.874   2.189  12.573 -0.9192  1.2410  0.4384
  311MPD2    C3 4677   3.748   2.160  12.529  0.0755  0.4564 -0.1753
  311MPD2    C4 4678   3.728   2.071  12.432 -0.4115  0.0331  0.1407
  311MPD2    C5 4679   3.837   2.008  12.385 -0.2868 -0.2003 -0.0422
  311MPD2     H 4680   3.884   2.273  12.642 -2.3139  1.3549  0.4934
  311MPD2    H1 4681   3.629   2.037  12.404 -0.5765  0.6091  0.0207
  311MPD2    H2 4682   4.051   1.984  12.376 -0.2263  2.3538 -1.2643
  311MPD2    H3 4683   3.825   1.934  12.307  0.4689 -0.6334  0.2499
  311MPD2     N 4684   3.646   2.226  12.599 -0.3293 -0.2226  0.2068
  311MPD2    H5 4685   3.675   2.285  12.676  1.0839 -0.1729 -0.3466
  311MPD2    N1 4686   4.114   2.179  12.554  0.1228  0.3366 -0.7427
  311MPD2    H7 4687   4.115   2.251  12.625  0.1079 -1.0887  0.7208
  312TMC3    C1 4688   3.423   2.269  12.664 -0.0344 -0.0631 -0.0939
  312TMC3    C2 4689   3.292   2.280  12.621  0.6025  0.3819  0.3973
  312TMC3    C3 4690   3.195   2.271  12.710  0.0167  0.8790 -0.0552
  312TMC3    C4 4691   3.461   2.235  12.797 -0.3529  0.1497 -0.5048
  312TMC3    C5 4692   3.348   2.215  12.876  0.0229  0.1255 -0.3172
  312TMC3    C6 4693   3.219   2.226  12.835  0.0672 -0.1113 -0.1819
  312TMC3     C 4694   3.512   2.222  12.564  0.6049 -0.6234 -0.8339
  312TMC3     O 4695   3.455   2.181  12.461 -0.0976  0.2758  0.2589
  312TMC3     H 4696   3.276   2.316  12.520  2.1612 -0.7841 -0.2711
  312TMC3    H1 4697   3.562   2.228  12.836 -0.7353  0.0435  0.4621
  312TMC3    H2 4698   3.141   2.213  12.909 -1.5438  0.1930 -1.8351
  312TMC3    C7 4699   3.384   2.200  13.014 -0.1974  0.0659 -0.2554
  312TMC3    C8 4700   3.057   2.260  12.660 -0.1777  0.0348  0.5658
  312TMC3    O1 4701   3.333   2.113  13.081  0.5622 -0.7784 -0.1687
  312TMC3    O2 4702   2.979   2.180  12.713  0.1148 -0.8939  0.0220
  313MPD2     C 4703   3.686   1.287  10.532 -0.6799  0.4010  0.0199
  313MPD2    C1 4704   3.564   1.337  10.564 -0.0938 -0.0371 -0.5267
  313MPD2    C2 4705   3.449   1.268  10.514  0.0782 -0.7585 -0.5660
  313MPD2    C3 4706   3.454   1.159  10.430 -0.2011  0.6448  0.2108
  313MPD2    C4 4707   3.581   1.113  10.405  0.2442 -0.4915  0.0671
  313MPD2    C5 4708   3.692   1.171  10.457 -1.5078  0.0705 -0.1967
  313MPD2     H 4709   3.352   1.309  10.541  1.6483  0.2665  3.5773
  313MPD2    H1 4710   3.604   1.020  10.354  1.3504 -0.7802  1.1112
  313MPD2    H2 4711   3.779   1.331  10.566 -2.0557  2.7687  0.7143
  313MPD2    H3 4712   3.792   1.133  10.440 -0.5687  1.1092  2.8589
  313MPD2     N 4713   3.336   1.101  10.379  0.9314 -0.4855 -0.1865
  313MPD2    H5 4714   3.246   1.134  10.413 -0.3710 -2.8515 -1.3159
  313MPD2    N1 4715   3.551   1.452  10.649 -0.0776  0.1514  0.8545
  313MPD2    H7 4716   3.457   1.488  10.665 -0.9394 -1.3040 -0.9841
  314TMC3    C1 4717   3.608   1.655  10.736  0.3842  0.8651 -0.8024
  314TMC3    C2 4718   3.679   1.735  10.820 -0.1610  0.2837  0.4131
  314TMC3    C3 4719   3.647   1.868  10.830  0.2931 -0.3359 -0.9078
  314TMC3    C4 4720   3.511   1.703  10.649  0.0111 -0.2455 -0.4346
  314TMC3    C5 4721   3.488   1.836  10.657  0.3528  0.1334 -0.5656
  314TMC3    C6 4722   3.548   1.920  10.747  0.4245  0.1605  0.0137
  314TMC3     C 4723   3.652   1.523  10.708  0.1951  0.4770 -0.6351
  314TMC3     O 4724   3.771   1.498  10.723  0.1386  0.1911 -0.0646
  314TMC3     H 4725   3.763   1.691  10.873  1.0740  0.9001 -1.0059
  314TMC3    H1 4726   3.474   1.654  10.560 -1.9145  1.5263 -0.5990
  314TMC3    H2 4727   3.543   2.028  10.736  1.0969  0.2422  0.5112
  314TMC3    C7 4728   3.444   1.902  10.537 -0.3124  0.1922  0.1051
  314TMC3    C8 4729   3.701   1.964  10.932  0.3043  0.2435  0.5653
  314TMC3    O1 4730   3.354   1.844  10.473 -0.0183 -0.3095 -0.4050
  314TMC3    O2 4731   3.656   2.076  10.929  0.2081  0.0675  0.0500
  315MPD2     C 4732   3.167   0.110  16.871 -0.2046 -0.2550 -0.4623
  315MPD2    C1 4733   3.274   0.102  16.958  0.2988  0.3048  0.5065
  315MPD2    C2 4734   3.339   0.222  16.982  0.2027 -0.0624 -0.2982
  315MPD2    C3 4735   3.290   0.338  16.937 -0.3258  0.3687 -0.3220
  315MPD2    C4 4736   3.193   0.346  16.846 -0.3667 -0.4194 -0.2983
  315MPD2    C5 4737   3.134   0.230  16.813 -0.0286  0.1582 -0.9865
  315MPD2     H 4738   3.424   0.224  17.049 -1.0486  1.7829  1.2096
  315MPD2    H1 4739   3.151   0.437  16.803 -0.4440 -1.0252 -1.4946
  315MPD2    H2 4740   3.104   0.023  16.857 -2.1577  0.9255  0.8947
  315MPD2    H3 4741   3.054   0.229  16.739 -1.6467  0.6711  0.7584
  315MPD2     N 4742   3.352   0.454  16.995  0.6906  0.1496  0.2937
  315MPD2    H5 4743   3.405   0.437  17.080  1.9267  0.6012 -0.3864
  315MPD2    N1 4744   3.325   4.701  17.011  0.0656  0.1513 -0.0984
  315MPD2    H7 4745   3.414   4.714  17.058 -0.2174  3.3079 -0.3906
  316TMC3    C1 4746   3.407   0.678  17.039  0.9358  0.6240  0.2147
  316TMC3    C2 4747   3.424   0.644  17.173 -0.7566  0.0331 -0.9194
  316TMC3    C3 4748   3.474   0.741  17.254  0.1628  0.4781 -0.1207
  316TMC3    C4 4749   3.424   0.803  16.983  0.5711 -0.0736  0.1279
  316TMC3    C5 4750   3.471   0.897  17.076 -0.1503  0.6428  0.0929
  316TMC3    C6 4751   3.494   0.862  17.207  0.5572  0.1218  0.9475
  316TMC3     C 4752   3.341   0.583  16.953 -0.1273 -0.3897  0.1039
  316TMC3     O 4753   3.291   0.634  16.850 -0.1870  0.1769  0.1731
  316TMC3     H 4754   3.419   0.539  17.198  0.9674  0.2401  0.2790
  316TMC3    H1 4755   3.413   0.823  16.877 -0.9609 -0.0650  0.2825
  316TMC3    H2 4756   3.512   0.944  17.275 -1.6441 -0.1818  1.9104
  316TMC3    C7 4757   3.503   1.037  17.026  0.5717  0.0993 -0.0682
  316TMC3    C8 4758   3.471   0.707  17.395  0.0587 -0.7576 -0.1634
  316TMC3    O1 4759   3.564   1.115  17.097  0.5681  0.3820 -0.0146
  316TMC3    O2 4760   3.405   0.613  17.430  0.0331 -0.1184 -0.2722
  317MPD2     C 4761   0.316   3.935  12.122  0.5358 -0.3376 -0.2367
  317MPD2    C1 4762   0.445   3.874  12.131 -0.1744 -0.1721  0.3893
  317MPD2    C2 4763   0.525   3.872  12.246  0.8707 -0.5081 -0.5480
  317MPD2    C3 4764   0.469   3.918  12.358  0.6272  0.6099 -0.2353
  317MPD2    C4 4765   0.337   3.971  12.360  0.1578 -0.1427  0.1809
  317MPD2    C5 4766   0.263   3.974  12.244  0.4102 -0.2682 -0.8288
  317MPD2     H 4767   0.623   3.826  12.253 -0.3350 -2.7421  1.5088
  317MPD2    H1 4768   0.292   3.991  12.456 -0.7335 -1.9084  0.1345
  317MPD2    H2 4769   0.253   3.929  12.033 -4.3488  0.6046  3.1418
  317MPD2    H3 4770   0.158   3.999  12.237  0.2439 -1.0121 -1.0774
  317MPD2     N 4771   0.551   3.912  12.468  0.4742 -0.3782  0.0441
  317MPD2    H5 4772   0.627   3.846  12.462  0.9484  0.2130 -0.3996
  317MPD2    N1 4773   0.500   3.800  12.024  0.2530 -0.1022 -0.3169
  317MPD2    H7 4774   0.581   3.743  12.047  0.1508 -1.1442 -2.5598
  318TMC3    C1 4775   0.579   3.858  12.688 -0.0068 -0.3777  0.6888
  318TMC3    C2 4776   0.615   3.740  12.640  0.7007  0.9578  0.2571
  318TMC3    C3 4777   0.676   3.646  12.718  0.8281  1.1425  0.2844
  318TMC3    C4 4778   0.587   3.895  12.819 -0.2262 -0.1571 -0.3863
  318TMC3    C5 4779   0.651   3.802  12.899 -0.0887 -0.3120  0.1948
  318TMC3    C6 4780   0.690   3.680  12.853 -0.1911  0.6249 -0.0035
  318TMC3     C 4781   0.510   3.939  12.597 -0.2481 -0.0730 -0.6085
  318TMC3     O 4782   0.436   4.019  12.650  0.0930 -0.5722 -0.5378
  318TMC3     H 4783   0.588   3.694  12.546  0.4939  2.8424 -0.6123
  318TMC3    H1 4784   0.559   3.992  12.860 -0.5709 -0.0696 -0.8310
  318TMC3    H2 4785   0.739   3.607  12.917 -0.2503  0.7306  0.1613
  318TMC3    C7 4786   0.675   3.831  13.042  0.0291 -0.6919  0.0908
  318TMC3    C8 4787   0.604   3.518  12.697 -0.3069  0.1759  0.7666
  318TMC3    O1 4788   0.604   3.914  13.093  0.5147  0.4348 -0.2788
  318TMC3    O2 4789   0.507   3.511  12.625 -0.0041  0.9261 -0.0694
  319MPD2     C 4790   1.296   0.404  16.395  0.4565 -0.2831 -0.1039
  319MPD2    C1 4791   1.227   0.322  16.478 -0.4283 -0.3672  0.7608
  319MPD2    C2 4792   1.090   0.316  16.465 -0.8255 -0.5955  0.4641
  319MPD2    C3 4793   1.023   0.400  16.374 -0.4429 -0.1856  0.1107
  319MPD2    C4 4794   1.101   0.485  16.293  0.5190 -0.6977 -0.1777
  319MPD2    C5 4795   1.237   0.490  16.305 -0.8052 -0.4795 -0.3213
  319MPD2     H 4796   1.034   0.244  16.522  0.4938 -1.3066  0.8601
  319MPD2    H1 4797   1.057   0.551  16.220 -1.9616 -0.4528  1.5418
  319MPD2    H2 4798   1.404   0.413  16.402  0.3744  0.5110  0.1300
  319MPD2    H3 4799   1.284   0.569  16.249  1.1047  0.2820  2.3326
  319MPD2     N 4800   0.882   0.398  16.355  0.1896  0.0044 -0.1631
  319MPD2    H5 4801   0.848   0.462  16.285  2.3204  0.3918 -0.8523
  319MPD2    N1 4802   1.285   0.256  16.590  0.2207 -0.2198  0.0454
  319MPD2    H7 4803   1.228   0.199  16.652  0.5705 -0.1658  0.4167
  320TMC3    C1 4804   0.656   0.317  16.373 -0.2276  0.6832  0.1052
  320TMC3    C2 4805   0.623   0.399  16.268 -0.0034  0.0121 -0.2142
  320TMC3    C3 4806   0.489   0.392  16.234  0.6660 -0.4832  0.9768
  320TMC3    C4 4807   0.570   0.242  16.445 -0.4750  0.3012  0.3222
  320TMC3    C5 4808   0.445   0.236  16.402 -0.3260 -0.2722 -0.1139
  320TMC3    C6 4809   0.396   0.314  16.292 -0.0602 -0.9388 -0.1387
  320TMC3     C 4810   0.794   0.309  16.414 -0.0309  0.4762  0.9217
  320TMC3     O 4811   0.818   0.222  16.495 -0.6261 -0.0009 -0.1887
  320TMC3     H 4812   0.695   0.435  16.196 -2.4228  0.8652 -2.2087
  320TMC3    H1 4813   0.601   0.179  16.527 -1.5327  1.4276  1.5948
  320TMC3    H2 4814   0.291   0.330  16.269  0.1915 -0.1400 -0.7677
  320TMC3    C7 4815   0.360   0.146  16.477  0.0156 -0.3449 -0.2297
  320TMC3    C8 4816   0.458   0.434  16.105  0.1724 -0.3349  0.4557
  320TMC3    O1 4817   0.375   0.142  16.603 -0.3926 -0.4743 -0.6019
  320TMC3    O2 4818   0.509   0.540  16.071  0.4593  0.2056  0.1311
  321TMC3    C1 4819   1.437   0.176  16.743 -0.3317  0.1154  1.0886
  321TMC3    C2 4820   1.364   0.067  16.777  0.8531 -0.1194  0.0591
  321TMC3    C3 4821   1.382   0.010  16.897 -0.5992  0.2674  0.0157
  321TMC3    C4 4822   1.540   0.219  16.826 -0.1490 -0.1467  0.3305
  321TMC3    C5 4823   1.545   0.171  16.957 -0.0183 -0.2671 -0.5840
  321TMC3    C6 4824   1.463   0.064  16.989 -0.0961 -0.0339 -0.1572
  321TMC3     C 4825   1.418   0.258  16.617  0.4945 -0.0932  0.3306
  321TMC3     O 4826   1.518   0.323  16.578 -0.3312 -0.4269  0.6378
  321TMC3     H 4827   1.301   0.017  16.704 -0.1230  0.5559  0.4342
  321TMC3    H1 4828   1.595   0.308  16.798  1.6894 -1.5251 -0.4327
  321TMC3    H2 4829   1.450   0.028  17.090  3.3740 -0.9594 -0.0630
  321TMC3    C7 4830   1.671   0.142  17.020 -0.5554  0.2082  0.1349
  321TMC3    C8 4831   1.414   4.596  16.875  0.2108 -1.0309  0.2330
  321TMC3    O1 4832   1.681   0.038  17.077  0.3186 -0.1057  0.2126
  321TMC3    O2 4833   1.355   4.525  16.800  0.3527 -0.1818 -0.2593
  322MPD2     C 4834   0.445   1.532  12.816  0.1497  0.0965  0.2873
  322MPD2    C1 4835   0.399   1.542  12.944 -0.2342 -0.7771  0.4749
  322MPD2    C2 4836   0.362   1.421  13.007 -0.5584 -0.6833 -0.8369
  322MPD2    C3 4837   0.378   1.299  12.941 -0.9944  0.1387  0.3663
  322MPD2    C4 4838   0.422   1.298  12.814 -0.3717  0.3872 -0.7479
  322MPD2    C5 4839   0.450   1.413  12.746 -0.2765  0.5267  0.3881
  322MPD2     H 4840   0.342   1.415  13.113 -0.9478 -0.3774 -0.8941
  322MPD2    H1 4841   0.426   1.208  12.754 -1.9537 -1.0459  1.3094
  322MPD2    H2 4842   0.485   1.617  12.762 -2.3101 -0.2240 -2.0824
  322MPD2    H3 4843   0.476   1.409  12.641 -0.7760 -1.8602  0.3446
  322MPD2     N 4844   0.334   1.184  13.014 -0.2767 -0.2863  0.3523
  322MPD2    H5 4845   0.294   1.203  13.105 -0.6745 -1.9095  0.5150
  322MPD2    N1 4846   0.391   1.670  13.003 -0.7841  0.1069 -0.3927
  322MPD2    H7 4847   0.402   1.746  12.937  1.1766  0.4069  0.2606
  323TMC3    C1 4848   0.338   1.821  13.173 -0.0866  0.0979 -0.1640
  323TMC3    C2 4849   0.438   1.915  13.150  0.5104  0.1790 -0.7879
  323TMC3    C3 4850   0.435   2.029  13.234  0.0442 -0.0451 -1.0792
  323TMC3    C4 4851   0.251   1.832  13.274  0.4181  0.0785 -0.0201
  323TMC3    C5 4852   0.260   1.939  13.362 -0.7184 -0.2646  0.5575
  323TMC3    C6 4853   0.342   2.040  13.331  0.0232  0.2407 -0.3241
  323TMC3     C 4854   0.365   1.686  13.138 -0.3609  0.1500  0.3133
  323TMC3     O 4855   0.343   1.607  13.234  0.1201 -0.3798  0.5168
  323TMC3     H 4856   0.509   1.896  13.070  1.1865 -1.1357  0.1137
  323TMC3    H1 4857   0.190   1.744  13.289  1.2381 -0.0010  2.7359
  323TMC3    H2 4858   0.351   2.125  13.398  0.1456  0.2592 -0.3625
  323TMC3    C7 4859   0.282   1.882  13.491 -0.0836 -0.0169 -0.0819
  323TMC3    C8 4860   0.552   2.106  13.250  0.9342  0.1365 -0.0884
  323TMC3    O1 4861   0.233   1.773  13.512  0.0044 -0.1216  0.1655
  323TMC3    O2 4862   0.557   2.172  13.350 -0.0161 -0.5333  0.6033
  324MPD2     C 4863   1.868   2.709  14.418 -0.4788 -0.5922  0.7503
  324MPD2    C1 4864   1.917   2.822  14.366  0.1752 -0.3402 -0.0970
  324MPD2    C2 4865   1.825   2.899  14.299  0.1373  0.3368 -0.2655
  324MPD2    C3 4866   1.689   2.875  14.286  0.2668 -0.3478  0.7313
  324MPD2    C4 4867   1.641   2.759  14.346 -0.5418  0.5447  0.7911
  324MPD2    C5 4868   1.733   2.679  14.413 -0.2432  0.2297  0.0294
  324MPD2     H 4869   1.865   2.981  14.241 -0.9749  1.8186  1.0680
  324MPD2    H1 4870   1.533   2.746  14.353 -0.4809 -0.5715 -0.2581
  324MPD2    H2 4871   1.929   2.630  14.459 -2.4006 -3.0239 -1.0701
  324MPD2    H3 4872   1.698   2.588  14.459 -0.1002  1.8085  3.2352
  324MPD2     N 4873   1.597   2.956  14.215  0.0424  0.1125  0.0080
  324MPD2    H5 4874   1.505   2.927  14.243  0.5107 -1.4644 -0.0977
  324MPD2    N1 4875   2.056   2.846  14.359  0.2582  0.5645  0.0064
  324MPD2    H7 4876   2.100   2.916  14.301  2.5991 -1.7462 -1.0494
  325TMC3    C1 4877   1.511   3.136  14.085 -0.6519 -0.2148 -0.9593
  325TMC3    C2 4878   1.406   3.060  14.045  0.4883 -0.1413 -0.2332
  325TMC3    C3 4879   1.318   3.111  13.964 -0.1994  0.6902 -0.2176
  325TMC3    C4 4880   1.527   3.265  14.038 -0.5914 -0.3852  0.0363
  325TMC3    C5 4881   1.424   3.325  13.967  0.4350  0.0349 -0.4469
  325TMC3    C6 4882   1.319   3.243  13.921  0.1265  0.1451 -0.1867
  325TMC3     C 4883   1.626   3.075  14.142  0.4280  0.2052  0.7015
  325TMC3     O 4884   1.737   3.125  14.116 -0.1939  0.1748  0.0343
  325TMC3     H 4885   1.387   2.958  14.078  1.1460 -0.5884 -1.2339
  325TMC3    H1 4886   1.625   3.311  14.047 -0.3042 -0.8625 -0.6924
  325TMC3    H2 4887   1.243   3.283  13.855 -1.3199 -2.0821  0.1101
  325TMC3    C7 4888   1.372   3.440  14.051  0.6481  0.2766  0.3299
  325TMC3    C8 4889   1.220   3.010  13.917  0.3116 -0.2577 -0.3107
  325TMC3    O1 4890   1.449   3.521  14.100 -0.5469 -0.3235  0.1697
  325TMC3    O2 4891   1.240   2.889  13.914 -0.3578  0.5324 -0.0581
  326MPD2     C 4892   3.556   3.857  10.123 -0.4436 -0.1487  0.3623
  326MPD2    C1 4893   3.493   3.959  10.184 -0.5022  0.1988 -0.2318
  326MPD2    C2 4894   3.568   4.048  10.259  0.1263 -0.4870  0.1002
  326MPD2    C3 4895   3.706   4.055  10.252 -0.5473 -0.0041 -0.4750
  326MPD2    C4 4896   3.768   3.956  10.180 -0.6960  0.0209 -0.6699
  326MPD2    C5 4897   3.696   3.851  10.125  0.1905 -0.3885  0.1322
  326MPD2     H 4898   3.523   4.116  10.331  1.7011  0.1481  0.4826
  326MPD2    H1 4899   3.876   3.957  10.164 -0.6925 -0.9269 -0.7231
  326MPD2    H2 4900   3.509   3.767  10.085 -0.0141  0.1946 -0.9789
  326MPD2    H3 4901   3.749   3.766  10.084  1.9583  1.1893 -0.8891
  326MPD2     N 4902   3.784   4.148  10.323 -0.2254  0.2584 -0.3147
  326MPD2    H5 4903   3.883   4.129  10.314 -0.2821 -0.3531  0.3360
  326MPD2    N1 4904   3.352   3.976  10.197  0.0879  0.5704  0.2076
  326MPD2    H7 4905   3.314   4.042  10.265 -0.4854  1.2587 -0.7811
  327TMC3    C1 4906   3.126   3.940  10.145  0.2936  0.4531 -0.3954
  327TMC3    C2 4907   3.092   4.037  10.055  0.0821  0.0467 -0.1465
  327TMC3    C3 4908   2.997   4.126  10.104 -0.3934  0.3547  0.2456
  327TMC3    C4 4909   3.078   3.933  10.273 -0.3664  0.7868 -0.8120
  327TMC3    C5 4910   2.985   4.028  10.311 -0.5635 -0.0383  0.0327
  327TMC3    C6 4911   2.937   4.117  10.231  0.2156  0.1868  0.1396
  327TMC3     C 4912   3.260   3.894  10.128  0.2489 -0.4872  0.1691
  327TMC3     O 4913   3.286   3.813  10.040 -0.3449  0.2488  0.6457
  327TMC3     H 4914   3.154   4.063   9.970  1.0734 -1.9410 -0.0204
  327TMC3    H1 4915   3.117   3.859  10.342 -1.7498  2.6259  1.9304
  327TMC3    H2 4916   2.869   4.191  10.271  2.3948  1.5748  1.2646
  327TMC3    C7 4917   2.921   4.017  10.438 -0.4124  0.1059 -0.2129
  327TMC3    C8 4918   2.975   4.250  10.036  0.2349 -0.2958  0.8035
  327TMC3    O1 4919   2.803   4.053  10.442  0.2197  0.0797 -0.1225
  327TMC3    O2 4920   2.992   4.356  10.098 -0.5504  0.1213 -0.4019
  328MPD2     C 4921   0.322   2.894  16.931 -0.4816  0.6577  0.4662
  328MPD2    C1 4922   0.334   3.025  16.971 -0.0736 -0.9153 -0.3338
  328MPD2    C2 4923   0.376   3.116  16.877 -0.0244  0.0703 -0.0193
  328MPD2    C3 4924   0.378   3.082  16.741  0.3267 -0.7154 -0.3656
  328MPD2    C4 4925   0.345   2.955  16.696 -0.5462 -0.4288 -0.1665
  328MPD2    C5 4926   0.332   2.858  16.794 -0.2518  0.2359 -0.5082
  328MPD2     H 4927   0.406   3.213  16.915 -1.3013  0.2310  0.5689
  328MPD2    H1 4928   0.357   2.926  16.592 -2.8659  0.0179 -0.5642
  328MPD2    H2 4929   0.296   2.818  17.004 -1.4916 -0.1726 -0.7429
  328MPD2    H3 4930   0.326   2.752  16.774 -0.1599  0.0439  0.4703
  328MPD2     N 4931   0.434   3.171  16.642  0.7579 -0.1682 -0.2204
  328MPD2    H5 4932   0.425   3.137  16.547 -0.3802 -1.0533  0.1994
  328MPD2    N1 4933   0.309   3.060  17.104  0.9317  0.4769 -0.4983
  328MPD2    H7 4934   0.287   2.979  17.161 -2.0373  0.4311 -1.6895
  329TMC3    C1 4935   0.312   3.197  17.304 -0.2706 -0.0924 -0.1429
  329TMC3    C2 4936   0.340   3.319  17.354  0.5552 -0.2534  0.3391
  329TMC3    C3 4937   0.370   3.336  17.488  0.4792  0.0488 -0.6509
  329TMC3    C4 4938   0.325   3.087  17.389  0.6549 -0.6582 -0.3922
  329TMC3    C5 4939   0.363   3.110  17.520  0.2146  1.1449  0.1831
  329TMC3    C6 4940   0.390   3.229  17.571 -1.0212  0.1253  0.3973
  329TMC3     C 4941   0.320   3.187  17.158  0.4002  0.1169 -0.9023
  329TMC3     O 4942   0.351   3.294  17.101 -0.5544 -0.8540  0.1516
  329TMC3     H 4943   0.331   3.412  17.299  1.9223 -0.5539 -0.3903
  329TMC3    H1 4944   0.295   2.987  17.362  0.2716 -0.8948  0.8949
  329TMC3    H2 4945   0.425   3.238  17.674  0.6371 -0.5137 -0.1216
  329TMC3    C7 4946   0.365   3.000  17.613  0.4093  0.1087  0.4303
  329TMC3    C8 4947   0.398   3.467  17.537  0.2494 -0.0444 -0.1340
  329TMC3    O1 4948   0.363   3.043   0.029  0.2000  0.0837  0.3372
  329TMC3    O2 4949   0.420   3.552  17.453 -1.0283 -0.4503  0.0089
  330TMC3    C1 4950   4.192   1.958   8.883 -0.8646 -0.1603 -0.8253
  330TMC3    C2 4951   4.103   1.870   8.823  0.2385 -0.1307  0.5795
  330TMC3    C3 4952   4.157   1.745   8.810  0.7784 -0.0648 -0.1862
  330TMC3    C4 4953   4.319   1.924   8.924  0.0664  0.8980  0.2772
  330TMC3    C5 4954   4.361   1.797   8.904 -0.0818 -0.4454  0.1093
  330TMC3    C6 4955   4.281   1.706   8.843  0.7525 -0.0165 -0.0920
  330TMC3     C 4956   4.159   2.096   8.855 -0.6731  0.4216  0.2850
  330TMC3     O 4957   4.256   2.169   8.865 -0.4309 -0.0940  0.2333
  330TMC3     H 4958   3.999   1.886   8.796 -0.1639 -1.1589  1.5269
  330TMC3    H1 4959   4.394   2.002   8.934 -0.0469  1.2014 -1.2009
  330TMC3    H2 4960   4.322   1.611   8.811 -0.4686 -1.1917  1.8022
  330TMC3    C7 4961   4.505   1.777   8.916  0.0986  0.0772 -0.5773
  330TMC3    C8 4962   4.059   1.643   8.778 -0.0857  0.3624 -0.2001
  330TMC3    O1 4963   4.564   1.858   8.983 -0.8987  0.4044 -0.1785
  330TMC3    O2 4964   4.111   1.535   8.762 -0.2156  0.3195 -0.4146
  331MPD2     C 4965   1.659   2.626  12.943  0.1167 -0.2085  0.5763
  331MPD2    C1 4966   1.760   2.630  12.853  0.1532  0.0713  0.0808
  331MPD2    C2 4967   1.732   2.617  12.718  0.2772  0.4788  0.2747
  331MPD2    C3 4968   1.604   2.616  12.664 -0.0057 -0.2755  0.4422
  331MPD2    C4 4969   1.504   2.611  12.753 -0.1144  0.4452 -0.1736
  331MPD2    C5 4970   1.535   2.627  12.888  0.4452  0.7489  0.1260
  331MPD2     H 4971   1.813   2.610  12.645 -1.1689 -0.2262 -1.2619
  331MPD2    H1 4972   1.399   2.602  12.728  0.5838  0.1466 -2.9536
  331MPD2    H2 4973   1.666   2.646  13.049  0.6622  0.9248  0.3305
  331MPD2    H3 4974   1.445   2.635  12.948  0.7914  0.6125  0.6605
  331MPD2     N 4975   1.582   2.607  12.526 -0.9100 -0.3986  0.7369
  331MPD2    H5 4976   1.668   2.617  12.473 -2.0869 -0.2413 -1.1188
  331MPD2    N1 4977   1.886   2.655  12.901 -0.4527 -0.1746  0.7021
  331MPD2    H7 4978   1.899   2.661  13.001  0.4572  1.0194  0.5031
  332TMC3    C1 4979   1.487   2.517  12.333 -0.8817 -0.4720  0.0165
  332TMC3    C2 4980   1.608   2.552  12.279 -0.4057  0.0457  0.1591
  332TMC3    C3 4981   1.638   2.484  12.164 -0.4441 -0.0694  0.6327
  332TMC3    C4 4982   1.421   2.401  12.313 -0.2206 -0.0057  0.0760
  332TMC3    C5 4983   1.465   2.325  12.206 -0.0486  0.0770  0.1405
  332TMC3    C6 4984   1.574   2.361  12.138  0.1271  0.9178 -0.3898
  332TMC3     C 4985   1.458   2.580  12.462  0.6327  0.3731 -0.4262
  332TMC3     O 4986   1.348   2.554  12.517  0.5768 -0.1110 -0.1615
  332TMC3     H 4987   1.651   2.651  12.288  0.6097 -0.4924  1.1305
  332TMC3    H1 4988   1.338   2.360  12.369  0.3322 -1.0115  0.1579
  332TMC3    H2 4989   1.621   2.282  12.080 -1.2487 -0.3289  0.2211
  332TMC3    C7 4990   1.464   2.183  12.224  0.1645  0.3162  0.0604
  332TMC3    C8 4991   1.745   2.522  12.072  0.0776 -0.5014  0.3252
  332TMC3    O1 4992   1.401   2.111  12.146  0.0894  0.3234 -0.3506
  332TMC3    O2 4993   1.850   2.569  12.112 -0.7674 -0.0075 -0.3195
  333MPD2     C 4994   2.090   2.157  11.330  0.2771 -0.7891 -0.5211
  333MPD2    C1 4995   2.128   2.088  11.215  0.1724  0.6758 -0.2404
  333MPD2    C2 4996   2.058   1.976  11.180 -0.5195  0.2722  0.0607
  333MPD2    C3 4997   1.952   1.932  11.257  0.3183 -0.5711 -0.2921
  333MPD2    C4 4998   1.918   2.001  11.366 -0.1041 -0.3092 -0.1761
  333MPD2    C5 4999   1.982   2.117  11.404 -0.5840 -0.8166 -0.0705
  333MPD2     H 5000   2.103   1.924  11.097  1.3146 -0.1125  1.2973
  333MPD2    H1 5001   1.832   1.984  11.429 -0.4620 -2.2151 -1.1950
  333MPD2    H2 5002   2.153   2.242  11.354  1.1067 -1.3484 -0.6896
  333MPD2    H3 5003   1.942   2.170  11.490 -0.7921 -3.4849  1.4944
  333MPD2     N 5004   1.893   1.808  11.216  0.1089 -0.0929 -0.1107
  333MPD2    H5 5005   1.941   1.761  11.141 -2.0556 -1.2263 -0.7950
  333MPD2    N1 5006   2.241   2.133  11.140 -0.8660 -0.0963  0.3653
  333MPD2    H7 5007   2.288   2.216  11.175  0.9817  0.6978 -4.0823
  334TMC3    C1 5008   2.417   2.141  10.986  0.0831  0.7756 -0.2675
  334TMC3    C2 5009   2.524   2.069  10.960 -0.0704 -0.0434 -0.1406
  334TMC3    C3 5010   2.633   2.138  10.913  0.0705  0.0438 -1.1375
  334TMC3    C4 5011   2.407   2.277  10.980 -0.1114 -1.1326 -0.2737
  334TMC3    C5 5012   2.521   2.345  10.933 -0.4438 -0.3874  0.2360
  334TMC3    C6 5013   2.637   2.275  10.899  0.6207 -0.2812  0.2197
  334TMC3     C 5014   2.303   2.066  11.041  0.3789  0.5723 -0.3291
  334TMC3     O 5015   2.278   1.961  10.991 -0.2688  0.3555  0.2983
  334TMC3     H 5016   2.532   1.961  10.955 -1.8050 -0.1517 -0.5573
  334TMC3    H1 5017   2.321   2.330  11.018  1.4622 -0.8494  2.8559
  334TMC3    H2 5018   2.728   2.326  10.867 -0.2929  0.0088 -1.8899
  334TMC3    C7 5019   2.504   2.474  10.870  0.0435  0.1094 -0.4213
  334TMC3    C8 5020   2.753   2.065  10.887  0.0323  0.2774  0.0910
  334TMC3    O1 5021   2.603   2.543  10.848  0.3490  0.4242  0.2567
  334TMC3    O2 5022   2.756   1.954  10.935  0.0014  0.7272  0.4127
  335TMC3    C1 5023   1.305   3.619  17.184 -0.0302  0.6383  0.3322
  335TMC3    C2 5024   1.258   3.551  17.069 -0.0622  0.0926  0.3394
  335TMC3    C3 5025   1.344   3.547  16.968  1.0932  0.1873 -0.0712
  335TMC3    C4 5026   1.430   3.667  17.192  0.1186  0.1689  1.0359
  335TMC3    C5 5027   1.510   3.655  17.085  0.9979 -0.4265 -0.4527
  335TMC3    C6 5028   1.465   3.602  16.963  0.6729  0.6011 -0.3192
  335TMC3     C 5029   1.201   3.670  17.276  0.7745 -0.9792 -0.5541
  335TMC3     O 5030   1.086   3.646  17.239  0.0669  0.6087  0.2415
  335TMC3     H 5031   1.168   3.491  17.074 -0.7703  1.1345  0.0436
  335TMC3    H1 5032   1.458   3.733  17.274  0.6123  0.3666  0.7090
  335TMC3    H2 5033   1.537   3.597  16.883  0.6821  2.1364 -0.3991
  335TMC3    C7 5034   1.648   3.701  17.085  0.1724 -0.2767  0.5004
  335TMC3    C8 5035   1.322   3.468  16.858 -0.2093  0.3371 -0.0921
  335TMC3    O1 5036   1.696   3.703  16.972 -0.2585 -0.2508 -0.1225
  335TMC3    O2 5037   1.386   3.504  16.759  0.5297 -0.3136 -0.0457
  336MPD2     C 5038   1.100   1.470  15.666 -0.1997  1.0294  0.5053
  336MPD2    C1 5039   1.015   1.412  15.572 -0.6076  0.7117  0.4867
  336MPD2    C2 5040   1.035   1.278  15.548 -0.1457 -0.2137 -0.0197
  336MPD2    C3 5041   1.111   1.202  15.634 -0.1341  0.2745 -0.2808
  336MPD2    C4 5042   1.184   1.264  15.740  0.0769 -0.7118 -0.4042
  336MPD2    C5 5043   1.187   1.395  15.748 -0.0204 -0.2431  0.5032
  336MPD2     H 5044   0.980   1.226  15.470 -0.7447 -1.2769  1.1145
  336MPD2    H1 5045   1.247   1.209  15.809  1.3833  1.6251  0.3124
  336MPD2    H2 5046   1.101   1.578  15.674  0.3497  1.1314 -0.8919
  336MPD2    H3 5047   1.243   1.441  15.829 -0.3104  1.4370 -0.2415
  336MPD2     N 5048   1.132   1.061  15.630 -0.8671  0.4663  0.4123
  336MPD2    H5 5049   1.187   1.025  15.708  1.8826 -0.1482 -1.7804
  336MPD2    N1 5050   0.919   1.491  15.500  0.3037 -0.2554  0.4776
  336MPD2    H7 5051   0.869   1.442  15.427  0.2604 -3.2097  2.4903
  337TMC3    C1 5052   0.783   1.691  15.450 -0.2119 -0.1110 -0.1264
  337TMC3    C2 5053   0.693   1.632  15.373  0.9233 -0.3011 -0.1804
  337TMC3    C3 5054   0.623   1.710  15.284  0.0246  0.1202  0.2003
  337TMC3    C4 5055   0.805   1.829  15.443  0.0566 -0.2528 -0.5329
  337TMC3    C5 5056   0.750   1.898  15.335 -0.6963  0.8029 -0.1312
  337TMC3    C6 5057   0.655   1.839  15.254  1.1368  0.1054  0.8869
  337TMC3     C 5058   0.883   1.623  15.537  0.5340 -0.2887  0.1470
  337TMC3     O 5059   0.919   1.680  15.639 -0.1837 -0.1848  0.3094
  337TMC3     H 5060   0.684   1.524  15.378 -3.8870  0.1450  0.5064
  337TMC3    H1 5061   0.887   1.874  15.498  2.1680 -1.4476 -2.6968
  337TMC3    H2 5062   0.607   1.889  15.171  1.1453 -3.4318 -1.2789
  337TMC3    C7 5063   0.797   2.030  15.299  0.3551  0.4689  0.6726
  337TMC3    C8 5064   0.518   1.635  15.209  0.2611  0.4075  0.3219
  337TMC3    O1 5065   0.779   2.063  15.186  0.1001  0.2396 -0.3612
  337TMC3    O2 5066   0.465   1.538  15.261 -0.1733 -0.1827 -0.2573
  338MPD2     C 5067   2.093   0.804   0.073  1.0552 -0.0848 -0.0284
  338MPD2    C1 5068   2.045   0.675   0.084  0.7290 -0.0363 -0.3431
  338MPD2    C2 5069   1.946   0.645   0.170  0.5849  0.1304 -0.6224
  338MPD2    C3 5070   1.891   0.737   0.250  0.1236 -0.3363 -1.1141
  338MPD2    C4 5071   1.937   0.870   0.248 -0.6292 -0.0599  0.0368
  338MPD2    C5 5072   2.044   0.902   0.160 -0.0324  0.2102  0.1844
  338MPD2     H 5073   1.910   0.544   0.182  2.4163 -0.2883  1.3566
  338MPD2    H1 5074   1.900   0.951   0.310  2.5891  0.0624  1.8625
  338MPD2    H2 5075   2.170   0.837   0.004 -1.0791  0.4227 -2.1694
  338MPD2    H3 5076   2.085   1.003   0.162  0.3093  0.0682  0.1915
  338MPD2     N 5077   1.783   0.694   0.335 -0.4831  0.0274 -0.8419
  338MPD2    H5 5078   1.770   0.593   0.334 -0.2175 -0.0179  0.2142
  338MPD2    N1 5079   2.082   0.570  17.689  0.0697  0.0950  0.3454
  338MPD2    H7 5080   2.019   0.491  17.694 -0.7941  0.5299 -3.2205
  339TMC3    C1 5081   1.573   0.726   0.403  0.5612  0.5123  0.1654
  339TMC3    C2 5082   1.577   0.595   0.450  0.3323  1.3474 -0.3200
  339TMC3    C3 5083   1.509   0.503   0.373  0.9830  0.3442 -0.2066
  339TMC3    C4 5084   1.516   0.756   0.279 -0.3280  0.2107  0.2293
  339TMC3    C5 5085   1.457   0.660   0.214  0.5043 -0.4762  0.3551
  339TMC3    C6 5086   1.466   0.529   0.247  0.5117  0.4535 -0.1129
  339TMC3     C 5087   1.703   0.785   0.401 -0.1090  0.3306  0.2439
  339TMC3     O 5088   1.698   0.906   0.395 -0.1296 -0.2224 -0.5268
  339TMC3     H 5089   1.636   0.567   0.537 -0.7989 -0.1155 -0.0181
  339TMC3    H1 5090   1.528   0.852   0.231 -3.5274  0.7894  0.5906
  339TMC3    H2 5091   1.422   0.447   0.191 -0.5823  1.4355 -0.6767
  339TMC3    C7 5092   1.373   0.710   0.103 -0.6141 -0.6534 -0.0628
  339TMC3    C8 5093   1.517   0.359   0.412  0.7909  0.7680 -0.3223
  339TMC3    O1 5094   1.365   0.832   0.079 -0.7054  0.5622 -0.1474
  339TMC3    O2 5095   1.487   0.283   0.322 -0.0761  0.2195  0.2498
  340MPD2     C 5096   2.614   2.849  10.478 -0.0483 -0.1453 -0.6733
  340MPD2    C1 5097   2.479   2.829  10.443 -0.1957  0.5504 -0.3012
  340MPD2    C2 5098   2.415   2.945  10.403 -0.0005 -0.1034 -0.5072
  340MPD2    C3 5099   2.479   3.070  10.406  0.1456 -0.1847  0.1362
  340MPD2    C4 5100   2.605   3.084  10.446  0.2204 -0.1693  0.5301
  340MPD2    C5 5101   2.670   2.974  10.491  0.3292 -0.5448  0.4314
  340MPD2     H 5102   2.314   2.927  10.367 -0.8330  1.1332  1.2072
  340MPD2    H1 5103   2.651   3.182  10.451 -1.6902  0.7204  0.5868
  340MPD2    H2 5104   2.670   2.763  10.514  0.5271  0.5129  0.0175
  340MPD2    H3 5105   2.774   2.988  10.517  0.8083  0.5196 -2.0880
  340MPD2     N 5106   2.414   3.187  10.358  0.3512  0.0312 -0.0126
  340MPD2    H5 5107   2.462   3.276  10.351  0.1617  0.0321 -1.4166
  340MPD2    N1 5108   2.415   2.703  10.418  0.1316 -0.0494  0.4387
  340MPD2    H7 5109   2.318   2.709  10.389  0.2825  1.5730  0.3008
  341TMC3    C1 5110   2.404   2.469  10.335 -0.4964 -0.1080 -0.3039
  341TMC3    C2 5111   2.271   2.452  10.356 -0.4247 -0.2983  0.1822
  341TMC3    C3 5112   2.212   2.350  10.287 -0.6146  0.7465 -0.5257
  341TMC3    C4 5113   2.478   2.381  10.256  0.1547  0.0978  0.3643
  341TMC3    C5 5114   2.422   2.276  10.191  0.1348 -0.7991  0.3983
  341TMC3    C6 5115   2.282   2.270  10.209 -0.2550  0.0678 -0.2896
  341TMC3     C 5116   2.480   2.582  10.400 -0.5870  0.4905 -0.0179
  341TMC3     O 5117   2.599   2.566  10.417 -0.2658  0.9297  0.4445
  341TMC3     H 5118   2.215   2.522  10.417 -1.3792 -0.5532 -0.3973
  341TMC3    H1 5119   2.584   2.400  10.242 -0.2164  3.1033  1.5199
  341TMC3    H2 5120   2.230   2.195  10.152 -2.2419  0.6417  0.7659
  341TMC3    C7 5121   2.480   2.262  10.062 -0.4574  0.5735 -0.7085
  341TMC3    C8 5122   2.066   2.342  10.273 -0.2047 -0.5703 -0.4875
  341TMC3    O1 5123   2.558   2.351  10.031 -0.0099  0.6124 -0.3298
  341TMC3    O2 5124   2.010   2.234  10.242  0.2154  0.7627 -0.3406
  342MPD2     C 5125   4.179   1.856  17.235 -0.2311  0.7666  1.1713
  342MPD2    C1 5126   4.289   1.872  17.152  0.2906  0.4374  0.0850
  342MPD2    C2 5127   4.381   1.979  17.171 -0.4308  0.4358  0.4335
  342MPD2    C3 5128   4.353   2.068  17.276  0.8035 -0.0629  0.3838
  342MPD2    C4 5129   4.238   2.056  17.348 -0.1419  0.8636 -0.0108
  342MPD2    C5 5130   4.151   1.946  17.330  0.1971 -0.4401 -0.2300
  342MPD2     H 5131   4.473   1.982  17.114  0.0657  2.1570  1.3483
  342MPD2    H1 5132   4.218   2.132  17.422 -1.0676  0.6945 -0.0831
  342MPD2    H2 5133   4.109   1.773  17.226  0.5394  0.0063  2.1744
  342MPD2    H3 5134   4.074   1.931  17.404  0.3198 -0.6291 -0.1402
  342MPD2     N 5135   4.436   2.166  17.323  0.0807  0.5585 -0.6530
  342MPD2    H5 5136   4.398   2.233  17.388  2.8009  0.7240  0.7477
  342MPD2    N1 5137   4.327   1.768  17.062 -0.4952 -0.4100 -1.0873
  342MPD2    H7 5138   4.393   1.796  16.990 -0.7080  0.2437 -1.0277
  343TMC3    C1 5139   4.346   1.549  16.964  0.5830  0.5653  0.2930
  343TMC3    C2 5140   4.465   1.574  16.903  0.1571  0.0534  0.4116
  343TMC3    C3 5141   4.522   1.470  16.834 -0.0966 -0.2028 -0.5513
  343TMC3    C4 5142   4.289   1.421  16.969  0.7327 -0.0855 -0.1530
  343TMC3    C5 5143   4.352   1.330  16.893 -0.5077 -0.3288  0.0316
  343TMC3    C6 5144   4.462   1.349  16.815 -0.4486  0.1945 -0.7355
  343TMC3     C 5145   4.286   1.637  17.066  0.7599 -0.1305  0.4343
  343TMC3     O 5146   4.214   1.583  17.151  0.4394 -0.3702  0.1354
  343TMC3     H 5147   4.516   1.669  16.918 -0.6990  0.7288 -0.9401
  343TMC3    H1 5148   4.201   1.396  17.027 -0.4149 -0.3944 -2.0329
  343TMC3    H2 5149   4.513   1.262  16.776 -0.3504  0.7548 -1.8528
  343TMC3    C7 5150   4.299   1.200  16.900  0.3351  0.1161 -0.4434
  343TMC3    C8 5151   4.642   1.494  16.762 -0.2788  0.1525  0.1684
  343TMC3    O1 5152   4.298   1.122  16.805  0.1969 -0.2888  0.0533
  343TMC3    O2 5153   4.640   1.600  16.704 -0.0575 -0.0587  0.2794
  344MPD2     C 5154   0.846   1.206  10.695 -0.3159  0.4550  0.0494
  344MPD2    C1 5155   0.748   1.243  10.600  0.2959  0.6949  1.4504
  344MPD2    C2 5156   0.759   1.349  10.516 -0.2900 -0.2898  0.4223
  344MPD2    C3 5157   0.870   1.431  10.533 -0.6561 -0.3475  0.4954
  344MPD2    C4 5158   0.962   1.402  10.624  0.3604  0.4171  1.1048
  344MPD2    C5 5159   0.953   1.288  10.698 -1.0399  0.3848  0.4121
  344MPD2     H 5160   0.680   1.377  10.447 -2.7002  1.0789  3.6979
  344MPD2    H1 5161   1.055   1.459  10.625 -0.0826  1.1287  1.8845
  344MPD2    H2 5162   0.847   1.118  10.758 -0.5616  0.3725 -0.0610
  344MPD2    H3 5163   1.026   1.273  10.777 -0.5467 -1.3704 -0.3838
  344MPD2     N 5164   0.886   1.564  10.475 -0.5078  0.0489  0.4985
  344MPD2    H5 5165   0.974   1.612  10.489 -1.8530  3.2855 -2.1621
  344MPD2    N1 5166   0.625   1.173  10.600  0.2517  0.1743 -0.4900
  344MPD2    H7 5167   0.556   1.214  10.538 -1.6635 -0.6762  1.0657
  345TMC3    C1 5168   0.835   1.750  10.330  0.8672  0.5975  1.1603
  345TMC3    C2 5169   0.936   1.821  10.396  0.1459 -0.1458 -0.4002
  345TMC3    C3 5170   0.963   1.936  10.341  0.2331  0.8471  0.2184
  345TMC3    C4 5171   0.750   1.807  10.243  0.1148 -0.2484  0.2948
  345TMC3    C5 5172   0.773   1.935  10.208 -1.0458 -0.4331  0.6107
  345TMC3    C6 5173   0.879   2.001  10.251 -0.6205  0.0025 -0.2324
  345TMC3     C 5174   0.800   1.614  10.383  0.1520  0.2636 -0.8117
  345TMC3     O 5175   0.706   1.564  10.320  0.4888  0.4469  0.1125
  345TMC3     H 5176   1.013   1.784  10.462 -1.2876 -0.4873  1.0890
  345TMC3    H1 5177   0.666   1.749  10.206  1.2275 -1.3922 -0.4409
  345TMC3    H2 5178   0.903   2.090  10.194 -0.4235 -0.8468 -1.4796
  345TMC3    C7 5179   0.678   2.011  10.126  0.0219 -0.1618 -0.4390
  345TMC3    C8 5180   1.079   2.016  10.389 -0.8331 -0.6713 -0.0346
  345TMC3    O1 5181   0.713   2.123  10.087 -0.4188 -0.3985  0.2066
  345TMC3    O2 5182   1.064   2.134  10.380  0.3312  0.0590  0.1361
  346MPD2     C 5183   0.386   2.794  13.798  0.3330 -0.4489 -0.5571
  346MPD2    C1 5184   0.413   2.931  13.799 -0.5296 -0.2660 -0.4226
  346MPD2    C2 5185   0.425   2.995  13.923 -0.1638  0.8512  0.1907
  346MPD2    C3 5186   0.419   2.923  14.041 -0.0757  0.3011 -0.0490
  346MPD2    C4 5187   0.383   2.786  14.038 -0.0619 -0.3855  1.0346
  346MPD2    C5 5188   0.364   2.730  13.917 -0.2584 -0.0144  0.0144
  346MPD2     H 5189   0.451   3.100  13.931 -3.4855  1.6381  0.3913
  346MPD2    H1 5190   0.394   2.715  14.119  0.4177 -0.0779  1.2429
  346MPD2    H2 5191   0.367   2.736  13.709 -1.4836 -1.6512  0.5964
  346MPD2    H3 5192   0.333   2.627  13.932  1.7350 -0.4647  0.9977
  346MPD2     N 5193   0.471   2.985  14.154 -0.6806 -0.3891  0.0511
  346MPD2    H5 5194   0.489   3.085  14.145 -0.3484 -0.6035 -1.7434
  346MPD2    N1 5195   0.415   3.006  13.675  0.1930  0.0409  0.3554
  346MPD2    H7 5196   0.424   3.107  13.681  2.8935  0.0111 -2.8633
  347TMC3    C1 5197   0.572   2.998  14.364  0.0678 -0.2059  0.4054
  347TMC3    C2 5198   0.661   3.092  14.313 -0.1760 -0.0380 -0.0138
  347TMC3    C3 5199   0.745   3.151  14.408 -0.4529  0.7061  0.2255
  347TMC3    C4 5200   0.579   2.953  14.496 -0.6805 -0.9386 -0.1354
  347TMC3    C5 5201   0.670   3.010  14.583 -0.3174  0.3775  0.0604
  347TMC3    C6 5202   0.757   3.109  14.541 -0.2206 -0.4181 -0.7844
  347TMC3     C 5203   0.484   2.922  14.273 -0.0758 -0.2277  1.0292
  347TMC3     O 5204   0.455   2.809  14.308 -0.5389 -0.0774  0.0894
  347TMC3     H 5205   0.669   3.118  14.208  0.5283 -1.0467 -0.2145
  347TMC3    H1 5206   0.507   2.877  14.523 -0.7184 -0.3838  1.3019
  347TMC3    H2 5207   0.828   3.159  14.606 -1.2325  1.5908 -1.2322
  347TMC3    C7 5208   0.691   2.952  14.721 -0.0686 -0.5013  0.4865
  347TMC3    C8 5209   0.857   3.222  14.355  0.1434  0.3451 -0.0884
  347TMC3    O1 5210   0.759   3.013  14.804  0.3208  0.2134  0.2858
  347TMC3    O2 5211   0.877   3.202  14.234 -0.8196  0.2099  0.4730
  348MPD2     C 5212   3.955   2.676  12.010  0.2880  0.1946  0.3203
  348MPD2    C1 5213   4.014   2.795  11.997  0.7332 -0.4961 -0.7362
  348MPD2    C2 5214   3.945   2.881  11.908  0.0963  0.4966 -0.3410
  348MPD2    C3 5215   3.830   2.848  11.837  0.1581  0.3975 -0.6706
  348MPD2    C4 5216   3.781   2.720  11.847 -0.3776  0.2500 -0.1410
  348MPD2    C5 5217   3.849   2.634  11.934 -0.6294 -0.2660  0.0243
  348MPD2     H 5218   3.988   2.981  11.907  1.0792  0.0754 -0.5325
  348MPD2    H1 5219   3.710   2.673  11.779 -0.3177  3.1565 -2.2633
  348MPD2    H2 5220   4.001   2.617  12.089 -1.0084  1.2609  1.8602
  348MPD2    H3 5221   3.807   2.534  11.943 -0.9021 -0.2806 -1.4278
  348MPD2     N 5222   3.768   2.945  11.758  0.7720 -0.4185  0.1563
  348MPD2    H5 5223   3.807   3.038  11.772  0.5820 -0.2475 -0.4131
  348MPD2    N1 5224   4.116   2.846  12.072  0.3742 -0.2813 -0.3521
  348MPD2    H7 5225   4.139   2.941  12.044 -0.2713 -0.3948 -1.2506
  349TMC3    C1 5226   4.319   2.802  12.186 -0.3216  0.4151 -0.2107
  349TMC3    C2 5227   4.370   2.678  12.225 -0.4551 -0.7832  0.3166
  349TMC3    C3 5228   4.424   2.595  12.132 -0.9853 -0.6913  0.8235
  349TMC3    C4 5229   4.361   2.862  12.069 -0.5174 -0.2103  0.4812
  349TMC3    C5 5230   4.423   2.772  11.973 -0.2900 -0.0414 -0.1954
  349TMC3    C6 5231   4.444   2.640  12.003 -0.4228  0.3698  0.4860
  349TMC3     C 5232   4.173   2.787  12.185  0.0516 -0.1023 -0.6128
  349TMC3     O 5233   4.143   2.680  12.239  0.0824 -0.3370 -0.2468
  349TMC3     H 5234   4.357   2.657  12.331  0.5376 -1.2846  0.3374
  349TMC3    H1 5235   4.324   2.959  12.039 -0.9054  0.2470  2.3992
  349TMC3    H2 5236   4.488   2.579  11.924 -1.0947  0.9005 -0.2870
  349TMC3    C7 5237   4.391   2.804  11.839 -0.5159  0.5999  0.1319
  349TMC3    C8 5238   4.432   2.449  12.152  0.4704 -0.0857  0.0596
  349TMC3    O1 5239   4.328   2.717  11.784 -0.3745 -0.3595 -0.1802
  349TMC3    O2 5240   4.352   2.398  12.233  0.0623 -0.0415 -0.1606
  350MPD2     C 5241   3.125   0.843   9.429 -0.3947 -0.8274 -0.1245
  350MPD2    C1 5242   3.226   0.816   9.511  0.4442 -0.5579 -0.2921
  350MPD2    C2 5243   3.219   0.853   9.648 -0.3716 -0.0193  0.2403
  350MPD2    C3 5244   3.110   0.919   9.695  0.1375  0.2475  0.4437
  350MPD2    C4 5245   2.998   0.945   9.609 -0.3003  0.4440 -0.1828
  350MPD2    C5 5246   3.011   0.905   9.481  0.1975 -0.2343  0.5615
  350MPD2     H 5247   3.297   0.839   9.721 -1.6270  0.3597  1.6487
  350MPD2    H1 5248   2.908   0.995   9.645 -1.2402 -1.8067  0.5847
  350MPD2    H2 5249   3.137   0.833   9.322 -0.5241 -1.5913 -0.0652
  350MPD2    H3 5250   2.935   0.922   9.405  0.1142 -1.7986  0.2875
  350MPD2     N 5251   3.109   0.952   9.831 -0.0167  0.7539  0.1888
  350MPD2    H5 5252   3.196   0.944   9.883 -0.1420  2.6061  0.6843
  350MPD2    N1 5253   3.351   0.757   9.472  0.5939  0.1392  0.5892
  350MPD2    H7 5254   3.418   0.719   9.538 -2.6487 -1.3315  3.0966
  351TMC3    C1 5255   3.522   0.680   9.345  0.7630  0.0346  0.3572
  351TMC3    C2 5256   3.527   0.554   9.396 -0.3368 -0.5225 -0.2465
  351TMC3    C3 5257   3.633   0.471   9.355 -0.1867  0.6519  0.9974
  351TMC3    C4 5258   3.615   0.720   9.255 -0.7190 -0.5561  0.5677
  351TMC3    C5 5259   3.700   0.627   9.201 -0.3112  0.3080  0.2060
  351TMC3    C6 5260   3.719   0.504   9.255  0.5492 -0.2350 -0.3202
  351TMC3     C 5261   3.390   0.743   9.340  0.0375  0.4205  0.5879
  351TMC3     O 5262   3.338   0.785   9.236  0.4004  0.2325  0.2735
  351TMC3     H 5263   3.449   0.515   9.460 -2.4830  0.9588 -1.9464
  351TMC3    H1 5264   3.603   0.815   9.204 -1.3454  0.1135  1.9876
  351TMC3    H2 5265   3.790   0.443   9.200  0.2926 -0.2177 -0.6718
  351TMC3    C7 5266   3.801   0.681   9.109 -0.1554  1.1010 -0.0055
  351TMC3    C8 5267   3.626   0.328   9.378  0.3214 -0.4144 -0.5080
  351TMC3    O1 5268   3.803   0.805   9.095 -0.2597  0.2900 -0.6569
  351TMC3    O2 5269   3.716   0.264   9.328  0.0900  0.5590  0.6755
  352MPD2     C 5270   1.602   2.671   0.512  0.2638 -0.1346  0.8354
  352MPD2    C1 5271   1.500   2.686   0.599  0.6612  0.3037 -0.4777
  352MPD2    C2 5272   1.463   2.574   0.673 -0.2445 -0.1653 -0.6259
  352MPD2    C3 5273   1.523   2.450   0.654  0.3805 -0.1751  0.1040
  352MPD2    C4 5274   1.620   2.436   0.557 -0.6715  0.2249  0.2810
  352MPD2    C5 5275   1.658   2.542   0.482  0.0347  0.7392 -0.5116
  352MPD2     H 5276   1.388   2.579   0.751  1.8588 -0.4155  1.4215
  352MPD2    H1 5277   1.664   2.337   0.552  0.7793  1.0533 -2.9649
  352MPD2    H2 5278   1.646   2.755   0.461  1.7923 -1.4970 -0.1025
  352MPD2    H3 5279   1.734   2.544   0.404 -0.5739  2.1304 -1.0621
  352MPD2     N 5280   1.484   2.333   0.720  0.0662  0.0482  0.1081
  352MPD2    H5 5281   1.559   2.265   0.717 -0.8458 -0.9167 -0.8690
  352MPD2    N1 5282   1.436   2.814   0.593  0.1895  0.4219  0.8297
  352MPD2    H7 5283   1.461   2.880   0.521  1.4925  2.1656  2.8955
  353TMC3    C1 5284   1.342   2.185   0.855 -0.4449  0.1519  0.0486
  353TMC3    C2 5285   1.442   2.099   0.888  0.7292  0.2463  0.6856
  353TMC3    C3 5286   1.408   1.992   0.960  0.4323  0.3706  0.2306
  353TMC3    C4 5287   1.209   2.148   0.875  0.2330  0.0379  0.8243
  353TMC3    C5 5288   1.179   2.033   0.928 -0.3412  0.6773 -0.3226
  353TMC3    C6 5289   1.275   1.956   0.978 -0.2734  0.1166 -0.0377
  353TMC3     C 5290   1.371   2.313   0.793 -0.0767  0.6296  0.3148
  353TMC3     O 5291   1.271   2.386   0.797  0.1539 -0.3284 -0.3258
  353TMC3     H 5292   1.545   2.130   0.873  0.8350  0.3615  1.6586
  353TMC3    H1 5293   1.133   2.221   0.851  0.0194  0.1296  1.7744
  353TMC3    H2 5294   1.252   1.861   1.026  0.7629 -1.7456 -3.2374
  353TMC3    C7 5295   1.064   1.950   0.884 -0.9235 -0.4070 -0.2706
  353TMC3    C8 5296   1.493   1.866   0.946  0.4334 -0.5124  0.1829
  353TMC3    O1 5297   1.079   1.829   0.880 -0.8196 -0.0798 -0.3675
  353TMC3    O2 5298   1.437   1.759   0.916  0.7368 -0.2873 -0.4823
  354TMC3    C1 5299   2.833   3.964  12.738 -0.2424  0.4073  0.8460
  354TMC3    C2 5300   2.742   4.048  12.683 -0.2715  0.7638  0.2587
  354TMC3    C3 5301   2.772   4.116  12.572 -0.1415 -0.2015 -0.9815
  354TMC3    C4 5302   2.953   3.932  12.678  0.7531  0.0689  0.1133
  354TMC3    C5 5303   2.984   4.008  12.565 -0.1262 -0.5025 -0.3371
  354TMC3    C6 5304   2.893   4.100  12.516 -0.2048  0.5376  0.5961
  354TMC3     C 5305   2.807   3.921  12.867  0.2879 -0.3482 -0.5838
  354TMC3     O 5306   2.690   3.931  12.904  0.4024 -0.2917  0.4847
  354TMC3     H 5307   2.641   4.060  12.722  0.2937 -0.5828  2.1652
  354TMC3    H1 5308   3.024   3.864  12.724 -0.2957 -1.6517 -0.8430
  354TMC3    H2 5309   2.917   4.155  12.426  1.0052  1.8475  1.7188
  354TMC3    C7 5310   3.111   3.984  12.501 -0.1529 -0.0802  0.5306
  354TMC3    C8 5311   2.674   4.192  12.491 -0.6619 -0.2430 -0.6342
  354TMC3    O1 5312   3.167   3.883  12.531 -0.3334  0.0568 -0.7108
  354TMC3    O2 5313   2.697   4.192  12.372 -0.0308 -0.4177 -0.2812
  355MPD2     C 5314   3.038   0.205  11.355  0.4163 -0.6339 -0.1695
  355MPD2    C1 5315   3.117   0.215  11.244 -0.3629  0.5011  0.0829
  355MPD2    C2 5316   3.252   0.210  11.277  0.3082  0.1091  0.3960
  355MPD2    C3 5317   3.289   0.245  11.409 -0.1820 -0.6230  0.2076
  355MPD2    C4 5318   3.201   0.249  11.515  0.0736 -0.5017 -0.1000
  355MPD2    C5 5319   3.073   0.228  11.479  0.1550  0.2092 -0.6168
  355MPD2     H 5320   3.317   0.219  11.192  0.5741  0.8233  0.6762
  355MPD2    H1 5321   3.222   0.280  11.616 -1.9501 -0.0602  0.1817
  355MPD2    H2 5322   2.930   0.208  11.340  0.5393  0.3329 -0.8016
  355MPD2    H3 5323   2.990   0.230  11.549  0.9380 -0.5784  0.3412
  355MPD2     N 5324   3.428   0.280  11.438  0.3970  0.7421  0.2631
  355MPD2    H5 5325   3.454   0.324  11.525  0.9442 -0.4729  0.7050
  355MPD2    N1 5326   3.057   0.218  11.114  0.0670  0.8146 -0.3812
  355MPD2    H7 5327   2.959   0.192  11.117  0.0178  0.7607 -2.3009
  356TMC3    C1 5328   3.644   0.336  11.392 -0.0032  0.2010  0.1497
  356TMC3    C2 5329   3.682   0.417  11.284 -0.3812  0.1163 -0.0898
  356TMC3    C3 5330   3.734   0.545  11.316  0.9831  0.4399 -0.4429
  356TMC3    C4 5331   3.646   0.381  11.522  0.0952 -0.0792 -1.0259
  356TMC3    C5 5332   3.699   0.509  11.549 -0.6004  0.1421 -0.7428
  356TMC3    C6 5333   3.744   0.590  11.445  0.6036  0.6630  0.1534
  356TMC3     C 5334   3.534   0.253  11.357  0.5884  0.8928  0.1008
  356TMC3     O 5335   3.533   0.189  11.250  0.0712 -0.1303  0.1248
  356TMC3     H 5336   3.664   0.395  11.180  0.9306  0.7833 -0.4567
  356TMC3    H1 5337   3.625   0.321  11.609  0.5292  0.9023 -0.2403
  356TMC3    H2 5338   3.787   0.689  11.454  1.3640  0.5282 -2.0228
  356TMC3    C7 5339   3.719   0.540  11.692 -0.0289  0.2777  0.2291
  356TMC3    C8 5340   3.776   0.619  11.198 -0.6333  0.8615  0.4527
  356TMC3    O1 5341   3.643   0.485  11.772 -0.3594 -0.4978  0.2963
  356TMC3    O2 5342   3.688   0.616  11.116  0.0645 -0.1283 -0.0684
  357MPD2     C 5343   3.182   3.963   0.817  0.0199 -0.2237  0.7933
  357MPD2    C1 5344   3.278   3.990   0.905 -0.3515  0.2587  0.8503
  357MPD2    C2 5345   3.248   4.072   1.013  0.1858 -0.2786  0.3349
  357MPD2    C3 5346   3.119   4.129   1.024 -0.5448 -0.2417 -0.5260
  357MPD2    C4 5347   3.019   4.093   0.934  0.0115 -0.3067 -0.0416
  357MPD2    C5 5348   3.056   4.015   0.832 -0.3800 -0.1503  0.0424
  357MPD2     H 5349   3.323   4.109   1.081  1.1647 -0.1111 -0.8401
  357MPD2    H1 5350   2.915   4.123   0.936 -0.0801 -0.6748  0.9955
  357MPD2    H2 5351   3.200   3.902   0.729  2.4210 -2.1462  2.6290
  357MPD2    H3 5352   2.977   3.987   0.763 -0.1756 -0.1533 -0.1894
  357MPD2     N 5353   3.091   4.221   1.130 -0.1997 -0.1481 -0.2533
  357MPD2    H5 5354   3.009   4.280   1.113 -2.3539 -2.7398  1.1545
  357MPD2    N1 5355   3.415   3.947   0.884 -0.4714  0.4273  1.0710
  357MPD2    H7 5356   3.430   3.917   0.788  0.0249  2.3384  0.5662
  358TMC3    C1 5357   3.648   3.913   0.918  1.4049  0.1316 -1.0019
  358TMC3    C2 5358   3.660   3.904   0.784  0.6828 -0.3543  0.2640
  358TMC3    C3 5359   3.753   3.813   0.744 -0.0788 -0.0711  0.0447
  358TMC3    C4 5360   3.716   3.848   1.012  0.1287  0.7525  0.8233
  358TMC3    C5 5361   3.816   3.765   0.963 -0.1713 -0.1719 -0.0557
  358TMC3    C6 5362   3.829   3.740   0.827  0.2222 -0.0624  0.1075
  358TMC3     C 5363   3.524   3.957   0.970 -0.3884 -0.5751  0.1655
  358TMC3     O 5364   3.524   4.004   1.086 -0.3810  0.6427  0.2602
  358TMC3     H 5365   3.597   3.964   0.719  0.8584 -0.7629 -0.2845
  358TMC3    H1 5366   3.703   3.853   1.120  0.0286 -0.4305  0.8680
  358TMC3    H2 5367   3.913   3.683   0.790  1.1716  0.6585  1.1701
  358TMC3    C7 5368   3.902   3.684   1.043  0.0652 -0.5696  0.1092
  358TMC3    C8 5369   3.766   3.814   0.595 -0.1568  0.5254 -0.4443
  358TMC3    O1 5370   3.956   3.590   0.990  0.1925 -0.1581  0.4946
  358TMC3    O2 5371   3.727   3.915   0.535 -0.4942 -0.4000 -0.0249
  359MPD2     C 5372   3.853   3.083  12.284  0.4353 -0.8752  0.8407
  359MPD2    C1 5373   3.791   3.197  12.325  0.1383  0.5660  0.2364
  359MPD2    C2 5374   3.713   3.193  12.437  0.4750  0.4555  0.0252
  359MPD2    C3 5375   3.689   3.077  12.507  0.2539 -0.2746 -0.3284
  359MPD2    C4 5376   3.748   2.958  12.470  0.4350  0.0429  0.7564
  359MPD2    C5 5377   3.840   2.966  12.363  0.1411  0.9005  0.0032
  359MPD2     H 5378   3.653   3.275  12.472  1.5506  1.6614 -0.9604
  359MPD2    H1 5379   3.727   2.860  12.510 -2.1665  0.1915 -0.2345
  359MPD2    H2 5380   3.913   3.078  12.194 -0.4002 -2.8694  0.3744
  359MPD2    H3 5381   3.889   2.881  12.318 -0.0962  1.4669 -1.3391
  359MPD2     N 5382   3.590   3.088  12.608 -0.4304  0.0574  0.0570
  359MPD2    H5 5383   3.558   3.180  12.638 -0.9740 -0.7356  1.8707
  359MPD2    N1 5384   3.788   3.314  12.261 -0.5683 -0.3435 -0.5019
  359MPD2    H7 5385   3.717   3.382  12.287 -1.7338 -0.5778 -3.0601
  360TMC3    C1 5386   3.811   3.470  12.095  0.8480  0.5402 -1.2936
  360TMC3    C2 5387   3.891   3.577  12.101 -0.0446 -0.1625 -0.3468
  360TMC3    C3 5388   3.837   3.697  12.050 -0.7776 -0.3123  0.8932
  360TMC3    C4 5389   3.689   3.470  12.035  0.0864  0.2246  0.0329
  360TMC3    C5 5390   3.654   3.579  11.968 -0.1586 -0.2311 -0.0466
  360TMC3    C6 5391   3.716   3.699  11.985 -0.0964  0.1196 -0.0710
  360TMC3     C 5392   3.861   3.347  12.151 -0.5785  0.2685 -0.8708
  360TMC3     O 5393   3.967   3.305  12.115  0.1330  0.4590 -0.3904
  360TMC3     H 5394   3.959   3.590  12.184  0.8500 -1.5115 -0.8756
  360TMC3    H1 5395   3.633   3.377  12.028 -2.2954  1.7335 -0.9374
  360TMC3    H2 5396   3.694   3.789  11.928  0.5696 -0.1454 -0.7440
  360TMC3    C7 5397   3.564   3.573  11.859  0.0364 -0.9186 -0.0082
  360TMC3    C8 5398   3.929   3.803  12.016 -0.8132  0.6003 -0.3631
  360TMC3    O1 5399   3.565   3.474  11.784 -0.0911  0.1501 -0.0559
  360TMC3    O2 5400   3.888   3.913  11.989  0.6034 -0.0704  0.2880
  361MPD2     C 5401   0.906   1.992  16.197 -0.1747 -0.2487  0.2795
  361MPD2    C1 5402   0.847   2.019  16.318 -0.8929 -0.1885 -0.4005
  361MPD2    C2 5403   0.862   1.927  16.419 -0.1578  0.3620 -0.1326
  361MPD2    C3 5404   0.949   1.822  16.411 -0.6978 -0.1134 -0.0806
  361MPD2    C4 5405   1.019   1.813  16.294  0.3654 -0.2918  0.2057
  361MPD2    C5 5406   0.995   1.890  16.187 -0.3431 -0.5240  0.0690
  361MPD2     H 5407   0.800   1.941  16.507  0.3230 -0.9613  0.4181
  361MPD2    H1 5408   1.083   1.728  16.275  2.0276  1.2315 -0.9695
  361MPD2    H2 5409   0.892   2.051  16.107  1.4658  1.1572  0.9550
  361MPD2    H3 5410   1.036   1.876  16.088  1.6159  0.3912  0.7384
  361MPD2     N 5411   0.964   1.728  16.511 -0.1387  0.1482  0.2852
  361MPD2    H5 5412   1.026   1.651  16.486 -1.7079 -0.0448 -2.8838
  361MPD2    N1 5413   0.754   2.125  16.338  0.5507  1.0101  0.2782
  361MPD2    H7 5414   0.695   2.124  16.420  0.8059  2.9048  0.4808
  362TMC3    C1 5415   0.643   2.325  16.294  0.7067  0.1880 -0.5266
  362TMC3    C2 5416   0.601   2.338  16.424  0.3934 -0.0843 -0.3946
  362TMC3    C3 5417   0.494   2.411  16.454 -0.2172 -0.5141 -0.1560
  362TMC3    C4 5418   0.572   2.381  16.187 -0.0608 -0.2745  0.0350
  362TMC3    C5 5419   0.466   2.459  16.220 -0.6568  0.0533 -0.3370
  362TMC3    C6 5420   0.424   2.476  16.353 -0.2009  0.6721 -0.4965
  362TMC3     C 5421   0.745   2.232  16.250 -0.1022  0.5777  0.3375
  362TMC3     O 5422   0.802   2.265  16.148  0.4132 -0.5344 -0.6320
  362TMC3     H 5423   0.655   2.289  16.504  1.9857  1.4787 -0.4960
  362TMC3    H1 5424   0.611   2.372  16.086  1.3951  0.6920  0.5259
  362TMC3    H2 5425   0.326   2.520  16.366 -0.4653  0.5707 -2.1077
  362TMC3    C7 5426   0.383   2.504  16.104  0.2359 -0.3441 -0.0002
  362TMC3    C8 5427   0.450   2.402  16.591 -0.0813  0.2971 -0.4014
  362TMC3    O1 5428   0.317   2.605  16.127  0.0803 -0.3288  0.1605
  362TMC3    O2 5429   0.516   2.347  16.678  0.1856 -0.3012 -0.3485
  363TMC3    C1 5430   4.053   0.460   9.308 -0.1689  1.0882 -0.0858
  363TMC3    C2 5431   3.997   0.392   9.413 -0.3908  0.3251  0.2544
  363TMC3    C3 5432   3.946   0.468   9.519  0.0148  0.4418  0.4324
  363TMC3    C4 5433   4.085   0.593   9.315  0.6043  0.1983  1.1750
  363TMC3    C5 5434   4.032   0.667   9.425 -0.0850 -0.3823  0.7814
  363TMC3    C6 5435   3.955   0.603   9.522  0.7343 -0.3067  0.3188
  363TMC3     C 5436   4.136   0.381   9.217 -0.2216 -0.3823 -0.1283
  363TMC3     O 5437   4.101   0.268   9.198  0.1092 -0.3435  0.2321
  363TMC3     H 5438   3.970   0.288   9.406 -0.2482  0.3429 -0.5609
  363TMC3    H1 5439   4.126   0.650   9.232  1.7711 -1.7933  0.3857
  363TMC3    H2 5440   3.922   0.659   9.609  1.9058  0.8707 -0.0002
  363TMC3    C7 5441   4.025   0.806   9.443 -0.0399  0.0987 -1.2100
  363TMC3    C8 5442   3.873   0.392   9.618 -0.5959  0.6272 -0.2836
  363TMC3    O1 5443   3.920   0.865   9.472 -0.2798 -0.3987  0.2503
  363TMC3    O2 5444   3.774   0.446   9.664  0.5864  0.0242 -0.1862
  364MPD2     C 5445   2.877   4.495   9.581 -0.9785 -0.5838  0.4901
  364MPD2    C1 5446   2.953   4.536   9.691 -0.0820  0.7494  0.0605
  364MPD2    C2 5447   2.965   4.457   9.803 -0.9702  0.4008  0.9197
  364MPD2    C3 5448   2.911   4.328   9.808  0.0087 -0.0815 -0.3931
  364MPD2    C4 5449   2.827   4.296   9.703  0.6071 -0.1959  0.5837
  364MPD2    C5 5450   2.805   4.379   9.589  0.5356  0.0778  1.8517
  364MPD2     H 5451   3.025   4.491   9.887  0.2628  3.1501 -1.0623
  364MPD2    H1 5452   2.761   4.211   9.717  0.3371 -0.0630  0.1470
  364MPD2    H2 5453   2.871   4.555   9.491  0.1633 -0.7940  0.2725
  364MPD2    H3 5454   2.734   4.346   9.515  0.3618  0.3691  1.8857
  364MPD2     N 5455   2.929   4.228   9.908 -0.5905 -0.1395 -0.1581
  364MPD2    H5 5456   2.895   4.134   9.892 -1.3058  0.2458 -0.9121
  364MPD2    N1 5457   3.008   4.668   9.685 -0.0708 -0.1406 -0.6615
  364MPD2    H7 5458   2.998   0.002   9.603 -0.3860  0.1870 -0.3898
  365TMC3    C1 5459   3.101   0.153   9.766 -1.0355  0.4281 -0.4448
  365TMC3    C2 5460   3.130   0.179   9.633 -0.4641  0.1134 -0.3042
  365TMC3    C3 5461   3.139   0.311   9.601  0.1400  0.2721 -0.0847
  365TMC3    C4 5462   3.125   0.248   9.867 -0.3538 -0.1267 -0.1299
  365TMC3    C5 5463   3.132   0.380   9.827 -0.7248  0.8220 -0.0187
  365TMC3    C6 5464   3.134   0.407   9.696 -0.4553  0.7014  0.5424
  365TMC3     C 5465   3.068   0.011   9.793  0.6760  0.1702 -0.1203
  365TMC3     O 5466   3.094   4.697   9.908 -0.4167  0.4487  0.7427
  365TMC3     H 5467   3.157   0.101   9.563 -3.4537 -0.2547 -1.0316
  365TMC3    H1 5468   3.107   0.222   9.971  1.1382  0.3345  0.2470
  365TMC3    H2 5469   3.128   0.506   9.652 -3.0747 -0.6618 -2.2140
  365TMC3    C7 5470   3.083   0.490   9.911  0.0639  0.1072  0.8652
  365TMC3    C8 5471   3.171   0.352   9.466 -0.2324  0.3006  0.2409
  365TMC3    O1 5472   3.127   0.603   9.894  0.3339  0.0298  0.0704
  365TMC3    O2 5473   3.209   0.463   9.428 -0.1192  0.4700 -0.1154
  366MPD2     C 5474   0.266   0.937  15.022 -0.4694  0.2469  0.7676
  366MPD2    C1 5475   0.329   0.966  14.905  0.4212  0.2828 -0.0628
  366MPD2    C2 5476   0.387   0.862  14.836 -0.9264  0.1172 -0.0373
  366MPD2    C3 5477   0.386   0.730  14.878  0.4372 -0.6267  0.0962
  366MPD2    C4 5478   0.308   0.703  14.994 -0.3187 -0.4434 -0.5141
  366MPD2    C5 5479   0.246   0.804  15.058 -0.7673 -0.3752 -0.0675
  366MPD2     H 5480   0.451   0.892  14.755 -0.4451 -1.8634 -0.3941
  366MPD2    H1 5481   0.303   0.601  15.030 -1.4072 -0.9754 -2.1730
  366MPD2    H2 5482   0.230   1.010  15.094 -3.9987  0.7385 -1.5310
  366MPD2    H3 5483   0.191   0.786  15.150  0.7288  0.3640  0.9682
  366MPD2     N 5484   0.474   0.640  14.814  0.6528  0.7327 -0.0117
  366MPD2    H5 5485   0.533   0.676  14.740  0.1616 -0.0593 -0.7855
  366MPD2    N1 5486   0.357   1.098  14.858  0.0818  0.0006  0.2649
  366MPD2    H7 5487   0.392   1.101  14.763 -1.6870  1.4661 -0.3588
  367TMC3    C1 5488   0.403   1.325  14.876 -0.6487 -0.1840  0.3858
  367TMC3    C2 5489   0.509   1.373  14.948 -0.2292  1.1034 -0.3173
  367TMC3    C3 5490   0.583   1.468  14.888  0.0096 -0.6306 -0.2934
  367TMC3    C4 5491   0.367   1.353  14.746  0.2964  0.6751 -0.0593
  367TMC3    C5 5492   0.453   1.450  14.692  0.0912 -0.2130  0.3863
  367TMC3    C6 5493   0.561   1.506  14.759  0.4317  0.1089 -0.4269
  367TMC3     C 5494   0.346   1.211  14.938  1.1976 -0.3004  0.7228
  367TMC3     O 5495   0.329   1.219  15.057  0.0544  0.6656 -0.5696
  367TMC3     H 5496   0.529   1.341  15.049 -3.5086 -1.2797 -0.4175
  367TMC3    H1 5497   0.274   1.318  14.702 -1.5746  3.5683  1.5950
  367TMC3    H2 5498   0.624   1.578  14.707  0.9779  0.6640  1.0189
  367TMC3    C7 5499   0.450   1.480  14.545 -0.0657 -0.2583 -0.1339
  367TMC3    C8 5500   0.716   1.483  14.949 -0.5767 -0.3435  0.2016
  367TMC3    O1 5501   0.511   1.584  14.509 -0.6089  0.4322  0.0877
  367TMC3    O2 5502   0.758   1.380  15.003  0.1062 -0.3443 -0.0687
  368MPD2     C 5503   1.902   2.659  13.300  0.1269 -0.4957 -0.3662
  368MPD2    C1 5504   1.981   2.752  13.234  0.0288 -0.1551  0.4382
  368MPD2    C2 5505   2.100   2.701  13.180 -0.3027 -0.0527  0.0922
  368MPD2    C3 5506   2.135   2.566  13.193  0.3538 -0.4634  0.0808
  368MPD2    C4 5507   2.055   2.481  13.260 -0.0530  0.7489  0.4335
  368MPD2    C5 5508   1.943   2.529  13.304  0.3679 -0.3260 -0.0354
  368MPD2     H 5509   2.177   2.755  13.125 -0.6064  1.3830  1.0571
  368MPD2    H1 5510   2.072   2.374  13.252  0.6758  0.8450  0.6957
  368MPD2    H2 5511   1.805   2.687  13.339  1.4296  0.6347  2.1195
  368MPD2    H3 5512   1.886   2.471  13.376 -0.8868  0.6888 -0.1994
  368MPD2     N 5513   2.243   2.501  13.127 -0.1509 -0.3867  0.3231
  368MPD2    H5 5514   2.262   2.406  13.160  0.8694  0.1368  1.2532
  368MPD2    N1 5515   1.945   2.886  13.245  0.3977 -0.2018 -0.2669
  368MPD2    H7 5516   1.863   2.909  13.300 -0.2345 -0.4746 -1.0856
  369TMC3    C1 5517   1.907   3.094  13.142  0.8196  0.3640  0.5563
  369TMC3    C2 5518   1.959   3.174  13.045 -0.1031  0.1132 -0.5240
  369TMC3    C3 5519   1.872   3.212  12.947  0.4851 -0.3000 -0.0190
  369TMC3    C4 5520   1.780   3.053  13.140  0.6897 -0.4950  0.8460
  369TMC3    C5 5521   1.701   3.083  13.036  0.3774  0.0635  0.0159
  369TMC3    C6 5522   1.745   3.163  12.932 -0.1486  0.4506  0.8740
  369TMC3     C 5523   1.998   2.981  13.155 -0.5042  0.4657 -0.8023
  369TMC3     O 5524   2.078   2.962  13.065  0.1075 -0.1702 -0.8942
  369TMC3     H 5525   2.059   3.214  13.053 -0.5803  1.6190 -2.0242
  369TMC3    H1 5526   1.739   2.988  13.217 -1.1193  0.1954  0.4671
  369TMC3    H2 5527   1.679   3.194  12.851 -1.0356  1.0095  1.8092
  369TMC3    C7 5528   1.574   3.014  13.023  0.0371  0.8595 -0.4854
  369TMC3    C8 5529   1.933   3.257  12.827  0.1847 -1.2430  0.1548
  369TMC3    O1 5530   1.533   2.960  13.124 -0.5323 -0.2955 -0.5990
  369TMC3    O2 5531   1.879   3.340  12.751  0.0569 -0.5465  0.0527
  370TMC3    C1 5532   1.788   3.099  16.157 -0.7178  0.3231  0.6412
  370TMC3    C2 5533   1.696   3.049  16.242 -0.0779 -0.2442  0.1467
  370TMC3    C3 5534   1.615   2.944  16.194 -0.0160  0.5313 -0.2173
  370TMC3    C4 5535   1.791   3.064  16.022 -0.1334  0.0890 -0.4174
  370TMC3    C5 5536   1.712   2.964  15.978 -0.7806 -0.0382  0.1281
  370TMC3    C6 5537   1.629   2.893  16.067 -0.7031  0.2848  0.7078
  370TMC3     C 5538   1.890   3.188  16.206 -0.2278 -0.1139 -0.2405
  370TMC3     O 5539   1.909   3.193  16.326 -0.3046 -0.0633 -0.3599
  370TMC3     H 5540   1.685   3.082  16.345  2.6338  0.4396  0.2061
  370TMC3    H1 5541   1.863   3.105  15.951 -0.8510  0.9487 -0.6599
  370TMC3    H2 5542   1.568   2.809  16.035  2.0050 -1.8911  1.1869
  370TMC3    C7 5543   1.730   2.921  15.842 -0.4572 -0.2620  0.2494
  370TMC3    C8 5544   1.508   2.887  16.271  0.5066  0.1104  0.4690
  370TMC3    O1 5545   1.751   3.007  15.756 -0.1362  0.4470  0.2560
  370TMC3    O2 5546   1.457   2.789  16.227  0.3408  0.2770  0.1965
  371TMC3    C1 5547   2.804   1.259  15.160  0.5347 -0.3708 -0.4538
  371TMC3    C2 5548   2.675   1.276  15.195 -0.9286  0.0826 -0.2678
  371TMC3    C3 5549   2.618   1.400  15.164  0.1042 -0.1418  0.4121
  371TMC3    C4 5550   2.870   1.347  15.080  0.5618 -0.2869 -0.3644
  371TMC3    C5 5551   2.802   1.460  15.040 -0.2435 -0.1356 -0.3740
  371TMC3    C6 5552   2.673   1.484  15.072  0.0256  0.0716 -0.2846
  371TMC3     C 5553   2.871   1.136  15.199 -0.3058  0.1911  0.3004
  371TMC3     O 5554   2.994   1.143  15.186  0.2436  0.4038  0.1560
  371TMC3     H 5555   2.630   1.213  15.271 -1.5754  0.1048 -0.6310
  371TMC3    H1 5556   2.975   1.328  15.059  0.6605  0.9500 -1.0333
  371TMC3    H2 5557   2.620   1.573  15.038  0.5692  0.9697  1.1995
  371TMC3    C7 5558   2.878   1.564  14.976 -0.0240 -0.0889  0.6874
  371TMC3    C8 5559   2.478   1.418  15.187 -0.2029  0.3834  0.8068
  371TMC3    O1 5560   2.828   1.675  14.994  0.0487 -0.1804  0.1257
  371TMC3    O2 5561   2.405   1.321  15.167 -0.1896  0.1469 -0.3535
  372MPD2     C 5562   2.165   3.014  13.494 -0.0726 -0.1442 -0.1380
  372MPD2    C1 5563   2.252   2.912  13.463  0.2486 -0.6022  0.4320
  372MPD2    C2 5564   2.224   2.780  13.493 -0.2285 -0.0578  0.4252
  372MPD2    C3 5565   2.102   2.763  13.559 -0.7633  0.3068 -0.8346
  372MPD2    C4 5566   2.027   2.862  13.605  0.4627  0.5226  0.6117
  372MPD2    C5 5567   2.063   2.992  13.574  0.4700 -0.1077  0.3224
  372MPD2     H 5568   2.289   2.700  13.461 -0.2915 -0.6868  1.8757
  372MPD2    H1 5569   1.933   2.838  13.652 -0.8137  3.9642 -0.2341
  372MPD2    H2 5570   2.183   3.117  13.469 -1.3516 -0.0655 -0.7136
  372MPD2    H3 5571   1.991   3.069  13.600  0.4381  0.0859 -0.3401
  372MPD2     N 5572   2.078   2.624  13.589  0.4640 -0.1732 -0.0998
  372MPD2    H5 5573   2.137   2.557  13.541 -0.2323 -1.0640  0.2790
  372MPD2    N1 5574   2.374   2.927  13.387 -0.0967 -0.0662 -0.2393
  372MPD2    H7 5575   2.422   2.839  13.375 -0.5001 -0.3521  0.2883
  373TMC3    C1 5576   1.987   2.435  13.696  0.3578 -1.1211  0.9026
  373TMC3    C2 5577   1.934   2.383  13.812 -0.4346 -0.2614 -0.6499
  373TMC3    C3 5578   1.941   2.249  13.837 -0.5141 -0.5047  0.1211
  373TMC3    C4 5579   2.039   2.351  13.602  0.6936  0.3739  0.3225
  373TMC3    C5 5580   2.053   2.216  13.633  0.8246  0.0320 -0.0616
  373TMC3    C6 5581   2.013   2.172  13.754 -0.1276 -0.0653  0.5948
  373TMC3     C 5582   1.975   2.581  13.665 -0.1958  0.1463 -0.1330
  373TMC3     O 5583   1.890   2.641  13.734  0.3494  0.2803 -0.0968
  373TMC3     H 5584   1.881   2.443  13.885 -1.7983 -0.0694 -1.8041
  373TMC3    H1 5585   2.085   2.379  13.508 -0.8057 -0.2297 -0.5906
  373TMC3    H2 5586   2.033   2.068  13.780 -0.7793  0.9054  4.9287
  373TMC3    C7 5587   2.140   2.133  13.553  0.6038  0.3787  0.0036
  373TMC3    C8 5588   1.966   2.203  13.977 -0.1540  0.2986 -0.3234
  373TMC3    O1 5589   2.116   2.140  13.438  0.2209 -0.2131  0.8697
  373TMC3    O2 5590   1.969   2.083  14.003 -0.3926 -0.1128  0.9355
  374TMC3    C1 5591   3.693   2.220   9.784  0.1736  0.1871  0.9146
  374TMC3    C2 5592   3.746   2.336   9.728 -0.1512  0.2136 -0.4051
  374TMC3    C3 5593   3.660   2.448   9.721 -0.6333  0.5532 -0.4335
  374TMC3    C4 5594   3.559   2.202   9.801 -0.2354  0.0966 -0.3971
  374TMC3    C5 5595   3.479   2.312   9.787  0.8977 -0.5375  0.7087
  374TMC3    C6 5596   3.527   2.435   9.752 -0.0012  0.0541 -0.5547
  374TMC3     C 5597   3.789   2.114   9.817  0.4326 -0.5981  0.2729
  374TMC3     O 5598   3.905   2.133   9.782 -0.4501  0.2917 -0.0427
  374TMC3     H 5599   3.852   2.352   9.740  0.4286 -1.5701 -3.1480
  374TMC3    H1 5600   3.518   2.103   9.820  1.1670 -0.6053 -1.0563
  374TMC3    H2 5601   3.469   2.526   9.747  1.4093  1.0085  0.4322
  374TMC3    C7 5602   3.348   2.280   9.743 -0.4100 -0.2606 -1.1331
  374TMC3    C8 5603   3.723   2.583   9.720 -0.0726 -0.5453  0.5491
  374TMC3    O1 5604   3.292   2.183   9.788  0.4104 -0.0519 -0.2380
  374TMC3    O2 5605   3.824   2.599   9.654  0.0746 -0.3379  0.4997
  375MPD2     C 5606   2.932   3.651  16.897  0.6896  0.0138  0.4666
  375MPD2    C1 5607   2.843   3.652  16.789 -0.4830 -0.4033  0.2798
  375MPD2    C2 5608   2.866   3.575  16.677 -0.2980 -0.3845 -0.0472
  375MPD2    C3 5609   2.988   3.519  16.657  0.2545 -0.0574  0.3074
  375MPD2    C4 5610   3.076   3.512  16.763 -0.3013 -0.1018 -0.3721
  375MPD2    C5 5611   3.049   3.585  16.883 -1.2252  0.3258 -0.2717
  375MPD2     H 5612   2.798   3.594  16.595 -1.0443 -0.4812  0.5539
  375MPD2    H1 5613   3.169   3.456  16.755  0.1658  0.7216 -0.7058
  375MPD2    H2 5614   2.925   3.713  16.986 -0.1800  0.1657  0.2998
  375MPD2    H3 5615   3.112   3.587  16.971 -2.4430 -0.3351  0.6109
  375MPD2     N 5616   3.023   3.468  16.530 -0.2108  0.0282  0.3913
  375MPD2    H5 5617   3.120   3.447  16.511  0.2571  0.7445  1.9705
  375MPD2    N1 5618   2.733   3.728  16.792 -0.7873  0.0187  0.8455
  375MPD2    H7 5619   2.680   3.745  16.707  2.0799 -2.3949 -1.4386
  376TMC3    C1 5620   3.002   3.392  16.309  0.1196 -0.0997 -0.7879
  376TMC3    C2 5621   3.133   3.428  16.282 -0.6642  0.3857  0.7600
  376TMC3    C3 5622   3.170   3.427  16.145 -0.8386  0.5978 -0.4865
  376TMC3    C4 5623   2.922   3.345  16.210  0.1478  0.1058  0.2781
  376TMC3    C5 5624   2.966   3.317  16.086  0.1871  0.4086  1.0402
  376TMC3    C6 5625   3.088   3.369  16.047  0.2367  0.2136 -0.7343
  376TMC3     C 5626   2.936   3.451  16.427  0.1496 -0.1828  0.2113
  376TMC3     O 5627   2.812   3.460  16.417  0.3529  0.0114 -0.6033
  376TMC3     H 5628   3.202   3.470  16.355 -1.2924  0.0467  1.5463
  376TMC3    H1 5629   2.820   3.328  16.243  0.2813  0.5249  0.9010
  376TMC3    H2 5630   3.133   3.364  15.949  3.5425 -1.0695  0.8645
  376TMC3    C7 5631   2.873   3.308  15.981  0.0735  0.0208 -0.3098
  376TMC3    C8 5632   3.314   3.438  16.109 -0.8935 -0.2817 -0.9735
  376TMC3    O1 5633   2.924   3.343  15.880  0.0839  0.1992  0.3786
  376TMC3    O2 5634   3.350   3.486  16.004 -0.6136  0.5357  0.0021
  377MPD2     C 5635   1.395   3.264  12.617 -0.0053  0.6580  0.4496
  377MPD2    C1 5636   1.333   3.248  12.493 -0.6352 -0.7113 -0.1059
  377MPD2    C2 5637   1.198   3.222  12.487  0.7559  0.0996 -0.1968
  377MPD2    C3 5638   1.126   3.191  12.601 -0.2960 -0.1831  1.3007
  377MPD2    C4 5639   1.194   3.200  12.719 -0.2706 -0.6529  0.4813
  377MPD2    C5 5640   1.326   3.246  12.726 -0.1286  0.5250  0.1544
  377MPD2     H 5641   1.152   3.216  12.389  0.7958  2.7688 -0.3762
  377MPD2    H1 5642   1.149   3.172  12.813 -0.4844  1.3594  0.9957
  377MPD2    H2 5643   1.502   3.277  12.628 -0.1760  2.2922  0.2394
  377MPD2    H3 5644   1.371   3.243  12.824 -0.8346  0.6529  0.4850
  377MPD2     N 5645   0.991   3.150  12.611  0.1253  0.3487 -0.6302
  377MPD2    H5 5646   0.963   3.123  12.705 -0.8293  0.9117 -0.7523
  377MPD2    N1 5647   1.420   3.243  12.384  0.5061  0.2396 -0.0376
  377MPD2    H7 5648   1.514   3.273  12.409  1.1561 -1.0214 -0.9676
  378TMC3    C1 5649   1.544   3.179  11.936  0.0997  0.4387  0.1183
  378TMC3    C2 5650   1.446   3.199  12.023 -0.3586  0.2974  0.1518
  378TMC3    C3 5651   1.487   3.212  12.156  0.4732 -0.4918  0.2978
  378TMC3    C4 5652   1.673   3.199  11.964 -0.1506  1.3456 -0.0391
  378TMC3    C5 5653   1.709   3.235  12.091  0.2396 -0.0087  0.5067
  378TMC3    C6 5654   1.615   3.241  12.191  0.1835  0.3054  0.2369
  378TMC3     C 5655   1.504   3.165  11.796  0.2537 -0.4982 -0.3920
  378TMC3     O 5656   1.383   3.144  11.782 -0.4457 -0.5039  0.3549
  378TMC3     H 5657   1.343   3.200  11.989 -0.4467 -4.3527  0.3765
  378TMC3    H1 5658   1.754   3.171  11.896 -0.5417  0.6285 -0.2144
  378TMC3    H2 5659   1.638   3.281  12.289  1.0627 -0.7602  0.4718
  378TMC3    C7 5660   1.843   3.261  12.133  0.9019 -0.8570 -0.8179
  378TMC3    C8 5661   1.382   3.222  12.256  0.5525 -0.4215 -0.5994
  378TMC3    O1 5662   1.862   3.261  12.252  0.1534 -0.0193  0.0463
  378TMC3    O2 5663   1.272   3.208  12.215  0.0441 -0.3226 -0.1666
  379MPD2     C 5664   1.968   1.410  15.561 -0.3139 -0.4287  0.2385
  379MPD2    C1 5665   1.863   1.354  15.629 -0.4047 -0.0346 -0.3559
  379MPD2    C2 5666   1.890   1.262  15.725  0.5014  0.3751 -0.1339
  379MPD2    C3 5667   2.018   1.235  15.757  0.0251 -0.0278  0.2656
  379MPD2    C4 5668   2.124   1.296  15.691  0.0106  0.3388  0.0713
  379MPD2    C5 5669   2.102   1.384  15.590  0.4413  0.1326  0.5214
  379MPD2     H 5670   1.810   1.204  15.769  1.7672 -0.6424  0.8326
  379MPD2    H1 5671   2.226   1.273  15.722  0.2005  0.6263 -0.3474
  379MPD2    H2 5672   1.943   1.479  15.481  0.1357 -0.2629  0.2424
  379MPD2    H3 5673   2.181   1.444  15.546 -0.9191  0.8480 -0.9360
  379MPD2     N 5674   2.051   1.134  15.849  0.3744 -0.0235 -0.6871
  379MPD2    H5 5675   2.152   1.125  15.862 -0.1513 -1.2204  2.6026
  379MPD2    N1 5676   1.728   1.362  15.597  0.3976  0.0430  0.4331
  379MPD2    H7 5677   1.668   1.299  15.649 -0.1560  1.6508  1.7563
  380TMC3    C1 5678   1.533   1.396  15.482  0.5860  0.0032  0.4030
  380TMC3    C2 5679   1.502   1.263  15.453  0.0203 -0.0177 -0.7246
  380TMC3    C3 5680   1.390   1.239  15.380  0.3349  0.3087 -0.2784
  380TMC3    C4 5681   1.453   1.498  15.450  0.0251 -0.9858  0.4219
  380TMC3    C5 5682   1.340   1.471  15.377  0.0038  0.2883  0.2822
  380TMC3    C6 5683   1.302   1.337  15.352  0.2151 -0.0518  0.1980
  380TMC3     C 5684   1.669   1.432  15.494  0.3678 -0.2845  0.4984
  380TMC3     O 5685   1.726   1.511  15.418 -0.4035 -0.3220  0.2770
  380TMC3     H 5686   1.580   1.188  15.458  0.0844 -0.0912 -2.6985
  380TMC3    H1 5687   1.470   1.596  15.493  1.2615 -0.9054 -0.2661
  380TMC3    H2 5688   1.200   1.315  15.325  0.3362  1.9904 -1.9032
  380TMC3    C7 5689   1.256   1.588  15.334  0.4263  0.2329  0.6742
  380TMC3    C8 5690   1.372   1.112  15.309  0.1506 -0.2962  0.6808
  380TMC3    O1 5691   1.278   1.694  15.389 -0.3778 -0.0833 -0.0880
  380TMC3    O2 5692   1.310   1.112  15.201 -0.0045 -0.6196  0.4403
  381TMC3    C1 5693   1.436   2.123  15.994  0.6887 -0.1066 -0.6289
  381TMC3    C2 5694   1.484   2.255  15.956 -0.0164  0.3041 -0.4432
  381TMC3    C3 5695   1.487   2.348  16.056 -0.5855  0.3961  0.7995
  381TMC3    C4 5696   1.370   2.100  16.107  0.1739  0.1921 -0.6681
  381TMC3    C5 5697   1.356   2.203  16.191 -0.8626 -0.0031  0.2792
  381TMC3    C6 5698   1.417   2.326  16.175  0.0478  0.6231 -0.0272
  381TMC3     C 5699   1.492   2.013  15.921  0.6880 -0.2201  0.5221
  381TMC3     O 5700   1.491   1.911  15.989  0.2525 -0.8724  0.7467
  381TMC3     H 5701   1.547   2.264  15.868 -1.3344 -1.4018 -1.5598
  381TMC3    H1 5702   1.316   2.007  16.117  0.9299 -0.1764 -0.0627
  381TMC3    H2 5703   1.395   2.406  16.244  0.6687  1.1813 -0.4790
  381TMC3    C7 5704   1.271   2.182  16.302 -0.6185  0.2765 -0.5545
  381TMC3    C8 5705   1.600   2.433  16.066 -0.0250  0.6014  0.2056
  381TMC3    O1 5706   1.294   2.078  16.360 -0.6120 -0.0849 -0.1738
  381TMC3    O2 5707   1.673   2.428  15.968  0.3462 -0.7469  0.3410
  382MPD2     C 5708   1.164   3.796  16.858 -0.4809  0.3120 -0.2540
  382MPD2    C1 5709   1.118   3.858  16.967  0.0573 -0.3518  0.4169
  382MPD2    C2 5710   0.982   3.872  16.992  0.1368 -0.0636  0.5216
  382MPD2    C3 5711   0.884   3.807  16.911 -0.1607  0.0201 -0.4415
  382MPD2    C4 5712   0.935   3.728  16.812  0.2529  0.4520  0.1060
  382MPD2    C5 5713   1.069   3.731  16.787 -0.3970 -0.7136 -0.3018
  382MPD2     H 5714   0.953   3.920  17.085  2.1429  1.4987  0.3385
  382MPD2    H1 5715   0.867   3.679  16.743  2.3156 -0.5937 -1.2217
  382MPD2    H2 5716   1.268   3.790  16.827 -0.6865  2.1451 -1.3192
  382MPD2    H3 5717   1.093   3.669  16.702  1.8618 -0.5647  0.2277
  382MPD2     N 5718   0.746   3.834  16.915  0.4068 -0.0068  0.0484
  382MPD2    H5 5719   0.695   3.806  16.832 -0.6677 -1.9348  1.3588
  382MPD2    N1 5720   1.197   3.950  17.039  0.7381 -0.1875 -0.0080
  382MPD2    H7 5721   1.148   3.998  17.115  0.9298 -0.2055  0.1261
  383TMC3    C1 5722   0.534   3.931  16.963 -0.1290  0.8743 -0.4739
  383TMC3    C2 5723   0.459   3.821  16.933 -0.0426  0.8063  0.4208
  383TMC3    C3 5724   0.319   3.842  16.922  0.6049 -0.2096 -0.1064
  383TMC3    C4 5725   0.479   4.047  17.000 -0.3247  0.4493  0.1540
  383TMC3    C5 5726   0.344   4.062  16.986  0.3917 -0.2433  0.5104
  383TMC3    C6 5727   0.263   3.960  16.951 -0.2327  0.0467 -0.2222
  383TMC3     C 5728   0.673   3.912  17.004  0.4445 -0.5971 -0.2690
  383TMC3     O 5729   0.716   3.970  17.098  0.1015 -0.3048  0.6588
  383TMC3     H 5730   0.500   3.728  16.897  1.4661  1.6074  0.0605
  383TMC3    H1 5731   0.548   4.123  17.034 -1.4527  0.4886  2.3817
  383TMC3    H2 5732   0.160   3.977  16.923 -1.1032 -1.5163  2.0363
  383TMC3    C7 5733   0.287   4.202  16.999 -0.1899  0.2618  0.1988
  383TMC3    C8 5734   0.239   3.766  16.823  0.1948 -0.7090 -0.2300
  383TMC3    O1 5735   0.362   4.299  17.004  0.1410  0.0032  0.2875
  383TMC3    O2 5736   0.158   3.816  16.742 -0.2965 -0.0160 -0.1847
  384MPD2     C 5737   2.300   1.007  11.652 -1.0500  0.2654 -0.2815
  384MPD2    C1 5738   2.244   0.899  11.714  0.5157  0.4609  0.3859
  384MPD2    C2 5739   2.238   0.775  11.656 -0.5857  0.2632  0.6214
  384MPD2    C3 5740   2.284   0.756  11.524  0.6165 -0.4114  0.2862
  384MPD2    C4 5741   2.329   0.864  11.461  0.4073 -0.2743 -0.4849
  384MPD2    C5 5742   2.341   0.985  11.524 -1.1403 -0.2205 -0.8616
  384MPD2     H 5743   2.212   0.688  11.715  0.1754 -0.5058 -0.1841
  384MPD2    H1 5744   2.361   0.868  11.357 -0.9646 -0.0891 -0.9033
  384MPD2    H2 5745   2.319   1.105  11.693  0.4437 -0.1140 -0.0798
  384MPD2    H3 5746   2.374   1.069  11.464  3.3926  0.1908  2.2400
  384MPD2     N 5747   2.267   0.625  11.475 -0.0506 -0.2402 -0.2396
  384MPD2    H5 5748   2.223   0.559  11.538 -2.7604  2.3251  0.5291
  384MPD2    N1 5749   2.194   0.901  11.848  0.5160  0.6555  0.4322
  384MPD2    H7 5750   2.162   0.815  11.892  0.5849  0.3640 -0.0910
  385TMC3    C1 5751   2.225   0.448  11.326  0.5060 -0.4503 -0.6833
  385TMC3    C2 5752   2.144   0.439  11.217  0.1072  0.1784  0.1269
  385TMC3    C3 5753   2.015   0.387  11.227  0.0536 -0.5919 -0.6250
  385TMC3    C4 5754   2.187   0.385  11.442  0.7202 -0.0134  0.4535
  385TMC3    C5 5755   2.070   0.324  11.460 -0.1119  0.3600 -0.9286
  385TMC3    C6 5756   1.985   0.327  11.352 -0.4443 -0.1751  1.1876
  385TMC3     C 5757   2.282   0.580  11.345  0.2943 -0.0344 -0.0062
  385TMC3     O 5758   2.320   0.652  11.249 -0.1848 -0.8841 -0.1231
  385TMC3     H 5759   2.166   0.497  11.128 -0.5162 -2.1237 -1.5468
  385TMC3    H1 5760   2.250   0.400  11.529 -0.2603 -2.1315  1.5289
  385TMC3    H2 5761   1.880   0.312  11.374 -0.9102  0.6523 -0.5154
  385TMC3    C7 5762   2.016   0.376  11.584 -0.0153 -0.0638 -0.1770
  385TMC3    C8 5763   1.920   0.407  11.122  0.1668 -0.5674 -0.9279
  385TMC3    O1 5764   2.074   0.470  11.635  0.0654 -0.3545  0.2293
  385TMC3    O2 5765   1.802   0.408  11.156  0.2169  0.3252 -0.1686
  386TMC3    C1 5766   3.167   3.459  11.816  0.0041  0.3262  0.6051
  386TMC3    C2 5767   3.144   3.442  11.682 -0.2650  0.2011 -0.4036
  386TMC3    C3 5768   3.066   3.535  11.622  0.2034 -0.2831 -0.2802
  386TMC3    C4 5769   3.114   3.565  11.881 -0.3273 -0.0699  0.0432
  386TMC3    C5 5770   3.027   3.653  11.817  0.0946  0.6394 -0.2421
  386TMC3    C6 5771   3.009   3.648  11.685 -0.4672 -0.1848  0.1131
  386TMC3     C 5772   3.231   3.363  11.900 -0.2020 -0.5509 -0.8100
  386TMC3     O 5773   3.266   3.405  12.011  0.8060 -0.4139 -0.1131
  386TMC3     H 5774   3.161   3.353  11.622 -0.8602  0.0560 -0.3604
  386TMC3    H1 5775   3.113   3.573  11.989 -0.6429  1.9286 -0.1045
  386TMC3    H2 5776   2.934   3.700  11.627  0.5423  0.6153 -0.4715
  386TMC3    C7 5777   2.906   3.698  11.884 -0.0313  0.0469  0.0295
  386TMC3    C8 5778   3.005   3.504  11.493  0.4406  0.2113  0.2595
  386TMC3    O1 5779   2.869   3.638  11.982 -0.0946  0.0375 -0.3179
  386TMC3    O2 5780   2.887   3.535  11.476  0.4347 -1.0466  0.6243
  387MPD2     C 5781   0.037   3.308   9.610 -0.6850  0.0144 -0.3494
  387MPD2    C1 5782   0.168   3.303   9.639  0.2340 -0.7655  0.4846
  387MPD2    C2 5783   0.229   3.181   9.629 -0.5249 -1.0916 -0.5349
  387MPD2    C3 5784   0.160   3.074   9.585  0.4320  0.0354 -0.2720
  387MPD2    C4 5785   0.026   3.071   9.563 -0.8215 -0.0863  0.4889
  387MPD2    C5 5786   4.686   3.194   9.561  0.4123 -0.0793  0.5804
  387MPD2     H 5787   0.335   3.163   9.636 -0.7274 -1.4718  1.4255
  387MPD2    H1 5788   4.701   2.982   9.526 -0.5155 -0.8807  1.9893
  387MPD2    H2 5789   4.707   3.400   9.628  0.8298  1.1192 -1.5001
  387MPD2    H3 5790   4.579   3.188   9.542  0.8313 -0.3662 -1.7429
  387MPD2     N 5791   0.235   2.954   9.586  0.1026  0.5129  0.4506
  387MPD2    H5 5792   0.330   2.965   9.621  0.4179  0.3184 -0.3447
  387MPD2    N1 5793   0.231   3.418   9.694 -1.0292  0.0857 -0.2061
  387MPD2    H7 5794   0.170   3.498   9.694 -1.7525 -0.4677 -0.9977
  388TMC3    C1 5795   0.407   3.547   9.793 -0.0393  0.0368 -0.3941
  388TMC3    C2 5796   0.331   3.617   9.883  0.1134 -0.6525  0.3675
  388TMC3    C3 5797   0.398   3.670   9.988  0.1386 -0.2980  0.0776
  388TMC3    C4 5798   0.544   3.540   9.807 -0.3075 -0.8873  0.3658
  388TMC3    C5 5799   0.600   3.570   9.923  0.0110  0.5244 -0.4477
  388TMC3    C6 5800   0.531   3.649  10.010  0.4971 -0.1670 -0.2558
  388TMC3     C 5801   0.359   3.427   9.726  0.9094  0.0145  0.3488
  388TMC3     O 5802   0.447   3.343   9.725  0.3233  0.0005  0.0020
  388TMC3     H 5803   0.224   3.636   9.877  0.4766  1.1641 -0.2826
  388TMC3    H1 5804   0.603   3.490   9.731 -0.3642  0.1040 -0.3347
  388TMC3    H2 5805   0.586   3.694  10.092 -0.3843  0.2542  0.0984
  388TMC3    C7 5806   0.667   3.459   9.994 -0.2367 -0.9344 -0.1310
  388TMC3    C8 5807   0.321   3.754  10.078 -0.4969 -0.9684 -0.0234
  388TMC3    O1 5808   0.705   3.477  10.108 -0.3907  0.0726  0.3090
  388TMC3    O2 5809   0.200   3.731  10.084 -0.0493 -0.3713 -0.2430
  389MPD2     C 5810   4.409   1.804  11.232 -0.3722 -1.1994  0.4511
  389MPD2    C1 5811   4.307   1.755  11.148  0.5710 -0.6162  0.4046
  389MPD2    C2 5812   4.231   1.650  11.188  0.1023  0.2586  0.2016
  389MPD2    C3 5813   4.256   1.597  11.314 -0.4845  0.3796 -0.4263
  389MPD2    C4 5814   4.349   1.647  11.397  0.0086  0.2495 -0.2753
  389MPD2    C5 5815   4.422   1.750  11.357  0.3221 -1.1412 -0.2045
  389MPD2     H 5816   4.148   1.611  11.130  1.5110  1.3150 -2.4579
  389MPD2    H1 5817   4.350   1.612  11.500  2.9312  0.1383 -0.3246
  389MPD2    H2 5818   4.468   1.893  11.211 -1.0878 -0.9879 -0.6801
  389MPD2    H3 5819   4.506   1.786  11.417  0.2620  0.2743 -0.9674
  389MPD2     N 5820   4.168   1.505  11.369  0.7467  0.3255  0.0325
  389MPD2    H5 5821   4.161   1.502  11.470 -1.2919  2.2981 -0.0596
  389MPD2    N1 5822   4.287   1.817  11.025  0.3764  0.8062  0.5401
  389MPD2    H7 5823   4.360   1.882  10.999  1.7660 -1.5241 -1.3783
  390TMC3    C1 5824   3.973   1.385  11.391  0.3201 -0.0480  0.7863
  390TMC3    C2 5825   3.898   1.281  11.348  0.9611  0.4217  0.1807
  390TMC3    C3 5826   3.774   1.258  11.400  0.2782 -0.3637 -0.3314
  390TMC3    C4 5827   3.916   1.485  11.459 -0.4846 -0.3728 -1.1142
  390TMC3    C5 5828   3.793   1.464  11.513 -0.3877 -0.2550 -0.0188
  390TMC3    C6 5829   3.719   1.345  11.490  0.2603  0.4649 -0.0407
  390TMC3     C 5830   4.082   1.418  11.302  0.3347 -0.4805  0.7447
  390TMC3     O 5831   4.069   1.385  11.188 -0.3930  0.4826  0.3626
  390TMC3     H 5832   3.945   1.213  11.279 -1.0846  1.2214 -1.9995
  390TMC3    H1 5833   3.969   1.579  11.472  0.7389 -1.0778 -1.0189
  390TMC3    H2 5834   3.625   1.334  11.541  1.2709 -1.8961  1.3008
  390TMC3    C7 5835   3.725   1.583  11.570 -0.5970  0.1430 -0.4382
  390TMC3    C8 5836   3.714   1.127  11.378  0.5088  1.2827 -0.7821
  390TMC3    O1 5837   3.758   1.688  11.513 -0.2036 -0.0354 -0.5508
  390TMC3    O2 5838   3.748   1.070  11.274 -0.1786  0.3943  0.2862
  391MPD2     C 5839   3.263   2.826  11.142  0.4084 -0.1997 -0.1773
  391MPD2    C1 5840   3.339   2.941  11.139  0.3883  0.2834  0.2574
  391MPD2    C2 5841   3.385   2.987  11.011  0.0078 -0.3304 -0.0812
  391MPD2    C3 5842   3.341   2.929  10.888  0.0729  0.1684 -0.1485
  391MPD2    C4 5843   3.247   2.826  10.896  0.4083 -0.3665 -0.3712
  391MPD2    C5 5844   3.209   2.781  11.023  0.2836  0.8153  0.6139
  391MPD2     H 5845   3.453   3.071  11.002  0.5500 -0.7208  0.3765
  391MPD2    H1 5846   3.213   2.778  10.805 -1.2644  2.4406 -1.2630
  391MPD2    H2 5847   3.232   2.782  11.236 -1.0552  1.6178  0.1936
  391MPD2    H3 5848   3.148   2.692  11.011  1.2607  0.1122  0.9446
  391MPD2     N 5849   3.397   2.987  10.777  0.2020 -0.6307 -0.5170
  391MPD2    H5 5850   3.473   3.052  10.796  0.8905 -1.0753 -1.7407
  391MPD2    N1 5851   3.396   2.992  11.257  0.8225  0.4594  0.1558
  391MPD2    H7 5852   3.371   2.940  11.341  0.0067 -0.6856 -0.7870
  392TMC3    C1 5853   3.493   3.003  10.561  0.0134  0.1486 -0.0702
  392TMC3    C2 5854   3.489   2.974  10.426  0.2758  0.1842 -0.0541
  392TMC3    C3 5855   3.577   3.026  10.339  0.2010 -0.4626  0.2587
  392TMC3    C4 5856   3.590   3.083  10.611 -0.0825 -0.6885  0.1002
  392TMC3    C5 5857   3.667   3.142  10.514 -0.1428  0.2763 -0.2409
  392TMC3    C6 5858   3.669   3.114  10.380  0.2807 -0.0484  0.4356
  392TMC3     C 5859   3.397   2.932  10.649  0.8770  0.4330  0.6789
  392TMC3     O 5860   3.336   2.837  10.606 -0.5141  0.0973  0.2226
  392TMC3     H 5861   3.425   2.892  10.393  1.4995 -1.0479  0.6016
  392TMC3    H1 5862   3.588   3.128  10.710 -0.5234  1.0755 -0.6967
  392TMC3    H2 5863   3.737   3.160  10.308 -0.4110  0.7694  0.2991
  392TMC3    C7 5864   3.743   3.256  10.554  0.1054  0.0274  1.2367
  392TMC3    C8 5865   3.596   2.960  10.211 -0.2804  0.5063  0.0228
  392TMC3    O1 5866   3.778   3.268  10.671  0.2364  0.1174  0.1138
  392TMC3    O2 5867   3.528   2.861  10.203 -0.4372 -0.1169  0.0867
  393TMC3    C1 5868   2.168   0.713  10.268  0.0922  0.3703 -0.8612
  393TMC3    C2 5869   2.027   0.737  10.287 -0.6043  0.4405  0.1493
  393TMC3    C3 5870   1.986   0.770  10.412  0.3409 -0.3083 -0.0126
  393TMC3    C4 5871   2.262   0.732  10.365  0.5926 -0.6602  1.1079
  393TMC3    C5 5872   2.207   0.772  10.485 -0.1920  0.0409  0.9352
  393TMC3    C6 5873   2.078   0.792  10.513  0.6666 -0.4726 -0.3601
  393TMC3     C 5874   2.210   0.664  10.132 -0.2664  0.7884 -0.0318
  393TMC3     O 5875   2.322   0.694  10.086  0.4451 -0.0742 -0.3969
  393TMC3     H 5876   1.949   0.724  10.213 -1.4618  0.4672  1.0435
  393TMC3    H1 5877   2.364   0.695  10.364 -0.0805 -2.4858 -0.4817
  393TMC3    H2 5878   2.056   0.827  10.614 -1.3905  0.2664 -1.0657
  393TMC3    C7 5879   2.298   0.821  10.592  0.5789 -0.2605  0.4815
  393TMC3    C8 5880   1.841   0.813  10.424 -0.5054  0.1606 -0.1230
  393TMC3    O1 5881   2.273   0.801  10.711  0.3058 -0.0679  1.0657
  393TMC3    O2 5882   1.786   0.850  10.322  0.3368  0.7425  0.3023
  394TMC3    C1 5883   4.185   1.885  10.820  0.3920  0.3090 -0.1165
  394TMC3    C2 5884   4.060   1.906  10.762 -0.1047 -0.2952  0.1421
  394TMC3    C3 5885   4.058   1.961  10.635 -0.3461  0.4464  0.6280
  394TMC3    C4 5886   4.303   1.919  10.764  0.0970 -0.1639  0.2998
  394TMC3    C5 5887   4.295   1.969  10.635 -0.2337 -0.2338  0.2692
  394TMC3    C6 5888   4.174   1.989  10.571 -0.1818  0.5738 -0.4428
  394TMC3     C 5889   4.170   1.815  10.947  0.3161  0.1775 -0.0722
  394TMC3     O 5890   4.070   1.750  10.960 -0.0794 -0.1360 -0.4163
  394TMC3     H 5891   3.969   1.863  10.801 -1.0455 -0.0357 -1.7466
  394TMC3    H1 5892   4.397   1.900  10.813  0.6759 -2.3158 -1.6456
  394TMC3    H2 5893   4.163   1.999  10.464  0.9057 -0.5393 -0.6653
  394TMC3    C7 5894   4.426   1.993  10.570  0.4042 -0.6283  0.5866
  394TMC3    C8 5895   3.951   1.909  10.552  0.5994  0.7258 -0.1597
  394TMC3    O1 5896   4.425   2.054  10.463 -0.4724  0.0199 -0.3836
  394TMC3    O2 5897   3.840   1.933  10.599  0.2201  0.1776 -0.4272
  395TMC3    C1 5898   4.333   3.291  14.086  0.0096  0.5856  0.0564
  395TMC3    C2 5899   4.200   3.301  14.050  0.1651 -0.0988 -0.4372
  395TMC3    C3 5900   4.159   3.381  13.946 -0.0330  0.2514 -0.2948
  395TMC3    C4 5901   4.431   3.355  14.014  0.1644 -0.4773  0.2999
  395TMC3    C5 5902   4.392   3.445  13.917 -0.0642  0.2622 -0.6781
  395TMC3    C6 5903   4.251   3.459  13.887  0.3398 -0.1910  0.0140
  395TMC3     C 5904   4.373   3.214  14.200 -0.3986 -0.6883 -0.3872
  395TMC3     O 5905   4.487   3.164  14.196  0.2380  0.1844  0.0146
  395TMC3     H 5906   4.131   3.228  14.091 -1.5178  0.7812 -1.6774
  395TMC3    H1 5907   4.530   3.320  14.042 -0.0275 -0.6530  0.7607
  395TMC3    H2 5908   4.228   3.519  13.799 -3.1647 -0.8978  0.4619
  395TMC3    C7 5909   4.466   3.562  13.920  0.8057 -1.0087 -0.2781
  395TMC3    C8 5910   4.031   3.441  13.965  0.2957  0.0280  0.4481
  395TMC3    O1 5911   4.547   3.566  14.013  0.2778 -0.7623 -0.1723
  395TMC3    O2 5912   4.020   3.558  13.927 -0.4928  0.7992 -0.2978
  396MPD2     C 5913   4.115   3.950  17.548  0.2141 -0.2146 -0.3586
  396MPD2    C1 5914   4.050   3.910  17.433  0.5169  0.5183  0.3099
  396MPD2    C2 5915   4.040   3.997  17.327  0.3033 -0.1002  0.3377
  396MPD2    C3 5916   4.083   4.125  17.335 -0.2382  0.7241 -0.2031
  396MPD2    C4 5917   4.145   4.167  17.453 -0.0164  1.1233 -0.1057
  396MPD2    C5 5918   4.166   4.079  17.555 -0.6559 -0.2908  0.0669
  396MPD2     H 5919   3.995   3.972  17.232  0.5435 -0.2913  0.2763
  396MPD2    H1 5920   4.196   4.262  17.467  0.7124  0.3925  2.2106
  396MPD2    H2 5921   4.146   3.882  17.627  0.1889 -0.2941 -0.4172
  396MPD2    H3 5922   4.205   4.127  17.644 -1.3576  0.1130  0.1584
  396MPD2     N 5923   4.066   4.216  17.228 -0.2203 -0.0428 -0.2576
  396MPD2    H5 5924   4.009   4.188  17.148  2.4052 -0.9441 -1.8501
  396MPD2    N1 5925   3.983   3.777  17.437  0.5591 -0.2319  0.2317
  396MPD2    H7 5926   4.004   3.709  17.509  2.5087 -0.7878 -0.8552
  397TMC3    C1 5927   3.837   3.604  17.353  0.8156  0.0172 -0.0336
  397TMC3    C2 5928   3.806   3.556  17.233  0.5133  0.2996  0.4851
  397TMC3    C3 5929   3.843   3.425  17.198  0.1596  0.4100  0.4854
  397TMC3    C4 5930   3.913   3.529  17.442 -0.5640  0.0916 -0.5862
  397TMC3    C5 5931   3.964   3.407  17.403  0.5696  1.0519 -0.2473
  397TMC3    C6 5932   3.934   3.360  17.275 -0.6213  0.0167 -0.1073
  397TMC3     C 5933   3.884   3.743  17.350  0.3876 -0.3238 -0.0344
  397TMC3     O 5934   3.840   3.814  17.263 -0.1649  0.1998 -0.0329
  397TMC3     H 5935   3.762   3.621  17.157  1.4980 -0.0504 -0.3891
  397TMC3    H1 5936   3.907   3.557  17.547  0.1451 -1.8525 -0.0238
  397TMC3    H2 5937   3.975   3.262  17.249 -0.4345  0.2812 -0.8091
  397TMC3    C7 5938   4.009   3.318  17.499  0.0922 -0.0068  0.7055
  397TMC3    C8 5939   3.807   3.400  17.061  0.3867  0.5236  0.0280
  397TMC3    O1 5940   4.042   3.203  17.460 -0.6493  0.3983  0.0233
  397TMC3    O2 5941   3.705   3.445  17.013  0.2840  0.4239  0.6827
  398MPD2     C 5942   2.435   0.196  17.451  0.1225  1.4209  0.5206
  398MPD2    C1 5943   2.462   0.189  17.586 -0.0722  0.6030  0.1387
  398MPD2    C2 5944   2.505   0.306  17.645  0.2910 -0.1835 -0.0124
  398MPD2    C3 5945   2.510   0.426  17.578  0.8370 -0.8475  0.4398
  398MPD2    C4 5946   2.485   0.426  17.438 -0.1711 -0.2300  0.0895
  398MPD2    C5 5947   2.449   0.307  17.384  1.0854 -0.0856 -0.3309
  398MPD2     H 5948   2.525   0.319   0.056  0.6839 -0.4970 -0.0446
  398MPD2    H1 5949   2.489   0.514  17.374 -0.4762 -0.7805 -0.6923
  398MPD2    H2 5950   2.382   0.114  17.403  1.1787  2.0038 -1.6230
  398MPD2    H3 5951   2.417   0.309  17.281  0.2193 -1.6594 -0.0827
  398MPD2     N 5952   2.524   0.547  17.654  0.1834  0.1708  0.1844
  398MPD2    H5 5953   2.544   0.535   0.058  1.7168 -1.4418 -0.3234
  398MPD2    N1 5954   2.438   0.078  17.672  0.0310  0.5061  0.4764
  398MPD2    H7 5955   2.452   0.094   0.076  1.6973  2.3796 -0.0536
  399TMC3    C1 5956   2.394   4.588   0.051  1.0771 -0.3439 -0.0866
  399TMC3    C2 5957   2.394   4.632   0.180 -0.4389 -0.5701 -0.5238
  399TMC3    C3 5958   2.323   4.560   0.271  0.2351 -0.4418  0.5880
  399TMC3    C4 5959   2.324   4.477   0.014  0.7426 -0.3579  0.3108
  399TMC3    C5 5960   2.242   4.419   0.103  0.1606 -0.0988 -0.7050
  399TMC3    C6 5961   2.251   4.449   0.236  0.2084 -0.3262 -0.3674
  399TMC3     C 5962   2.399   4.682  17.640  0.4327  0.0501 -0.8507
  399TMC3     O 5963   2.370   4.641  17.527  0.4126  0.0423 -0.5352
  399TMC3     H 5964   2.445   4.721   0.216 -1.0446  0.0627 -1.2098
  399TMC3    H1 5965   2.342   4.434  17.612  2.0017 -2.4599  1.4658
  399TMC3    H2 5966   2.170   4.417   0.301  0.9082  1.0035  1.1667
  399TMC3    C7 5967   2.155   4.303   0.066  0.1841 -0.4204  0.7566
  399TMC3    C8 5968   2.333   4.603   0.409  0.3674 -0.5410 -0.4896
  399TMC3    O1 5969   2.130   4.229   0.161 -0.2632  0.1261 -0.2874
  399TMC3    O2 5970   2.389   4.713   0.433  0.2768  0.3662  0.1418
  400TMC3    C1 5971   0.492   3.374  16.552  0.2718 -0.1992  0.0433
  400TMC3    C2 5972   0.397   3.373  16.458 -0.4298 -0.7118  0.2547
  400TMC3    C3 5973   0.370   3.487  16.382 -0.6837 -0.1002  0.1645
  400TMC3    C4 5974   0.548   3.494  16.584  0.4390 -0.2287 -0.2644
  400TMC3    C5 5975   0.511   3.609  16.529 -0.9798  0.2520 -0.0022
  400TMC3    C6 5976   0.430   3.605  16.418 -0.3352 -0.1580  0.5821
  400TMC3     C 5977   0.479   3.294  16.669 -0.2734 -0.2821  0.0740
  400TMC3     O 5978   0.521   3.344  16.772  0.3744 -0.0294  0.5304
  400TMC3     H 5979   0.334   3.286  16.441 -1.2053  0.1558 -1.2438
  400TMC3    H1 5980   0.619   3.519  16.662 -0.8028  1.4920  0.3190
  400TMC3    H2 5981   0.426   3.684  16.344  1.5751 -1.1759 -0.6256
  400TMC3    C7 5982   0.536   3.739  16.602  0.1267 -0.6879  0.2683
  400TMC3    C8 5983   0.240   3.517  16.315 -0.4911  0.4167 -0.2599
  400TMC3    O1 5984   0.633   3.744  16.677 -0.1920  0.6184 -0.0463
  400TMC3    O2 5985   0.213   3.637  16.318 -0.2444 -0.6013  0.0223
  401MPD2     C 5986   4.119   2.316   0.735  0.4840  0.8339  0.3705
  401MPD2    C1 5987   4.024   2.233   0.796  0.4158  0.5144 -0.0122
  401MPD2    C2 5988   3.924   2.166   0.728 -0.3855 -0.1635 -0.0100
  401MPD2    C3 5989   3.922   2.182   0.593 -0.1381  0.2479  0.0628
  401MPD2    C4 5990   4.014   2.270   0.528  0.3770  0.4587 -0.4443
  401MPD2    C5 5991   4.122   2.319   0.598  0.4750  0.2962 -0.6583
  401MPD2     H 5992   3.844   2.105   0.769 -0.6048  0.4268  0.4417
  401MPD2    H1 5993   4.015   2.280   0.420 -0.7262  2.8810 -0.2180
  401MPD2    H2 5994   4.196   2.369   0.790  1.1674  2.2346 -1.9470
  401MPD2    H3 5995   4.200   2.371   0.543 -0.4116  1.0988 -1.1837
  401MPD2     N 5996   3.820   2.110   0.527 -0.1879  0.4501  0.1712
  401MPD2    H5 5997   3.754   2.062   0.587  0.6289  1.5726  1.9723
  401MPD2    N1 5998   4.022   2.216   0.937 -0.4574  0.7656 -0.3904
  401MPD2    H7 5999   3.950   2.152   0.970  0.1267  0.2853 -0.0573
  402TMC3    C1 6000   3.737   1.970   0.362 -0.0120  0.1762  0.4017
  402TMC3    C2 6001   3.707   1.886   0.466  0.0284  0.5150  0.4815
  402TMC3    C3 6002   3.630   1.772   0.439 -0.9475 -0.4286  0.6229
  402TMC3    C4 6003   3.705   1.930   0.237 -0.8162  0.1650 -0.3524
  402TMC3    C5 6004   3.634   1.815   0.215 -0.4596  0.1898 -0.6329
  402TMC3    C6 6005   3.581   1.746   0.317 -0.1793  0.6264  0.0926
  402TMC3     C 6006   3.803   2.098   0.390  0.2621 -0.5956  0.4638
  402TMC3     O 6007   3.855   2.161   0.301  0.4176 -0.0822  0.3058
  402TMC3     H 6008   3.746   1.906   0.565  0.0212  2.4280  0.0942
  402TMC3    H1 6009   3.745   1.988   0.154  0.2703  0.6211  0.4769
  402TMC3    H2 6010   3.509   1.665   0.305 -0.2538  0.6762  0.1973
  402TMC3    C7 6011   3.656   1.745   0.089 -0.2071 -0.9547 -0.4928
  402TMC3    C8 6012   3.623   1.666   0.528 -0.6321 -0.7379  0.2053
  402TMC3    O1 6013   3.570   1.676   0.041 -0.3923  0.5482 -0.5602
  402TMC3    O2 6014   3.600   1.551   0.487 -0.3339  0.0964 -0.2838
  403MPD2     C 6015   1.692   1.304  13.070 -0.3950 -0.1376 -0.8144
  403MPD2    C1 6016   1.680   1.183  13.140  0.1078 -0.4638  0.0432
  403MPD2    C2 6017   1.771   1.165  13.243  0.2114  0.4555  0.0113
  403MPD2    C3 6018   1.862   1.268  13.274 -0.9003 -0.0822 -0.3797
  403MPD2    C4 6019   1.856   1.395  13.217 -0.1043  0.0647  0.1285
  403MPD2    C5 6020   1.770   1.415  13.109 -0.1051  0.2202 -0.3810
  403MPD2     H 6021   1.783   1.065  13.281 -1.3895 -0.9247 -3.1125
  403MPD2    H1 6022   1.924   1.478  13.237 -0.8858  0.6818  0.2363
  403MPD2    H2 6023   1.635   1.319  12.979 -0.0168  0.0812 -1.0137
  403MPD2    H3 6024   1.758   1.503  13.047  1.6679  1.0224  0.4506
  403MPD2     N 6025   1.959   1.234  13.371 -0.1510 -0.3900  0.0745
  403MPD2    H5 6026   1.971   1.138  13.400  1.9600 -0.3834 -0.8218
  403MPD2    N1 6027   1.583   1.089  13.093  0.2571  0.2883  0.1253
  403MPD2    H7 6028   1.535   1.118  13.009  1.3608  0.8806 -0.3056
  404TMC3    C1 6029   1.469   0.886  13.065 -0.1121  0.5706  0.0821
  404TMC3    C2 6030   1.429   0.772  13.132 -0.1719  0.0726  0.3835
  404TMC3    C3 6031   1.403   0.664  13.056  0.6042 -0.4963 -0.4186
  404TMC3    C4 6032   1.474   0.901  12.934  0.3465  1.0441 -0.6884
  404TMC3    C5 6033   1.431   0.791  12.862 -0.6680 -0.1493  0.0169
  404TMC3    C6 6034   1.412   0.663  12.918  0.4981 -1.0874  0.0652
  404TMC3     C 6035   1.539   0.969  13.153  0.2890  0.2109 -0.1619
  404TMC3     O 6036   1.577   0.928  13.262  0.4655  0.1565 -0.0534
  404TMC3     H 6037   1.422   0.774  13.240 -2.1813  0.7681  0.2412
  404TMC3    H1 6038   1.486   0.995  12.882  1.8205  1.8048  1.0145
  404TMC3    H2 6039   1.387   0.580  12.854  0.8592 -3.2463  2.7297
  404TMC3    C7 6040   1.420   0.809  12.715  0.7391 -0.0230 -0.9218
  404TMC3    C8 6041   1.361   0.536  13.120 -0.6150  0.3531 -0.2901
  404TMC3    O1 6042   1.497   0.903  12.682 -0.5688  0.4720  0.2266
  404TMC3    O2 6043   1.376   0.441  13.041 -0.0726 -0.0128  0.7058
  405MPD2     C 6044   1.995   1.292  14.449  0.5835  0.2558  0.6481
  405MPD2    C1 6045   2.042   1.234  14.337  0.1947 -0.5489 -0.1260
  405MPD2    C2 6046   2.030   1.302  14.212  0.7604  0.6387  0.3611
  405MPD2    C3 6047   1.964   1.422  14.208 -0.0571 -0.3321 -0.2156
  405MPD2    C4 6048   1.918   1.484  14.324 -0.0848  0.3249 -0.1562
  405MPD2    C5 6049   1.930   1.412  14.447 -0.3757  0.4793 -0.2563
  405MPD2     H 6050   2.071   1.251  14.126 -0.4847  0.6365 -0.2305
  405MPD2    H1 6051   1.874   1.583  14.321 -0.1033  0.3445  0.7540
  405MPD2    H2 6052   1.988   1.233  14.539 -2.1443  0.7341  0.7506
  405MPD2    H3 6053   1.888   1.457  14.536  0.2444 -0.4742  0.5032
  405MPD2     N 6054   1.944   1.481  14.079 -0.4209  0.1863 -0.1787
  405MPD2    H5 6055   1.996   1.440  14.003  1.8506  1.7184  0.5340
  405MPD2    N1 6056   2.100   1.106  14.348 -0.0109  0.3968 -0.1525
  405MPD2    H7 6057   2.080   1.060  14.437  2.1581  0.8178  0.5540
  406TMC3    C1 6058   1.592   1.567  13.822  0.0334 -0.0440 -0.1846
  406TMC3    C2 6059   1.607   1.441  13.762  0.0978  0.0120 -0.8660
  406TMC3    C3 6060   1.732   1.387  13.770 -0.7107 -0.0490  0.0226
  406TMC3    C4 6061   1.684   1.623  13.896 -0.2403 -0.2044  0.4110
  406TMC3    C5 6062   1.805   1.571  13.915  0.8683  0.1569 -0.1106
  406TMC3    C6 6063   1.829   1.448  13.845 -0.3588 -0.4326 -0.4329
  406TMC3     C 6064   1.463   1.615  13.857 -0.5902 -0.3410 -0.7302
  406TMC3     O 6065   1.438   1.736  13.849 -0.4427 -0.0008  0.3893
  406TMC3     H 6066   1.528   1.391  13.708  0.1602  0.7803 -1.6677
  406TMC3    H1 6067   1.648   1.718  13.935 -0.6503  0.2378 -1.0351
  406TMC3    H2 6068   1.929   1.406  13.847 -0.7411 -1.3892 -2.2347
  406TMC3    C7 6069   1.860   1.588  14.049  0.0016 -0.1515 -0.3621
  406TMC3    C8 6070   1.765   1.267  13.701 -1.1790  0.6061  1.0364
  406TMC3    O1 6071   1.808   1.673  14.118  0.5133  0.3566  0.1748
  406TMC3    O2 6072   1.716   1.242  13.592 -0.6819  0.0437  0.1307
  407MPD2     C 6073   4.260   3.693   9.584 -0.0391 -0.3348 -0.0270
  407MPD2    C1 6074   4.294   3.563   9.573  0.0155  0.7659 -0.6038
  407MPD2    C2 6075   4.361   3.496   9.670  0.4417 -0.1564 -0.4638
  407MPD2    C3 6076   4.398   3.568   9.783 -0.9908  0.2085 -0.2995
  407MPD2    C4 6077   4.364   3.696   9.796  0.2158  0.2839 -0.5614
  407MPD2    C5 6078   4.297   3.759   9.699 -0.1662 -0.5251 -0.1989
  407MPD2     H 6079   4.400   3.397   9.650 -2.1965 -1.2944 -0.0182
  407MPD2    H1 6080   4.394   3.756   9.881 -1.7319 -1.0054  1.0193
  407MPD2    H2 6081   4.208   3.753   9.511  1.1888 -1.3571 -1.7494
  407MPD2    H3 6082   4.279   3.865   9.716  0.7885 -0.1008 -1.9044
  407MPD2     N 6083   4.466   3.512   9.892  0.3711 -0.0957  0.0991
  407MPD2    H5 6084   4.491   3.582   9.962 -1.3163  0.4212  0.1718
  407MPD2    N1 6085   4.262   3.493   9.459  0.3412 -0.3200  0.0001
  407MPD2    H7 6086   4.316   3.407   9.449 -0.2429 -1.1198  3.7464
  408TMC3    C1 6087   4.162   3.441   9.241 -0.2474  0.6851  0.3848
  408TMC3    C2 6088   4.253   3.347   9.215 -0.5100  0.4884  0.3939
  408TMC3    C3 6089   4.236   3.272   9.103  0.3574  0.8062 -0.2052
  408TMC3    C4 6090   4.055   3.456   9.159 -0.6981  0.6395  0.2943
  408TMC3    C5 6091   4.035   3.371   9.051  0.1107 -0.6007  0.0070
  408TMC3    C6 6092   4.129   3.282   9.021  0.3554  0.5762 -0.4687
  408TMC3     C 6093   4.169   3.530   9.362 -0.7741 -0.0749  0.9385
  408TMC3     O 6094   4.097   3.627   9.360  0.1499 -0.0361 -0.4937
  408TMC3     H 6095   4.336   3.337   9.284 -0.5348  0.1001  0.3702
  408TMC3    H1 6096   3.982   3.533   9.180  0.0168  1.8733 -1.7177
  408TMC3    H2 6097   4.125   3.216   8.935  0.0682 -0.4834  0.3683
  408TMC3    C7 6098   3.925   3.413   8.967  0.2893  0.3310  0.0548
  408TMC3    C8 6099   4.322   3.158   9.081  0.1645 -0.6721  0.5123
  408TMC3    O1 6100   3.857   3.509   8.994  0.2289 -0.6463  0.2709
  408TMC3    O2 6101   4.279   3.052   9.037  0.7941 -0.1339 -0.2661
  409MPD2     C 6102   4.070   2.781  16.285 -0.3754  0.5914 -0.5729
  409MPD2    C1 6103   4.135   2.838  16.389  0.2501  0.3839  0.4588
  409MPD2    C2 6104   4.159   2.968  16.391 -0.1305 -0.2318 -0.4154
  409MPD2    C3 6105   4.133   3.048  16.283 -0.7765  0.0517  0.0640
  409MPD2    C4 6106   4.059   2.998  16.181 -0.2192  0.6444 -0.1129
  409MPD2    C5 6107   4.028   2.862  16.183  0.0248  0.1316 -1.1271
  409MPD2     H 6108   4.191   3.012  16.485  0.7158 -0.6306 -0.5195
  409MPD2    H1 6109   4.021   3.047  16.091 -0.6132  0.8406  0.1594
  409MPD2    H2 6110   4.060   2.673  16.280  2.4576  0.3140 -0.2926
  409MPD2    H3 6111   3.971   2.814  16.103 -1.9641 -1.6699  1.3798
  409MPD2     N 6112   4.191   3.178  16.275 -0.2953  0.3377  0.0152
  409MPD2    H5 6113   4.171   3.238  16.196  1.0525 -1.8852 -2.0289
  409MPD2    N1 6114   4.177   2.771  16.502 -0.0359 -0.2005 -0.0086
  409MPD2    H7 6115   4.224   2.825  16.573  2.0554  0.4136 -1.8402
  410TMC3    C1 6116   4.327   3.358  16.333 -0.5126 -1.6656 -0.5210
  410TMC3    C2 6117   4.400   3.426  16.428  0.9387  0.7018  0.6315
  410TMC3    C3 6118   4.478   3.528  16.385 -0.1214  0.0424 -0.0317
  410TMC3    C4 6119   4.309   3.398  16.208  0.6930 -1.0003 -0.1507
  410TMC3    C5 6120   4.390   3.504  16.174 -0.5506  0.2728 -0.0831
  410TMC3    C6 6121   4.475   3.580  16.256 -0.1490  0.7100 -0.2622
  410TMC3     C 6122   4.281   3.229  16.368 -0.2590 -0.9749 -0.1344
  410TMC3     O 6123   4.338   3.182  16.467  0.2100  0.1666 -0.7190
  410TMC3     H 6124   4.388   3.395  16.531 -0.2300  0.9755  0.5692
  410TMC3    H1 6125   4.253   3.348  16.130 -0.5243 -0.7569  0.5669
  410TMC3    H2 6126   4.553   3.648  16.225 -0.6665  1.2494 -0.3806
  410TMC3    C7 6127   4.391   3.532  16.027  0.1159  0.1668  0.1727
  410TMC3    C8 6128   4.593   3.560  16.464  0.1100 -0.6611 -0.1896
  410TMC3    O1 6129   4.361   3.437  15.956  0.0248  0.7777  0.0384
  410TMC3    O2 6130   4.643   3.671  16.461  0.3840  1.1818 -0.0023
  411MPD2     C 6131   4.324   4.158  14.017  0.3899  0.2411  0.8064
  411MPD2    C1 6132   4.298   4.240  13.906  0.0688  0.2560 -0.0103
  411MPD2    C2 6133   4.240   4.189  13.794  0.0361 -0.4648  0.4184
  411MPD2    C3 6134   4.193   4.060  13.787 -0.3864  0.0798  0.3569
  411MPD2    C4 6135   4.197   3.986  13.909 -0.1627  0.5387  0.0636
  411MPD2    C5 6136   4.275   4.028  14.011 -1.0442 -0.5240  0.0902
  411MPD2     H 6137   4.252   4.255  13.709 -1.2500  0.3834  0.8911
  411MPD2    H1 6138   4.154   3.887  13.908 -0.8030  0.8189 -0.1268
  411MPD2    H2 6139   4.376   4.200  14.103  0.6170  2.5266 -0.4436
  411MPD2    H3 6140   4.291   3.959  14.093  0.1700 -0.2973  0.0345
  411MPD2     N 6141   4.137   4.008  13.670  0.5602 -0.6492 -0.2112
  411MPD2    H5 6142   4.103   3.913  13.681 -2.4171  0.5606  1.0182
  411MPD2    N1 6143   4.347   4.369  13.892  0.1674 -0.0806  0.2169
  411MPD2    H7 6144   4.329   4.412  13.801  1.3564 -0.4099 -0.1730
  412TMC3    C1 6145   4.039   3.979  13.468  0.5193  0.5488  0.0620
  412TMC3    C2 6146   3.996   3.853  13.513 -0.4458 -0.1032  0.3239
  412TMC3    C3 6147   3.921   3.775  13.431 -0.0579 -0.2545  0.0183
  412TMC3    C4 6148   4.030   4.021  13.336 -0.0410  0.7260 -1.0142
  412TMC3    C5 6149   3.955   3.937  13.259 -0.0804 -0.1836  0.3576
  412TMC3    C6 6150   3.904   3.818  13.305  0.0009 -0.7454  0.3628
  412TMC3     C 6151   4.126   4.064  13.546  0.0437  0.1706  0.1034
  412TMC3     O 6152   4.168   4.172  13.509 -0.2497  0.7495 -0.4153
  412TMC3     H 6153   3.995   3.819  13.617  0.2766  1.5834  0.8866
  412TMC3    H1 6154   4.082   4.109  13.299 -0.3794  1.4284  0.1731
  412TMC3    H2 6155   3.848   3.757  13.235  1.1053  0.4331 -1.5738
  412TMC3    C7 6156   3.850   4.009  13.185  0.8349 -0.3075 -0.3595
  412TMC3    C8 6157   3.797   3.723  13.490 -0.0011  0.0761  0.4304
  412TMC3    O1 6158   3.738   3.960  13.202  0.6269 -0.2331 -0.5062
  412TMC3    O2 6159   3.803   3.631  13.572  0.0007  0.4906 -0.1503
  413MPD2     C 6160   1.588   2.478  15.217  0.0491 -0.0699 -0.1209
  413MPD2    C1 6161   1.516   2.445  15.098  0.2880 -0.4122  0.4023
  413MPD2    C2 6162   1.547   2.326  15.037 -0.2545 -0.9807  0.1921
  413MPD2    C3 6163   1.651   2.244  15.084  0.3615 -0.0472  0.2078
  413MPD2    C4 6164   1.714   2.275  15.199 -0.1392  0.2911 -0.1020
  413MPD2    C5 6165   1.681   2.389  15.269 -0.3954  0.2332 -0.2142
  413MPD2     H 6166   1.493   2.297  14.947 -1.1078  0.7459  0.1358
  413MPD2    H1 6167   1.800   2.221  15.236  0.4107 -0.0686 -1.9316
  413MPD2    H2 6168   1.551   2.561  15.276 -1.7461 -1.0069  0.0910
  413MPD2    H3 6169   1.720   2.404  15.369 -3.0411 -1.9066  1.1222
  413MPD2     N 6170   1.677   2.122  15.010  0.3352  0.0313 -0.4215
  413MPD2    H5 6171   1.618   2.102  14.929  1.7160 -1.0455 -1.1554
  413MPD2    N1 6172   1.408   2.535  15.049 -0.1307  0.1842 -0.1916
  413MPD2    H7 6173   1.372   2.600  15.119 -1.8741 -0.0259 -0.9002
  414TMC3    C1 6174   1.795   1.936  14.940  0.6513 -0.0962 -0.1617
  414TMC3    C2 6175   1.852   1.813  14.964  0.3667 -0.2277  0.5267
  414TMC3    C3 6176   1.873   1.723  14.862 -0.3489  0.3352  0.7499
  414TMC3    C4 6177   1.769   1.972  14.813  0.1081  0.6705 -0.6123
  414TMC3    C5 6178   1.822   1.895  14.714 -0.3991 -0.8264 -0.2642
  414TMC3    C6 6179   1.871   1.769  14.730  0.1463  0.7181 -0.0350
  414TMC3     C 6180   1.767   2.028  15.050 -0.1265 -0.0679 -0.1141
  414TMC3     O 6181   1.819   1.999  15.158  0.1729 -0.4443  0.1569
  414TMC3     H 6182   1.881   1.785  15.065  0.4983 -1.3489  0.1824
  414TMC3    H1 6183   1.741   2.072  14.782  0.4191  0.9311 -0.0492
  414TMC3    H2 6184   1.903   1.703  14.650  1.5223  1.5585 -0.1733
  414TMC3    C7 6185   1.821   1.954  14.581  0.4500 -0.1981 -0.0643
  414TMC3    C8 6186   1.924   1.588  14.886 -0.1550 -0.1712  0.3329
  414TMC3    O1 6187   1.716   2.016  14.562 -0.0207  0.3717  0.1173
  414TMC3    O2 6188   1.861   1.514  14.957  0.0808  0.8589 -0.3601
  415TMC3    C1 6189   2.938   0.221   9.004 -0.2858 -0.0469 -0.6120
  415TMC3    C2 6190   3.034   0.312   8.967  0.2187 -0.0106  0.1593
  415TMC3    C3 6191   3.138   0.274   8.885 -0.1565 -0.3254 -0.0420
  415TMC3    C4 6192   2.941   0.094   8.954 -0.2289 -0.6796 -0.7983
  415TMC3    C5 6193   3.027   0.059   8.850  0.9094  0.1848  0.4021
  415TMC3    C6 6194   3.128   0.150   8.827 -0.1038  0.2671  0.9980
  415TMC3     C 6195   2.843   0.248   9.104 -0.4117 -0.8061  0.1499
  415TMC3     O 6196   2.757   0.160   9.112  0.4759  0.4049 -0.1253
  415TMC3     H 6197   3.015   0.417   8.989 -0.1751  0.4765 -2.4402
  415TMC3    H1 6198   2.874   0.020   8.995  0.0862  0.0431  1.0298
  415TMC3    H2 6199   3.207   0.115   8.762 -0.0564  1.6747  0.2974
  415TMC3    C7 6200   3.062   4.642   8.830 -0.0763 -0.1705 -0.9457
  415TMC3    C8 6201   3.213   0.375   8.807  0.1970 -0.6493 -0.2810
  415TMC3    O1 6202   3.173   4.602   8.844 -0.1883 -0.1451 -0.0900
  415TMC3    O2 6203   3.247   0.336   8.698  0.4820  0.1246 -0.2892
  416MPD2     C 6204   3.753   4.021  11.600  0.2744  0.8787 -0.1630
  416MPD2    C1 6205   3.705   4.057  11.477 -0.6539 -0.3448  0.1117
  416MPD2    C2 6206   3.699   3.960  11.377  0.0610 -0.3283 -0.3524
  416MPD2    C3 6207   3.743   3.834  11.399  0.0394  0.1732  0.0132
  416MPD2    C4 6208   3.788   3.798  11.525  0.2002 -0.0990 -0.1948
  416MPD2    C5 6209   3.791   3.894  11.625 -0.2979 -0.2233 -0.6164
  416MPD2     H 6210   3.659   3.985  11.279  1.1995  3.4531  0.1401
  416MPD2    H1 6211   3.811   3.695  11.548 -2.8528 -1.1074 -1.6538
  416MPD2    H2 6212   3.761   4.096  11.678  2.2661 -2.4895  2.8364
  416MPD2    H3 6213   3.830   3.869  11.723 -1.7325 -1.8745 -0.4729
  416MPD2     N 6214   3.723   3.738  11.294 -0.2134 -0.5793 -0.5376
  416MPD2    H5 6215   3.734   3.640  11.317  2.7991  0.2315  1.4715
  416MPD2    N1 6216   3.664   4.189  11.455  0.4818  0.3755  0.0474
  416MPD2    H7 6217   3.676   4.253  11.533  2.1423 -0.3637  0.3865
  417TMC3    C1 6218   3.570   4.380  11.353 -0.8232  0.1136 -0.1593
  417TMC3    C2 6219   3.558   4.442  11.477 -0.3359 -0.1675 -0.0525
  417TMC3    C3 6220   3.469   4.544  11.485  0.1920  0.4243 -0.2246
  417TMC3    C4 6221   3.499   4.420  11.241  0.1701 -0.0707  0.0812
  417TMC3    C5 6222   3.418   4.525  11.253 -0.2938  0.0196  0.8080
  417TMC3    C6 6223   3.396   4.584  11.373  0.1714 -0.6918 -0.2138
  417TMC3     C 6224   3.634   4.251  11.333  0.1971 -0.1365 -0.3262
  417TMC3     O 6225   3.636   4.196  11.222 -0.1141  0.0440  0.3317
  417TMC3     H 6226   3.626   4.416  11.557 -1.7945  0.0062  1.2339
  417TMC3    H1 6227   3.525   4.374  11.147  0.3182 -0.1534  0.1621
  417TMC3    H2 6228   3.354   4.683  11.382  4.0264  1.1393 -2.3097
  417TMC3    C7 6229   3.343   4.571  11.128 -0.1562 -0.7910 -0.6916
  417TMC3    C8 6230   3.491   4.636  11.594  0.7037  0.3212 -0.7871
  417TMC3    O1 6231   3.325   4.691  11.129  0.1462 -0.0923 -0.5738
  417TMC3    O2 6232   3.608   4.645  11.633 -0.2568 -0.4473  0.2502
  418TMC3    C1 6233   2.620   0.957   0.134 -0.2727 -0.6311 -0.5851
  418TMC3    C2 6234   2.610   0.883   0.020 -0.0690 -0.0773  0.2835
  418TMC3    C3 6235   2.535   0.767   0.019 -0.1794 -0.0805  0.7550
  418TMC3    C4 6236   2.520   0.942   0.232 -0.6180  0.5474  1.1200
  418TMC3    C5 6237   2.416   0.844   0.206  0.4491  0.6358 -0.6510
  418TMC3    C6 6238   2.431   0.753   0.109 -0.0089 -0.0608  0.6926
  418TMC3     C 6239   2.751   1.002   0.181  0.2818 -0.5769  0.3783
  418TMC3     O 6240   2.830   1.051   0.105 -0.2152 -0.1102  0.0544
  418TMC3     H 6241   2.683   0.900  17.637  0.7670  2.7828  1.7051
  418TMC3    H1 6242   2.518   1.001   0.322 -0.9121 -0.6563  1.9105
  418TMC3    H2 6243   2.357   0.675   0.094  1.5284 -1.5865  1.0013
  418TMC3    C7 6244   2.347   0.796   0.316  0.1212  1.0354 -0.1513
  418TMC3    C8 6245   2.525   0.676  17.607  1.1458  0.0768 -0.0600
  418TMC3    O1 6246   2.312   0.681   0.318 -0.4128 -0.0095 -0.1216
  418TMC3    O2 6247   2.530   0.719  17.493 -0.0335  0.4672  0.3290
  419MPD2     C 6248   0.816   3.957  11.801  0.0857  0.4227 -0.3813
  419MPD2    C1 6249   0.707   4.043  11.809  0.5175 -0.4366  0.6614
  419MPD2    C2 6250   0.674   4.092  11.934  0.6535  0.4533 -1.1660
  419MPD2    C3 6251   0.745   4.069  12.048  0.8003  0.5286 -0.1717
  419MPD2    C4 6252   0.853   3.979  12.035 -0.1355 -0.2951  0.2682
  419MPD2    C5 6253   0.877   3.924  11.915 -0.2927  0.3353 -0.4694
  419MPD2     H 6254   0.587   4.156  11.948  0.1946 -0.0717 -1.5862
  419MPD2    H1 6255   0.925   3.948  12.110 -1.3734  0.3409  1.7193
  419MPD2    H2 6256   0.841   3.901  11.712  0.2331  0.2700 -0.2431
  419MPD2    H3 6257   0.962   3.857  11.921  0.8508  1.7514 -0.9287
  419MPD2     N 6258   0.723   4.135  12.171  0.4835 -0.0357  0.1873
  419MPD2    H5 6259   0.642   4.195  12.177  0.6392  0.2100 -0.1764
  419MPD2    N1 6260   0.624   4.069  11.699  0.3566 -0.5481  0.5288
  419MPD2    H7 6261   0.539   4.122  11.715  0.4688 -0.7186  1.6697
  420TMC3    C1 6262   0.725   4.191  12.409  0.2198  0.5859  0.3231
  420TMC3    C2 6263   0.617   4.271  12.388 -0.2830 -0.4446 -0.2242
  420TMC3    C3 6264   0.574   4.345  12.502  0.1205  0.6850 -0.3950
  420TMC3    C4 6265   0.784   4.176  12.533 -0.3432 -0.3425 -1.1944
  420TMC3    C5 6266   0.738   4.241  12.643  0.0354  0.3557 -0.1903
  420TMC3    C6 6267   0.633   4.327  12.627 -0.7007 -0.7576 -0.8345
  420TMC3     C 6268   0.778   4.106  12.295  0.0724 -0.0395 -0.2198
  420TMC3     O 6269   0.848   4.009  12.329 -0.3197 -0.5068 -0.5135
  420TMC3     H 6270   0.568   4.294  12.294  0.5759  0.5134 -0.4297
  420TMC3    H1 6271   0.856   4.096  12.546 -1.9227 -1.3796  1.0266
  420TMC3    H2 6272   0.583   4.368  12.714  1.3122  0.3737 -0.2115
  420TMC3    C7 6273   0.770   4.201  12.785 -0.2497  0.2528  0.2652
  420TMC3    C8 6274   0.446   4.407  12.499  0.1732  0.5517 -0.1815
  420TMC3    O1 6275   0.710   4.268  12.871 -0.3034  0.2096 -0.0376
  420TMC3    O2 6276   0.424   4.504  12.425  0.2848 -0.7762 -0.2718
  421TMC3    C1 6277   2.122   1.254  13.534  0.1339 -0.6615  0.5828
  421TMC3    C2 6278   2.146   1.319  13.656  0.3247  0.0435 -0.7776
  421TMC3    C3 6279   2.243   1.271  13.738 -0.5379 -0.4829 -0.1405
  421TMC3    C4 6280   2.203   1.143  13.499 -0.1533 -0.2845  0.2409
  421TMC3    C5 6281   2.303   1.102  13.585 -0.6484 -0.1592  0.6440
  421TMC3    C6 6282   2.330   1.170  13.699 -0.4523  0.2334 -0.4380
  421TMC3     C 6283   2.041   1.324  13.431 -0.9977 -0.8733  0.1595
  421TMC3     O 6284   2.039   1.445  13.448  0.3592 -0.2492  0.8487
  421TMC3     H 6285   2.095   1.408  13.693  1.0605 -0.0416  0.4448
  421TMC3    H1 6286   2.191   1.102  13.399 -2.3007 -0.8917  0.7515
  421TMC3    H2 6287   2.411   1.137  13.763  0.2789  1.6226 -0.6465
  421TMC3    C7 6288   2.404   1.017  13.536 -0.1971 -0.1062 -0.3171
  421TMC3    C8 6289   2.248   1.328  13.871 -0.1652 -0.3797  0.0502
  421TMC3    O1 6290   2.514   1.026  13.591 -0.2230  0.2317 -0.2215
  421TMC3    O2 6291   2.146   1.374  13.920 -0.6877 -0.2239 -0.2077
  422TMC3    C1 6292   4.563   2.260  12.513 -0.0133  1.2435  0.4844
  422TMC3    C2 6293   4.568   2.342  12.626  0.3226 -0.2889 -0.4028
  422TMC3    C3 6294   4.453   2.326  12.706  0.4738 -0.4935  0.3724
  422TMC3    C4 6295   4.466   2.173  12.480  0.1716  0.0490  0.2553
  422TMC3    C5 6296   4.354   2.182  12.551 -0.4771  0.4900 -0.0921
  422TMC3    C6 6297   4.344   2.257  12.662  0.3197 -0.2420  0.4584
  422TMC3     C 6298   4.689   2.253  12.440  0.1288  1.0602 -0.4043
  422TMC3     O 6299   0.027   2.359  12.431 -0.2491  0.2885 -0.5106
  422TMC3     H 6300   4.661   2.391  12.651  0.2545 -0.9659  1.1577
  422TMC3    H1 6301   4.475   2.101  12.400 -0.4039 -1.7461  1.7990
  422TMC3    H2 6302   4.256   2.253  12.725 -0.7598  0.8736 -0.9934
  422TMC3    C7 6303   4.234   2.145  12.487 -0.1452  0.0689 -0.5007
  422TMC3    C8 6304   4.434   2.395  12.833  0.1477  0.0605  0.1185
  422TMC3    O1 6305   4.253   2.104  12.376 -0.6414 -0.1724 -0.2369
  422TMC3    O2 6306   4.333   2.388  12.899 -0.0684 -0.3548  0.0397
  423MPD2     C 6307   1.026   3.099   0.089 -0.4438  0.4191 -0.5836
  423MPD2    C1 6308   1.085   2.994   0.166 -0.5347  0.0447  0.6718
  423MPD2    C2 6309   1.103   2.866   0.112  0.1974  0.2137 -0.2621
  423MPD2    C3 6310   1.056   2.846  17.678  0.2240 -0.6801 -0.6009
  423MPD2    C4 6311   1.009   2.952  17.596  0.2840 -0.5465  0.3468
  423MPD2    C5 6312   0.992   3.076  17.652  0.1775 -0.2052 -0.4179
  423MPD2     H 6313   1.128   2.780   0.173  0.7892 -0.2287 -1.1430
  423MPD2    H1 6314   0.986   2.944  17.490 -1.3670 -0.7905  0.7258
  423MPD2    H2 6315   0.996   3.197   0.124  2.7282  1.7658 -1.6179
  423MPD2    H3 6316   0.949   3.156  17.593 -0.4342 -0.7234 -0.6841
  423MPD2     N 6317   1.087   2.726  17.611 -1.0527 -0.0741  0.2425
  423MPD2    H5 6318   1.103   2.730  17.510 -1.7038 -1.4920  0.0804
  423MPD2    N1 6319   1.111   3.007   0.301 -0.8298  0.8505 -0.4389
  423MPD2    H7 6320   1.137   2.924   0.352  0.0148  0.7333 -1.0660
  424TMC3    C1 6321   1.163   3.103   0.513 -0.6934 -0.2742 -0.3104
  424TMC3    C2 6322   1.251   3.005   0.527  0.2762 -0.6466 -0.1664
  424TMC3    C3 6323   1.273   2.968   0.656 -0.0827  0.7942 -0.6599
  424TMC3    C4 6324   1.096   3.174   0.607  0.1500 -0.1331  0.6426
  424TMC3    C5 6325   1.116   3.119   0.728  0.7018  0.1907 -0.3887
  424TMC3    C6 6326   1.202   3.027   0.760 -0.3660 -0.5198  0.0801
  424TMC3     C 6327   1.109   3.123   0.380  0.1953  0.2913  0.3056
  424TMC3     O 6328   1.069   3.235   0.361  0.1872  0.1442 -0.3486
  424TMC3     H 6329   1.299   2.955   0.444 -0.7144 -1.2139 -0.3995
  424TMC3    H1 6330   1.025   3.251   0.581 -0.6387 -0.2407  2.4394
  424TMC3    H2 6331   1.223   3.001   0.863 -2.0908 -2.1994  0.0135
  424TMC3    C7 6332   1.019   3.171   0.822 -0.1747  0.3230  0.0315
  424TMC3    C8 6333   1.337   2.845   0.687  0.5699 -0.0433 -0.3681
  424TMC3    O1 6334   0.986   3.290   0.808  0.2006  0.1874 -0.2932
  424TMC3    O2 6335   1.307   2.789   0.788  0.3869 -0.3874  0.4302
  425MPD2     C 6336   0.670   2.202  17.104  0.4616 -0.0278 -0.9067
  425MPD2    C1 6337   0.591   2.102  17.149 -0.2032 -0.0763  0.5311
  425MPD2    C2 6338   0.473   2.141  17.207  0.1687 -0.2566  0.2037
  425MPD2    C3 6339   0.436   2.270  17.223 -0.0097  0.2872 -0.3929
  425MPD2    C4 6340   0.525   2.371  17.189 -0.1701  0.0263 -0.0626
  425MPD2    C5 6341   0.642   2.327  17.133 -0.2553  0.0744 -0.1323
  425MPD2     H 6342   0.400   2.065  17.233  0.5451  0.3222  2.9723
  425MPD2    H1 6343   0.505   2.477  17.200  0.3175  0.2352 -1.1449
  425MPD2    H2 6344   0.764   2.176  17.057 -0.6264  0.3673 -3.3268
  425MPD2    H3 6345   0.704   2.409  17.100 -0.7505 -0.0934 -1.4848
  425MPD2     N 6346   0.309   2.293  17.273  0.2830  0.2784 -0.1861
  425MPD2    H5 6347   0.247   2.216  17.293  0.2933  1.2422  3.5296
  425MPD2    N1 6348   0.607   1.971  17.098 -0.1252 -0.0535  0.4567
  425MPD2    H7 6349   0.683   1.957  17.032 -0.5753  0.6390 -0.2164
  426TMC3    C1 6350   0.527   1.761  17.019  0.2603  0.3368  0.1365
  426TMC3    C2 6351   0.573   1.800  16.897  0.1909  0.6402 -0.2007
  426TMC3    C3 6352   0.583   1.699  16.809 -2.0603 -0.0037  0.0481
  426TMC3    C4 6353   0.487   1.634  17.059 -0.3571 -0.0492 -0.0227
  426TMC3    C5 6354   0.504   1.539  16.964 -0.0236 -0.0762 -0.4747
  426TMC3    C6 6355   0.540   1.573  16.834 -0.2263  0.7903 -0.1178
  426TMC3     C 6356   0.524   1.862  17.126  0.4402  0.6590  0.2916
  426TMC3     O 6357   0.440   1.852  17.216 -0.3298 -0.9662 -0.6822
  426TMC3     H 6358   0.603   1.898  16.863 -1.1714  1.3206  0.5799
  426TMC3    H1 6359   0.461   1.610  17.162  2.9149 -1.0948  0.5487
  426TMC3    H2 6360   0.546   1.500  16.754 -0.1819 -0.9893  1.5073
  426TMC3    C7 6361   0.479   1.400  16.989  0.1901 -0.0855  0.1118
  426TMC3    C8 6362   0.587   1.732  16.669 -0.0155  0.5766 -0.6003
  426TMC3    O1 6363   0.539   1.330  16.914 -0.3315 -0.4477  0.7360
  426TMC3    O2 6364   0.622   1.643  16.594  0.8985  0.0779 -0.1783
  427MPD2     C 6365   3.393   4.303  14.277 -0.0570 -0.5351 -0.3381
  427MPD2    C1 6366   3.375   4.264  14.409  0.0588  0.3108 -0.3976
  427MPD2    C2 6367   3.257   4.290  14.472 -0.7356 -0.5824  0.2816
  427MPD2    C3 6368   3.157   4.346  14.399 -0.2233  0.4216  0.3076
  427MPD2    C4 6369   3.173   4.382  14.265 -0.0953 -0.5075 -0.0527
  427MPD2    C5 6370   3.296   4.374  14.210 -0.6223  0.7036 -0.5498
  427MPD2     H 6371   3.254   4.258  14.575  2.0518 -2.3598 -0.1912
  427MPD2    H1 6372   3.094   4.416  14.200  0.1763 -0.2052 -0.2284
  427MPD2    H2 6373   3.487   4.301  14.222  1.0127 -2.4000  1.5828
  427MPD2    H3 6374   3.310   4.407  14.108  0.1648 -2.5042 -1.4762
  427MPD2     N 6375   3.026   4.348  14.450  0.0301  0.5792 -0.1476
  427MPD2    H5 6376   2.949   4.367  14.387  1.6081  1.5246 -1.8053
  427MPD2    N1 6377   3.481   4.201  14.484 -0.2896  0.7876 -0.0447
  427MPD2    H7 6378   3.460   4.150  14.569 -0.3066  0.5138 -0.2136
  428TMC3    C1 6379   3.699   4.112  14.534  0.2646 -0.0815 -0.3660
  428TMC3    C2 6380   3.640   4.017  14.607  0.4771  0.2774  0.4837
  428TMC3    C3 6381   3.715   3.972  14.710 -0.1921 -0.2308 -1.0029
  428TMC3    C4 6382   3.827   4.153  14.547  0.2539 -0.3665 -0.2220
  428TMC3    C5 6383   3.903   4.095  14.647 -0.0904  0.3923  0.5322
  428TMC3    C6 6384   3.840   4.016  14.736  0.6776 -0.8352 -0.9291
  428TMC3     C 6385   3.613   4.200  14.448 -0.1767  0.4092 -0.2758
  428TMC3     O 6386   3.663   4.270  14.357  0.0394 -0.4503  0.2131
  428TMC3     H 6387   3.565   3.954  14.560 -1.1523  1.6989  1.1794
  428TMC3    H1 6388   3.858   4.244  14.498  0.9516 -0.7190 -0.4415
  428TMC3    H2 6389   3.890   3.986  14.827  2.1907  0.1871 -1.4326
  428TMC3    C7 6390   4.031   4.153  14.670  0.2263 -0.1279 -0.5809
  428TMC3    C8 6391   3.675   3.850  14.781 -0.4578 -0.2446 -0.3558
  428TMC3    O1 6392   4.078   4.124  14.779 -0.1823 -0.0362 -0.1569
  428TMC3    O2 6393   3.758   3.790  14.848 -0.0529 -0.4481 -0.3047
  429MPD2     C 6394   4.084   3.981  16.901  0.5066  0.3719  0.2098
  429MPD2    C1 6395   4.201   3.967  16.978 -0.2098  0.2377  0.1052
  429MPD2    C2 6396   4.305   4.059  16.956  0.2102 -0.0363  0.5311
  429MPD2    C3 6397   4.294   4.159  16.865  0.1951 -0.3808  0.0007
  429MPD2    C4 6398   4.183   4.162  16.786  0.2775  0.4402  0.2485
  429MPD2    C5 6399   4.079   4.083  16.810  0.2806  0.7018  0.6114
  429MPD2     H 6400   4.394   4.057  17.018  1.3078 -0.5603 -1.0602
  429MPD2    H1 6401   4.180   4.232  16.703 -0.1466 -2.1148 -1.9141
  429MPD2    H2 6402   4.003   3.910  16.900  0.4780  0.4213 -0.5363
  429MPD2    H3 6403   3.993   4.096  16.746  1.3384  0.9934 -0.7388
  429MPD2     N 6404   4.403   4.247  16.854  0.4957  0.1990  0.4734
  429MPD2    H5 6405   4.478   4.233  16.921  0.4512  0.1490  0.5138
  429MPD2    N1 6406   4.235   3.870  17.071 -0.0156  0.3067  0.1086
  429MPD2    H7 6407   4.326   3.864  17.116 -0.6793 -1.5251  1.2272
  430TMC3    C1 6408   4.538   4.394  16.744  0.0975  0.1971  0.7653
  430TMC3    C2 6409   4.553   4.517  16.687 -0.1163  0.4105  0.4852
  430TMC3    C3 6410   4.682   4.550  16.652 -0.3657 -0.0181 -0.2679
  430TMC3    C4 6411   4.637   4.300  16.750 -0.5520  0.4064  0.2577
  430TMC3    C5 6412   0.037   4.344  16.724  0.1775 -0.2827  0.4412
  430TMC3    C6 6413   0.059   4.466  16.671  0.4258 -0.2448  0.2158
  430TMC3     C 6414   4.409   4.346  16.767 -0.7114  0.4537  0.2100
  430TMC3     O 6415   4.313   4.403  16.714 -0.2030 -0.1142  0.1465
  430TMC3     H 6416   4.464   4.578  16.677  0.7955  1.3937 -1.4312
  430TMC3    H1 6417   4.634   4.208  16.808 -3.3071 -0.6704 -1.6165
  430TMC3    H2 6418   0.154   4.499  16.631 -0.9510  3.0251 -0.3347
  430TMC3    C7 6419   0.139   4.237  16.697 -0.3768 -0.2715 -0.0983
  430TMC3    C8 6420   4.691   4.631  16.532 -0.5250 -0.3445  0.4820
  430TMC3    O1 6421   0.093   4.123  16.686  0.2137  0.0032 -0.5006
  430TMC3    O2 6422   0.051   4.722  16.525  0.3060  0.1647 -0.3966
  431MPD2     C 6423   0.621   4.664  12.104  1.2567 -0.7298  0.5649
  431MPD2    C1 6424   0.673   0.002  11.989  0.3861  0.4052 -0.5036
  431MPD2    C2 6425   0.661   4.662  11.867 -0.1915  0.3148 -0.2641
  431MPD2    C3 6426   0.615   4.536  11.858 -0.0464 -0.0666 -0.0819
  431MPD2    C4 6427   0.555   4.474  11.967  0.0040  0.1850 -0.2076
  431MPD2    C5 6428   0.562   4.539  12.083  0.7451  0.6679  0.3763
  431MPD2     H 6429   0.703   4.709  11.779 -0.3260 -1.4384 -1.2649
  431MPD2    H1 6430   0.504   4.379  11.959  0.1343  0.0762  0.2635
  431MPD2    H2 6431   0.605   4.700  12.205  1.4136  1.2746 -0.1388
  431MPD2    H3 6432   0.518   4.491  12.169  0.9139 -1.7535 -0.9149
  431MPD2     N 6433   0.611   4.468  11.740  0.2236 -0.2282  0.0342
  431MPD2    H5 6434   0.581   4.371  11.751 -2.0368  0.6243  1.5669
  431MPD2    N1 6435   0.724   0.130  11.988 -0.2364 -0.1997  0.1410
  431MPD2    H7 6436   0.764   0.167  11.903 -2.4118  1.4648 -0.1665
  432TMC3    C1 6437   0.628   4.393  11.514  0.2828  0.8436  0.1110
  432TMC3    C2 6438   0.704   4.408  11.400  0.1940 -0.1622 -0.5036
  432TMC3    C3 6439   0.717   4.292  11.332 -0.8662 -0.3058  0.1829
  432TMC3    C4 6440   0.574   4.276  11.563  0.2073 -0.6534  0.1775
  432TMC3    C5 6441   0.596   4.160  11.493 -0.3591 -0.6944 -0.5706
  432TMC3    C6 6442   0.669   4.176  11.372 -0.0680  0.0100 -0.2206
  432TMC3     C 6443   0.637   4.508  11.613 -0.0025 -0.3519  0.3276
  432TMC3     O 6444   0.690   4.612  11.579  0.7438  0.2553  0.2801
  432TMC3     H 6445   0.729   4.509  11.369 -1.5747  0.2049 -0.7800
  432TMC3    H1 6446   0.496   4.273  11.638  0.2316 -1.7509  0.1606
  432TMC3    H2 6447   0.693   4.093  11.306 -1.4908  0.7678 -1.6916
  432TMC3    C7 6448   0.672   4.068  11.570  0.3578 -0.1826 -0.3548
  432TMC3    C8 6449   0.774   4.304  11.204  0.2251  0.5274 -0.0854
  432TMC3    O1 6450   0.787   4.039  11.528 -0.3649 -0.0264 -0.0425
  432TMC3    O2 6451   0.747   4.210  11.129 -0.1109  0.1612 -0.2060
  433MPD2     C 6452   0.118   3.505  10.974 -0.4645  0.3436 -0.0923
  433MPD2    C1 6453   4.721   3.444  11.017  0.6471  0.5271  0.4939
  433MPD2    C2 6454   4.681   3.462  11.148  0.1538  0.4658 -0.7589
  433MPD2    C3 6455   0.045   3.529  11.232  0.0398 -0.5875 -0.3059
  433MPD2    C4 6456   0.157   3.602  11.185  0.2367 -0.3968  0.2582
  433MPD2    C5 6457   0.189   3.588  11.055  0.2836  0.6843 -0.4047
  433MPD2     H 6458   4.589   3.420  11.188  0.0506  1.5895  0.1611
  433MPD2    H1 6459   0.222   3.660  11.250  0.5816  0.6310 -1.0066
  433MPD2    H2 6460   0.157   3.510  10.872 -0.7715 -2.1429 -0.3253
  433MPD2    H3 6461   0.282   3.630  11.020  1.6074 -1.5097  0.4407
  433MPD2     N 6462   0.013   3.533  11.371  0.0345 -0.1530  0.2462
  433MPD2    H5 6463   4.649   3.486  11.393 -0.8178  2.1430  1.7779
  433MPD2    N1 6464   4.637   3.373  10.920 -0.4160  0.0820 -0.5006
  433MPD2    H7 6465   4.658   3.369  10.821 -1.8325  0.9766 -0.8341
  434TMC3    C1 6466   4.464   3.243  10.828  0.9941  0.3232 -0.4702
  434TMC3    C2 6467   4.431   3.111  10.856 -0.0773 -0.0186 -0.9134
  434TMC3    C3 6468   4.481   3.011  10.779 -0.0810 -0.2796  0.2068
  434TMC3    C4 6469   4.547   3.275  10.722 -1.1766 -0.0813  0.0975
  434TMC3    C5 6470   4.594   3.164  10.648  0.6923  0.0363  0.1732
  434TMC3    C6 6471   4.564   3.039  10.672 -0.5998 -0.0447  0.4701
  434TMC3     C 6472   4.513   3.319  10.943 -0.1616 -0.3872 -0.1994
  434TMC3     O 6473   4.465   3.283  11.050 -0.5522  0.5614 -0.0848
  434TMC3     H 6474   4.378   3.078  10.944 -0.8552 -2.9455 -2.4808
  434TMC3    H1 6475   4.567   3.374  10.683  0.1514 -0.7247 -0.8685
  434TMC3    H2 6476   4.606   2.959  10.611 -0.0153  0.9724 -0.4563
  434TMC3    C7 6477   4.643   3.187  10.510  0.5140  0.6643  0.5547
  434TMC3    C8 6478   4.524   2.898  10.858  0.9322 -0.2609 -0.5803
  434TMC3    O1 6479   4.617   3.291  10.452 -0.2135 -0.2364 -0.5819
  434TMC3    O2 6480   4.456   2.843  10.942  0.2754  0.1688 -0.1973
  435MPD2     C 6481   2.005   3.062  15.310  0.7929  1.0160  0.0203
  435MPD2    C1 6482   1.955   3.060  15.438 -0.0461 -0.1949  0.1797
  435MPD2    C2 6483   2.033   3.004  15.538  0.1432 -1.1181  0.1105
  435MPD2    C3 6484   2.146   2.934  15.512 -0.3636 -0.8705  0.1548
  435MPD2    C4 6485   2.185   2.921  15.385  0.1201  0.6119 -0.0830
  435MPD2    C5 6486   2.117   2.986  15.285 -0.7120  0.0387 -0.0688
  435MPD2     H 6487   1.994   3.004  15.639 -0.8687 -0.9938 -0.2816
  435MPD2    H1 6488   2.283   2.881  15.360 -0.4525 -0.5776 -0.4491
  435MPD2    H2 6489   1.954   3.108  15.227 -0.8216 -1.1510 -0.2123
  435MPD2    H3 6490   2.157   2.989  15.184  1.8389 -0.0681  0.9340
  435MPD2     N 6491   2.210   2.878  15.625  0.7500 -0.0425  1.0833
  435MPD2    H5 6492   2.178   2.916  15.713 -0.3124  2.2003 -0.2700
  435MPD2    N1 6493   1.836   3.130  15.475  0.5523 -0.2322 -0.0285
  435MPD2    H7 6494   1.827   3.151  15.574  2.9540  0.6639  0.0060
  436TMC3    C1 6495   1.572   3.347  15.700  0.1788 -0.1970  0.1897
  436TMC3    C2 6496   1.672   3.283  15.629 -0.4511 -0.4442 -0.0947
  436TMC3    C3 6497   1.663   3.275  15.488  0.6635  0.3590 -0.0328
  436TMC3    C4 6498   1.482   3.423  15.633 -0.4722  0.0649  1.1011
  436TMC3    C5 6499   1.486   3.421  15.498 -0.0626 -0.0052 -0.5155
  436TMC3    C6 6500   1.575   3.347  15.424 -0.8577  0.0337 -0.1793
  436TMC3     C 6501   1.579   3.351  15.842  0.1730  0.3659 -0.0391
  436TMC3     O 6502   1.674   3.303  15.905 -0.3553  0.0293 -0.1510
  436TMC3     H 6503   1.745   3.234  15.692 -0.6441 -3.0107 -1.8647
  436TMC3    H1 6504   1.399   3.472  15.684 -0.6176  1.4961 -0.5111
  436TMC3    H2 6505   1.580   3.352  15.316 -2.8070  2.2361 -0.1597
  436TMC3    C7 6506   1.376   3.490  15.423  0.4365  0.6634 -0.2650
  436TMC3    C8 6507   1.750   3.200  15.400 -0.3833  0.5335  0.2544
  436TMC3    O1 6508   1.330   3.591  15.483  0.4350 -0.5780 -0.3685
  436TMC3    O2 6509   1.728   3.191  15.284  0.2542 -0.3231  0.3529
  437TMC3    C1 6510   0.343   0.222  12.127  0.4901  0.0501 -0.2329
  437TMC3    C2 6511   0.285   0.237  12.247  0.5198  0.1240  0.1315
  437TMC3    C3 6512   0.286   0.358  12.308 -0.0970  0.3898 -0.1099
  437TMC3    C4 6513   0.421   0.326  12.068 -0.3386 -1.2276 -0.5177
  437TMC3    C5 6514   0.423   0.444  12.135 -0.2034 -0.0252 -0.2258
  437TMC3    C6 6515   0.349   0.464  12.247  0.1097  0.2915  0.3638
  437TMC3     C 6516   0.317   0.105  12.041  1.2004 -0.3306 -0.0904
  437TMC3     O 6517   0.362   0.110  11.926 -0.5534 -0.8644 -0.9098
  437TMC3     H 6518   0.252   0.150  12.303 -4.8411  1.7202 -0.5444
  437TMC3    H1 6519   0.480   0.300  11.981  0.3348  0.8970 -0.7095
  437TMC3    H2 6520   0.337   0.565  12.285  1.9754  0.9248 -0.7542
  437TMC3    C7 6521   0.497   0.547  12.075  0.1213  0.0439  0.4056
  437TMC3    C8 6522   0.217   0.386  12.427 -0.1834 -0.6333 -0.6980
  437TMC3    O1 6523   0.486   0.546  11.951  0.0029 -0.0237  0.0127
  437TMC3    O2 6524   0.172   0.499  12.448  0.4134 -0.3991  0.1970
  438MPD2     C 6525   3.159   1.242  16.537 -0.0776  0.6474  0.9391
  438MPD2    C1 6526   3.138   1.115  16.584  0.0968 -0.0708  0.0021
  438MPD2    C2 6527   3.133   1.082  16.718 -0.3051  1.1115 -0.0111
  438MPD2    C3 6528   3.142   1.178  16.812  0.7195 -0.5257 -0.2108
  438MPD2    C4 6529   3.176   1.308  16.760 -0.3949 -0.3164  0.8697
  438MPD2    C5 6530   3.177   1.338  16.628 -0.2200  0.0057  0.3053
  438MPD2     H 6531   3.128   0.979  16.750 -1.0409  0.9305 -0.7113
  438MPD2    H1 6532   3.192   1.385  16.835 -2.8570 -1.4943  2.6263
  438MPD2    H2 6533   3.156   1.268  16.432  0.6654  0.1450  0.7897
  438MPD2    H3 6534   3.198   1.440  16.600 -2.1484 -0.4085 -2.6136
  438MPD2     N 6535   3.131   1.158  16.954  0.3187 -0.4797  0.2301
  438MPD2    H5 6536   3.153   1.243  17.005  1.2060  0.7633 -2.2009
  438MPD2    N1 6537   3.119   1.009  16.490  0.0940 -0.5210 -0.2779
  438MPD2    H7 6538   3.123   0.917  16.533 -0.9421 -0.3691  0.1370
  439TMC3    C1 6539   3.138   0.898  16.296 -0.9559  0.3186 -0.1794
  439TMC3    C2 6540   3.074   0.866  16.179 -0.0175  0.2477 -0.4497
  439TMC3    C3 6541   3.129   0.761  16.109 -0.4890  0.3956  0.5196
  439TMC3    C4 6542   3.248   0.826  16.335 -0.4489  0.7932 -0.4481
  439TMC3    C5 6543   3.306   0.734  16.253 -0.0032  0.1612  0.4712
  439TMC3    C6 6544   3.245   0.700  16.138 -0.8506 -0.5200 -1.2191
  439TMC3     C 6545   3.115   1.026  16.354  0.2467  0.4454 -0.1018
  439TMC3     O 6546   3.074   1.123  16.290 -0.1679 -0.6700 -0.2140
  439TMC3     H 6547   2.983   0.919  16.152 -0.7160  0.2590  1.9323
  439TMC3    H1 6548   3.308   0.867  16.415 -0.6260 -0.6940  0.4452
  439TMC3    H2 6549   3.273   0.618  16.072 -0.5720 -1.4804  0.0825
  439TMC3    C7 6550   3.435   0.685  16.289  0.3322 -0.3333 -0.7375
  439TMC3    C8 6551   3.057   0.712  15.983 -0.2531  0.7027 -0.3800
  439TMC3    O1 6552   3.496   0.731  16.388 -0.1653 -0.3073 -0.3494
  439TMC3    O2 6553   3.027   0.792  15.895 -0.0284 -0.4884 -0.6474
  440MPD2     C 6554   1.517   1.430  14.220 -0.0072  0.1747  0.4481
  440MPD2    C1 6555   1.450   1.403  14.334  0.2984 -0.2600 -0.3948
  440MPD2    C2 6556   1.489   1.296  14.411 -0.4285 -0.0347  0.1891
  440MPD2    C3 6557   1.591   1.211  14.378 -0.5126  0.0369 -0.2980
  440MPD2    C4 6558   1.662   1.239  14.262  0.1844  0.1520 -0.1071
  440MPD2    C5 6559   1.625   1.349  14.185  0.4718 -0.3387 -0.0652
  440MPD2     H 6560   1.442   1.273  14.506 -1.2739  1.0863  0.0407
  440MPD2    H1 6561   1.757   1.193  14.236 -0.6450 -0.7578 -1.4942
  440MPD2    H2 6562   1.497   1.517  14.158  0.2725 -0.2522 -0.2370
  440MPD2    H3 6563   1.679   1.364  14.093 -0.5419  1.4332 -0.3677
  440MPD2     N 6564   1.644   1.112  14.463 -0.0196 -0.0842 -0.6369
  440MPD2    H5 6565   1.722   1.061  14.421  0.9316  2.4698 -1.9779
  440MPD2    N1 6566   1.350   1.487  14.382  0.1007  0.2019  0.6272
  440MPD2    H7 6567   1.305   1.458  14.468  2.0241 -0.7399  1.3194
  441TMC3    C1 6568   1.682   0.957  14.633  0.3940  0.0134  0.4886
  441TMC3    C2 6569   1.816   0.971  14.622  0.2312 -0.8431 -0.0891
  441TMC3    C3 6570   1.894   0.895  14.708 -0.1712 -0.6603 -0.3940
  441TMC3    C4 6571   1.618   0.875  14.724 -0.1837  0.3834  0.1744
  441TMC3    C5 6572   1.702   0.791  14.794  0.2579 -0.3458 -0.0023
  441TMC3    C6 6573   1.837   0.820  14.807 -0.0284  0.3097 -0.0525
  441TMC3     C 6574   1.598   1.062  14.584 -0.4359  0.3520  0.0709
  441TMC3     O 6575   1.485   1.083  14.632  0.0217  0.3703  0.1348
  441TMC3     H 6576   1.864   1.033  14.547 -0.1586  0.2822  0.5921
  441TMC3    H1 6577   1.512   0.861  14.735 -0.1696  2.4318  2.8832
  441TMC3    H2 6578   1.900   0.758  14.869 -0.4591  0.4700  0.5474
  441TMC3    C7 6579   1.656   0.708  14.904  0.3800 -0.3591 -0.6593
  441TMC3    C8 6580   2.030   0.963  14.722 -0.3044 -0.1088  0.2278
  441TMC3    O1 6581   1.737   0.625  14.947 -0.6514  0.1840 -0.4689
  441TMC3    O2 6582   2.127   0.924  14.658 -0.3693 -0.5524  0.9875
  442MPD2     C 6583   4.450   2.083  16.212  1.0252 -0.0249  0.4079
  442MPD2    C1 6584   4.380   1.991  16.281  0.0278 -0.4829 -0.7792
  442MPD2    C2 6585   4.367   1.857  16.235 -0.3623 -0.2264  0.3503
  442MPD2    C3 6586   4.418   1.822  16.110  0.1342 -0.6736  0.0988
  442MPD2    C4 6587   4.480   1.918  16.038 -0.7482  0.3920 -0.7471
  442MPD2    C5 6588   4.506   2.039  16.093  0.0005 -0.1612  0.2338
  442MPD2     H 6589   4.322   1.785  16.302 -0.7619  1.4140  1.8384
  442MPD2    H1 6590   4.531   1.895  15.945 -0.5977  0.6759 -0.7353
  442MPD2    H2 6591   4.471   2.181  16.252 -2.2497  0.8205  0.1044
  442MPD2    H3 6592   4.573   2.107  16.042 -2.0676  0.0315 -2.1933
  442MPD2     N 6593   4.428   1.690  16.054  0.6068 -0.9044  0.5604
  442MPD2    H5 6594   4.492   1.674  15.976  0.5177 -1.6954  0.6458
  442MPD2    N1 6595   4.326   2.015  16.407  0.0424  0.6281  0.1768
  442MPD2    H7 6596   4.280   1.933  16.445 -0.3711  2.2025  3.0809
  443TMC3    C1 6597   4.224   2.139  16.575 -0.8069 -0.1349  1.1091
  443TMC3    C2 6598   4.108   2.207  16.530 -0.1862 -0.3256 -0.4524
  443TMC3    C3 6599   3.978   2.164  16.548 -0.7689  0.2090  0.4429
  443TMC3    C4 6600   4.206   2.022  16.635 -0.5870 -0.1396  0.1319
  443TMC3    C5 6601   4.078   1.984  16.670 -0.3006  0.5117 -0.5987
  443TMC3    C6 6602   3.968   2.057  16.638 -0.5012 -0.2351 -0.4783
  443TMC3     C 6603   4.313   2.142  16.465  0.5423  0.1221  0.5827
  443TMC3     O 6604   4.347   2.250  16.426 -0.1622  0.3396 -0.0499
  443TMC3     H 6605   4.119   2.293  16.464 -0.3057 -0.9971 -1.3454
  443TMC3    H1 6606   4.285   1.952  16.658 -0.9290 -0.2879  0.8605
  443TMC3    H2 6607   3.870   2.017  16.663 -0.6016  0.3920  0.1180
  443TMC3    C7 6608   4.062   1.858  16.748  0.0306 -0.9956  0.1164
  443TMC3    C8 6609   3.941   2.116  16.416  0.3795 -0.0631  0.3898
  443TMC3    O1 6610   4.151   1.776  16.743 -0.1662  0.3718  0.1898
  443TMC3    O2 6611   3.967   1.996  16.399 -0.2733  0.2081 -0.0059
  444MPD2     C 6612   0.172   1.503  16.617  0.1382  0.9083  0.7264
  444MPD2    C1 6613   0.123   1.388  16.677 -0.4635  0.0259 -0.2676
  444MPD2    C2 6614   0.201   1.273  16.666  0.3358  0.0391  0.0800
  444MPD2    C3 6615   0.324   1.270  16.611  0.5699 -0.1291  1.2827
  444MPD2    C4 6616   0.377   1.384  16.554 -0.0501  0.0383  0.3280
  444MPD2    C5 6617   0.298   1.495  16.559 -0.2261 -0.8216  0.0075
  444MPD2     H 6618   0.158   1.183  16.709 -0.6457 -0.2304 -1.4549
  444MPD2    H1 6619   0.469   1.391  16.497  1.7377  1.5404  3.4306
  444MPD2    H2 6620   0.124   1.600  16.613  0.3764  0.8769 -2.3021
  444MPD2    H3 6621   0.331   1.582  16.505 -1.1451 -0.6510 -0.2843
  444MPD2     N 6622   0.382   1.148  16.598 -0.0020 -0.0752  1.0502
  444MPD2    H5 6623   0.343   1.071  16.651  0.6194 -1.8291 -1.0457
  444MPD2    N1 6624   4.721   1.381  16.744  0.3814 -0.0379  0.2660
  444MPD2    H7 6625   4.691   1.291  16.779  2.5591 -1.4485 -1.5255
  445TMC3    C1 6626   0.524   0.972  16.504  0.3386  0.2203 -0.5312
  445TMC3    C2 6627   0.442   0.874  16.552  0.4902 -0.1752 -0.3239
  445TMC3    C3 6628   0.463   0.746  16.509  0.2688 -0.6736 -0.1652
  445TMC3    C4 6629   0.633   0.949  16.421 -0.6736  0.0273  0.8813
  445TMC3    C5 6630   0.656   0.817  16.388 -0.1871 -0.0590  0.3506
  445TMC3    C6 6631   0.573   0.716  16.432 -0.2438 -0.1415  0.3137
  445TMC3     C 6632   0.489   1.109  16.514 -0.6572 -0.0263 -0.6264
  445TMC3     O 6633   0.560   1.180  16.444 -0.3045 -0.0839  0.3350
  445TMC3     H 6634   0.359   0.901  16.617  1.5671  0.3021  0.8559
  445TMC3    H1 6635   0.702   1.024  16.382 -1.4201 -0.3554 -1.1399
  445TMC3    H2 6636   0.577   0.622  16.378  0.8441  0.2840 -0.3535
  445TMC3    C7 6637   0.758   0.777  16.283 -0.2492  0.6464 -0.3747
  445TMC3    C8 6638   0.386   0.627  16.543 -0.4995  0.5189 -0.4467
  445TMC3    O1 6639   0.730   0.696  16.193  0.7476 -0.1252  0.1226
  445TMC3    O2 6640   0.438   0.520  16.550  0.0083  0.4984 -0.2290
  446MPD2     C 6641   4.467   2.884  11.418  0.0915  0.8117  0.6054
  446MPD2    C1 6642   4.454   2.903  11.283  0.2769 -0.2369  0.3947
  446MPD2    C2 6643   4.533   2.987  11.217 -0.3094 -0.0474 -0.2641
  446MPD2    C3 6644   4.642   3.047  11.276  0.3155 -0.8205  0.0285
  446MPD2    C4 6645   4.650   3.039  11.412  0.0362 -0.5508  0.0285
  446MPD2    C5 6646   4.561   2.960  11.477  0.3011 -0.2584  0.1288
  446MPD2     H 6647   4.513   3.001  11.111 -0.4838 -2.1737 -0.5061
  446MPD2    H1 6648   0.008   3.089  11.463 -0.8801  0.5686  0.3919
  446MPD2    H2 6649   4.384   2.842  11.474 -0.8220 -0.7239 -1.9051
  446MPD2    H3 6650   4.562   2.967  11.585 -0.2651  4.0115 -0.1380
  446MPD2     N 6651   0.021   3.108  11.192  0.8705 -0.1083  0.3355
  446MPD2    H5 6652   4.722   3.126  11.095  2.6617 -0.5071 -0.1611
  446MPD2    N1 6653   4.351   2.836  11.205 -0.1991  0.1702 -0.2033
  446MPD2    H7 6654   4.370   2.854  11.107 -0.9058  0.4082 -0.2984
  447TMC3    C1 6655   0.255   3.109  11.126 -0.0951  0.2140 -0.3644
  447TMC3    C2 6656   0.223   3.155  11.000  0.3041 -0.1517  0.2096
  447TMC3    C3 6657   0.317   3.136  10.903  0.4901  0.1613 -0.0922
  447TMC3    C4 6658   0.381   3.054  11.155 -0.6084  0.8515 -0.3821
  447TMC3    C5 6659   0.477   3.053  11.055 -0.0601  0.0805  0.3100
  447TMC3    C6 6660   0.439   3.084  10.928  0.1167  0.8905 -0.0452
  447TMC3     C 6661   0.151   3.093  11.229  0.4471 -0.7324  0.7550
  447TMC3     O 6662   0.198   3.076  11.338  0.9593 -0.6401  0.3032
  447TMC3     H 6663   0.130   3.205  10.973 -1.1678 -2.3449  1.1664
  447TMC3    H1 6664   0.405   3.029  11.258 -3.0520  0.0816  0.0062
  447TMC3    H2 6665   0.498   3.039  10.849 -0.9659  1.2273 -1.0369
  447TMC3    C7 6666   0.581   2.945  11.067 -0.3075 -0.1006 -0.5648
  447TMC3    C8 6667   0.291   3.178  10.767  0.2213  0.1071  0.1688
  447TMC3    O1 6668   0.665   2.939  10.980  0.4004 -0.0699 -0.0873
  447TMC3    O2 6669   0.172   3.205  10.740  0.0566 -0.2402  0.9696
  448TMC3    C1 6670   2.854   2.227  16.212 -1.1092  0.3092 -0.9559
  448TMC3    C2 6671   2.842   2.089  16.194  0.4482 -0.4648  0.1693
  448TMC3    C3 6672   2.887   2.005  16.294  0.9533 -0.2645 -0.3436
  448TMC3    C4 6673   2.918   2.279  16.320 -0.3003  0.0349  0.2884
  448TMC3    C5 6674   2.951   2.193  16.418 -0.1190 -0.3884 -0.1466
  448TMC3    C6 6675   2.945   2.049  16.406  0.0531  0.1104  0.9413
  448TMC3     C 6676   2.861   2.308  16.088 -0.4857 -0.8041  0.5181
  448TMC3     O 6677   2.899   2.248  15.987  0.4309 -0.2050 -0.1713
  448TMC3     H 6678   2.816   2.042  16.100 -1.1064 -2.1147  1.4186
  448TMC3    H1 6679   2.938   2.384  16.334  0.1476  0.1967 -1.5117
  448TMC3    H2 6680   2.989   1.983  16.479  1.7754  0.6453  0.3945
  448TMC3    C7 6681   3.045   2.239  16.517 -0.0080 -0.1556  0.0901
  448TMC3    C8 6682   2.924   1.873  16.255 -0.6344 -0.2981  0.1969
  448TMC3    O1 6683   3.088   2.352  16.506  0.3755  0.8817 -0.3383
  448TMC3    O2 6684   3.012   1.817  16.322 -0.2504 -0.8548 -0.0325
  449MPD2     C 6685   4.634   1.331  13.799  0.5076 -0.6884 -0.6486
  449MPD2    C1 6686   4.546   1.331  13.693  0.1219 -0.1356 -0.5376
  449MPD2    C2 6687   4.466   1.220  13.678 -0.4198  0.4739  0.6637
  449MPD2    C3 6688   4.470   1.104  13.755 -0.7447  0.1969 -0.6157
  449MPD2    C4 6689   4.567   1.096  13.847 -1.0110 -0.5957  0.0379
  449MPD2    C5 6690   4.645   1.207  13.869 -0.7348 -0.2657  0.4860
  449MPD2     H 6691   4.382   1.219  13.609 -2.3222 -2.0931  3.0367
  449MPD2    H1 6692   4.592   1.010  13.909  0.9600  2.6056  3.7141
  449MPD2    H2 6693   4.693   1.418  13.827  0.5463 -0.9223 -0.0070
  449MPD2    H3 6694   0.003   1.201  13.940 -0.2507  0.2616 -0.0297
  449MPD2     N 6695   4.378   1.002  13.734  0.0612  0.0615  0.5563
  449MPD2    H5 6696   4.315   1.012  13.654  0.9294 -0.2068 -0.1617
  449MPD2    N1 6697   4.511   1.445  13.619  0.3224 -0.4279 -0.9547
  449MPD2    H7 6698   4.432   1.438  13.556 -1.0018 -2.2485  0.9265
  450TMC3    C1 6699   4.486   1.667  13.552 -0.0917  0.3652  0.1682
  450TMC3    C2 6700   4.540   1.731  13.440 -0.7711 -0.0931  0.0843
  450TMC3    C3 6701   4.475   1.734  13.318  0.4671  0.1579  0.1876
  450TMC3    C4 6702   4.359   1.612  13.536 -0.1761  0.0323 -0.1814
  450TMC3    C5 6703   4.303   1.605  13.408  0.1389  0.0388  0.6305
  450TMC3    C6 6704   4.356   1.668  13.301 -0.2350  0.0766  0.3228
  450TMC3     C 6705   4.574   1.560  13.607 -0.0636 -0.2428  0.2412
  450TMC3     O 6706   4.687   1.587  13.644 -0.1038  0.3960 -0.2823
  450TMC3     H 6707   4.647   1.750  13.438 -0.8308  0.3242  1.0201
  450TMC3    H1 6708   4.306   1.561  13.616 -0.4167  1.1528  0.3674
  450TMC3    H2 6709   4.320   1.647  13.202 -0.3735 -2.1444  0.8574
  450TMC3    C7 6710   4.234   1.473  13.393  0.9517  0.2687  0.4279
  450TMC3    C8 6711   4.559   1.738  13.203 -0.7641 -0.5874 -0.0775
  450TMC3    O1 6712   4.268   1.400  13.485  0.7222  0.3754 -0.4611
  450TMC3    O2 6713   4.650   1.822  13.206  0.0016 -0.3525  0.5994
  451MPD2     C 6714   0.962   3.421   1.530 -0.6198  0.5106  0.0172
  451MPD2    C1 6715   1.033   3.490   1.434 -0.1041  0.7904  0.1998
  451MPD2    C2 6716   1.121   3.414   1.347 -0.7927  0.6817 -0.8158
  451MPD2    C3 6717   1.141   3.271   1.362  0.1697 -0.5131 -0.3399
  451MPD2    C4 6718   1.074   3.210   1.466  0.1050  0.5218 -0.1767
  451MPD2    C5 6719   0.986   3.282   1.541 -0.4541 -0.2894  0.0649
  451MPD2     H 6720   1.184   3.463   1.274  0.4721  1.1003  0.5629
  451MPD2    H1 6721   1.092   3.106   1.490 -0.3902  0.2584 -0.9648
  451MPD2    H2 6722   0.887   3.464   1.595 -2.4724 -2.4583 -0.1326
  451MPD2    H3 6723   0.935   3.228   1.619  1.1697 -0.8856  0.7123
  451MPD2     N 6724   1.234   3.199   1.282  0.1476  0.2525 -0.7136
  451MPD2    H5 6725   1.258   3.102   1.301  0.3041  0.5170  0.4368
  451MPD2    N1 6726   1.005   3.626   1.423 -0.4286  0.4694  0.6158
  451MPD2    H7 6727   0.933   3.670   1.480 -0.2285  1.6255 -0.0316
  452TMC3    C1 6728   1.381   3.167   1.107  0.2319  0.9584  0.4958
  452TMC3    C2 6729   1.455   3.085   1.182 -0.4916  0.8766 -0.3228
  452TMC3    C3 6730   1.561   3.030   1.114  0.2063  0.6245  0.4320
  452TMC3    C4 6731   1.403   3.189   0.971 -0.5917 -0.3443  0.6306
  452TMC3    C5 6732   1.511   3.128   0.912  0.8741 -0.1286 -0.0034
  452TMC3    C6 6733   1.591   3.050   0.983  0.0021 -0.0790  0.3644
  452TMC3     C 6734   1.284   3.249   1.168  0.5327 -0.4822  0.0927
  452TMC3     O 6735   1.256   3.348   1.100  1.1111 -0.7873  0.3056
  452TMC3     H 6736   1.443   3.068   1.288 -1.6479 -0.6259 -0.6850
  452TMC3    H1 6737   1.333   3.247   0.913 -1.4390 -0.0175  1.9681
  452TMC3    H2 6738   1.684   3.007   0.947  1.1036  1.1996  1.6749
  452TMC3    C7 6739   1.561   3.198   0.796  0.1029 -0.2869 -0.0156
  452TMC3    C8 6740   1.617   2.919   1.179 -0.1875 -0.9907 -0.4501
  452TMC3    O1 6741   1.476   3.253   0.726 -0.1349  0.5577 -0.5163
  452TMC3    O2 6742   1.551   2.865   1.264  0.4027  0.6595  0.5712
  453TMC3    C1 6743   2.211   1.921  11.635 -0.3994 -0.3360  0.6660
  453TMC3    C2 6744   2.129   1.867  11.724 -0.6454  0.5224  0.4917
  453TMC3    C3 6745   2.075   1.746  11.698  0.1841 -0.2308 -0.2671
  453TMC3    C4 6746   2.236   1.861  11.515  0.4605  0.0527 -0.9990
  453TMC3    C5 6747   2.157   1.749  11.487 -0.1906  0.1919  0.7555
  453TMC3    C6 6748   2.076   1.690  11.575 -0.1084 -0.5045  0.2222
  453TMC3     C 6749   2.273   2.054  11.664 -0.5599 -0.0730 -0.9557
  453TMC3     O 6750   2.383   2.076  11.614  0.5345 -0.1091 -0.1253
  453TMC3     H 6751   2.130   1.901  11.827  1.2244  0.1155  0.6079
  453TMC3    H1 6752   2.301   1.911  11.444  2.6315 -0.4477  0.6481
  453TMC3    H2 6753   2.020   1.600  11.552  0.7175 -1.4755  2.0158
  453TMC3    C7 6754   2.187   1.668  11.368 -0.2683 -0.5300 -0.2645
  453TMC3    C8 6755   1.995   1.684  11.801  0.1729 -0.4010  0.4963
  453TMC3    O1 6756   2.104   1.583  11.329  0.3372 -0.0712  0.0102
  453TMC3    O2 6757   1.964   1.754  11.894  0.0554 -0.1610 -0.6212
  454MPD2     C 6758   0.785   1.093  15.742  1.4687  0.7936  0.7485
  454MPD2    C1 6759   0.708   1.156  15.649  0.3799  0.7782  0.5104
  454MPD2    C2 6760   0.673   1.289  15.670  0.1423  0.7955 -0.1984
  454MPD2    C3 6761   0.707   1.353  15.785 -0.2466 -0.4736 -0.0536
  454MPD2    C4 6762   0.787   1.286  15.877  0.2554 -0.1951  0.0387
  454MPD2    C5 6763   0.826   1.159  15.856  0.3156 -0.7232  0.0850
  454MPD2     H 6764   0.602   1.335  15.602 -1.1559 -0.9975 -0.0763
  454MPD2    H1 6765   0.825   1.344  15.960  0.8715 -0.9503  0.2795
  454MPD2    H2 6766   0.796   0.985  15.739  0.8141  0.7520 -0.0770
  454MPD2    H3 6767   0.887   1.114  15.933 -0.3378 -3.1911 -0.8334
  454MPD2     N 6768   0.650   1.473  15.823 -0.4073 -0.2710 -0.0255
  454MPD2    H5 6769   0.637   1.484  15.923 -0.8054  0.6248 -0.1671
  454MPD2    N1 6770   0.645   1.093  15.545  0.0158  0.0659 -0.1736
  454MPD2    H7 6771   0.579   1.153  15.497  0.3046  0.7322  0.2760
  455TMC3    C1 6772   0.448   1.584  15.808  0.3023 -0.2915 -0.5578
  455TMC3    C2 6773   0.475   1.638  15.932 -0.2220 -0.8199  0.1952
  455TMC3    C3 6774   0.399   1.587  16.036 -0.5427 -0.2474  0.4473
  455TMC3    C4 6775   0.357   1.486  15.793  1.3012 -0.3758  0.5403
  455TMC3    C5 6776   0.289   1.433  15.899  0.3129 -0.5023 -0.2104
  455TMC3    C6 6777   0.308   1.486  16.024 -0.0065 -0.1670 -0.0094
  455TMC3     C 6778   0.569   1.547  15.738 -0.5771 -0.2835 -0.4594
  455TMC3     O 6779   0.547   1.541  15.616 -0.5720 -0.2828  0.5195
  455TMC3     H 6780   0.551   1.712  15.949  0.8733 -1.3783 -2.2665
  455TMC3    H1 6781   0.348   1.448  15.692  0.2792 -2.3430  1.3844
  455TMC3    H2 6782   0.275   1.430  16.110 -1.2862  0.9399  0.2290
  455TMC3    C7 6783   0.239   1.300  15.880  0.3583  0.6448 -0.2114
  455TMC3    C8 6784   0.424   1.641  16.170 -0.6709  0.1844 -0.2061
  455TMC3    O1 6785   0.293   1.239  15.788  0.6527  0.0209 -0.2503
  455TMC3    O2 6786   0.436   1.560  16.259 -0.5838 -0.5010 -0.2857
  456MPD2     C 6787   3.584   0.625  15.681  0.2843  0.1182 -0.3911
  456MPD2    C1 6788   3.665   0.654  15.791 -0.5718  0.6188 -0.3205
  456MPD2    C2 6789   3.617   0.746  15.884  0.0939  0.2519  0.1196
  456MPD2    C3 6790   3.492   0.812  15.855  0.5987  0.7090 -0.5094
  456MPD2    C4 6791   3.424   0.785  15.737  0.0304 -0.3061  0.0444
  456MPD2    C5 6792   3.461   0.691  15.649 -0.5134  0.2916  0.5479
  456MPD2     H 6793   3.665   0.765  15.979 -1.0784  2.0554  0.3521
  456MPD2    H1 6794   3.331   0.838  15.721  0.7775  0.7794 -0.6809
  456MPD2    H2 6795   3.614   0.543  15.617  0.6787 -0.8992  1.0922
  456MPD2    H3 6796   3.405   0.666  15.560  1.2652  1.5494 -0.9149
  456MPD2     N 6797   3.447   0.916  15.945 -0.4612  0.0542 -0.5017
  456MPD2    H5 6798   3.507   0.949  16.020 -0.3030  0.0204 -0.6129
  456MPD2    N1 6799   3.787   0.583  15.815  0.0333  0.2164 -0.2039
  456MPD2    H7 6800   3.827   0.603  15.906  1.4253  0.5586 -0.8810
  457TMC3    C1 6801   3.337   1.090  16.040  0.1175  0.0606  0.1998
  457TMC3    C2 6802   3.280   1.215  16.015 -0.4031 -0.6677 -0.4233
  457TMC3    C3 6803   3.284   1.303  16.119 -0.2363  0.2034  0.0561
  457TMC3    C4 6804   3.411   1.066  16.156  0.1433  0.5121  0.3788
  457TMC3    C5 6805   3.415   1.170  16.250 -0.3870  0.8141  0.0074
  457TMC3    C6 6806   3.352   1.290  16.234 -0.0773  0.0424 -0.4835
  457TMC3     C 6807   3.338   0.998  15.931  0.3585  0.0892  0.3572
  457TMC3     O 6808   3.255   1.008  15.840  0.5019 -0.0190  0.6825
  457TMC3     H 6809   3.219   1.231  15.926 -1.3134  2.4927  0.7602
  457TMC3    H1 6810   3.440   0.965  16.183  1.4536  0.1219 -2.4844
  457TMC3    H2 6811   3.323   1.351  16.318  0.7558 -2.7715  1.8586
  457TMC3    C7 6812   3.464   1.145  16.382  0.5202 -0.1216  0.5467
  457TMC3    C8 6813   3.204   1.424  16.115  0.3224  0.0409  0.5123
  457TMC3    O1 6814   3.474   1.029  16.412 -0.2996 -0.5154 -0.1016
  457TMC3    O2 6815   3.233   1.513  16.196  0.1778 -0.0232  0.3629
  458MPD2     C 6816   0.827   0.937  12.085 -0.4529  0.0596  0.3347
  458MPD2    C1 6817   0.810   0.896  12.218  0.4126  0.2743 -0.0059
  458MPD2    C2 6818   0.716   0.800  12.237  0.2131 -0.2762  0.3916
  458MPD2    C3 6819   0.641   0.746  12.136 -0.3294 -0.6231  0.0827
  458MPD2    C4 6820   0.652   0.785  12.008 -0.4634 -0.1857 -0.1089
  458MPD2    C5 6821   0.755   0.871  11.982 -0.1404 -0.5422 -0.0643
  458MPD2     H 6822   0.692   0.743  12.327  0.8416 -0.5988  0.3546
  458MPD2    H1 6823   0.602   0.742  11.922  0.2640 -3.6956  1.2244
  458MPD2    H2 6824   0.909   1.004  12.064 -0.7592  0.0672 -0.8702
  458MPD2    H3 6825   0.777   0.912  11.884  1.9197  0.6255  0.8923
  458MPD2     N 6826   0.557   0.634  12.164 -0.1966  0.2265  0.2236
  458MPD2    H5 6827   0.548   0.618  12.263 -0.9581  2.4384  0.5117
  458MPD2    N1 6828   0.878   0.970  12.324 -0.2865 -0.3580 -0.6272
  458MPD2    H7 6829   0.925   1.059  12.306 -1.3334  0.6033  1.3881
  459TMC3    C1 6830   0.966   1.000  12.543  0.3678  0.5558 -0.3765
  459TMC3    C2 6831   1.087   1.036  12.501 -0.2802  0.3777 -0.1947
  459TMC3    C3 6832   1.191   1.060  12.587  0.5223 -0.2605 -0.0568
  459TMC3    C4 6833   0.942   0.974  12.674  0.0095 -0.5317 -0.4494
  459TMC3    C5 6834   1.046   0.989  12.757  0.2420 -0.5096 -0.2327
  459TMC3    C6 6835   1.174   1.028  12.720  0.0820 -0.0853  0.2609
  459TMC3     C 6836   0.876   0.925  12.455 -0.5639 -0.2599  0.4956
  459TMC3     O 6837   0.820   0.830  12.508  0.3092  0.0182 -0.2501
  459TMC3     H 6838   1.104   1.060  12.396  0.0679 -0.1518 -0.2603
  459TMC3    H1 6839   0.844   0.933  12.698 -0.3569 -1.5134 -3.5729
  459TMC3    H2 6840   1.254   1.053  12.788 -1.0723  1.1316  1.1576
  459TMC3    C7 6841   1.048   0.910  12.872 -0.5398  0.6178  0.0021
  459TMC3    C8 6842   1.286   1.164  12.557  0.0825  0.0017  0.0616
  459TMC3    O1 6843   1.153   0.852  12.902  0.4084 -0.8204  0.2440
  459TMC3    O2 6844   1.303   1.246  12.645  0.1774 -0.1562 -0.2501
  460MPD2     C 6845   0.551   3.256  10.514  0.0940 -0.2266  0.2418
  460MPD2    C1 6846   0.428   3.262  10.572  0.4087  0.2609 -0.1570
  460MPD2    C2 6847   0.321   3.308  10.495 -0.3136  0.2519  0.4088
  460MPD2    C3 6848   0.334   3.340  10.362 -0.1129 -0.0211  0.2809
  460MPD2    C4 6849   0.465   3.334  10.302 -0.1454 -0.2452 -0.2317
  460MPD2    C5 6850   0.570   3.298  10.380 -0.4958  0.3195  0.1594
  460MPD2     H 6851   0.220   3.318  10.534 -0.8599  0.2676 -1.0047
  460MPD2    H1 6852   0.470   3.364  10.199  1.2379 -2.5876 -0.8414
  460MPD2    H2 6853   0.637   3.228  10.574  1.3692 -1.0115 -1.9570
  460MPD2    H3 6854   0.669   3.308  10.337 -0.8179  2.2576 -0.1490
  460MPD2     N 6855   0.221   3.385  10.293 -0.0297 -0.2147  0.6227
  460MPD2    H5 6856   0.140   3.413  10.348  0.6740  0.7380  1.1836
  460MPD2    N1 6857   0.406   3.193  10.692  0.3881 -0.2868  0.0606
  460MPD2    H7 6858   0.493   3.152  10.722 -0.3800 -1.9036  0.0726
  461TMC3    C1 6859   0.083   3.453  10.111  0.1347  0.7451  0.2491
  461TMC3    C2 6860   0.011   3.386  10.013 -0.0706  0.4404 -0.8277
  461TMC3    C3 6861   4.598   3.377  10.019  0.2350  0.1727 -0.6368
  461TMC3    C4 6862   0.025   3.523  10.209  0.0051  0.8757 -1.3402
  461TMC3    C5 6863   4.609   3.524  10.207  0.0548  0.6811 -0.0490
  461TMC3    C6 6864   4.533   3.451  10.114  0.0196  0.2143 -0.0611
  461TMC3     C 6865   0.203   3.377  10.154 -0.3101 -0.4496  0.3890
  461TMC3     O 6866   0.276   3.322  10.065 -0.2660 -0.2121 -0.1887
  461TMC3     H 6867   0.058   3.319   9.942  1.1915  2.1504 -1.6113
  461TMC3    H1 6868   0.079   3.591  10.273  1.5497 -2.9451  1.4828
  461TMC3    H2 6869   4.425   3.448  10.120  0.0840 -0.3183  0.8472
  461TMC3    C7 6870   4.549   3.648  10.233  0.3344 -0.2689  0.1309
  461TMC3    C8 6871   4.524   3.389   9.898  0.2652 -0.0376 -0.4788
  461TMC3    O1 6872   4.440   3.657  10.172  0.0800 -0.1303  0.1036
  461TMC3    O2 6873   4.529   3.296   9.817  0.0577  0.5933  0.2373
  462TMC3    C1 6874   0.252   3.823   0.840 -0.2106 -1.1850  0.8930
  462TMC3    C2 6875   0.275   3.866   0.712 -0.1115  0.0068  0.3003
  462TMC3    C3 6876   0.258   3.783   0.605  1.1340  0.3693 -0.0295
  462TMC3    C4 6877   0.208   3.700   0.872  0.0903 -0.1797 -0.1960
  462TMC3    C5 6878   0.195   3.617   0.765 -0.1854 -0.0958  0.3695
  462TMC3    C6 6879   0.218   3.650   0.633 -1.0018  0.5367 -0.1474
  462TMC3     C 6880   0.248   3.925   0.939  0.2872  0.1234  0.2930
  462TMC3     O 6881   0.285   3.888   1.046 -0.7437 -0.7554  0.2340
  462TMC3     H 6882   0.309   3.966   0.691  0.0847 -0.3100 -0.9193
  462TMC3    H1 6883   0.174   3.688   0.974  0.4681  0.9837  0.0722
  462TMC3    H2 6884   0.184   3.582   0.555  2.3128 -2.7715  1.2900
  462TMC3    C7 6885   0.177   3.479   0.801 -0.2609 -0.8031 -0.4664
  462TMC3    C8 6886   0.310   3.817   0.476  0.4361  0.3393 -0.1838
  462TMC3    O1 6887   0.183   3.405   0.704  0.9014 -0.4400 -0.3157
  462TMC3    O2 6888   0.346   3.933   0.457  0.0950 -0.0454  0.1749
  463MPD2     C 6889   0.638   1.738   1.697  1.1077  0.0304 -0.3069
  463MPD2    C1 6890   0.627   1.822   1.585  0.6768  0.3267  0.0355
  463MPD2    C2 6891   0.741   1.852   1.507 -0.0569 -0.3422 -0.3387
  463MPD2    C3 6892   0.861   1.804   1.543 -0.8626  0.5247  0.2209
  463MPD2    C4 6893   0.870   1.726   1.653  0.4873  0.0260  0.5872
  463MPD2    C5 6894   0.757   1.679   1.711  0.5671  0.9986  0.3137
  463MPD2     H 6895   0.719   1.915   1.422  0.8916  1.2227  0.5659
  463MPD2    H1 6896   0.970   1.688   1.674  1.1274  0.6217 -1.3106
  463MPD2    H2 6897   0.561   1.711   1.768  0.4206  1.7670 -0.4024
  463MPD2    H3 6898   0.776   1.607   1.789  0.1049  0.2799 -0.2311
  463MPD2     N 6899   0.983   1.840   1.496 -0.3295  0.2329  0.1166
  463MPD2    H5 6900   1.059   1.789   1.539 -0.4104  0.8009  0.9457
  463MPD2    N1 6901   0.509   1.888   1.544  0.4114 -0.6568 -0.2342
  463MPD2    H7 6902   0.511   1.932   1.453 -1.6958 -0.4320 -0.1717
  464TMC3    C1 6903   0.277   1.928   1.533  0.3232 -0.3616  0.4677
  464TMC3    C2 6904   0.292   2.058   1.486 -0.1306 -0.3583 -0.2447
  464TMC3    C3 6905   0.173   2.131   1.461 -0.3228 -0.3379  0.2380
  464TMC3    C4 6906   0.154   1.882   1.575 -0.6678  0.2243  0.6032
  464TMC3    C5 6907   0.042   1.957   1.549 -0.6681  0.1081 -0.2675
  464TMC3    C6 6908   0.052   2.082   1.501  0.8152  0.4467 -0.3001
  464TMC3     C 6909   0.389   1.876   1.609  0.6123  0.3439 -1.1056
  464TMC3     O 6910   0.366   1.835   1.723 -0.1139  0.3334  0.8520
  464TMC3     H 6911   0.389   2.097   1.458  0.4057 -0.9242  0.8224
  464TMC3    H1 6912   0.161   1.788   1.628 -0.1567  0.4249  0.8983
  464TMC3    H2 6913   4.685   2.135   1.475  0.3699 -1.0163 -1.7499
  464TMC3    C7 6914   4.639   1.891   1.543  0.0065  0.8963  1.0631
  464TMC3    C8 6915   0.185   2.272   1.442 -0.0944 -0.0749  0.5582
  464TMC3    O1 6916   4.538   1.960   1.542  0.2566  0.4661  0.6967
  464TMC3    O2 6917   0.297   2.299   1.399  0.0059  0.0138  0.1417
  465MPD2     C 6918   2.556   0.928  16.160 -0.3280 -0.2861 -0.2923
  465MPD2    C1 6919   2.439   0.913  16.235  0.5473 -0.4233 -0.0362
  465MPD2    C2 6920   2.346   1.015  16.235  0.8314  0.4455 -0.0759
  465MPD2    C3 6921   2.357   1.125  16.157 -0.0849  0.2903 -0.3728
  465MPD2    C4 6922   2.473   1.137  16.079  0.1239  0.1687  0.4025
  465MPD2    C5 6923   2.563   1.037  16.079 -0.2211  0.2974  0.3295
  465MPD2     H 6924   2.275   1.008  16.316  2.2970 -1.1203  1.0683
  465MPD2    H1 6925   2.482   1.216  16.005  0.4095 -1.2989 -1.1429
  465MPD2    H2 6926   2.633   0.852  16.148 -1.6293 -1.7743  0.8491
  465MPD2    H3 6927   2.646   1.046  16.010 -0.6593 -1.1269 -0.3868
  465MPD2     N 6928   2.253   1.216  16.152 -0.9648 -0.1344  0.3252
  465MPD2    H5 6929   2.179   1.191  16.217  0.6126  0.2869  2.3012
  465MPD2    N1 6930   2.410   0.801  16.314  0.4524  0.2335 -0.2027
  465MPD2    H7 6931   2.324   0.809  16.367 -0.3768  1.9868 -1.8026
  466TMC3    C1 6932   1.885   1.381  16.102  0.1291  0.1949  0.1094
  466TMC3    C2 6933   1.871   1.506  16.049  0.2861 -0.3760 -0.0870
  466TMC3    C3 6934   1.979   1.573  16.004 -0.4139 -0.0201  0.0897
  466TMC3    C4 6935   2.009   1.324  16.119  0.6263 -0.4172  0.4785
  466TMC3    C5 6936   2.116   1.392  16.069  0.1467 -0.0128 -0.7869
  466TMC3    C6 6937   2.106   1.516  16.010  0.0294 -0.4139  0.8464
  466TMC3     C 6938   1.776   1.307  16.165 -0.3534  0.0119 -0.1165
  466TMC3     O 6939   1.801   1.213  16.241  0.3615 -0.2343  0.3206
  466TMC3     H 6940   1.775   1.555  16.049  0.2481 -0.4743  3.4638
  466TMC3    H1 6941   2.009   1.221  16.152 -2.7524 -0.5360  0.1152
  466TMC3    H2 6942   2.183   1.573  15.958 -0.4758  1.7260  2.4303
  466TMC3    C7 6943   2.246   1.324  16.068 -0.0256  0.4195  0.1205
  466TMC3    C8 6944   1.963   1.716  15.997  0.0731 -0.2820 -0.1437
  466TMC3    O1 6945   2.332   1.379  16.009 -0.4462 -0.0661 -0.2042
  466TMC3    O2 6946   2.057   1.773  15.936  0.3893  0.4450  0.0338
  467TMC3    C1 6947   2.923   0.209  13.535  0.1580 -0.0545 -0.0150
  467TMC3    C2 6948   2.859   0.230  13.415 -0.1736  0.3260 -0.1780
  467TMC3    C3 6949   2.778   0.133  13.370  0.3445 -0.4052  0.7207
  467TMC3    C4 6950   2.917   0.095  13.609  0.9315 -0.0295 -0.6311
  467TMC3    C5 6951   2.815   0.010  13.569 -0.0951  0.0380  0.0113
  467TMC3    C6 6952   2.746   0.025  13.449 -0.1151 -0.5236  0.1121
  467TMC3     C 6953   3.028   0.300  13.583 -0.3645 -0.1130  0.1452
  467TMC3     O 6954   3.111   0.247  13.655  0.5438  0.4075 -0.1173
  467TMC3     H 6955   2.884   0.316  13.354  0.1345  0.7372  0.5293
  467TMC3    H1 6956   2.965   0.077  13.704  1.8699 -1.1342 -1.3083
  467TMC3    H2 6957   2.664   4.682  13.425  0.5695 -2.0399  1.9763
  467TMC3    C7 6958   2.787   4.619  13.649 -0.1807  0.2999  0.8432
  467TMC3    C8 6959   2.721   0.150  13.240 -0.2718 -0.2494 -0.7034
  467TMC3    O1 6960   2.875   4.573  13.720  0.4272  0.5449 -0.1710
  467TMC3    O2 6961   2.766   0.246  13.178  0.5652 -0.1610  0.9556
  468MPD2     C 6962   2.181   2.804  10.669  0.5251  0.1916  0.5793
  468MPD2    C1 6963   2.301   2.825  10.740 -0.8210 -0.8679  0.2876
  468MPD2    C2 6964   2.368   2.708  10.770 -0.7709 -0.3352  0.1515
  468MPD2    C3 6965   2.321   2.586  10.746  0.1602  0.1695  0.0305
  468MPD2    C4 6966   2.205   2.572  10.673  0.0966 -0.4726  0.4899
  468MPD2    C5 6967   2.140   2.682  10.627 -0.0572  0.2245  0.1931
  468MPD2     H 6968   2.465   2.713  10.819  0.3027 -0.6460 -1.9388
  468MPD2    H1 6969   2.179   2.469  10.652  0.2154 -0.7699  1.8380
  468MPD2    H2 6970   2.127   2.892  10.638  0.4269 -1.1056 -3.0823
  468MPD2    H3 6971   2.057   2.669  10.558 -1.2227 -1.0323  1.8468
  468MPD2     N 6972   2.383   2.472  10.797  0.4176  0.9999 -0.1259
  468MPD2    H5 6973   2.340   2.381  10.784  1.7095  0.7806 -2.9595
  468MPD2    N1 6974   2.353   2.948  10.781 -0.1091 -0.2107  0.3271
  468MPD2    H7 6975   2.441   2.937  10.830  0.1139 -0.5816 -0.1568
  469TMC3    C1 6976   2.396   3.172  10.802 -0.1285  0.0166 -0.4813
  469TMC3    C2 6977   2.510   3.152  10.875  0.2290 -0.4256  0.3050
  469TMC3    C3 6978   2.577   3.248  10.937  0.3234  0.9129  0.1392
  469TMC3    C4 6979   2.363   3.303  10.770  0.4003 -0.2974 -0.0960
  469TMC3    C5 6980   2.435   3.402  10.834  0.0839  0.2878 -0.9541
  469TMC3    C6 6981   2.537   3.379  10.922  0.6534 -0.0641  0.3436
  469TMC3     C 6982   2.312   3.070  10.752  0.2797 -0.2364  0.2632
  469TMC3     O 6983   2.205   3.105  10.699 -0.0411  0.1663 -0.3449
  469TMC3     H 6984   2.538   3.050  10.902  1.5966 -0.1230  0.0201
  469TMC3    H1 6985   2.297   3.326  10.687  0.0125  1.6862  0.7563
  469TMC3    H2 6986   2.602   3.459  10.958  1.1135  0.1367 -0.9297
  469TMC3    C7 6987   2.422   3.536  10.775  0.3263  0.2122  0.5908
  469TMC3    C8 6988   2.710   3.203  10.987  0.1968  0.3236 -0.0218
  469TMC3    O1 6989   2.370   3.536  10.662 -0.2793  0.6271  0.2699
  469TMC3    O2 6990   2.761   3.113  10.920 -0.3905 -0.1768  0.0520
  470TMC3    C1 6991   4.516   2.915   0.889  0.0887  0.1571 -0.3515
  470TMC3    C2 6992   4.523   3.046   0.848  0.9881  1.3155  0.4704
  470TMC3    C3 6993   4.484   3.139   0.943 -0.6694  0.2732  0.1864
  470TMC3    C4 6994   4.468   2.879   1.014  0.1411 -0.2354  0.5209
  470TMC3    C5 6995   4.430   2.970   1.100 -0.4024 -0.2995 -0.0626
  470TMC3    C6 6996   4.444   3.107   1.071  0.7070  0.9945 -0.7341
  470TMC3     C 6997   4.538   2.811   0.789  0.2596  0.5119  0.3272
  470TMC3     O 6998   4.556   2.846   0.675 -0.3914  0.5152  0.1214
  470TMC3     H 6999   4.533   3.072   0.744  0.3577 -0.5043 -0.0515
  470TMC3    H1 7000   4.456   2.779   1.052 -0.9666 -0.3161 -0.0139
  470TMC3    H2 7001   4.404   3.181   1.140 -2.3901 -1.4452  0.0973
  470TMC3    C7 7002   4.431   2.933   1.239  0.2529 -0.7983  0.2662
  470TMC3    C8 7003   4.484   3.281   0.914  0.1984  0.4971  0.0677
  470TMC3    O1 7004   4.409   2.816   1.260 -0.6071 -0.2747 -0.6806
  470TMC3    O2 7005   4.484   3.350   1.014 -0.0702 -0.1538  0.2469
  471MPD2     C 7006   4.473   0.083  16.106 -0.0283  0.5223  0.0871
  471MPD2    C1 7007   4.434   4.678  16.139 -0.6285  0.7457  0.2763
  471MPD2    C2 7008   4.465   4.634  16.260  0.4960 -0.0949 -0.1256
  471MPD2    C3 7009   4.553   4.696  16.341 -0.2805 -0.0647  0.1677
  471MPD2    C4 7010   4.597   0.104  16.319 -0.9637  0.0972  0.4385
  471MPD2    C5 7011   4.545   0.157  16.201  0.2188  0.2628 -0.1992
  471MPD2     H 7012   4.442   4.532  16.289 -0.8531  0.6029  1.2252
  471MPD2    H1 7013   4.667   0.157  16.381  1.0855 -1.9995 -0.0862
  471MPD2    H2 7014   4.451   0.144  16.020 -2.9062  0.6371  0.9038
  471MPD2    H3 7015   4.569   0.256  16.165 -0.6372 -0.3184 -2.4087
  471MPD2     N 7016   4.587   4.617  16.446  0.6338 -0.0546 -0.3969
  471MPD2    H5 7017   4.534   4.531  16.455 -1.1290  1.3533  2.4630
  471MPD2    N1 7018   4.368   4.599  16.050  0.0041 -0.2827 -0.4732
  471MPD2    H7 7019   4.347   4.502  16.072 -4.6790  0.6941 -0.6655
  472TMC3    C1 7020   4.273   4.514  15.860  0.4488 -1.1127  0.3450
  472TMC3    C2 7021   4.140   4.498  15.870 -0.3830  0.1707  0.4034
  472TMC3    C3 7022   4.087   4.374  15.847 -0.5367  0.0420  0.0420
  472TMC3    C4 7023   4.347   4.398  15.862  0.1642  0.0674 -0.2897
  472TMC3    C5 7024   4.299   4.282  15.812 -0.2144 -0.3536  0.7894
  472TMC3    C6 7025   4.165   4.264  15.821  0.6293 -0.6403 -0.1513
  472TMC3     C 7026   4.315   4.632  15.926  0.4371 -0.2090 -0.2024
  472TMC3     O 7027   4.269   0.019  15.892  0.0917 -0.2438 -0.7962
  472TMC3     H 7028   4.078   4.585  15.884  0.3117  0.7979 -0.4378
  472TMC3    H1 7029   4.455   4.402  15.874  0.1314  2.2090 -0.8282
  472TMC3    H2 7030   4.124   4.172  15.781  0.8704 -0.7330 -0.1871
  472TMC3    C7 7031   4.359   4.158  15.857  0.4688 -0.1288 -0.6239
  472TMC3    C8 7032   3.949   4.355  15.877  0.0419  0.7306  0.0806
  472TMC3    O1 7033   4.413   4.148  15.964 -0.2306  0.1852  0.0027
  472TMC3    O2 7034   3.882   4.457  15.879 -0.2624 -0.1624 -0.7129
  473MPD2     C 7035   4.448   2.296  13.688  0.3231 -0.6375 -0.2463
  473MPD2    C1 7036   4.399   2.422  13.664 -0.1327  0.5991 -0.2349
  473MPD2    C2 7037   4.437   2.515  13.759 -0.3802 -0.3891 -0.5753
  473MPD2    C3 7038   4.515   2.489  13.868  0.9920  0.0846  0.3579
  473MPD2    C4 7039   4.561   2.364  13.882  0.6267 -0.0636 -0.1655
  473MPD2    C5 7040   4.535   2.272  13.787  0.0618  0.1349  0.0144
  473MPD2     H 7041   4.384   2.610  13.755 -0.9370 -0.6777  0.1508
  473MPD2    H1 7042   4.636   2.341  13.957 -0.6116  0.6422  1.2693
  473MPD2    H2 7043   4.437   2.211  13.623  0.3450 -0.6640 -0.2153
  473MPD2    H3 7044   4.574   2.173  13.812  1.2234  0.1963 -1.5468
  473MPD2     N 7045   4.567   2.589  13.957 -0.5416 -0.5016 -0.0898
  473MPD2    H5 7046   4.631   2.554  14.027 -1.2714  2.5269  2.0861
  473MPD2    N1 7047   4.310   2.462  13.562 -0.6869 -0.0016 -0.3447
  473MPD2    H7 7048   4.289   2.561  13.554  2.6116  0.7611  0.4792
  474TMC3    C1 7049   4.640   2.796  14.029 -0.1861  0.2779 -0.5177
  474TMC3    C2 7050   4.661   2.933  14.009 -0.0369 -0.0003 -0.0086
  474TMC3    C3 7051   0.028   2.996  14.085 -0.4409  0.5020  0.2518
  474TMC3    C4 7052   4.713   2.730  14.129 -0.1666 -0.1462 -0.1487
  474TMC3    C5 7053   0.072   2.804  14.210  0.3571 -0.0828  0.8877
  474TMC3    C6 7054   0.101   2.929  14.178  0.2697  0.2113  0.0726
  474TMC3     C 7055   4.544   2.722  13.949 -0.2433  0.4024 -0.2082
  474TMC3     O 7056   4.462   2.781  13.882  0.1005  0.4946 -0.2644
  474TMC3     H 7057   4.586   2.979  13.945  0.4248 -0.6056 -0.9866
  474TMC3    H1 7058   4.685   2.632  14.167 -0.4631 -0.7224 -1.8547
  474TMC3    H2 7059   0.181   2.985  14.225  0.5300  0.6725 -0.9215
  474TMC3    C7 7060   0.121   2.739  14.330 -0.0148  0.0252  0.1099
  474TMC3    C8 7061   0.086   3.114  14.020  0.1204 -0.3370 -0.3456
  474TMC3    O1 7062   0.123   2.620  14.325 -0.2918  0.6047  0.2203
  474TMC3    O2 7063   0.153   3.191  14.087  0.4952 -0.3225  0.6222
  475MPD2     C 7064   2.799   0.915  10.677  0.5246 -0.5914 -0.1562
  475MPD2    C1 7065   2.766   0.960  10.549  0.1608  0.3563 -0.7581
  475MPD2    C2 7066   2.636   0.944  10.498 -0.6835  0.1537  0.3619
  475MPD2    C3 7067   2.543   0.892  10.582 -0.7583 -0.3316 -0.6536
  475MPD2    C4 7068   2.574   0.848  10.710 -0.1821  0.0528 -0.5071
  475MPD2    C5 7069   2.702   0.861  10.752 -0.0254  0.3099  1.1716
  475MPD2     H 7070   2.598   0.962  10.398  0.0921  2.3371  0.4800
  475MPD2    H1 7071   2.494   0.831  10.781  1.1828  0.3146  1.0939
  475MPD2    H2 7072   2.900   0.910  10.716  0.7517 -0.1672 -0.6957
  475MPD2    H3 7073   2.722   0.812  10.847 -0.9277 -0.7316  0.8355
  475MPD2     N 7074   2.414   0.873  10.528 -0.2939 -0.4013 -0.7492
  475MPD2    H5 7075   2.403   0.888  10.428  0.4969  0.3750 -0.7190
  475MPD2    N1 7076   2.868   1.005  10.455 -0.1892 -0.5526 -1.0635
  475MPD2    H7 7077   2.963   0.975  10.478  0.9321  2.5023 -1.6226
  476TMC3    C1 7078   2.968   1.073  10.251 -0.2919 -0.5461  0.5898
  476TMC3    C2 7079   2.947   1.088  10.117 -0.2740 -0.7760  0.8625
  476TMC3    C3 7080   3.053   1.065  10.034 -0.2432  0.4647  0.7016
  476TMC3    C4 7081   3.086   1.031  10.308 -0.5576  0.3651 -0.4621
  476TMC3    C5 7082   3.190   1.010  10.214  0.6269  0.3457 -0.1374
  476TMC3    C6 7083   3.183   1.023  10.080 -0.0571 -0.1524  0.1478
  476TMC3     C 7084   2.845   1.055  10.326  0.3105 -0.5723  0.0397
  476TMC3     O 7085   2.739   1.082  10.272  0.8652 -0.0018 -0.0066
  476TMC3     H 7086   2.846   1.098  10.077 -0.3746 -0.6138  1.1599
  476TMC3    H1 7087   3.106   1.037  10.414 -0.3537 -0.0897 -0.4751
  476TMC3    H2 7088   3.264   0.989  10.017 -0.5059 -1.5898  0.3504
  476TMC3    C7 7089   3.326   1.026  10.261  0.2789  0.3235 -0.1300
  476TMC3    C8 7090   3.012   1.027   9.898  0.4644  0.0478  0.4832
  476TMC3    O1 7091   3.418   0.989  10.187  0.4555  0.0255 -0.0880
  476TMC3    O2 7092   2.895   1.043   9.868 -0.3161  0.4117 -0.2895
  477MPD2     C 7093   0.575   2.199  11.333 -0.6320 -0.0265  0.4338
  477MPD2    C1 7094   0.503   2.173  11.450 -0.2903 -0.0691 -0.7394
  477MPD2    C2 7095   0.566   2.117  11.559  0.4425 -0.2790  0.0114
  477MPD2    C3 7096   0.695   2.071  11.547 -0.1769 -0.0015 -0.1825
  477MPD2    C4 7097   0.763   2.093  11.434 -0.2628  0.3296 -0.4256
  477MPD2    C5 7098   0.708   2.166  11.330 -0.6420  0.2867  0.0230
  477MPD2     H 7099   0.519   2.092  11.653 -1.2166 -1.1692 -1.0449
  477MPD2    H1 7100   0.862   2.051  11.422 -0.4554  0.1354 -1.3008
  477MPD2    H2 7101   0.537   2.254  11.248  1.1888  0.3053 -0.1754
  477MPD2    H3 7102   0.775   2.171  11.244 -1.0765 -0.8399 -0.3793
  477MPD2     N 7103   0.746   2.005  11.662 -0.0438  0.1468  0.2575
  477MPD2    H5 7104   0.677   1.961  11.721  0.3280  1.4504  1.6646
  477MPD2    N1 7105   0.371   2.222  11.452  0.1598 -0.1069 -0.5934
  477MPD2    H7 7106   0.348   2.290  11.380  0.2202  0.8074  0.2499
  478TMC3    C1 7107   0.167   2.284  11.533  0.3747  0.1556  0.1609
  478TMC3    C2 7108   0.125   2.352  11.643  0.2487 -0.4541  0.2379
  478TMC3    C3 7109   0.066   2.475  11.622 -0.2475 -0.1112 -0.0861
  478TMC3    C4 7110   0.163   2.344  11.406  0.7042  0.3185  0.3980
  478TMC3    C5 7111   0.098   2.462  11.394 -0.3718  0.2346  0.1340
  478TMC3    C6 7112   0.056   2.540  11.501  0.2345  0.3175  0.7797
  478TMC3     C 7113   0.287   2.204  11.555 -0.1945 -0.3811 -0.8768
  478TMC3     O 7114   0.303   2.158  11.668  0.3411  0.3455  0.4336
  478TMC3     H 7115   0.105   2.301  11.737  0.8397 -0.5032  0.3370
  478TMC3    H1 7116   0.193   2.292  11.316  0.7328  0.7229  0.1729
  478TMC3    H2 7117   4.722   2.631  11.489 -0.4541 -0.2021  0.1261
  478TMC3    C7 7118   0.169   2.541  11.289  0.9196  0.1392 -0.0502
  478TMC3    C8 7119   0.030   2.553  11.747  0.9108 -0.0476  0.4049
  478TMC3    O1 7120   0.276   2.490  11.249  0.0991 -0.6921 -0.3765
  478TMC3    O2 7121   0.011   2.497  11.854  0.1930 -0.5911  0.0593
  479MPD2     C 7122   4.264   4.296  14.425 -0.0545 -0.2513  0.4536
  479MPD2    C1 7123   4.225   4.233  14.543  0.1788  0.1355  0.1856
  479MPD2    C2 7124   4.317   4.230  14.647 -0.3378 -0.3864  1.1174
  479MPD2    C3 7125   4.444   4.291  14.646 -0.0069 -0.1923  0.7307
  479MPD2    C4 7126   4.482   4.337  14.522  0.1994 -0.5194  0.4737
  479MPD2    C5 7127   4.398   4.331  14.417 -0.2887  0.4777 -1.0732
  479MPD2     H 7128   4.299   4.165  14.732 -2.4909  2.4137  2.7798
  479MPD2    H1 7129   4.568   4.402  14.511  0.7074 -1.0585  1.2617
  479MPD2    H2 7130   4.206   4.325  14.338  1.5351  0.2838 -0.4263
  479MPD2    H3 7131   4.433   4.376  14.325 -0.6524 -0.3954 -1.6427
  479MPD2     N 7132   4.528   4.313  14.760  0.0009 -0.1400  0.3350
  479MPD2    H5 7133   4.626   4.337  14.745  0.3424 -1.6502  0.1307
  479MPD2    N1 7134   4.092   4.195  14.555  0.3099  0.5237 -0.1334
  479MPD2    H7 7135   4.045   4.202  14.466  1.7377 -1.2133 -1.0149
  480TMC3    C1 7136   4.198   4.188  15.051 -0.7851  0.0814 -0.3146
  480TMC3    C2 7137   4.113   4.293  15.022  0.2840  0.5130  0.0788
  480TMC3    C3 7138   4.175   4.400  14.961 -0.1706  0.0925  0.7462
  480TMC3    C4 7139   4.334   4.182  15.018 -0.1800 -0.7015 -0.1319
  480TMC3    C5 7140   4.378   4.285  14.938  0.4764 -1.0138 -0.2780
  480TMC3    C6 7141   4.301   4.397  14.913 -0.5137 -0.1899 -0.0449
  480TMC3     C 7142   4.156   4.117  15.173  0.1558 -0.5570  0.4258
  480TMC3     O 7143   4.221   4.025  15.218 -0.4334 -0.3457  0.5273
  480TMC3     H 7144   4.007   4.287  15.039 -0.0031 -2.3448 -2.8093
  480TMC3    H1 7145   4.393   4.094  15.040 -0.5611 -0.2379  2.7571
  480TMC3    H2 7146   4.348   4.488  14.879  2.0016 -0.8878  1.5828
  480TMC3    C7 7147   4.507   4.268  14.882 -0.4690  0.3306  0.3425
  480TMC3    C8 7148   4.079   4.472  14.880 -0.0790  0.6678  0.5985
  480TMC3    O1 7149   4.590   4.246  14.969 -0.7246 -0.6439 -0.8270
  480TMC3    O2 7150   3.967   4.475  14.926 -0.4139  0.1256  0.2199
  481MPD2     C 7151   1.285   4.055  13.923 -0.3736 -0.4558 -0.3908
  481MPD2    C1 7152   1.151   4.049  13.960 -0.1717  0.6784 -0.1270
  481MPD2    C2 7153   1.122   3.996  14.088 -0.1452 -0.0053 -0.1339
  481MPD2    C3 7154   1.226   3.957  14.167  0.8564  0.7703  0.1468
  481MPD2    C4 7155   1.361   3.968  14.130 -0.4311 -0.3546 -0.6678
  481MPD2    C5 7156   1.384   4.020  14.006  0.3832  0.5309  0.1165
  481MPD2     H 7157   1.019   3.995  14.123  0.2715 -1.0729  1.0653
  481MPD2    H1 7158   1.438   3.947  14.204 -1.3894 -1.2807  0.0667
  481MPD2    H2 7159   1.307   4.107  13.830 -0.9892  2.9251  1.3443
  481MPD2    H3 7160   1.488   4.036  13.979  0.0667 -0.0492 -1.4546
  481MPD2     N 7161   1.209   3.911  14.303  0.2568  0.5993  0.5433
  481MPD2    H5 7162   1.290   3.923  14.363  0.8809 -0.9845  0.0275
  481MPD2    N1 7163   1.058   4.100  13.870 -0.2123 -0.2864 -0.8305
  481MPD2    H7 7164   1.105   4.107  13.781  1.0667  3.2976  0.1125
  482TMC3    C1 7165   0.844   4.132  13.762  0.4799 -0.4075  0.6365
  482TMC3    C2 7166   0.708   4.089  13.770  0.4375 -0.1014 -0.4855
  482TMC3    C3 7167   0.662   4.077  13.643  0.3213 -0.3973  0.1595
  482TMC3    C4 7168   0.913   4.165  13.649 -0.3054  0.0829 -0.1583
  482TMC3    C5 7169   0.855   4.147  13.530  0.0094 -0.0803 -0.4150
  482TMC3    C6 7170   0.728   4.101  13.520  0.7160 -0.3685  0.1713
  482TMC3     C 7171   0.921   4.103  13.888 -0.1149 -0.1371 -0.1247
  482TMC3     O 7172   0.864   4.097  13.995  0.4600 -0.7633 -0.4228
  482TMC3     H 7173   0.656   4.044  13.854 -1.4061  0.5481 -1.2708
  482TMC3    H1 7174   1.008   4.214  13.661 -1.4196  2.1912 -0.0145
  482TMC3    H2 7175   0.686   4.070  13.425 -2.1864  0.9500  1.0277
  482TMC3    C7 7176   0.941   4.115  13.417  0.4403 -0.1749 -0.6221
  482TMC3    C8 7177   0.566   3.970  13.633  0.1789 -0.5390  0.2367
  482TMC3    O1 7178   1.052   4.092  13.458 -0.2847  0.1117 -0.0976
  482TMC3    O2 7179   0.576   3.875  13.712 -0.1430  0.7611 -0.7456
  483TMC3    C1 7180   4.106   2.239   1.161 -0.3278 -0.4965  0.1155
  483TMC3    C2 7181   4.208   2.306   1.221  0.0612 -0.4074 -0.0946
  483TMC3    C3 7182   4.286   2.230   1.303 -0.3792  0.7554 -0.2138
  483TMC3    C4 7183   4.084   2.106   1.190 -0.3893  0.6527  0.1418
  483TMC3    C5 7184   4.161   2.037   1.280  0.1871  1.2514  0.5615
  483TMC3    C6 7185   4.271   2.102   1.338 -0.1135  0.0534  0.4596
  483TMC3     C 7186   4.095   2.287   1.028 -0.0420  0.1870 -0.1893
  483TMC3     O 7187   4.140   2.399   1.005 -0.2585  0.4607  0.0201
  483TMC3     H 7188   4.234   2.408   1.196 -0.9009  0.0560  0.8519
  483TMC3    H1 7189   3.981   2.076   1.170  0.1861 -0.4513 -1.1797
  483TMC3    H2 7190   4.328   2.052   1.417  0.6696  0.6513  0.2751
  483TMC3    C7 7191   4.202   1.915   1.233  0.2122 -0.2483 -0.2554
  483TMC3    C8 7192   4.426   2.259   1.284  0.6727  0.4545 -0.2049
  483TMC3    O1 7193   4.324   1.901   1.209  1.0434  0.6810 -0.7578
  483TMC3    O2 7194   4.452   2.377   1.266 -0.2829  0.3498  0.4427
  484MPD2     C 7195   1.527   1.331  12.468 -0.2980 -0.0342  1.3164
  484MPD2    C1 7196   1.496   1.203  12.428 -0.2272 -0.0475 -0.2987
  484MPD2    C2 7197   1.593   1.151  12.345  0.0131  0.4163 -0.2487
  484MPD2    C3 7198   1.714   1.219  12.307  0.3856 -0.1047 -0.2881
  484MPD2    C4 7199   1.737   1.347  12.351  0.2683 -0.1170 -0.4002
  484MPD2    C5 7200   1.638   1.402  12.422  0.7226  0.7186 -0.5529
  484MPD2     H 7201   1.572   1.055  12.298  0.9260 -0.4524  1.1114
  484MPD2    H1 7202   1.828   1.396  12.321  0.0661 -0.3698 -1.4309
  484MPD2    H2 7203   1.461   1.378  12.540 -0.8466  1.3971 -0.1246
  484MPD2    H3 7204   1.656   1.500  12.463 -2.1957  0.1056  2.2199
  484MPD2     N 7205   1.816   1.152  12.225 -0.6250  0.0846  0.7316
  484MPD2    H5 7206   1.903   1.203  12.211 -0.3553 -1.6487 -3.7519
  484MPD2    N1 7207   1.379   1.130  12.464  0.8025 -0.6676  0.7260
  484MPD2    H7 7208   1.363   1.042  12.415  0.8837 -0.0887 -0.3319
  485TMC3    C1 7209   1.912   0.973  12.110 -0.3755 -0.3184  0.3569
  485TMC3    C2 7210   1.903   0.836  12.118  0.3921  0.6150 -0.4094
  485TMC3    C3 7211   2.016   0.768  12.100 -0.4716 -0.1253  0.3049
  485TMC3    C4 7212   2.021   1.043  12.065 -0.2677  0.2155  0.2838
  485TMC3    C5 7213   2.131   0.968  12.048  0.4210 -0.1121 -0.7105
  485TMC3    C6 7214   2.129   0.832  12.073 -0.0838  0.1580 -0.3952
  485TMC3     C 7215   1.795   1.034  12.154  0.2137  0.1639 -0.5527
  485TMC3     O 7216   1.690   0.990  12.111  0.0200 -0.7222 -0.1257
  485TMC3     H 7217   1.817   0.778  12.149  1.0723 -0.2941 -0.2071
  485TMC3    H1 7218   2.018   1.149  12.042 -1.9013  0.4859  1.7393
  485TMC3    H2 7219   2.216   0.770  12.055 -0.7846 -1.0539  0.3711
  485TMC3    C7 7220   2.196   1.007  11.933 -0.4078  0.0519  0.4639
  485TMC3    C8 7221   1.997   0.651  12.010 -0.8959 -0.0141  0.1982
  485TMC3    O1 7222   2.228   1.125  11.921 -0.3182  0.6188 -0.9099
  485TMC3    O2 7223   2.080   0.645  11.920  0.0932  0.4404  0.3459
  486MPD2     C 7224   3.609   0.135  12.467 -0.0318 -0.3199 -0.1326
  486MPD2    C1 7225   3.502   0.155  12.381 -0.1224 -0.0933 -0.4600
  486MPD2    C2 7226   3.467   0.279  12.333 -0.3833  0.1774 -0.2426
  486MPD2    C3 7227   3.545   0.384  12.357 -0.5098  0.0078 -0.0564
  486MPD2    C4 7228   3.655   0.370  12.436  0.0946  1.1525  0.3765
  486MPD2    C5 7229   3.688   0.245  12.494  0.8111  0.3679 -0.7334
  486MPD2     H 7230   3.378   0.293  12.273  1.2828  0.7827 -2.5709
  486MPD2    H1 7231   3.712   0.457  12.464  3.4313 -0.7911 -0.3483
  486MPD2    H2 7232   3.622   0.037  12.512  3.7309  0.3140  0.1031
  486MPD2    H3 7233   3.763   0.247  12.572 -1.4544  0.4911  1.4635
  486MPD2     N 7234   3.510   0.511  12.289  0.3249  0.6531 -0.2429
  486MPD2    H5 7235   3.426   0.511  12.232  1.0499 -1.8556 -1.3133
  486MPD2    N1 7236   3.424   0.038  12.360  0.2317 -0.3986  0.3098
  486MPD2    H7 7237   3.459   4.672  12.392 -0.1568 -1.5811 -2.5569
  487TMC3    C1 7238   3.239   4.641  12.290 -0.1126 -0.0401  0.5882
  487TMC3    C2 7239   3.310   4.556  12.219  0.4827 -0.2392  0.1386
  487TMC3    C3 7240   3.245   4.455  12.163 -0.0390 -0.1853  0.0381
  487TMC3    C4 7241   3.101   4.632  12.301  0.1935 -0.1575  0.3305
  487TMC3    C5 7242   3.039   4.512  12.269  0.1547  0.5468  0.2847
  487TMC3    C6 7243   3.112   4.432  12.188  0.7044  0.7374 -0.2257
  487TMC3     C 7244   3.290   0.040  12.323 -0.5835  0.2899  0.2178
  487TMC3     O 7245   3.210   0.133  12.319  0.0927 -0.5683  0.1776
  487TMC3     H 7246   3.410   4.587  12.189 -0.3857  0.6070 -1.8608
  487TMC3    H1 7247   3.040   4.696  12.363  0.0826  1.8001 -1.7846
  487TMC3    H2 7248   3.063   4.381  12.106  1.6641 -0.9457  0.2638
  487TMC3    C7 7249   3.000   4.450  12.394 -0.4381 -0.4057 -0.0624
  487TMC3    C8 7250   3.313   4.386  12.056  0.0010  0.0226 -0.0431
  487TMC3    O1 7251   3.069   4.353  12.412 -0.8668 -0.4259 -0.5095
  487TMC3    O2 7252   3.276   4.424  11.945  0.3814  0.1993 -0.2289
  488MPD2     C 7253   4.052   1.099  16.012  0.4542 -0.7348  0.0461
  488MPD2    C1 7254   4.044   1.220  16.074 -0.3804 -0.0192  0.4052
  488MPD2    C2 7255   4.000   1.225  16.208 -0.2467 -0.4083 -0.3361
  488MPD2    C3 7256   3.981   1.116  16.285  0.7899  0.2044 -0.2301
  488MPD2    C4 7257   4.004   0.997  16.227 -0.0957 -0.3007  0.3606
  488MPD2    C5 7258   4.026   0.990  16.093  0.2960  0.2778 -0.2176
  488MPD2     H 7259   3.973   1.320  16.252  4.1938  0.2933  0.8431
  488MPD2    H1 7260   3.995   0.903  16.280  1.0046 -0.6731 -0.1070
  488MPD2    H2 7261   4.090   1.089  15.911  1.5922  2.1433  0.1990
  488MPD2    H3 7262   4.026   0.892  16.047  0.5376 -0.5219  1.4864
  488MPD2     N 7263   3.937   1.126  16.419 -0.3904  0.4382 -0.2369
  488MPD2    H5 7264   3.942   1.219  16.460 -0.1846  0.7046 -0.8646
  488MPD2    N1 7265   4.072   1.340  16.003 -0.3761  0.7541  0.3440
  488MPD2    H7 7266   4.064   1.426  16.056 -0.3975  0.4606  0.8152
  489TMC3    C1 7267   3.881   1.064  16.635 -0.1520  0.1884 -0.0637
  489TMC3    C2 7268   3.962   1.166  16.682 -0.3905 -0.2737  0.0662
  489TMC3    C3 7269   3.968   1.191  16.814 -0.2666 -0.2880  0.0734
  489TMC3    C4 7270   3.816   0.983  16.723  0.4209 -0.1632 -0.1643
  489TMC3    C5 7271   3.828   1.013  16.856 -0.3423 -0.2616  0.0830
  489TMC3    C6 7272   3.905   1.113  16.905 -0.1561 -0.1533 -0.8230
  489TMC3     C 7273   3.900   1.025  16.498  0.6746  0.5373  0.0436
  489TMC3     O 7274   3.864   0.910  16.475 -0.4746 -0.4468  0.0752
  489TMC3     H 7275   4.018   1.227  16.612 -1.1700  0.6066  0.2110
  489TMC3    H1 7276   3.758   0.898  16.688  0.5044 -0.2402 -0.1143
  489TMC3    H2 7277   3.903   1.125  17.012  1.9823  0.1929 -0.8305
  489TMC3    C7 7278   3.809   0.910  16.965 -0.8931 -0.1977  0.3698
  489TMC3    C8 7279   3.997   1.325  16.855 -1.5331 -0.5653 -0.7311
  489TMC3    O1 7280   3.814   0.943  17.084 -0.2779 -0.3743  0.2486
  489TMC3    O2 7281   4.075   1.376  16.770  0.0556  1.0619 -0.5958
  490MPD2     C 7282   0.360   0.590  16.935 -0.2469 -0.3560 -0.1407
  490MPD2    C1 7283   0.314   0.569  17.067  0.4381 -0.5238  0.3697
  490MPD2    C2 7284   0.401   0.513  17.161  0.8666  0.4956 -0.0882
  490MPD2    C3 7285   0.539   0.496  17.132  0.6034  0.6102  0.0304
  490MPD2    C4 7286   0.578   0.507  16.999 -0.6614 -0.2261 -0.1274
  490MPD2    C5 7287   0.486   0.547  16.895 -0.6740  0.2965  0.1562
  490MPD2     H 7288   0.356   0.494  17.258 -1.2510  3.0080 -0.5943
  490MPD2    H1 7289   0.683   0.488  16.981 -0.6080 -0.4989  0.4934
  490MPD2    H2 7290   0.302   0.623  16.850  2.4831  0.0936 -1.7862
  490MPD2    H3 7291   0.512   0.576  16.793  2.3262  1.9746  1.3814
  490MPD2     N 7292   0.640   0.467  17.228 -0.1968 -0.5634  0.4312
  490MPD2    H5 7293   0.727   0.448  17.181 -0.3673  2.1713 -0.9833
  490MPD2    N1 7294   0.182   0.594  17.102  0.0786 -0.1689  0.3897
  490MPD2    H7 7295   0.147   0.566  17.193 -0.0997  0.7654  0.6146
  491TMC3    C1 7296   4.684   0.607  17.076 -0.3136  0.8160  0.5002
  491TMC3    C2 7297   4.664   0.627  17.212 -0.1634 -0.0534  0.3987
  491TMC3    C3 7298   4.533   0.614  17.252  0.4285 -0.0379 -0.0975
  491TMC3    C4 7299   4.579   0.564  16.998 -0.0313 -0.2930 -0.2932
  491TMC3    C5 7300   4.454   0.540  17.048  0.3553  0.2765 -0.3129
  491TMC3    C6 7301   4.426   0.571  17.181  0.0670  0.0389  0.0613
  491TMC3     C 7302   0.088   0.640  17.013  0.7722  0.8068 -0.3905
  491TMC3     O 7303   0.095   0.667  16.898 -0.0668  0.4999  0.0650
  491TMC3     H 7304   0.015   0.670  17.277  3.9790 -0.4450 -4.0897
  491TMC3    H1 7305   4.602   0.537  16.896  0.4871  0.8135 -0.4599
  491TMC3    H2 7306   4.330   0.547  17.224 -0.1236  0.0360 -0.3685
  491TMC3    C7 7307   4.375   0.442  16.983 -0.1576 -0.4566 -0.7150
  491TMC3    C8 7308   4.498   0.623  17.398  0.9483  0.3593  0.1558
  491TMC3    O1 7309   4.302   0.371  17.052 -0.3248 -0.5537  0.1687
  491TMC3    O2 7310   4.381   0.640  17.431 -0.3564  0.1016  0.8043
  492MPD2     C 7311   0.280   1.162  11.200 -0.6036 -0.2176  0.3977
  492MPD2    C1 7312   0.196   1.077  11.134 -0.2991 -0.1444 -0.4396
  492MPD2    C2 7313   0.092   1.014  11.197  0.0182  0.3971  0.3511
  492MPD2    C3 7314   0.068   1.043  11.325  0.2078 -0.2239 -0.4728
  492MPD2    C4 7315   0.145   1.136  11.388 -0.1568  0.2851 -0.0269
  492MPD2    C5 7316   0.252   1.190  11.327  0.6942 -0.7570 -0.1872
  492MPD2     H 7317   0.037   0.938  11.143  0.2071  0.7384 -0.3186
  492MPD2    H1 7318   0.128   1.176  11.487 -0.4809 -0.5187  0.2418
  492MPD2    H2 7319   0.376   1.193  11.160 -1.7494 -0.4709 -2.5349
  492MPD2    H3 7320   0.318   1.261  11.376 -0.8638  0.0242  0.7751
  492MPD2     N 7321   4.677   0.985  11.392  0.0978 -0.3395 -0.6118
  492MPD2    H5 7322   4.654   1.015  11.486  4.8586 -1.1261  0.7863
  492MPD2    N1 7323   0.237   1.049  11.001  0.0310  0.5253 -0.3887
  492MPD2    H7 7324   0.319   1.103  10.974  0.1017  1.8274  2.4528
  493TMC3    C1 7325   0.250   0.963  10.791  0.8059  0.1218  0.4509
  493TMC3    C2 7326   0.387   0.984  10.800  0.1553 -0.0607  0.2242
  493TMC3    C3 7327   0.453   1.022  10.685 -0.0189 -0.5892  0.0437
  493TMC3    C4 7328   0.184   0.965  10.678  0.1665  0.6019 -0.2096
  493TMC3    C5 7329   0.257   0.993  10.564  0.2189 -0.0606  0.0917
  493TMC3    C6 7330   0.390   1.032  10.565  0.2542 -0.9297  0.3742
  493TMC3     C 7331   0.175   0.965  10.910  0.6439 -0.0934  0.0744
  493TMC3     O 7332   0.073   0.904  10.912  0.4251 -0.5972  0.9534
  493TMC3     H 7333   0.437   0.957  10.893 -1.7713  2.4874  1.9945
  493TMC3    H1 7334   0.077   0.954  10.681  0.2492 -0.5399 -1.3867
  493TMC3    H2 7335   0.446   1.038  10.473  0.4378 -0.4514  0.5137
  493TMC3    C7 7336   0.175   1.020  10.444  0.2361  0.1058 -1.0309
  493TMC3    C8 7337   0.583   1.084  10.699  0.0383  0.4318  0.4037
  493TMC3    O1 7338   0.075   0.956  10.447 -0.2076  0.5222  0.4653
  493TMC3    O2 7339   0.635   1.049  10.804 -0.0447 -0.3993 -0.8985
  494TMC3    C1 7340   0.729   2.671   0.229 -0.6406 -0.2402 -0.1758
  494TMC3    C2 7341   0.728   2.537   0.224 -0.4559  0.7343 -0.0542
  494TMC3    C3 7342   0.735   2.473   0.099  0.0548 -0.4561 -0.9144
  494TMC3    C4 7343   0.722   2.743   0.110  0.6068 -0.0201 -0.4590
  494TMC3    C5 7344   0.735   2.681  17.681  0.0358  0.5932 -0.0036
  494TMC3    C6 7345   0.743   2.544  17.673  0.4698 -0.3418 -0.3915
  494TMC3     C 7346   0.741   2.742   0.354 -0.0850  0.1163  1.2927
  494TMC3     O 7347   0.691   2.678   0.446 -0.1438 -0.3622 -0.4377
  494TMC3     H 7348   0.738   2.475   0.312 -1.3174 -0.6490 -0.9290
  494TMC3    H1 7349   0.721   2.851   0.106 -1.2696 -0.0153 -0.0452
  494TMC3    H2 7350   0.777   2.490  17.586  0.0648 -0.3137 -0.5663
  494TMC3    C7 7351   0.728   2.748  17.549  0.1234  0.7273 -0.0192
  494TMC3    C8 7352   0.756   2.325   0.106  0.0510 -0.8639  0.1753
  494TMC3    O1 7353   0.735   2.673  17.455 -0.1084  0.7523 -0.7130
  494TMC3    O2 7354   0.807   2.277   0.205 -0.0081 -0.3185 -0.1173
  495TMC3    C1 7355   4.401   4.575  13.964  0.7980 -0.7206 -0.0298
  495TMC3    C2 7356   4.312   4.619  13.867  0.4307 -0.3563  0.2546
  495TMC3    C3 7357   4.202   4.691  13.911  0.1049 -0.0591  0.4247
  495TMC3    C4 7358   4.392   4.624  14.094  0.6589  0.1377  0.0561
  495TMC3    C5 7359   4.274   4.681  14.132 -0.0885 -0.2506  0.6746
  495TMC3    C6 7360   4.172   4.719  14.047 -0.0149 -0.3995  0.4921
  495TMC3     C 7361   4.424   4.437  13.983 -1.0091 -0.4373  0.4254
  495TMC3     O 7362   4.486   4.404  14.081 -0.1191 -0.2402 -0.4510
  495TMC3     H 7363   4.325   4.585  13.765 -1.7612 -1.1040  0.2215
  495TMC3    H1 7364   4.467   4.607  14.170  0.1657 -1.3678  0.1984
  495TMC3    H2 7365   4.090   0.058  14.080  0.4250 -0.7169  2.1812
  495TMC3    C7 7366   4.234   4.662  14.270  0.1882  0.3083 -0.0605
  495TMC3    C8 7367   4.087   0.009  13.822 -0.1128 -0.0659 -0.9083
  495TMC3    O1 7368   4.329   4.624  14.337 -0.0675  0.1591  0.5726
  495TMC3    O2 7369   3.986   0.040  13.882  0.6320 -0.0398  0.2907
  496MPD2     C 7370   1.801   0.390  15.404 -0.3353 -0.0601  0.1230
  496MPD2    C1 7371   1.681   0.321  15.402  0.4346  0.5628 -0.0624
  496MPD2    C2 7372   1.606   0.309  15.512  0.1452  0.5410 -1.1898
  496MPD2    C3 7373   1.652   0.353  15.636  0.1271  0.2174  0.5444
  496MPD2    C4 7374   1.769   0.419  15.642  0.1564 -0.0627 -0.3611
  496MPD2    C5 7375   1.831   0.454  15.528  0.4270  0.1385  0.5379
  496MPD2     H 7376   1.517   0.247  15.512  0.0341  0.6945  1.7002
  496MPD2    H1 7377   1.815   0.459  15.731  2.1645 -0.6229 -1.1393
  496MPD2    H2 7378   1.870   0.403  15.321 -0.9667 -1.9362 -0.7034
  496MPD2    H3 7379   1.922   0.512  15.535 -1.1751  2.1090  4.7452
  496MPD2     N 7380   1.565   0.330  15.748 -0.2920 -0.4720 -1.1264
  496MPD2    H5 7381   1.476   0.288  15.722 -1.4725  2.0413 -1.0897
  496MPD2    N1 7382   1.639   0.259  15.280  0.6571  0.2790  0.2957
  496MPD2    H7 7383   1.690   0.274  15.193 -1.1479 -0.9667 -0.9778
  497TMC3    C1 7384   1.498   0.331  15.972 -0.1055 -0.1443 -0.2810
  497TMC3    C2 7385   1.374   0.320  15.923  0.0261 -0.0070 -0.6823
  497TMC3    C3 7386   1.280   0.256  16.000 -0.1055  0.0323 -0.4168
  497TMC3    C4 7387   1.532   0.270  16.094  0.3517  0.2430  0.6870
  497TMC3    C5 7388   1.438   0.200  16.164 -0.0764 -0.5045  0.0026
  497TMC3    C6 7389   1.309   0.204  16.125  0.8564  0.8481  1.1194
  497TMC3     C 7390   1.604   0.352  15.880  0.1133 -0.1953 -0.5044
  497TMC3     O 7391   1.698   0.405  15.930 -0.5129 -0.2484  0.1538
  497TMC3     H 7392   1.357   0.370  15.828  2.5108  0.1810 -1.0306
  497TMC3    H1 7393   1.638   0.256  16.113  0.5515  2.2363  1.0690
  497TMC3    H2 7394   1.243   0.140  16.183  0.6984  1.1823  1.3046
  497TMC3    C7 7395   1.472   0.114  16.277  0.0104  0.2739 -0.3846
  497TMC3    C8 7396   1.137   0.280  15.973  0.4160  0.1991  0.0657
  497TMC3    O1 7397   1.395   0.025  16.305  0.2187 -0.3776 -0.1887
  497TMC3    O2 7398   1.059   0.240  16.058  0.0103  0.3314  0.2570
  498MPD2     C 7399   3.466   0.818   8.770  0.1590  0.1414 -0.2919
  498MPD2    C1 7400   3.406   0.817   8.896 -0.3431 -0.0160  0.1823
  498MPD2    C2 7401   3.320   0.711   8.922 -0.8105  0.7379 -0.0089
  498MPD2    C3 7402   3.301   0.607   8.833 -0.2027 -0.2340  0.8978
  498MPD2    C4 7403   3.356   0.618   8.706  0.9263  0.2190  0.0123
  498MPD2    C5 7404   3.435   0.726   8.678  0.8368 -0.1529 -0.0189
  498MPD2     H 7405   3.272   0.700   9.019  0.4062  0.8982  0.6113
  498MPD2    H1 7406   3.332   0.544   8.630  1.0915 -0.5362  0.6992
  498MPD2    H2 7407   3.539   0.894   8.745  0.5120 -1.1136 -3.0620
  498MPD2    H3 7408   3.487   0.756   8.588  1.6607  0.5617  0.6904
  498MPD2     N 7409   3.230   0.491   8.874 -0.2100  0.3970 -0.7310
  498MPD2    H5 7410   3.183   0.499   8.964 -1.0652 -1.6626 -0.9990
  498MPD2    N1 7411   3.410   0.923   8.989  0.9740  0.0531 -0.6460
  498MPD2    H7 7412   3.372   0.901   9.081  0.2711 -2.5332 -1.5790
  499TMC3    C1 7413   3.457   1.131   9.085  0.0854 -0.3123  1.0115
  499TMC3    C2 7414   3.380   1.097   9.196  0.3720  0.0371  0.3025
  499TMC3    C3 7415   3.389   1.175   9.303  0.0266 -0.8040  0.1301
  499TMC3    C4 7416   3.551   1.224   9.101  0.0205 -0.5149 -0.1037
  499TMC3    C5 7417   3.565   1.292   9.222 -0.2465  0.2597  0.2362
  499TMC3    C6 7418   3.483   1.269   9.321 -0.4496 -0.0305 -0.5309
  499TMC3     C 7419   3.473   1.047   8.971  0.0156 -0.3388  0.0351
  499TMC3     O 7420   3.537   1.085   8.874 -0.6758 -0.1673 -0.3497
  499TMC3     H 7421   3.302   1.023   9.184  1.7367 -1.1873 -0.9570
  499TMC3    H1 7422   3.625   1.243   9.024  0.3911 -1.1910  0.0805
  499TMC3    H2 7423   3.490   1.343   9.399 -1.8130 -0.5521  0.0735
  499TMC3    C7 7424   3.637   1.421   9.219 -0.8942  0.1370  0.4608
  499TMC3    C8 7425   3.274   1.179   9.386  0.0246 -0.5685 -0.3634
  499TMC3    O1 7426   3.590   1.521   9.274  0.2930  0.7080 -0.6441
  499TMC3    O2 7427   3.166   1.169   9.328  0.4828 -0.4896  0.0767
  500MPD2     C 7428   4.369   2.303  10.788  0.8947  0.6761  0.1515
  500MPD2    C1 7429   4.430   2.349  10.672  0.0180 -0.4164 -0.2417
  500MPD2    C2 7430   4.352   2.416  10.579 -0.6688 -0.2348  0.6374
  500MPD2    C3 7431   4.212   2.425  10.594 -0.3384  0.1866  0.1594
  500MPD2    C4 7432   4.153   2.367  10.705  0.6576 -0.0158  1.2175
  500MPD2    C5 7433   4.231   2.307  10.807 -0.3813  0.6184  0.6665
  500MPD2     H 7434   4.391   2.441  10.481  0.9994 -0.8219  1.1463
  500MPD2    H1 7435   4.046   2.381  10.714  0.5165  1.3832 -2.6948
  500MPD2    H2 7436   4.429   2.260  10.868 -1.6321 -1.5231  0.8821
  500MPD2    H3 7437   4.188   2.266  10.897 -1.5918 -3.0907 -1.5530
  500MPD2     N 7438   4.128   2.484  10.497  0.7975 -0.0846  0.2270
  500MPD2    H5 7439   4.038   2.437  10.492  0.2254  1.1515 -1.2083
  500MPD2    N1 7440   4.571   2.354  10.646  0.4439 -0.1834 -0.4100
  500MPD2    H7 7441   4.604   2.394  10.559  0.2325 -0.8378 -0.7895
  501TMC3    C1 7442   0.073   2.359  10.694 -0.1912 -0.1249  0.9848
  501TMC3    C2 7443   0.089   2.460  10.603 -0.5823  0.2516 -0.3021
  501TMC3    C3 7444   0.209   2.506  10.583  0.4443  0.2325  0.1210
  501TMC3    C4 7445   0.178   2.308  10.771 -0.5250  0.0011  0.8640
  501TMC3    C5 7446   0.302   2.358  10.743 -0.3024 -0.3463  0.2680
  501TMC3    C6 7447   0.316   2.462  10.656  0.2861 -0.5954  0.7432
  501TMC3     C 7448   4.664   2.324  10.740  0.2805 -0.0389 -0.6251
  501TMC3     O 7449   4.654   2.288  10.856 -0.2166  0.5853  0.2023
  501TMC3     H 7450   0.003   2.488  10.543  0.0364  0.3364 -1.1576
  501TMC3    H1 7451   0.168   2.232  10.849  0.1146  0.8579  1.7739
  501TMC3    H2 7452   0.412   2.510  10.642  0.0973 -0.5081 -0.2463
  501TMC3    C7 7453   0.397   2.247  10.730  0.0015 -0.6818  0.4331
  501TMC3    C8 7454   0.214   2.627  10.503 -0.2145  0.7388  0.1255
  501TMC3    O1 7455   0.370   2.149  10.802  0.0549 -0.1464 -0.0687
  501TMC3    O2 7456   0.297   2.703  10.542  0.0436  0.6225 -0.1685
  502TMC3    C1 7457   3.717   0.439  15.268 -0.3872  0.7735 -0.3165
  502TMC3    C2 7458   3.743   0.493  15.145  0.0511 -0.1452 -0.1294
  502TMC3    C3 7459   3.626   0.533  15.078 -0.1851 -0.2516 -0.8226
  502TMC3    C4 7460   3.592   0.420  15.324 -0.0195 -0.5668  0.6836
  502TMC3    C5 7461   3.488   0.471  15.257 -0.0708  0.7991  0.1146
  502TMC3    C6 7462   3.500   0.531  15.135  0.7426 -0.2266 -0.3251
  502TMC3     C 7463   3.835   0.374  15.329  0.0408  0.6491  0.1775
  502TMC3     O 7464   3.949   0.407  15.307  0.1510  0.5680 -0.1161
  502TMC3     H 7465   3.840   0.509  15.100  0.2301 -1.5192 -0.2195
  502TMC3    H1 7466   3.571   0.387  15.424 -0.0314 -1.7026  0.2983
  502TMC3    H2 7467   3.410   0.550  15.077  1.5587  0.0911 -1.4890
  502TMC3    C7 7468   3.359   0.412  15.301  0.0137  0.1957  0.0293
  502TMC3    C8 7469   3.642   0.583  14.941  0.4355 -0.6784  0.2367
  502TMC3    O1 7470   3.356   0.327  15.391 -0.2366 -0.2990  0.5873
  502TMC3    O2 7471   3.562   0.669  14.909  0.8741  0.3529 -0.1591
  503MPD2     C 7472   0.647   1.006  16.827 -0.4716 -1.0513  0.4648
  503MPD2    C1 7473   0.760   1.061  16.779 -0.2376  0.0911  0.4837
  503MPD2    C2 7474   0.874   0.979  16.745  0.0304 -0.3969 -0.1837
  503MPD2    C3 7475   0.861   0.842  16.741  0.0670  0.0867 -0.2367
  503MPD2    C4 7476   0.739   0.789  16.785 -0.5620  0.5501  0.4514
  503MPD2    C5 7477   0.644   0.869  16.836 -0.5831  0.6373 -0.3329
  503MPD2     H 7478   0.971   1.022  16.720  0.1578  0.4822  1.8663
  503MPD2    H1 7479   0.738   0.681  16.780 -1.0327  0.5314  0.9396
  503MPD2    H2 7480   0.564   1.065  16.863 -1.3716 -2.5092  0.7849
  503MPD2    H3 7481   0.551   0.822  16.867  0.7751 -2.4117 -0.9041
  503MPD2     N 7482   0.973   0.765  16.695  0.6546  0.4952  0.6450
  503MPD2    H5 7483   1.065   0.807  16.691  0.5482  0.6619  0.0069
  503MPD2    N1 7484   0.767   1.199  16.795  0.3128  0.0721  0.0780
  503MPD2    H7 7485   0.680   1.232  16.837  0.4056 -1.1771  1.2443
  504TMC3    C1 7486   1.110   0.577  16.676  0.6036  0.5015  0.5347
  504TMC3    C2 7487   1.136   0.502  16.788  0.4972 -0.5870 -0.0717
  504TMC3    C3 7488   1.257   0.504  16.853 -0.0104  0.1530 -0.2846
  504TMC3    C4 7489   1.214   0.663  16.634  0.0438  0.1588 -0.3488
  504TMC3    C5 7490   1.339   0.652  16.696 -0.1410 -0.2849  0.3681
  504TMC3    C6 7491   1.363   0.572  16.806  0.3489 -0.3199 -0.4615
  504TMC3     C 7492   0.973   0.627  16.676  0.7254  0.2072 -0.4153
  504TMC3     O 7493   0.891   0.540  16.685 -0.4197 -0.4465  0.2329
  504TMC3     H 7494   1.052   0.455  16.839 -0.2250  0.0999 -0.6164
  504TMC3    H1 7495   1.202   0.733  16.552  0.9733 -0.0518 -0.6629
  504TMC3    H2 7496   1.461   0.566  16.853  0.0301 -0.9008  0.1196
  504TMC3    C7 7497   1.451   0.708  16.626  0.0074 -0.2483  0.2697
  504TMC3    C8 7498   1.272   0.434  16.976  0.0665  0.7014 -0.3061
  504TMC3    O1 7499   1.441   0.725  16.506  0.4810  0.4048  0.4102
  504TMC3    O2 7500   1.172   0.371  17.011 -0.3768  0.4158 -0.1657
  505MPD2     C 7501   2.086   4.695   8.969 -0.9351 -0.3292  0.0053
  505MPD2    C1 7502   2.122   4.600   9.068 -0.1336 -0.0327  0.2156
  505MPD2    C2 7503   2.167   4.650   9.191  0.0467 -0.4718 -0.0476
  505MPD2    C3 7504   2.142   0.060   9.230 -0.3329 -0.0673 -0.2611
  505MPD2    C4 7505   2.101   0.148   9.128 -0.5455 -0.8360  0.6295
  505MPD2    C5 7506   2.071   0.100   9.005 -0.4838 -0.0148 -0.2962
  505MPD2     H 7507   2.217   4.592   9.267 -0.5361 -0.4614  0.3454
  505MPD2    H1 7508   2.081   0.252   9.152  0.7217 -0.3866 -0.2439
  505MPD2    H2 7509   2.079   4.661   8.866 -1.8526 -2.8344  0.9095
  505MPD2    H3 7510   2.061   0.178   8.930 -1.1644  0.4177  0.2475
  505MPD2     N 7511   2.141   0.114   9.362  0.1584  0.2196 -0.4941
  505MPD2    H5 7512   2.132   0.214   9.377 -2.3860  0.0945 -1.2255
  505MPD2    N1 7513   2.150   4.462   9.033 -0.0472  0.1740 -0.7135
  505MPD2    H7 7514   2.142   4.430   8.937 -2.3626 -1.2440 -0.0484
  506TMC3    C1 7515   2.207   4.230   9.055  0.1770 -0.0027  0.4204
  506TMC3    C2 7516   2.306   4.245   8.961 -0.7050 -0.0439  0.0731
  506TMC3    C3 7517   2.429   4.181   8.990  0.2205 -0.0938 -0.6926
  506TMC3    C4 7518   2.214   4.142   9.162 -0.2816 -0.2800 -0.4090
  506TMC3    C5 7519   2.335   4.084   9.181  0.4306  0.1754 -0.0499
  506TMC3    C6 7520   2.441   4.107   9.101 -0.0888 -0.4947  0.7795
  506TMC3     C 7521   2.183   4.355   9.120  0.6336 -0.1047  0.5206
  506TMC3     O 7522   2.190   4.361   9.241 -0.2142 -0.0040 -0.6972
  506TMC3     H 7523   2.311   4.336   8.901 -0.0534 -0.9241 -1.2061
  506TMC3    H1 7524   2.132   4.135   9.233 -0.1237  0.0095 -0.1972
  506TMC3    H2 7525   2.539   4.081   9.141  1.2382 -0.3322 -2.3449
  506TMC3    C7 7526   2.375   4.070   9.320  0.3386 -0.6416 -0.0131
  506TMC3    C8 7527   2.542   4.240   8.927  0.5247 -1.0141  0.1536
  506TMC3    O1 7528   2.431   3.969   9.358  0.8904  0.2972  0.3614
  506TMC3    O2 7529   2.527   4.331   8.850  0.4518 -0.0462  0.3678
  507TMC3    C1 7530   1.979   0.752  14.285  0.0860  0.1161 -0.1726
  507TMC3    C2 7531   2.016   0.694  14.168 -0.6126 -0.2232  0.7370
  507TMC3    C3 7532   2.139   0.725  14.110 -0.9057 -0.5737 -0.6900
  507TMC3    C4 7533   2.061   0.845  14.343 -0.6604 -0.5870 -0.0169
  507TMC3    C5 7534   2.166   0.888  14.269  0.1891  0.3834 -0.6160
  507TMC3    C6 7535   2.212   0.824  14.168  0.3164  0.4119  0.1711
  507TMC3     C 7536   1.835   0.786  14.293 -0.2972  0.5309  0.3049
  507TMC3     O 7537   1.809   0.899  14.345  0.4178 -0.2691  0.5067
  507TMC3     H 7538   1.956   0.610  14.133 -0.2320 -1.0023  1.9741
  507TMC3    H1 7539   2.025   0.887  14.436 -1.8869 -3.0342  0.6028
  507TMC3    H2 7540   2.300   0.868  14.122  0.4622  1.5417  1.5423
  507TMC3    C7 7541   2.155   1.035  14.242  0.5160  0.0757 -0.5687
  507TMC3    C8 7542   2.122   0.726  13.968 -0.8043  0.2556 -0.3796
  507TMC3    O1 7543   2.191   1.066  14.130  1.0246  0.1364  0.2746
  507TMC3    O2 7544   2.052   0.632  13.926 -0.2142  0.1561  0.1746
  508MPD2     C 7545   2.557   3.119  15.948 -0.5715  0.1961  0.2652
  508MPD2    C1 7546   2.660   3.202  15.911  0.4804  0.1072 -0.7558
  508MPD2    C2 7547   2.654   3.272  15.790 -0.4302 -0.9342  0.0896
  508MPD2    C3 7548   2.557   3.256  15.698 -0.4221  0.3517  0.5915
  508MPD2    C4 7549   2.457   3.166  15.729 -0.6145 -0.0084 -0.9718
  508MPD2    C5 7550   2.454   3.105  15.855  0.1739  0.0432 -0.4395
  508MPD2     H 7551   2.737   3.332  15.756 -1.1468  0.7196  1.2585
  508MPD2    H1 7552   2.370   3.143  15.667 -0.3152 -1.2343 -0.9434
  508MPD2    H2 7553   2.566   3.055  16.035 -0.4147  2.1875  1.7223
  508MPD2    H3 7554   2.378   3.036  15.889  1.6296 -1.2189  0.2472
  508MPD2     N 7555   2.577   3.315  15.573 -0.0134  0.0304  0.5046
  508MPD2    H5 7556   2.671   3.346  15.550 -0.3656  0.3383 -0.5617
  508MPD2    N1 7557   2.768   3.222  16.003 -0.4963  0.1717 -1.0795
  508MPD2    H7 7558   2.780   3.159  16.081 -0.7779 -1.1770 -2.1315
  509TMC3    C1 7559   2.479   3.498  15.144  0.9897  0.1975  0.5389
  509TMC3    C2 7560   2.611   3.484  15.104 -0.2211  0.7213 -0.3785
  509TMC3    C3 7561   2.695   3.427  15.200 -0.5198  0.0851 -0.3035
  509TMC3    C4 7562   2.442   3.450  15.270  0.1121 -0.7175 -0.4460
  509TMC3    C5 7563   2.530   3.388  15.356 -0.0677 -0.7956 -0.1159
  509TMC3    C6 7564   2.660   3.375  15.321 -0.9681 -0.4487  0.0538
  509TMC3     C 7565   2.379   3.574  15.065 -1.0630 -0.2712  0.2320
  509TMC3     O 7566   2.267   3.563  15.103  0.1681 -0.7971  0.0929
  509TMC3     H 7567   2.658   3.500  15.007  0.4241  1.6855  0.0977
  509TMC3    H1 7568   2.340   3.462  15.304  0.4474 -0.6547  0.5271
  509TMC3    H2 7569   2.719   3.304  15.379 -1.2649  0.6171  1.6477
  509TMC3    C7 7570   2.481   3.328  15.478  0.4654  0.1237 -0.2305
  509TMC3    C8 7571   2.840   3.434  15.185  0.0941 -0.1914 -0.2358
  509TMC3    O1 7572   2.361   3.309  15.483  0.7027 -0.6134  0.8347
  509TMC3    O2 7573   2.915   3.347  15.224  0.7961  0.3720  0.8919
  510MPD2     C 7574   0.329   0.287  14.265  0.4558 -0.7268 -0.1993
  510MPD2    C1 7575   0.438   0.231  14.335  0.5716  0.0463 -0.3741
  510MPD2    C2 7576   0.556   0.277  14.288  0.4131 -0.5558  0.1318
  510MPD2    C3 7577   0.563   0.343  14.166 -0.2082  0.4076  0.3795
  510MPD2    C4 7578   0.457   0.373  14.080  0.0791 -0.4992  0.2212
  510MPD2    C5 7579   0.336   0.349  14.141 -0.0906  0.0610 -0.6053
  510MPD2     H 7580   0.649   0.252  14.338 -0.0849 -0.2148  1.2068
  510MPD2    H1 7581   0.458   0.405  13.976  0.2780 -0.2291  0.3066
  510MPD2    H2 7582   0.230   0.253  14.293  0.1361  0.2429 -0.1576
  510MPD2    H3 7583   0.245   0.361  14.084  0.2297 -2.1269 -1.5984
  510MPD2     N 7584   0.694   0.370  14.114  0.7535 -0.3785  0.2267
  510MPD2    H5 7585   0.773   0.337  14.168 -0.6193 -0.6614  2.0521
  510MPD2    N1 7586   0.410   0.136  14.438  0.2799  0.0677  0.4201
  510MPD2    H7 7587   0.312   0.113  14.452  0.0869  0.3571 -0.4959
  511TMC3    C1 7588   0.454   4.716  14.614 -0.3794  0.0114 -0.0206
  511TMC3    C2 7589   0.369   0.052  14.701 -0.8621 -0.1632 -0.4314
  511TMC3    C3 7590   0.356   4.712  14.823  0.7834  0.0879  0.7230
  511TMC3    C4 7591   0.525   4.609  14.633  0.2603  0.1774 -0.1553
  511TMC3    C5 7592   0.506   4.544  14.752 -0.8236 -1.1213 -0.0334
  511TMC3    C6 7593   0.418   4.593  14.843  0.0119  0.1778  0.1537
  511TMC3     C 7594   0.505   0.069  14.505  0.3062  0.6082 -0.6547
  511TMC3     O 7595   0.626   0.061  14.480  0.3528 -0.5866 -0.0945
  511TMC3     H 7596   0.305   0.137  14.681  1.5667  1.6952 -0.2732
  511TMC3    H1 7597   0.598   4.574  14.560  0.5489  3.7415 -1.5903
  511TMC3    H2 7598   0.429   4.557  14.945 -1.4555  0.8389  0.5484
  511TMC3    C7 7599   0.547   4.410  14.755  0.4324 -0.4432 -0.7633
  511TMC3    C8 7600   0.299   0.064  14.936  0.1022 -0.0086 -0.2438
  511TMC3    O1 7601   0.646   4.384  14.684  0.2398 -0.3964  0.6752
  511TMC3    O2 7602   0.296   0.182  14.926 -1.0593 -0.0612  0.2957
  512TMC3    C1 7603   3.956   4.265  12.582  0.6409  0.2474  0.1635
  512TMC3    C2 7604   4.070   4.304  12.643  0.7704 -0.0062 -0.1467
  512TMC3    C3 7605   4.166   4.211  12.665 -0.3518  0.3333 -0.3050
  512TMC3    C4 7606   3.929   4.135  12.551  0.6297  0.7092  0.0377
  512TMC3    C5 7607   4.028   4.046  12.569  0.5929  0.1070 -0.1368
  512TMC3    C6 7608   4.143   4.080  12.629  0.1299  0.1819  0.5011
  512TMC3     C 7609   3.889   4.369  12.516  0.5175 -0.2439 -0.1906
  512TMC3     O 7610   3.897   4.482  12.566 -0.1764  0.8795 -0.1996
  512TMC3     H 7611   4.087   4.405  12.679  0.9553  0.8688 -2.6738
  512TMC3    H1 7612   3.838   4.106  12.500  1.1633  0.0309 -0.5220
  512TMC3    H2 7613   4.221   4.012  12.659  0.4826  1.3586  2.2443
  512TMC3    C7 7614   3.998   3.911  12.534  0.5630  0.0734 -0.0383
  512TMC3    C8 7615   4.279   4.258  12.742  0.6468  0.3628  0.4175
  512TMC3    O1 7616   3.881   3.877  12.520  0.7239  0.1128  0.1710
  512TMC3    O2 7617   4.305   4.375  12.732  0.2176  0.5057 -0.6020
  513MPD2     C 7618   0.863   0.013  12.512 -0.0533 -0.2872  0.7702
  513MPD2    C1 7619   0.896   4.618  12.444  0.0903 -0.2958 -0.1482
  513MPD2    C2 7620   0.952   4.517  12.520 -0.4534 -0.5255 -0.5922
  513MPD2    C3 7621   0.973   4.535  12.653 -0.8092 -0.1749  0.1923
  513MPD2    C4 7622   0.931   4.656  12.717 -0.7724 -0.0130 -0.0400
  513MPD2    C5 7623   0.876   0.038  12.646  0.9721 -0.3480 -0.6603
  513MPD2     H 7624   0.990   4.429  12.470  0.7230 -0.8047  0.7852
  513MPD2    H1 7625   0.938   4.676  12.823 -0.8432  1.7708 -0.3736
  513MPD2    H2 7626   0.808   0.089  12.458  1.3811  0.4996  0.4304
  513MPD2    H3 7627   0.847   0.128  12.699 -0.7516  0.0067 -2.2071
  513MPD2     N 7628   1.038   4.431  12.721 -0.1752 -0.0217 -0.3840
  513MPD2    H5 7629   1.076   4.355  12.664 -0.1212  1.1188 -1.8730
  513MPD2    N1 7630   0.885   4.617  12.301 -0.5467  0.3747  1.4108
  513MPD2    H7 7631   0.858   4.701  12.250 -1.8971  0.6231  2.5225
  514TMC3    C1 7632   0.913   4.543  12.074 -0.7060  0.1143 -0.1115
  514TMC3    C2 7633   0.996   4.648  12.042 -0.2893  0.0009  0.5325
  514TMC3    C3 7634   1.085   4.625  11.938  0.1904  0.5662  0.1719
  514TMC3    C4 7635   0.927   4.423  12.007  0.1971  0.2387  0.0204
  514TMC3    C5 7636   1.013   4.407  11.904  0.2634  0.8544  0.0209
  514TMC3    C6 7637   1.081   4.514  11.858  0.2401 -0.2096 -0.3675
  514TMC3     C 7638   0.913   4.512  12.216  0.0049 -0.0137  0.5594
  514TMC3     O 7639   0.941   4.394  12.245 -0.1155  0.5485  0.2203
  514TMC3     H 7640   0.990   0.023  12.086  0.5863  0.3154 -0.0528
  514TMC3    H1 7641   0.879   4.332  12.042  0.1745  0.5471  0.7861
  514TMC3    H2 7642   1.153   4.504  11.777 -0.5943  0.0007 -1.1341
  514TMC3    C7 7643   1.110   4.304  11.921  0.1842  0.4597  0.2679
  514TMC3    C8 7644   1.174   0.017  11.909 -0.4893 -0.5665  0.3263
  514TMC3    O1 7645   1.177   4.278  11.824  0.2666 -0.3208 -0.0482
  514TMC3    O2 7646   1.204   0.084  12.009 -0.1483 -0.7169  0.2563
  515MPD2     C 7647   4.451   1.446  14.778  0.9172  0.3844 -0.2155
  515MPD2    C1 7648   4.431   1.443  14.642  0.2398  0.2136  0.0101
  515MPD2    C2 7649   4.479   1.553  14.563 -0.3205  0.3013  0.1098
  515MPD2    C3 7650   4.533   1.667  14.629 -0.4939 -0.2548 -0.1710
  515MPD2    C4 7651   4.540   1.668  14.769 -0.3646  0.0957  0.1975
  515MPD2    C5 7652   4.509   1.554  14.837 -0.4496 -0.2128 -0.2864
  515MPD2     H 7653   4.468   1.565  14.456 -2.0242 -2.0494  0.0281
  515MPD2    H1 7654   4.567   1.752  14.832 -0.8324 -0.1425  0.7193
  515MPD2    H2 7655   4.414   1.373  14.848  0.9264 -0.1779 -0.8027
  515MPD2    H3 7656   4.522   1.549  14.944 -0.3717  1.6188 -0.2097
  515MPD2     N 7657   4.573   1.783  14.560 -0.2559 -0.3966  0.0093
  515MPD2    H5 7658   4.625   1.853  14.612  2.1078 -0.5529 -2.1384
  515MPD2    N1 7659   4.368   1.336  14.574 -0.3726  0.4722  0.1315
  515MPD2    H7 7660   4.373   1.344  14.473 -0.3552  0.4352  0.1293
  516TMC3    C1 7661   4.278   1.125  14.530 -0.0359  0.5520  0.8885
  516TMC3    C2 7662   4.248   1.143  14.395 -0.7603  0.2872  0.0925
  516TMC3    C3 7663   4.175   1.043  14.334  0.1482  0.0180 -0.0058
  516TMC3    C4 7664   4.271   1.002  14.586 -0.0774 -0.3253 -0.1463
  516TMC3    C5 7665   4.207   0.899  14.523  0.1269  0.1402  0.9713
  516TMC3    C6 7666   4.155   0.923  14.393  0.0264  0.4140  0.0587
  516TMC3     C 7667   4.308   1.231  14.629  0.2842 -0.5030 -0.0339
  516TMC3     O 7668   4.298   1.209  14.752  0.4429  0.0976  0.6267
  516TMC3     H 7669   4.251   1.238  14.344 -2.0514 -0.6734 -1.7717
  516TMC3    H1 7670   4.297   0.988  14.690  1.9941 -0.1103 -0.6339
  516TMC3    H2 7671   4.118   0.836  14.339 -0.3746  0.8325 -0.3306
  516TMC3    C7 7672   4.190   0.766  14.586 -0.0565 -0.3155  0.4594
  516TMC3    C8 7673   4.121   1.059  14.200  0.2201 -0.5261  0.7896
  516TMC3    O1 7674   4.179   0.757  14.713 -0.2957  0.4679  0.0688
  516TMC3    O2 7675   4.040   0.980  14.159  0.3015 -0.1798 -1.0313
  517MPD2     C 7676   4.550   2.747   0.099  0.2857 -0.1009 -0.4231
  517MPD2    C1 7677   4.670   2.677   0.093  0.4076  0.3360 -0.2323
  517MPD2    C2 7678   0.026   2.685   0.200 -0.5098  0.1864  0.3238
  517MPD2    C3 7679   4.713   2.754   0.315 -0.8667 -0.0391  0.4334
  517MPD2    C4 7680   4.601   2.829   0.314  0.3879  0.2397  0.7116
  517MPD2    C5 7681   4.517   2.825   0.203  0.0379 -0.3108  0.1209
  517MPD2     H 7682   0.120   2.630   0.204 -0.5441  0.0949 -0.1095
  517MPD2    H1 7683   4.577   2.883   0.405 -4.1201 -0.7858  0.1217
  517MPD2    H2 7684   4.472   2.748   0.025  0.0032 -2.3384 -0.1457
  517MPD2    H3 7685   4.419   2.868   0.217 -0.2952 -0.5610 -1.4405
  517MPD2     N 7686   0.054   2.750   0.439 -0.2997 -0.5307 -0.1269
  517MPD2    H5 7687   0.021   2.813   0.512  0.5021  0.1136 -0.3141
  517MPD2    N1 7688   4.705   2.586  17.682 -0.7227 -0.1215  0.1031
  517MPD2    H7 7689   0.071   2.539  17.682 -0.9847 -0.6111  2.4707
  518TMC3    C1 7690   4.673   2.455  17.488  0.3793 -0.2805 -0.0685
  518TMC3    C2 7691   4.589   2.363  17.433  0.3219 -0.3475 -0.5246
  518TMC3    C3 7692   4.639   2.286  17.327 -0.3844 -0.2093 -0.1452
  518TMC3    C4 7693   0.080   2.477  17.451  0.1413 -0.4234 -0.1970
  518TMC3    C5 7694   0.118   2.405  17.339 -0.0316  0.2663 -0.3012
  518TMC3    C6 7695   0.038   2.316  17.275  0.0907 -0.7778 -0.3441
  518TMC3     C 7696   4.615   2.547  17.582 -0.2092  0.1295 -0.8748
  518TMC3     O 7697   4.493   2.561  17.581  0.2085 -0.3080  0.3682
  518TMC3     H 7698   4.488   2.351  17.468  0.0097  4.0306  0.1178
  518TMC3    H1 7699   0.149   2.549  17.493 -1.4898  0.9301  0.1766
  518TMC3    H2 7700   0.075   2.259  17.190  3.7669  0.6858  0.2754
  518TMC3    C7 7701   0.258   2.408  17.299  0.1825 -0.2485 -0.5143
  518TMC3    C8 7702   4.566   2.189  17.264  0.3656 -0.4347 -0.0756
  518TMC3    O1 7703   0.298   2.525  17.310 -0.0730 -0.2193  0.3415
  518TMC3    O2 7704   4.620   2.129  17.168  0.4440 -0.0459  0.0455
  519MPD2     C 7705   1.307   1.563  13.374  0.8573  0.0625 -0.2529
  519MPD2    C1 7706   1.205   1.539  13.455 -0.8186  0.3548 -0.8411
  519MPD2    C2 7707   1.201   1.429  13.536  0.7590  0.7704  0.0648
  519MPD2    C3 7708   1.302   1.335  13.526 -0.0536  0.0746  0.2291
  519MPD2    C4 7709   1.407   1.366  13.436 -0.2998 -1.0178  0.1890
  519MPD2    C5 7710   1.404   1.476  13.369 -0.7589 -0.4113  0.1017
  519MPD2     H 7711   1.114   1.411  13.599  0.9864  0.1350  0.1982
  519MPD2    H1 7712   1.490   1.299  13.417  0.8607  0.1145  1.3236
  519MPD2    H2 7713   1.304   1.646  13.304  1.3800 -0.2080 -0.5976
  519MPD2    H3 7714   1.484   1.501  13.300 -0.9560 -0.8609 -0.2936
  519MPD2     N 7715   1.306   1.213  13.594 -0.3657 -0.0760 -0.1336
  519MPD2    H5 7716   1.388   1.155  13.576 -0.7911 -0.6146 -0.3133
  519MPD2    N1 7717   1.104   1.631  13.467 -0.4069  0.2882  0.0471
  519MPD2    H7 7718   1.112   1.707  13.400 -2.0402  0.5653  0.1635
  520TMC3    C1 7719   1.219   1.036  13.709 -0.1511  0.2321 -0.6286
  520TMC3    C2 7720   1.113   0.953  13.703  0.2654 -0.0377  0.4654
  520TMC3    C3 7721   1.124   0.818  13.740 -0.0071 -0.4632  0.1202
  520TMC3    C4 7722   1.342   0.991  13.744  0.1904 -0.8908 -1.1468
  520TMC3    C5 7723   1.354   0.856  13.765 -0.0491 -0.3401 -0.3292
  520TMC3    C6 7724   1.248   0.766  13.756  0.1620 -0.4888  0.7267
  520TMC3     C 7725   1.193   1.165  13.649 -0.2924  0.2175 -0.4731
  520TMC3     O 7726   1.077   1.199  13.646  0.5397 -0.5868 -0.8742
  520TMC3     H 7727   1.014   0.992  13.683  0.3522 -1.3330 -2.4785
  520TMC3    H1 7728   1.430   1.054  13.747  0.0042 -0.7314  0.8918
  520TMC3    H2 7729   1.266   0.660  13.773 -0.4936 -0.5967  0.7419
  520TMC3    C7 7730   1.486   0.805  13.756  0.2892  0.3543 -0.7015
  520TMC3    C8 7731   1.034   0.714  13.681  0.1363  1.0413  0.6193
  520TMC3    O1 7732   1.591   0.848  13.804 -0.8913  0.2726 -0.1501
  520TMC3    O2 7733   1.047   0.607  13.732  0.2053  0.3460  0.1479
  521MPD2     C 7734   1.901   3.684  17.350 -0.7233 -0.2094  0.3720
  521MPD2    C1 7735   1.845   3.719  17.228 -0.2241  0.4205 -0.3788
  521MPD2    C2 7736   1.934   3.775  17.133  0.2069 -0.1433  0.2518
  521MPD2    C3 7737   2.066   3.804  17.161  0.3307 -0.1960  0.5890
  521MPD2    C4 7738   2.113   3.774  17.286  0.1729  0.4490 -0.3719
  521MPD2    C5 7739   2.025   3.724  17.377  0.2111 -0.3689 -0.3747
  521MPD2     H 7740   1.903   3.793  17.031  1.6223  1.6571  0.1417
  521MPD2    H1 7741   2.218   3.778  17.312  0.4016 -0.6917 -1.0748
  521MPD2    H2 7742   1.849   3.633  17.430 -1.9614  0.6130  0.0977
  521MPD2    H3 7743   2.056   3.693  17.477 -3.1766  2.2801  1.4992
  521MPD2     N 7744   2.144   3.862  17.057  0.5661  0.3236  0.8272
  521MPD2    H5 7745   2.111   3.863  16.961 -0.4116  2.5093  1.1960
  521MPD2    N1 7746   1.712   3.691  17.207 -0.8651 -0.1552 -0.3517
  521MPD2    H7 7747   1.655   3.654  17.282  0.0535 -0.7744  0.0450
  522TMC3    C1 7748   2.349   3.913  16.965  0.2645  0.1265  0.2469
  522TMC3    C2 7749   2.485   3.898  16.983 -0.0513 -0.1195 -0.4566
  522TMC3    C3 7750   2.566   3.860  16.873 -0.5590  0.1039  0.6098
  522TMC3    C4 7751   2.289   3.901  16.840  0.2238 -0.0295  0.5656
  522TMC3    C5 7752   2.376   3.884  16.734 -0.3687 -0.2111  0.4154
  522TMC3    C6 7753   2.512   3.852  16.747  0.0874  0.3388 -0.4456
  522TMC3     C 7754   2.271   3.909  17.080 -0.2840 -0.4264  0.5425
  522TMC3     O 7755   2.328   3.931  17.185  0.2146  0.0402 -0.0848
  522TMC3     H 7756   2.525   3.898  17.083 -0.2554  1.0306 -0.3761
  522TMC3    H1 7757   2.187   3.934  16.825  0.0755  0.1983  2.0765
  522TMC3    H2 7758   2.569   3.842  16.655 -0.4362 -2.0029 -0.5046
  522TMC3    C7 7759   2.319   3.873  16.599  0.2884  0.0920  0.2646
  522TMC3    C8 7760   2.693   3.805  16.900 -0.0871  0.5941  0.0575
  522TMC3    O1 7761   2.344   3.784  16.522 -0.7898 -0.0280 -0.6613
  522TMC3    O2 7762   2.734   3.808  17.017 -0.1525 -0.1153  0.0578
  523MPD2     C 7763   4.597   3.950  10.441  0.8456 -0.3387 -0.3044
  523MPD2    C1 7764   4.563   3.876  10.331  0.6582  0.1874  0.4662
  523MPD2    C2 7765   4.484   3.933  10.232  0.1247 -0.4627  0.5446
  523MPD2    C3 7766   4.426   4.060  10.239  0.0029 -0.0331 -0.4499
  523MPD2    C4 7767   4.453   4.131  10.357 -0.0608 -0.3345 -0.3767
  523MPD2    C5 7768   4.535   4.075  10.453 -0.5382 -0.1167 -0.0519
  523MPD2     H 7769   4.461   3.874  10.145 -1.0813 -0.3593  0.7963
  523MPD2    H1 7770   4.408   4.226  10.382  0.3795 -0.1087 -0.4402
  523MPD2    H2 7771   4.655   3.918  10.527  0.9400 -0.4456 -0.4083
  523MPD2    H3 7772   4.558   4.140  10.537  2.0057  0.4266 -1.1751
  523MPD2     N 7773   4.354   4.129  10.142  0.5245  0.5967 -0.1062
  523MPD2    H5 7774   4.323   4.220  10.174 -0.9451  0.0924 -0.0932
  523MPD2    N1 7775   4.603   3.737  10.323  0.4706 -0.0445  0.0450
  523MPD2    H7 7776   4.683   3.703  10.376 -2.0947  0.5125  4.2926
  524TMC3    C1 7777   4.241   4.185   9.947  0.2979  0.5029 -0.9980
  524TMC3    C2 7778   4.245   4.165   9.812 -0.5114  1.0040  0.0947
  524TMC3    C3 7779   4.171   4.239   9.725  0.4433 -0.2964  0.0964
  524TMC3    C4 7780   4.151   4.273  10.000  0.7174 -0.0708 -0.6058
  524TMC3    C5 7781   4.079   4.351   9.905  0.4963 -0.1608  0.5454
  524TMC3    C6 7782   4.092   4.337   9.770 -0.0330 -0.1528  0.1883
  524TMC3     C 7783   4.321   4.089  10.017  0.1035 -0.2367  1.1448
  524TMC3     O 7784   4.349   3.991   9.951 -0.0049 -0.1894 -0.4003
  524TMC3     H 7785   4.340   4.134   9.771 -0.9017  0.6784 -0.5757
  524TMC3    H1 7786   4.141   4.300  10.104 -0.4824 -2.7107 -0.0238
  524TMC3    H2 7787   4.041   4.401   9.700 -1.1633  0.2553  1.3937
  524TMC3    C7 7788   4.005   4.465   9.949  0.3803 -0.4439  0.1009
  524TMC3    C8 7789   4.166   4.193   9.585  0.0921 -0.3389  0.7326
  524TMC3    O1 7790   3.928   4.451  10.045 -0.1145  0.2114  0.5213
  524TMC3    O2 7791   4.213   4.086   9.544 -0.7764  0.0005 -0.1741
  525MPD2     C 7792   2.404   0.418  14.061  0.0834 -0.1522 -0.1462
  525MPD2    C1 7793   2.486   0.451  14.167  1.0031  0.4258  0.7102
  525MPD2    C2 7794   2.555   0.572  14.160 -0.0227  0.4679 -0.2108
  525MPD2    C3 7795   2.540   0.661  14.057  0.4379  0.1477  0.0779
  525MPD2    C4 7796   2.457   0.627  13.950  0.4319 -0.4704 -0.4378
  525MPD2    C5 7797   2.391   0.501  13.953  0.3381  0.7624 -0.0759
  525MPD2     H 7798   2.623   0.598  14.240  1.7040  0.1658 -1.5840
  525MPD2    H1 7799   2.445   0.689  13.861  0.2508  0.1495  0.0170
  525MPD2    H2 7800   2.360   0.319  14.055  0.2056 -0.2163  0.0040
  525MPD2    H3 7801   2.323   0.492  13.869  0.3147 -0.4955  0.0763
  525MPD2     N 7802   2.603   0.779  14.064  0.4381  0.1623 -0.4262
  525MPD2    H5 7803   2.642   0.805  14.155 -1.6606 -1.4608  0.9186
  525MPD2    N1 7804   2.515   0.363  14.273  0.3555  1.0289  0.4708
  525MPD2    H7 7805   2.602   0.370  14.324  0.6002  1.2089  0.0285
  526TMC3    C1 7806   2.490   0.177  14.417 -0.3991 -0.2561  0.1572
  526TMC3    C2 7807   2.415   0.143  14.529 -0.4140 -0.2370 -0.3468
  526TMC3    C3 7808   2.493   0.096  14.630 -0.0058  0.2947 -0.3941
  526TMC3    C4 7809   2.619   0.131  14.392 -0.0913 -0.5206 -0.4334
  526TMC3    C5 7810   2.687   0.064  14.493  0.3827 -0.1666 -0.1701
  526TMC3    C6 7811   2.626   0.054  14.613 -0.2870 -0.2221 -0.4987
  526TMC3     C 7812   2.429   0.272  14.325  0.6801 -0.6290 -0.4878
  526TMC3     O 7813   2.313   0.259  14.307 -0.0211  0.1936  0.7003
  526TMC3     H 7814   2.329   0.205  14.550 -0.1235 -0.2769  0.9362
  526TMC3    H1 7815   2.675   0.168  14.307 -1.1034 -1.3012 -1.4363
  526TMC3    H2 7816   2.672   0.002  14.697  0.5186  2.3366  0.6265
  526TMC3    C7 7817   2.814   4.723  14.474 -0.1463 -0.0475  0.2824
  526TMC3    C8 7818   2.446   0.104  14.765 -0.7193 -0.0747 -0.0394
  526TMC3    O1 7819   2.846   4.661  14.576  0.5980 -0.5963 -0.1219
  526TMC3    O2 7820   2.533   0.138  14.845  0.0313 -0.4585  0.4721
  527MPD2     C 7821   0.757   3.172   1.265 -0.4080  0.3109 -0.3322
  527MPD2    C1 7822   0.789   3.042   1.229  0.2682 -0.9221  0.4827
  527MPD2    C2 7823   0.860   3.012   1.115  0.1728 -0.3322  0.2639
  527MPD2    C3 7824   0.908   3.113   1.031 -0.4602  0.6726  0.7326
  527MPD2    C4 7825   0.882   3.242   1.075  0.1133  0.3579  0.9646
  527MPD2    C5 7826   0.802   3.270   1.185  0.4465  0.1103  0.2372
  527MPD2     H 7827   0.889   2.914   1.078  1.0631 -0.0467  0.2105
  527MPD2    H1 7828   0.912   3.324   1.011  1.6705 -2.3032 -1.7078
  527MPD2    H2 7829   0.710   3.196   1.360 -0.5475  2.3115 -0.9008
  527MPD2    H3 7830   0.769   3.372   1.204 -1.1660 -0.2221 -0.7690
  527MPD2     N 7831   0.981   3.079   0.917 -0.4778 -0.4560  0.2211
  527MPD2    H5 7832   1.001   2.982   0.897  0.8190  0.1193 -1.3170
  527MPD2    N1 7833   0.753   2.936   1.311 -0.3775  0.4311  0.2734
  527MPD2    H7 7834   0.784   2.843   1.287 -1.9064  0.4265 -1.7326
  528TMC3    C1 7835   0.667   2.827   1.503 -0.6485 -0.0446 -0.7080
  528TMC3    C2 7836   0.771   2.735   1.503 -0.2113  0.7573  1.0567
  528TMC3    C3 7837   0.757   2.622   1.579  0.2414  0.1032  0.0926
  528TMC3    C4 7838   0.556   2.802   1.581  0.7069 -0.5959  0.6913
  528TMC3    C5 7839   0.546   2.684   1.647 -0.5999  0.1115  0.0330
  528TMC3    C6 7840   0.648   2.592   1.653 -0.2353 -0.7953 -0.0455
  528TMC3     C 7841   0.667   2.942   1.418 -0.4793 -0.2376 -0.0725
  528TMC3     O 7842   0.583   3.028   1.441  0.1938 -0.4437 -0.4772
  528TMC3     H 7843   0.858   2.744   1.440  1.3428  0.5827  3.1756
  528TMC3    H1 7844   0.480   2.879   1.589  0.1182 -1.0555 -0.5937
  528TMC3    H2 7845   0.631   2.503   1.713  0.4361 -0.6214  0.4168
  528TMC3    C7 7846   0.416   2.647   1.692 -0.7356  0.0020 -0.4871
  528TMC3    C8 7847   0.882   2.541   1.586 -0.2029 -1.0299 -0.6481
  528TMC3    O1 7848   0.331   2.736   1.703  0.5483 -0.3230  0.2414
  528TMC3    O2 7849   0.984   2.590   1.533  0.5152 -0.0679 -0.0721
  529MPD2     C 7850   3.364   2.076   0.390  0.4147 -0.3313 -0.4008
  529MPD2    C1 7851   3.319   1.949   0.360 -0.2794 -0.6252  0.3111
  529MPD2    C2 7852   3.287   1.922   0.230  0.4159 -0.4378 -0.3641
  529MPD2    C3 7853   3.297   2.023   0.134  0.5190  0.3657 -0.2283
  529MPD2    C4 7854   3.346   2.153   0.163 -0.2158  0.2968 -0.2590
  529MPD2    C5 7855   3.385   2.169   0.288 -0.5351  0.7248  0.8055
  529MPD2     H 7856   3.266   1.821   0.197 -0.5653  0.5248 -2.7188
  529MPD2    H1 7857   3.349   2.234   0.091  0.1902  0.9458  0.4847
  529MPD2    H2 7858   3.395   2.106   0.489 -1.6389  1.1977 -0.2145
  529MPD2    H3 7859   3.434   2.264   0.308 -1.9055  1.5529  0.3062
  529MPD2     N 7860   3.253   2.008  17.694  0.6042  0.2008  0.2978
  529MPD2    H5 7861   3.264   2.080  17.623 -0.0001 -2.4521 -2.4767
  529MPD2    N1 7862   3.292   1.846   0.456 -0.2033 -0.2729  0.0018
  529MPD2    H7 7863   3.255   1.758   0.421  0.2542 -1.1022  1.6170
  530TMC3    C1 7864   3.254   1.733   0.660 -0.2697  0.2048  0.3643
  530TMC3    C2 7865   3.306   1.727   0.787  0.4694  0.1810 -0.5491
  530TMC3    C3 7866   3.287   1.614   0.861  0.4743  0.2984  0.3323
  530TMC3    C4 7867   3.179   1.629   0.603 -0.1902  0.5912 -0.3558
  530TMC3    C5 7868   3.154   1.524   0.688  0.4393  0.0222 -0.2678
  530TMC3    C6 7869   3.202   1.516   0.818 -0.0099 -0.0621 -0.3188
  530TMC3     C 7870   3.304   1.855   0.591 -0.6347  0.6246 -0.5827
  530TMC3     O 7871   3.367   1.935   0.659  0.2298 -0.1341 -0.3101
  530TMC3     H 7872   3.390   1.793   0.803  0.2368 -0.0566  1.6188
  530TMC3    H1 7873   3.133   1.640   0.505 -0.0987 -3.1001 -0.7914
  530TMC3    H2 7874   3.187   1.426   0.877  0.3012 -0.5852 -1.0371
  530TMC3    C7 7875   3.041   1.438   0.652  0.7019 -0.2883  0.0961
  530TMC3    C8 7876   3.305   1.634   1.000  0.4132 -0.0126  0.4840
  530TMC3    O1 7877   2.987   1.467   0.544  0.0263 -0.2633 -0.8217
  530TMC3    O2 7878   3.347   1.744   1.038 -0.1346  0.1844 -0.4775
  531MPD2     C 7879   1.445   4.105  12.254 -0.4262  0.0786 -0.2364
  531MPD2    C1 7880   1.341   4.155  12.330 -0.4773  0.7845 -0.0875
  531MPD2    C2 7881   1.234   4.209  12.258  0.0381  0.3893  0.4526
  531MPD2    C3 7882   1.235   4.210  12.117  0.5201 -0.5700 -0.0249
  531MPD2    C4 7883   1.325   4.140  12.048  0.1352  0.1492  0.2139
  531MPD2    C5 7884   1.429   4.086  12.118  0.3107  1.0843 -0.1058
  531MPD2     H 7885   1.163   4.271  12.312  1.8114  1.3412  1.6914
  531MPD2    H1 7886   1.322   4.137  11.940 -1.9216  2.5308  0.2182
  531MPD2    H2 7887   1.540   4.073  12.295  0.0672  0.4802 -1.0739
  531MPD2    H3 7888   1.501   4.021  12.069  0.1831  2.4194 -2.0557
  531MPD2     N 7889   1.129   4.286  12.057 -0.0792 -0.0618  0.2319
  531MPD2    H5 7890   1.066   4.322  12.128  1.3265 -0.1965  1.5603
  531MPD2    N1 7891   1.353   4.166  12.471 -1.2478  0.3450  0.4151
  531MPD2    H7 7892   1.434   4.127  12.517 -0.1204  2.1828 -0.0490
  532TMC3    C1 7893   1.280   4.198  12.695  0.0332 -0.5582 -0.0229
  532TMC3    C2 7894   1.164   4.240  12.765 -0.2888  0.0541  0.6997
  532TMC3    C3 7895   1.169   4.318  12.873  0.2449 -0.4204  0.3183
  532TMC3    C4 7896   1.402   4.237  12.746  1.1631  0.0453 -0.3420
  532TMC3    C5 7897   1.404   4.304  12.871  0.4633 -0.0629 -0.5847
  532TMC3    C6 7898   1.290   4.354  12.929  0.3199 -0.4788  0.3428
  532TMC3     C 7899   1.248   4.171  12.558  0.2405  1.0441 -0.2660
  532TMC3     O 7900   1.136   4.208  12.531 -0.3370  0.8379 -0.0506
  532TMC3     H 7901   1.078   4.184  12.732  0.2596 -1.9924  2.7339
  532TMC3    H1 7902   1.492   4.210  12.693  1.2691 -0.3061  0.0231
  532TMC3    H2 7903   1.299   4.426  13.009  1.0850 -0.5316  0.3040
  532TMC3    C7 7904   1.534   4.363  12.902  0.5103 -0.1091  0.5348
  532TMC3    C8 7905   1.083   4.439  12.853  1.1133  0.4101  0.6694
  532TMC3    O1 7906   1.538   4.479  12.946  0.1088  0.4262 -0.3478
  532TMC3    O2 7907   1.074   4.525  12.942  0.3743 -0.0760  0.5191
  533TMC3    C1 7908   2.660   0.997  13.996  0.1075  0.2375  0.3393
  533TMC3    C2 7909   2.785   1.047  13.977 -0.1907 -0.5344 -0.5222
  533TMC3    C3 7910   2.836   1.129  14.074  0.1300  0.3216  0.2384
  533TMC3    C4 7911   2.581   1.031  14.104  0.4253  0.6401 -0.2353
  533TMC3    C5 7912   2.637   1.118  14.198 -0.2720  0.3460  0.5161
  533TMC3    C6 7913   2.766   1.165  14.189 -0.0303  0.0462  0.2938
  533TMC3     C 7914   2.633   0.861  13.959 -0.3536 -0.3080  0.0807
  533TMC3     O 7915   2.649   0.819  13.846 -0.2673  0.2120  0.3454
  533TMC3     H 7916   2.836   1.010  13.889 -1.5637  1.2955 -2.0917
  533TMC3    H1 7917   2.479   0.999  14.120  0.9690 -1.5976 -1.2188
  533TMC3    H2 7918   2.817   1.211  14.272  1.1156 -0.6613 -0.0198
  533TMC3    C7 7919   2.578   1.109  14.327 -0.2103  0.2223  0.3536
  533TMC3    C8 7920   2.984   1.145  14.092 -0.0685  0.8088 -0.8261
  533TMC3    O1 7921   2.490   1.026  14.339  0.5732  0.1042 -0.6047
  533TMC3    O2 7922   3.031   1.162  14.205  0.0086 -0.2333  0.3218
  534MPD2     C 7923   4.419   1.707   1.566 -0.1917  0.0208  1.0111
  534MPD2    C1 7924   4.540   1.673   1.517  0.5737  0.7264 -0.3226
  534MPD2    C2 7925   4.573   1.543   1.484 -0.7267  0.4082 -0.1837
  534MPD2    C3 7926   4.480   1.447   1.505 -1.1270  0.2927  0.2333
  534MPD2    C4 7927   4.348   1.483   1.534  0.6463  0.1858 -0.2754
  534MPD2    C5 7928   4.312   1.614   1.567 -0.4442  0.1169  0.2799
  534MPD2     H 7929   4.672   1.513   1.453 -1.3057  0.6884 -2.3379
  534MPD2    H1 7930   4.261   1.419   1.539  2.0527 -1.8021 -1.4227
  534MPD2    H2 7931   4.390   1.807   1.598  0.9529  0.4414  0.7414
  534MPD2    H3 7932   4.209   1.637   1.592 -0.0523  0.5744  1.4579
  534MPD2     N 7933   4.505   1.312   1.509 -0.1584  0.0509  0.5825
  534MPD2    H5 7934   4.420   1.260   1.524 -0.6519  0.3542 -1.0936
  534MPD2    N1 7935   4.650   1.759   1.519  0.0281  0.4503  0.7381
  534MPD2    H7 7936   0.019   1.728   1.494 -0.8452 -1.0636 -0.6102
  535TMC3    C1 7937   4.601   1.107   1.472 -1.1385  0.4106 -0.6647
  535TMC3    C2 7938   4.471   1.069   1.454  0.4970 -0.8760 -0.5763
  535TMC3    C3 7939   4.452   0.947   1.387 -0.0873  0.4690 -0.0471
  535TMC3    C4 7940   4.709   1.038   1.437  0.4339 -0.2682  0.0351
  535TMC3    C5 7941   4.683   0.922   1.365  0.1410 -1.0882 -0.4509
  535TMC3    C6 7942   4.557   0.873   1.338  0.0903 -0.0048  0.4139
  535TMC3     C 7943   4.630   1.253   1.495 -0.2325 -0.3364  0.0328
  535TMC3     O 7944   0.023   1.292   1.478 -0.7556 -0.7807 -0.2803
  535TMC3     H 7945   4.374   1.117   1.462  0.5378 -0.9741  0.4447
  535TMC3    H1 7946   0.084   1.082   1.433  0.3635 -0.0249  1.1657
  535TMC3    H2 7947   4.549   0.804   1.255 -3.8540 -0.2119  0.9821
  535TMC3    C7 7948   0.073   0.880   1.290  0.3270 -0.2872 -0.3175
  535TMC3    C8 7949   4.324   0.916   1.330 -0.7376  0.3317 -0.0139
  535TMC3    O1 7950   0.056   0.833   1.178 -0.2249  0.4963  0.0198
  535TMC3    O2 7951   4.247   1.010   1.314  0.9330 -0.7857  0.7249
  536MPD2     C 7952   3.566   4.427  16.699 -0.5488  0.1930 -0.6264
  536MPD2    C1 7953   3.680   4.475  16.639 -0.0344  0.8852 -0.1781
  536MPD2    C2 7954   3.673   4.529  16.510  0.5430 -0.2544 -0.1816
  536MPD2    C3 7955   3.550   4.540  16.448  0.5544 -0.3438 -0.7246
  536MPD2    C4 7956   3.440   4.483  16.501 -0.4592  0.1006 -0.3562
  536MPD2    C5 7957   3.449   4.435  16.626  0.1079  0.4923 -0.2638
  536MPD2     H 7958   3.764   4.564  16.462  0.4259 -0.0148 -0.2277
  536MPD2    H1 7959   3.350   4.496  16.441  1.8254  1.0864 -3.6206
  536MPD2    H2 7960   3.566   4.391  16.801 -1.8759  0.5703 -0.4910
  536MPD2    H3 7961   3.361   4.392  16.672  2.3965 -3.3197  0.4824
  536MPD2     N 7962   3.527   4.598  16.322 -0.5106  0.0747 -0.6259
  536MPD2    H5 7963   3.430   4.595  16.294 -1.0679  0.9375  1.1720
  536MPD2    N1 7964   3.798   4.484  16.717 -0.7782 -0.0668 -0.7269
  536MPD2    H7 7965   3.868   4.552  16.689  0.6080 -0.9949  0.5104
  537TMC3    C1 7966   3.953   4.446  16.897 -0.6231 -0.0814 -0.3109
  537TMC3    C2 7967   4.047   4.529  16.847  0.4346  0.4647 -0.3027
  537TMC3    C3 7968   4.159   4.552  16.922 -0.6040  0.2465 -0.5414
  537TMC3    C4 7969   3.984   4.371  17.005 -0.0494 -0.0867  0.0012
  537TMC3    C5 7970   4.102   4.398  17.077 -0.1886 -0.1869  0.2118
  537TMC3    C6 7971   4.187   4.494  17.040  0.7311  0.5613  0.2199
  537TMC3     C 7972   3.829   4.410  16.826  0.2300  0.3778  0.5935
  537TMC3     O 7973   3.764   4.317  16.872 -0.1270  0.1162 -0.3125
  537TMC3     H 7974   4.014   4.607  16.779  1.1263 -0.0726 -1.2520
  537TMC3    H1 7975   3.919   4.290  17.038  0.1656 -0.6115 -0.8527
  537TMC3    H2 7976   4.276   4.519  17.096  0.6362 -0.8939  1.0248
  537TMC3    C7 7977   4.117   4.344  17.211 -0.1043  0.3977  0.1149
  537TMC3    C8 7978   4.242   4.666  16.888  0.3560 -0.0131 -0.2555
  537TMC3    O1 7979   4.198   4.401  17.279 -0.2689 -0.0280  0.3428
  537TMC3    O2 7980   4.336   4.692  16.961  0.1562  0.4563 -0.2188
  538TMC3    C1 7981   0.661   3.461  10.801 -0.2041 -0.2062  0.4731
  538TMC3    C2 7982   0.767   3.515  10.726  0.4455  0.1572  0.2856
  538TMC3    C3 7983   0.731   3.617  10.635 -0.1108  0.0428 -0.4613
  538TMC3    C4 7984   0.531   3.500  10.779  1.2181  0.1010 -0.3218
  538TMC3    C5 7985   0.503   3.593  10.682 -0.0087  0.2763 -0.7995
  538TMC3    C6 7986   0.601   3.664  10.617  0.2441  0.0441  0.3878
  538TMC3     C 7987   0.696   3.387  10.919 -0.4440 -0.0273  0.1365
  538TMC3     O 7988   0.807   3.331  10.911 -0.1404 -0.1850 -0.6322
  538TMC3     H 7989   0.870   3.492  10.746  0.1959 -1.1797  0.0152
  538TMC3    H1 7990   0.447   3.452  10.829  1.4939  1.6953  1.7000
  538TMC3    H2 7991   0.588   3.757  10.563 -0.6308  0.3977  1.1925
  538TMC3    C7 7992   0.367   3.641  10.678 -0.3183  0.5047 -0.3531
  538TMC3    C8 7993   0.840   3.711  10.597 -0.4060 -0.0738  0.2324
  538TMC3    O1 7994   0.283   3.554  10.665 -0.0981  0.4244  0.2488
  538TMC3    O2 7995   0.935   3.713  10.672 -0.1412  0.1897 -0.1212
  539MPD2     C 7996   0.039   2.740  11.981 -0.0567  0.4635  0.1372
  539MPD2    C1 7997   0.037   2.774  11.845 -0.2844 -0.7239 -0.5413
  539MPD2    C2 7998   0.030   2.907  11.826  0.3232 -0.2045  0.2750
  539MPD2    C3 7999   4.721   3.004  11.918  0.1821 -0.1383  1.2229
  539MPD2    C4 8000   4.701   2.963  12.045  0.0954  0.4332 -0.1941
  539MPD2    C5 8001   0.012   2.835  12.078  0.1249 -0.3660 -0.4288
  539MPD2     H 8002   0.035   2.937  11.722 -0.0030  1.6363  0.7746
  539MPD2    H1 8003   4.679   3.031  12.127 -0.1484 -0.0674  0.1570
  539MPD2    H2 8004   0.052   2.639  12.018  0.0324 -0.0294 -1.2112
  539MPD2    H3 8005   0.030   2.829  12.185 -0.9319  0.4563 -0.2005
  539MPD2     N 8006   4.708   3.143  11.883 -0.4853  0.2221  0.0994
  539MPD2    H5 8007   4.666   3.204  11.953 -0.3877  0.6058 -0.1815
  539MPD2    N1 8008   0.050   2.687  11.732  0.7167  0.1287 -0.1294
  539MPD2    H7 8009   0.067   2.721  11.638  0.9748 -0.1559 -0.1859
  540TMC3    C1 8010   0.033   3.339  11.759  0.1858 -0.2843  0.1454
  540TMC3    C2 8011   0.091   3.394  11.648  0.3647  0.0352  0.0741
  540TMC3    C3 8012   0.037   3.507  11.592  0.0614 -0.1103  0.1371
  540TMC3    C4 8013   4.665   3.409  11.828 -0.3191  0.1291  0.2874
  540TMC3    C5 8014   4.634   3.537  11.786 -0.4977  0.2075 -0.2782
  540TMC3    C6 8015   4.666   3.577  11.658  0.7267 -0.2627  0.6213
  540TMC3     C 8016   0.041   3.198  11.771  0.2158 -0.5569  0.2159
  540TMC3     O 8017   0.102   3.144  11.674 -0.2687 -0.0016 -0.2425
  540TMC3     H 8018   0.170   3.343  11.593  1.0772  2.9151 -1.5693
  540TMC3    H1 8019   4.617   3.361  11.912 -3.9737  0.1115 -1.8288
  540TMC3    H2 8020   4.637   3.673  11.615 -1.3657 -0.3324  1.8457
  540TMC3    C7 8021   4.521   3.597  11.857 -0.2859  0.2539  0.4329
  540TMC3    C8 8022   0.098   3.556  11.475 -0.0511 -0.7905 -0.4542
  540TMC3    O1 8023   4.465   3.533  11.941  0.4765  0.1607 -0.0372
  540TMC3    O2 8024   0.214   3.595  11.478 -0.0993 -0.3781 -0.0744
  541MPD2     C 8025   2.372   4.397  12.561 -0.6696 -0.1643  0.1430
  541MPD2    C1 8026   2.494   4.368  12.507 -0.4411 -0.0144  0.3116
  541MPD2    C2 8027   2.536   4.443  12.399  0.3766  0.4751  0.4020
  541MPD2    C3 8028   2.461   4.560  12.359  0.3944  0.0389 -0.2778
  541MPD2    C4 8029   2.336   4.581  12.412 -0.9316  0.0790 -0.0390
  541MPD2    C5 8030   2.297   4.501  12.518  0.2116 -0.5964  0.3534
  541MPD2     H 8031   2.641   4.434  12.375  0.4683 -0.2969  1.0670
  541MPD2    H1 8032   2.275   4.664  12.377  0.9581  0.8789 -1.4499
  541MPD2    H2 8033   2.337   4.334  12.642  1.1935 -1.8001 -0.3078
  541MPD2    H3 8034   2.197   4.502  12.559  0.0371 -2.0197 -0.0217
  541MPD2     N 8035   2.507   4.657  12.269  0.2850  0.8074 -0.1469
  541MPD2    H5 8036   2.441   0.005  12.238 -0.1769  1.5396  2.4994
  541MPD2    N1 8037   2.566   4.256  12.562 -0.8657  0.0961 -0.1667
  541MPD2    H7 8038   2.548   4.222  12.655 -0.3349 -0.7028 -0.3550
  542TMC3    C1 8039   2.660   0.041  12.120  0.2666  0.2557 -0.1635
  542TMC3    C2 8040   2.777   0.012  12.052  0.0186  0.0007 -0.1995
  542TMC3    C3 8041   2.851   0.111  11.999  1.0997  0.4618 -0.1531
  542TMC3    C4 8042   2.609   0.165  12.132  0.2976  0.7736  0.3989
  542TMC3    C5 8043   2.676   0.258  12.056  0.1296 -0.5735 -0.2399
  542TMC3    C6 8044   2.801   0.235  12.002 -0.0480  0.0560  0.2676
  542TMC3     C 8045   2.629   4.655  12.212 -0.2214  0.6764 -0.6309
  542TMC3     O 8046   2.732   4.604  12.253 -0.7505 -0.0539 -0.1091
  542TMC3     H 8047   2.831   4.642  12.048  0.5148  0.2737  0.0874
  542TMC3    H1 8048   2.513   0.179  12.180  0.2385  2.6334 -0.2481
  542TMC3    H2 8049   2.851   0.314  11.948  1.3953  0.3033  1.9859
  542TMC3    C7 8050   2.628   0.400  12.074 -0.1343  0.6533 -0.2134
  542TMC3    C8 8051   2.979   0.074  11.950  0.3127 -0.0550  0.3764
  542TMC3    O1 8052   2.580   0.417  12.186  0.3380 -0.0111 -0.3831
  542TMC3    O2 8053   2.994   4.679  11.909 -0.2692  0.1114 -0.3308
  543TMC3    C1 8054   3.098   1.043  17.158 -0.2475  0.2394  0.2303
  543TMC3    C2 8055   3.048   0.936  17.217  0.3521  0.1624  0.4614
  543TMC3    C3 8056   3.085   0.893  17.344 -0.9003  0.0718  0.5936
  543TMC3    C4 8057   3.203   1.099  17.225  0.3851  0.2614 -0.3892
  543TMC3    C5 8058   3.241   1.055  17.351  0.4842  0.2239  0.2290
  543TMC3    C6 8059   3.186   0.945  17.417  0.5117  0.2246 -0.8080
  543TMC3     C 8060   3.103   1.041  17.015  0.3175  0.3112  0.3615
  543TMC3     O 8061   3.098   0.928  16.964  0.1157 -0.1003  0.1733
  543TMC3     H 8062   2.967   0.878  17.175  1.6018 -3.1696  2.6130
  543TMC3    H1 8063   3.258   1.184  17.186 -1.3547  2.2334  1.5192
  543TMC3    H2 8064   3.213   0.905  17.514 -1.4909  0.6257 -0.0841
  543TMC3    C7 8065   3.330   1.140  17.435 -0.4592 -0.6345  0.3069
  543TMC3    C8 8066   3.038   0.761  17.379  0.0280 -0.4549  0.0481
  543TMC3    O1 8067   3.395   1.222  17.375  0.0935  0.0718  0.1246
  543TMC3    O2 8068   3.013   0.684  17.289  0.2526 -0.7619 -0.1799
  544MPD2     C 8069   2.828   0.460   0.044  0.1424  0.7992  0.2052
  544MPD2    C1 8070   2.859   0.435  17.607 -0.3288  0.4337  0.3673
  544MPD2    C2 8071   2.914   0.531  17.529  1.0015  0.1220 -0.2374
  544MPD2    C3 8072   2.949   0.657  17.584  0.2794 -0.0110  0.3428
  544MPD2    C4 8073   2.912   0.683   0.020  0.0646 -0.3680  0.2295
  544MPD2    C5 8074   2.856   0.586   0.093 -0.2547 -0.0259  0.0270
  544MPD2     H 8075   2.949   0.506  17.429  0.5525  0.7596 -0.5609
  544MPD2    H1 8076   2.931   0.779   0.068  2.6975 -0.9313  0.3352
  544MPD2    H2 8077   2.787   0.383   0.109 -2.6656  1.7533 -0.4353
  544MPD2    H3 8078   2.834   0.610   0.196 -1.5606  0.2252 -0.3127
  544MPD2     N 8079   3.023   0.757  17.518  0.4273 -0.3784  0.1183
  544MPD2    H5 8080   3.040   0.845  17.567  2.0848 -1.3965  1.3783
  544MPD2    N1 8081   2.820   0.305  17.563  0.2166 -0.1556  0.6161
  544MPD2    H7 8082   2.764   0.249  17.626  0.0847 -2.2465 -1.3309
  545TMC3    C1 8083   2.767   0.136  17.416 -0.6863  0.3170  0.5654
  545TMC3    C2 8084   2.722   0.099  17.290 -0.0624 -0.0241  0.0956
  545TMC3    C3 8085   2.703   4.685  17.275 -0.1112 -0.0630 -0.8136
  545TMC3    C4 8086   2.782   0.051  17.523  0.0886  0.1756  0.2425
  545TMC3    C5 8087   2.754   4.644  17.502 -0.2341 -0.2078  0.1618
  545TMC3    C6 8088   2.712   4.593  17.377  0.1072  0.0575  0.4703
  545TMC3     C 8089   2.809   0.266  17.430 -0.4700  0.3117 -0.2058
  545TMC3     O 8090   2.828   0.326  17.323  0.2244  0.1830  0.0140
  545TMC3     H 8091   2.707   0.172  17.211 -1.7889  1.1885  1.5330
  545TMC3    H1 8092   2.838   0.071  17.613  0.2288  2.3596 -0.3470
  545TMC3    H2 8093   2.710   4.487  17.356  1.0086 -0.1321  1.3351
  545TMC3    C7 8094   2.755   4.563  17.623  0.1284  0.3217  0.2702
  545TMC3    C8 8095   2.720   4.619  17.153  0.7854 -0.1657 -0.2717
  545TMC3    O1 8096   2.747   4.611   0.038 -0.4037 -0.3865  0.6233
  545TMC3    O2 8097   2.713   4.496  17.140 -0.1183 -0.3963 -0.6767
  546MPD2     C 8098   4.195   0.809  17.197  0.3064 -0.4786  1.3408
  546MPD2    C1 8099   4.165   0.818  17.063 -0.4997  0.0202  0.2087
  546MPD2    C2 8100   4.193   0.941  17.009  0.6138  0.3702 -0.7814
  546MPD2    C3 8101   4.239   1.048  17.079 -0.0831  0.5864 -0.1138
  546MPD2    C4 8102   4.267   1.031  17.214 -0.6209 -0.7766  0.0455
  546MPD2    C5 8103   4.249   0.908  17.268  0.2691  0.6156 -0.1835
  546MPD2     H 8104   4.158   0.962  16.909  2.6783  1.8681 -1.1966
  546MPD2    H1 8105   4.306   1.103  17.285 -0.3507 -0.6261 -0.2565
  546MPD2    H2 8106   4.178   0.717  17.251 -0.7579 -1.2177 -0.2270
  546MPD2    H3 8107   4.282   0.902  17.371  1.4738 -1.5359 -0.6903
  546MPD2     N 8108   4.259   1.175  17.026  0.5882  0.3978  0.7691
  546MPD2    H5 8109   4.273   1.247  17.097 -2.2696 -0.2553  1.9982
  546MPD2    N1 8110   4.113   0.718  16.985 -0.0172  0.0092 -0.5784
  546MPD2    H7 8111   4.090   0.640  17.045  0.8588  2.1152  2.4985
  547TMC3    C1 8112   4.042   0.592  16.795  0.7189 -0.7170 -0.4665
  547TMC3    C2 8113   4.013   0.589  16.665  0.6309 -0.4833  0.3255
  547TMC3    C3 8114   3.969   0.475  16.608  0.2107 -0.1959 -0.3741
  547TMC3    C4 8115   4.042   0.480  16.878  0.0810 -0.1532 -0.3594
  547TMC3    C5 8116   4.003   0.362  16.814 -0.2945 -0.2052  0.2141
  547TMC3    C6 8117   3.960   0.360  16.684  0.2847  0.2903 -0.4363
  547TMC3     C 8118   4.103   0.710  16.847  0.0341 -0.4446  0.7408
  547TMC3     O 8119   4.145   0.788  16.759 -0.1079 -0.5337  0.1812
  547TMC3     H 8120   3.993   0.677  16.605 -0.5955 -0.6699  0.4496
  547TMC3    H1 8121   4.046   0.482  16.986  0.2595 -1.8076 -0.3345
  547TMC3    H2 8122   3.904   0.278  16.641 -1.8981  0.8121  1.4131
  547TMC3    C7 8123   3.982   0.240  16.893 -0.1035  0.9166  0.2607
  547TMC3    C8 8124   3.864   0.502  16.514 -0.1757  0.4085 -0.3281
  547TMC3    O1 8125   3.900   0.156  16.843  0.1377 -0.6768  0.7925
  547TMC3    O2 8126   3.789   0.595  16.538 -0.1839  0.2834 -0.5991
  548MPD2     C 8127   3.869   1.947  11.789  0.4314 -1.0007 -0.5931
  548MPD2    C1 8128   3.831   1.875  11.902  0.8847 -0.4537 -0.7138
  548MPD2    C2 8129   3.923   1.770  11.935 -0.3179 -0.3163 -0.0992
  548MPD2    C3 8130   4.010   1.721  11.841 -0.7143  0.0352 -0.0736
  548MPD2    C4 8131   4.024   1.786  11.725 -0.2598 -0.0160 -0.2354
  548MPD2    C5 8132   3.966   1.910  11.705 -0.0408  0.4128  0.1905
  548MPD2     H 8133   3.918   1.720  12.030 -1.3577  0.2301  0.1318
  548MPD2    H1 8134   4.095   1.758  11.648 -0.3079  0.1235 -0.3319
  548MPD2    H2 8135   3.823   2.045  11.777 -3.1239 -2.4592  1.1970
  548MPD2    H3 8136   3.984   1.975  11.620  0.6595 -0.7025 -0.5159
  548MPD2     N 8137   4.067   1.601  11.863  0.6381 -0.2276 -0.8411
  548MPD2    H5 8138   4.072   1.555  11.953 -4.1525  1.8958  0.4968
  548MPD2    N1 8139   3.720   1.916  11.984  0.0419 -0.2891 -0.3924
  548MPD2    H7 8140   3.663   1.991  11.948  0.8491  0.4363 -0.1626
  549TMC3    C1 8141   3.555   1.875  12.159 -0.2380  0.1128  0.0150
  549TMC3    C2 8142   3.500   2.005  12.144  0.0753  0.1139  0.0794
  549TMC3    C3 8143   3.363   2.021  12.160  0.4264 -0.5631  0.1364
  549TMC3    C4 8144   3.477   1.766  12.194 -0.1463 -0.3328 -0.6599
  549TMC3    C5 8145   3.344   1.792  12.194  0.7950  0.3842  0.0312
  549TMC3    C6 8146   3.279   1.910  12.179 -0.7762 -0.4597 -0.1755
  549TMC3     C 8147   3.677   1.836  12.091  0.8829  0.9675 -0.7788
  549TMC3     O 8148   3.736   1.742  12.142  0.1526  0.1227 -0.6511
  549TMC3     H 8149   3.569   2.084  12.119  0.9487 -0.5961  0.2410
  549TMC3    H1 8150   3.526   1.672  12.216 -1.9942 -1.6057 -1.9703
  549TMC3    H2 8151   3.171   1.919  12.178 -0.7164  0.4438  1.4753
  549TMC3    C7 8152   3.268   1.673  12.230  0.0768 -0.0605 -0.1885
  549TMC3    C8 8153   3.309   2.147  12.118 -0.9073  0.0469  0.0351
  549TMC3    O1 8154   3.147   1.697  12.254  0.2923 -0.2115  0.1073
  549TMC3    O2 8155   3.231   2.139  12.024  0.1163 -0.1988 -0.4252
  550TMC3    C1 8156   2.124   4.383  11.763 -0.9014 -0.1609  0.0065
  550TMC3    C2 8157   2.079   4.393  11.896 -0.2826 -0.0281  0.1316
  550TMC3    C3 8158   2.020   4.516  11.926  0.8918 -0.3778  0.1683
  550TMC3    C4 8159   2.106   4.477  11.661 -0.6476  0.1953  0.2932
  550TMC3    C5 8160   2.038   4.586  11.701  0.3371 -0.5303 -0.5601
  550TMC3    C6 8161   2.005   4.614  11.829  0.0565  0.2007 -0.5259
  550TMC3     C 8162   2.183   4.256  11.726 -0.8612  0.3916  0.0044
  550TMC3     O 8163   2.221   4.182  11.816 -0.3658  0.0858  0.6528
  550TMC3     H 8164   2.113   4.319  11.968  0.6331  1.8095  1.6350
  550TMC3    H1 8165   2.141   4.465  11.559 -1.1021 -0.9341  0.2709
  550TMC3    H2 8166   1.947   4.705  11.834 -0.3906 -0.0415 -1.2031
  550TMC3    C7 8167   1.983   4.674  11.601  0.5685 -0.2592  0.3980
  550TMC3    C8 8168   1.969   4.556  12.057 -0.2004 -0.2795  0.4520
  550TMC3    O1 8169   1.870   4.716  11.609 -0.2320 -0.0236  0.0567
  550TMC3    O2 8170   1.913   4.663  12.059  0.6904  0.4906 -0.1337
  551TMC3    C1 8171   0.036   2.123  13.037  0.7913  0.4156  0.2443
  551TMC3    C2 8172   0.148   2.146  12.969  0.1202  0.7440 -0.2232
  551TMC3    C3 8173   0.242   2.236  13.024  0.2710 -0.0198 -0.6265
  551TMC3    C4 8174   0.016   2.181  13.161 -1.1065  0.1118 -0.2065
  551TMC3    C5 8175   0.115   2.256  13.225  0.0677 -0.4880 -0.1970
  551TMC3    C6 8176   0.225   2.286  13.150  0.0447 -0.7268  0.0307
  551TMC3     C 8177   4.652   2.067  12.955  1.0625  0.3315 -0.0746
  551TMC3     O 8178   4.683   2.033  12.842 -0.5565  0.9334  0.1139
  551TMC3     H 8179   0.163   2.092  12.876 -0.0141 -0.9003  0.7096
  551TMC3    H1 8180   4.645   2.183  13.215 -0.2045  1.8909  1.3321
  551TMC3    H2 8181   0.299   2.354  13.191  0.5996 -1.1799 -0.2169
  551TMC3    C7 8182   0.120   2.270  13.372  0.2185 -0.1184 -0.3989
  551TMC3    C8 8183   0.377   2.244  12.966  0.0872 -0.1047  0.6722
  551TMC3    O1 8184   0.208   2.342  13.416 -0.2913  0.1732  0.1526
  551TMC3    O2 8185   0.427   2.130  12.943 -0.2284 -0.0855 -0.2039
  552MPD2     C 8186   1.912   4.397  13.326  0.2171 -0.1454  0.2113
  552MPD2    C1 8187   1.903   4.279  13.393 -0.0834  0.2852 -0.3755
  552MPD2    C2 8188   2.006   4.228  13.462  0.5191  0.2565 -0.2331
  552MPD2    C3 8189   2.118   4.298  13.471  0.7237 -0.6174 -0.1817
  552MPD2    C4 8190   2.125   4.420  13.408 -0.3330  0.0468  0.0352
  552MPD2    C5 8191   2.025   4.470  13.338 -0.5724  0.4296  0.2718
  552MPD2     H 8192   1.995   4.127  13.500 -0.4165 -0.6281 -2.9092
  552MPD2    H1 8193   2.216   4.477  13.425 -1.7380  2.1829  0.3921
  552MPD2    H2 8194   1.834   4.436  13.261 -0.7428 -3.0772 -0.3841
  552MPD2    H3 8195   2.039   4.562  13.283  3.3744 -0.3985 -0.0765
  552MPD2     N 8196   2.243   4.238  13.521 -0.3133 -0.3929  0.3802
  552MPD2    H5 8197   2.327   4.296  13.518 -1.3843  1.1906  0.9154
  552MPD2    N1 8198   1.789   4.199  13.389  0.0118  0.2753 -0.0794
  552MPD2    H7 8199   1.800   4.104  13.425  1.4589  0.2656 -0.5171
  553TMC3    C1 8200   1.593   4.122  13.310  0.0644 -0.2483 -0.3705
  553TMC3    C2 8201   1.513   4.114  13.203  0.7413  0.2291 -0.4955
  553TMC3    C3 8202   1.430   4.009  13.182  0.3182 -0.3121 -0.8574
  553TMC3    C4 8203   1.585   4.032  13.413  0.2019  0.0156  0.2068
  553TMC3    C5 8204   1.495   3.930  13.395  0.1656 -0.5054  0.0733
  553TMC3    C6 8205   1.420   3.919  13.282  0.1254 -0.0401  0.5921
  553TMC3     C 8206   1.676   4.233  13.321  0.5938 -0.2852  0.0891
  553TMC3     O 8207   1.633   4.330  13.255  0.0071  0.0223 -0.0159
  553TMC3     H 8208   1.507   4.191  13.127  2.3126 -0.6594 -1.5005
  553TMC3    H1 8209   1.637   4.044  13.507  0.9217 -1.0718 -0.0587
  553TMC3    H2 8210   1.342   3.845  13.265  0.2752 -0.2400  0.7920
  553TMC3    C7 8211   1.509   3.808  13.474  0.0920 -0.7659 -0.1521
  553TMC3    C8 8212   1.459   3.947  13.054 -0.0520  0.0910 -0.1513
  553TMC3    O1 8213   1.415   3.774  13.540 -0.5903  0.4275  0.0346
  553TMC3    O2 8214   1.495   4.019  12.961 -0.3778 -0.2168  0.7455
  554TMC3    C1 8215   3.622   3.046  11.592  0.6895  0.5926  0.0169
  554TMC3    C2 8216   3.528   3.021  11.495 -0.1680  0.3190  0.6857
  554TMC3    C3 8217   3.515   3.126  11.406  0.4802  0.4471 -0.9750
  554TMC3    C4 8218   3.691   3.166  11.605  0.5564  0.6926 -0.6833
  554TMC3    C5 8219   3.670   3.269  11.511 -0.2471  0.6497 -0.2873
  554TMC3    C6 8220   3.582   3.248  11.409 -0.1436  0.7200  0.5412
  554TMC3     C 8221   3.674   2.924  11.655  0.7544 -0.2354  0.4485
  554TMC3     O 8222   3.635   2.818  11.618  0.2454  0.6363 -0.0937
  554TMC3     H 8223   3.475   2.927  11.500 -0.2936  0.2648 -1.5477
  554TMC3    H1 8224   3.748   3.184  11.696  1.0269 -0.4744 -0.7445
  554TMC3    H2 8225   3.565   3.329  11.340  0.1070  0.5793  0.3137
  554TMC3    C7 8226   3.773   3.364  11.467  0.0269 -0.0810 -0.6027
  554TMC3    C8 8227   3.468   3.106  11.270  0.0792 -0.3686 -0.6157
  554TMC3    O1 8228   3.767   3.412  11.354 -0.2356  0.5341 -0.5037
  554TMC3    O2 8229   3.502   3.191  11.191  0.3840 -0.7675 -0.6206
  555TMC3    C1 8230   3.102   2.346  14.788  0.9422  0.3099 -0.8728
  555TMC3    C2 8231   3.116   2.432  14.896  1.0654  0.2257 -0.7400
  555TMC3    C3 8232   3.159   2.383  15.012  0.4079 -0.1590 -0.1173
  555TMC3    C4 8233   3.129   2.211  14.796  0.2722 -0.2892  0.2833
  555TMC3    C5 8234   3.165   2.170  14.918  0.0761  0.0453  0.3709
  555TMC3    C6 8235   3.189   2.249  15.029  0.0094  0.0939  0.0692
  555TMC3     C 8236   3.079   2.389  14.655 -0.2135 -0.4605  0.5775
  555TMC3     O 8237   3.141   2.322  14.571 -0.0753 -0.3645  0.7449
  555TMC3     H 8238   3.120   2.536  14.865  3.1138 -0.4815 -2.8970
  555TMC3    H1 8239   3.111   2.137  14.719 -1.1394 -1.0431  1.3191
  555TMC3    H2 8240   3.215   2.201  15.123 -0.1506 -1.0578 -0.4786
  555TMC3    C7 8241   3.131   2.034  14.932  0.1989  0.0138 -0.3474
  555TMC3    C8 8242   3.202   2.486  15.106  0.0056  0.5698  0.4119
  555TMC3    O1 8243   3.076   1.999  15.037 -0.1856 -0.3630 -0.0640
  555TMC3    O2 8244   3.199   2.601  15.065  0.4352 -0.4636 -0.1169
  556MPD2     C 8245   0.741   0.136  10.212 -0.3627 -0.0093  0.2857
  556MPD2    C1 8246   0.726   0.021  10.285 -0.2828  0.0112 -0.5266
  556MPD2    C2 8247   0.692   4.624  10.223  0.1524  0.7732  0.5153
  556MPD2    C3 8248   0.700   4.619  10.087  0.5044 -0.4989  0.4310
  556MPD2    C4 8249   0.727   0.004  10.014 -0.5428 -0.0393 -0.3603
  556MPD2    C5 8250   0.752   0.126  10.072 -0.2717 -0.4312  0.0623
  556MPD2     H 8251   0.647   4.543  10.280  1.0521 -1.0559 -1.3960
  556MPD2    H1 8252   0.723   4.723   9.906  1.4710 -0.7732 -0.4098
  556MPD2    H2 8253   0.764   0.228  10.265  2.1051  0.4971 -1.6756
  556MPD2    H3 8254   0.779   0.207  10.005 -1.0705  1.2653  1.8106
  556MPD2     N 8255   0.663   4.492  10.028 -0.0042  0.2241  0.5030
  556MPD2    H5 8256   0.645   4.414  10.090 -0.6282 -0.6857 -0.8250
  556MPD2    N1 8257   0.728   0.022  10.424  0.0174  0.4107 -0.8776
  556MPD2    H7 8258   0.720   4.655  10.468  2.3994  0.6095  0.0011
  557TMC3    C1 8259   0.639   4.321   9.869 -0.5240  0.3909  0.4416
  557TMC3    C2 8260   0.562   4.273   9.761 -0.8329 -0.1002  0.2491
  557TMC3    C3 8261   0.552   4.140   9.746 -0.1361  0.8939 -0.0866
  557TMC3    C4 8262   0.722   4.241   9.944  0.1135 -0.4942 -0.1711
  557TMC3    C5 8263   0.708   4.105   9.921 -0.4939 -0.4668 -0.0724
  557TMC3    C6 8264   0.622   4.050   9.828  0.0522  0.3555 -0.6572
  557TMC3     C 8265   0.654   4.464   9.896 -0.2044 -0.2856  0.3287
  557TMC3     O 8266   0.654   4.525   9.789 -0.3271 -0.4873 -0.1587
  557TMC3     H 8267   0.497   4.338   9.705 -1.3351  0.5195  1.5640
  557TMC3    H1 8268   0.776   4.287  10.027  0.4179 -0.7259 -0.2371
  557TMC3    H2 8269   0.593   3.945   9.834  0.0823  0.4049  0.2562
  557TMC3    C7 8270   0.749   4.015  10.024  0.0843 -0.0418 -0.9367
  557TMC3    C8 8271   0.466   4.094   9.640 -0.0736 -0.2495  0.0598
  557TMC3    O1 8272   0.667   3.924  10.042  0.2349  0.0644 -0.6265
  557TMC3    O2 8273   0.385   4.178   9.603 -0.0717 -0.5090  0.3398
  558TMC3    C1 8274   4.085   2.560  10.282 -1.0942 -0.2545  0.4400
  558TMC3    C2 8275   3.975   2.481  10.270  0.0656 -0.3243 -0.5192
  558TMC3    C3 8276   3.907   2.484  10.151  0.3874  0.2903 -0.0796
  558TMC3    C4 8277   4.139   2.623  10.180  0.1544 -0.4926 -0.0398
  558TMC3    C5 8278   4.081   2.604  10.056 -0.5942 -0.5599  0.4451
  558TMC3    C6 8279   3.957   2.542  10.039  1.2935 -0.6013  0.5169
  558TMC3     C 8280   4.174   2.563  10.396 -0.5331  0.1214  0.1435
  558TMC3     O 8281   4.278   2.628  10.389 -0.9292  0.1738  0.0626
  558TMC3     H 8282   3.938   2.416  10.348 -0.6248 -0.2409 -0.7758
  558TMC3    H1 8283   4.225   2.688  10.184  0.7101 -1.1464 -1.4869
  558TMC3    H2 8284   3.901   2.548   9.946  1.9447  2.3810  0.3375
  558TMC3    C7 8285   4.144   2.659   9.935 -0.3888 -0.0417  0.7000
  558TMC3    C8 8286   3.773   2.436  10.146 -0.1042  0.3356 -0.3406
  558TMC3    O1 8287   4.206   2.762   9.945 -0.2725  0.6502  0.2345
  558TMC3    O2 8288   3.702   2.483  10.058 -0.3433 -0.4330  0.2711
  559MPD2     C 8289   3.857   2.803  10.329  0.1222 -0.5132 -0.2787
  559MPD2    C1 8290   3.776   2.726  10.409  0.0785 -0.6236  0.3888
  559MPD2    C2 8291   3.823   2.701  10.539  0.0908 -0.2146 -0.4749
  559MPD2    C3 8292   3.937   2.752  10.590 -0.4385  0.4169 -0.5080
  559MPD2    C4 8293   4.017   2.838  10.516  0.0888 -0.2111  0.4723
  559MPD2    C5 8294   3.977   2.856  10.381 -0.0553 -0.8248 -0.0673
  559MPD2     H 8295   3.766   2.649  10.615 -3.0261  0.1787 -2.5533
  559MPD2    H1 8296   4.104   2.885  10.560  0.2965  0.7685 -0.9772
  559MPD2    H2 8297   3.838   2.819  10.224  1.6358 -1.1610 -0.6534
  559MPD2    H3 8298   4.048   2.919  10.329 -0.7242 -0.8547 -1.0155
  559MPD2     N 8299   3.966   2.728  10.726 -0.0864 -0.3086 -0.4642
  559MPD2    H5 8300   3.896   2.679  10.782 -0.2557  0.7775  0.2703
  559MPD2    N1 8301   3.660   2.669  10.354 -0.3696 -0.0000  0.2215
  559MPD2    H7 8302   3.639   2.702  10.260  1.5822 -0.0369 -0.2171
  560TMC3    C1 8303   4.057   2.728  10.936  0.3273 -0.1230 -0.2805
  560TMC3    C2 8304   3.982   2.617  10.965 -0.3519  0.1977 -0.1079
  560TMC3    C3 8305   4.001   2.548  11.084 -0.8328  0.3411  0.4839
  560TMC3    C4 8306   4.151   2.769  11.027  0.6248 -0.2822 -0.2909
  560TMC3    C5 8307   4.169   2.699  11.147  0.6553  0.2957  0.1637
  560TMC3    C6 8308   4.095   2.591  11.171  0.0571  0.0972  0.1995
  560TMC3     C 8309   4.060   2.779  10.804  0.5308 -0.0626  0.6249
  560TMC3     O 8310   4.148   2.858  10.776  0.4093  0.4732 -1.0281
  560TMC3     H 8311   3.900   2.580  10.906 -1.2757 -1.3196  2.0976
  560TMC3    H1 8312   4.209   2.857  11.003 -0.9559  1.3841  1.9794
  560TMC3    H2 8313   4.102   2.541  11.267 -0.2374  1.6146  0.9968
  560TMC3    C7 8314   4.257   2.748  11.253 -0.0039 -0.3182  0.7805
  560TMC3    C8 8315   3.936   2.418  11.099 -0.4370 -0.2832 -0.1287
  560TMC3    O1 8316   4.248   2.689  11.354  0.5305  0.2089  0.4901
  560TMC3    O2 8317   3.837   2.396  11.033  0.0082 -0.4046 -0.3442
  561TMC3    C1 8318   1.813   1.429  11.119  0.1718  0.9572 -0.3391
  561TMC3    C2 8319   1.694   1.372  11.138  0.1032 -0.3468 -0.3844
  561TMC3    C3 8320   1.607   1.445  11.211 -0.4145  0.8079  0.1212
  561TMC3    C4 8321   1.842   1.551  11.159  0.0592 -0.0667 -0.7385
  561TMC3    C5 8322   1.749   1.627  11.226 -0.3813 -0.0402  0.0467
  561TMC3    C6 8323   1.629   1.577  11.250  0.3696  0.3366 -0.1219
  561TMC3     C 8324   1.918   1.359  11.043  0.4706  0.3269  0.0031
  561TMC3     O 8325   2.027   1.414  11.028  0.2968 -0.2563 -0.0645
  561TMC3     H 8326   1.666   1.271  11.108 -2.8069  0.0029  1.1743
  561TMC3    H1 8327   1.947   1.577  11.154 -0.0474  0.7769  1.0365
  561TMC3    H2 8328   1.555   1.640  11.299  0.5596 -0.0857  0.7044
  561TMC3    C7 8329   1.792   1.751  11.291 -0.2038 -0.3850 -0.1203
  561TMC3    C8 8330   1.489   1.375  11.248 -0.6244 -0.3871 -0.3717
  561TMC3    O1 8331   1.721   1.792  11.382  0.2254 -0.2324  0.0132
  561TMC3    O2 8332   1.454   1.265  11.207  0.4671 -0.8380  0.3017
  562TMC3    C1 8333   2.977   2.895  15.486  0.1737  0.2644  0.1542
  562TMC3    C2 8334   2.908   2.998  15.425  0.3398 -0.2842  0.2193
  562TMC3    C3 8335   2.845   2.962  15.305 -0.4421 -0.3444 -0.3086
  562TMC3    C4 8336   2.975   2.763  15.436  0.1270  0.2455 -0.0416
  562TMC3    C5 8337   2.908   2.737  15.321 -1.0201 -0.2178 -0.3949
  562TMC3    C6 8338   2.846   2.835  15.254 -0.7955 -0.1129  0.0073
  562TMC3     C 8339   3.047   2.918  15.613 -0.4446 -0.0286  0.1868
  562TMC3     O 8340   3.055   2.822  15.691 -0.0200 -0.0411  0.9608
  562TMC3     H 8341   2.905   3.103  15.453  2.4239 -0.0515 -0.3971
  562TMC3    H1 8342   3.015   2.688  15.504  2.1818  0.7125 -0.7440
  562TMC3    H2 8343   2.786   2.821  15.165 -0.9555  1.6548 -0.1611
  562TMC3    C7 8344   2.876   2.600  15.288 -0.1786  0.3844 -0.2486
  562TMC3    C8 8345   2.709   3.022  15.278  0.0544  0.4393 -0.4966
  562TMC3    O1 8346   2.838   2.582  15.174  0.0438 -0.5309 -0.5871
  562TMC3    O2 8347   2.634   3.034  15.371  0.1727 -0.2539 -0.0132
  563MPD2     C 8348   0.394   4.292  15.238 -0.4346  0.2580  0.0845
  563MPD2    C1 8349   0.354   4.317  15.368  0.5732 -0.0631  0.2937
  563MPD2    C2 8350   0.405   4.418  15.440  0.3906  0.4375  0.4343
  563MPD2    C3 8351   0.513   4.488  15.384 -0.5237 -0.9634 -0.2305
  563MPD2    C4 8352   0.561   4.460  15.260  0.4057  0.4378  0.4054
  563MPD2    C5 8353   0.504   4.359  15.187  0.3247  0.2525 -0.2004
  563MPD2     H 8354   0.381   4.432  15.545 -0.8609  0.7386  0.1027
  563MPD2    H1 8355   0.652   4.500  15.216  1.1332 -1.7592 -0.1099
  563MPD2    H2 8356   0.335   4.224  15.177 -0.3763 -0.3196  0.6676
  563MPD2    H3 8357   0.544   4.322  15.093 -1.9563 -2.1621 -0.2275
  563MPD2     N 8358   0.574   4.579  15.482  0.3885  0.1171  0.5030
  563MPD2    H5 8359   0.534   4.596  15.574 -0.0954 -0.0931  0.3336
  563MPD2    N1 8360   0.258   4.234  15.428 -0.0115  0.0215 -0.4204
  563MPD2    H7 8361   0.246   4.252  15.527  1.9946 -2.1070  0.2019
  564TMC3    C1 8362   0.123   4.041  15.475  0.8449 -0.2577 -0.1480
  564TMC3    C2 8363   0.011   3.960  15.454  0.7427  0.0966  0.0386
  564TMC3    C3 8364   4.677   3.886  15.555  0.2308  0.2941 -0.2145
  564TMC3    C4 8365   0.172   4.039  15.600  0.7888 -0.1352 -0.0604
  564TMC3    C5 8366   0.114   3.963  15.695  0.3795  0.8239 -0.0318
  564TMC3    C6 8367   0.000   3.887  15.679  0.5576 -0.2787 -0.1557
  564TMC3     C 8368   0.200   4.123  15.374 -0.1190 -0.5954 -0.3996
  564TMC3     O 8369   0.187   4.084  15.257 -0.7398 -0.3033 -0.6686
  564TMC3     H 8370   4.706   3.949  15.350  1.6965 -0.8704 -0.1215
  564TMC3    H1 8371   0.270   4.084  15.610  0.7647 -0.6082  2.3376
  564TMC3    H2 8372   4.675   3.824  15.753 -2.3289  1.4215 -0.6052
  564TMC3    C7 8373   0.217   3.900  15.774 -0.0182  0.4638  0.3805
  564TMC3    C8 8374   4.660   3.743  15.522  0.1227 -0.6188  0.3728
  564TMC3    O1 8375   0.291   3.973  15.843 -0.2842 -1.2894  0.4723
  564TMC3    O2 8376   0.002   3.673  15.598  0.4676 -0.1651  0.2699
  565TMC3    C1 8377   0.405   0.783   9.648  0.4634  1.0197 -0.4987
  565TMC3    C2 8378   0.375   0.675   9.717  0.3572  0.6505  0.3415
  565TMC3    C3 8379   0.243   0.635   9.713 -0.6080 -0.3354 -0.2291
  565TMC3    C4 8380   0.314   0.841   9.566  0.2699  0.1526 -0.1464
  565TMC3    C5 8381   0.186   0.797   9.562  0.4192  0.5585  0.4974
  565TMC3    C6 8382   0.143   0.694   9.634  0.4329 -0.8533  0.2103
  565TMC3     C 8383   0.528   0.865   9.678  0.1080  0.2140 -0.0587
  565TMC3     O 8384   0.554   0.954   9.597 -0.6432  0.1789  0.3592
  565TMC3     H 8385   0.444   0.617   9.777 -0.8892 -0.0072  1.1396
  565TMC3    H1 8386   0.338   0.924   9.500 -1.1428 -0.2103 -1.1061
  565TMC3    H2 8387   0.037   0.681   9.653  0.2358 -0.0437 -0.3278
  565TMC3    C7 8388   0.088   0.858   9.472 -0.5217  0.2097 -0.2628
  565TMC3    C8 8389   0.202   0.543   9.817  0.5331  0.1210  0.7796
  565TMC3    O1 8390   4.696   0.814   9.478  0.0533  0.1754  0.1321
  565TMC3    O2 8391   0.269   0.541   9.918 -0.1456  0.1424 -0.0348
  566MPD2     C 8392   2.203   2.305  14.424  0.4061  0.5770 -0.1889
  566MPD2    C1 8393   2.246   2.402  14.326 -0.3142 -0.4210 -0.1564
  566MPD2    C2 8394   2.173   2.408  14.207  0.2630  0.5666 -0.1204
  566MPD2    C3 8395   2.087   2.302  14.171 -0.6908 -0.2093 -0.3181
  566MPD2    C4 8396   2.068   2.198  14.263 -0.5076 -0.0727 -0.0528
  566MPD2    C5 8397   2.110   2.207  14.391 -0.4204  0.5608  0.0941
  566MPD2     H 8398   2.193   2.483  14.131  2.1408  0.1141 -0.0796
  566MPD2    H1 8399   2.003   2.115  14.237  0.6832 -0.7775 -0.7769
  566MPD2    H2 8400   2.246   2.299  14.523  1.0142 -0.0110 -0.4834
  566MPD2    H3 8401   2.093   2.125  14.460  0.0723  0.8375  0.5325
  566MPD2     N 8402   2.013   2.307  14.047  0.4221  0.4186  0.4184
  566MPD2    H5 8403   2.023   2.394  13.996  1.3151 -1.9619 -3.5582
  566MPD2    N1 8404   2.367   2.468  14.339  0.4860 -0.0363  1.2382
  566MPD2    H7 8405   2.418   2.475  14.426 -0.5031 -0.0588  1.8124
  567TMC3    C1 8406   2.563   2.571  14.265 -0.2375 -0.1363 -0.5584
  567TMC3    C2 8407   2.625   2.653  14.178 -0.1495  0.1276  0.4707
  567TMC3    C3 8408   2.737   2.609  14.118 -0.2821 -0.0608 -0.5333
  567TMC3    C4 8409   2.632   2.464  14.321  0.4966 -0.0617  0.8285
  567TMC3    C5 8410   2.747   2.427  14.263 -0.3655 -0.2120  0.3272
  567TMC3    C6 8411   2.797   2.493  14.152  0.6821  0.4867  0.3731
  567TMC3     C 8412   2.422   2.550  14.242 -0.2192 -0.5290  0.5040
  567TMC3     O 8413   2.368   2.600  14.149  0.3532  0.3747 -0.3286
  567TMC3     H 8414   2.573   2.741  14.143  2.1912  0.8974 -1.0544
  567TMC3    H1 8415   2.578   2.396  14.387  1.8995 -0.9489  1.0490
  567TMC3    H2 8416   2.891   2.458  14.111  0.4344 -1.4322  1.4532
  567TMC3    C7 8417   2.816   2.305  14.311  0.2541  0.2238 -0.0700
  567TMC3    C8 8418   2.755   2.656  13.980 -0.4414  0.5449 -0.4118
  567TMC3    O1 8419   2.882   2.255  14.218  0.5893  0.0574  0.7632
  567TMC3    O2 8420   2.662   2.715  13.922  0.3422 -0.3418  0.0283
  568MPD2     C 8421   0.299   2.362  15.777 -0.2044 -0.6131 -1.3223
  568MPD2    C1 8422   0.290   2.444  15.892 -0.4660 -0.1591  0.1631
  568MPD2    C2 8423   0.192   2.542  15.885  0.4217 -0.3202  0.2758
  568MPD2    C3 8424   0.122   2.571  15.767 -0.3270 -0.1835 -0.0297
  568MPD2    C4 8425   0.129   2.486  15.658 -0.7249  0.3663  0.4410
  568MPD2    C5 8426   0.215   2.379  15.668 -0.2479  0.5546  0.1669
  568MPD2     H 8427   0.169   2.600  15.973  0.4932 -1.6419  1.1744
  568MPD2    H1 8428   0.075   2.495  15.565  2.0761  1.6819 -1.0510
  568MPD2    H2 8429   0.371   2.282  15.768  1.1043  0.4752 -0.5659
  568MPD2    H3 8430   0.224   2.318  15.579 -3.1091  0.1070  0.2113
  568MPD2     N 8431   0.042   2.692  15.764 -0.1770 -0.0088  0.1618
  568MPD2    H5 8432   0.033   2.749  15.848  1.7297 -0.1949  0.4989
  568MPD2    N1 8433   0.366   2.408  16.005  0.0041  0.1472 -0.3533
  568MPD2    H7 8434   0.425   2.325  16.003 -0.7189 -0.2914 -2.6816
  569TMC3    C1 8435   4.631   2.872  15.672  0.0900 -0.7861 -0.4310
  569TMC3    C2 8436   4.637   2.940  15.790 -0.0978  0.2790 -0.5283
  569TMC3    C3 8437   4.578   3.062  15.795 -0.6335 -0.1444 -0.1185
  569TMC3    C4 8438   4.567   2.918  15.564 -0.3129  0.0756 -0.4321
  569TMC3    C5 8439   4.523   3.047  15.573 -0.0443 -0.1750 -0.3326
  569TMC3    C6 8440   4.525   3.119  15.686 -0.1575 -0.3812 -0.6710
  569TMC3     C 8441   4.699   2.746  15.654 -0.9072 -0.2705  0.0907
  569TMC3     O 8442   4.706   2.700  15.542  0.3277  0.5256  0.2666
  569TMC3     H 8443   4.704   2.907  15.868 -1.4074  1.2638  0.9998
  569TMC3    H1 8444   4.564   2.856  15.475  2.3824  0.0749 -0.5091
  569TMC3    H2 8445   4.473   3.214  15.675  0.5069  0.1264  0.6291
  569TMC3    C7 8446   4.508   3.114  15.445 -0.0227 -0.0770 -0.8094
  569TMC3    C8 8447   4.620   3.141  15.904  0.1634  0.5387  0.0064
  569TMC3    O1 8448   4.457   3.044  15.358 -0.6327 -0.6504  0.1368
  569TMC3    O2 8449   4.675   3.077  15.993 -0.4609  0.0617  0.0300
  570TMC3    C1 8450   4.127   1.506  15.841 -0.2656 -0.3543  0.2298
  570TMC3    C2 8451   4.208   1.537  15.732  0.5141 -0.3963 -0.8159
  570TMC3    C3 8452   4.235   1.668  15.707  0.3147  0.2319 -0.2807
  570TMC3    C4 8453   4.074   1.600  15.919 -0.4434  0.2232 -0.3655
  570TMC3    C5 8454   4.091   1.731  15.874 -0.1643 -0.3550 -0.8724
  570TMC3    C6 8455   4.179   1.769  15.777  0.5140 -0.2500  0.6453
  570TMC3     C 8456   4.112   1.361  15.869 -0.0583 -0.0650 -0.1289
  570TMC3     O 8457   4.133   1.281  15.780  0.9042  0.5167  0.4163
  570TMC3     H 8458   4.263   1.464  15.674  1.3859  0.2555 -0.8128
  570TMC3    H1 8459   4.002   1.573  15.996 -0.1054 -0.8280 -0.4213
  570TMC3    H2 8460   4.204   1.872  15.752 -1.4805 -0.1249 -0.8507
  570TMC3    C7 8461   4.054   1.839  15.967  0.6572  0.5642  0.2507
  570TMC3    C8 8462   4.337   1.697  15.605 -0.1825 -0.3365 -0.6953
  570TMC3    O1 8463   4.038   1.804  16.085 -0.5984  0.1885 -0.1663
  570TMC3    O2 8464   4.348   1.817  15.576 -0.2590 -0.0727 -0.2785
  571MPD2     C 8465   2.264   3.036  17.082  0.0057  0.0491 -0.1290
  571MPD2    C1 8466   2.175   3.015  17.183 -0.2862 -0.7532 -0.1648
  571MPD2    C2 8467   2.188   3.080  17.304 -0.4997  0.0904 -0.0694
  571MPD2    C3 8468   2.292   3.169  17.325  0.2359  0.0494 -0.1762
  571MPD2    C4 8469   2.375   3.194  17.223 -0.1429 -0.9183  0.1589
  571MPD2    C5 8470   2.364   3.126  17.103 -0.3013 -0.3757 -0.0460
  571MPD2     H 8471   2.115   3.070  17.383 -1.9950 -1.7380 -1.7007
  571MPD2    H1 8472   2.446   3.275  17.236 -3.9806  2.4454  0.4318
  571MPD2    H2 8473   2.250   2.994  16.983  0.8603 -1.0578  0.2264
  571MPD2    H3 8474   2.427   3.157  17.020  0.4909 -3.7312 -0.7333
  571MPD2     N 8475   2.312   3.242  17.442  0.5344  0.3063 -0.1889
  571MPD2    H5 8476   2.387   3.311  17.448 -0.3010  1.3558 -1.9177
  571MPD2    N1 8477   2.078   2.912  17.160  0.1223 -0.2624  0.1844
  571MPD2    H7 8478   2.085   2.860  17.072  2.0543 -1.0018  0.7796
  572TMC3    C1 8479   2.276   3.319  17.660  0.2060  0.0796 -0.7199
  572TMC3    C2 8480   2.307   3.287   0.094  0.0633 -0.8701 -0.6002
  572TMC3    C3 8481   2.335   3.392   0.179  0.0741 -0.4014 -0.4276
  572TMC3    C4 8482   2.277   3.447  17.608 -0.2961  0.4875  0.1030
  572TMC3    C5 8483   2.299   3.550  17.695 -0.2244  0.2129 -0.2601
  572TMC3    C6 8484   2.324   3.522   0.132  0.1983 -0.0674  0.2530
  572TMC3     C 8485   2.244   3.215  17.563 -0.1224  0.4411  0.1077
  572TMC3     O 8486   2.173   3.120  17.606  0.3539 -0.2284 -0.1904
  572TMC3     H 8487   2.335   3.187   0.124  0.1089 -0.7885 -0.3686
  572TMC3    H1 8488   2.237   3.475  17.511  0.1887 -0.6827 -0.4364
  572TMC3    H2 8489   2.349   3.599   0.204  1.0017  0.5565 -0.6851
  572TMC3    C7 8490   2.306   3.683  17.643  0.3755 -0.7278 -0.5604
  572TMC3    C8 8491   2.366   3.369   0.315 -0.3711 -0.1204  0.0690
  572TMC3    O1 8492   2.290   3.687  17.523 -0.2556 -0.2145 -0.7863
  572TMC3    O2 8493   2.438   3.454   0.366  0.2291 -0.4579  0.1163
  573MPD2     C 8494   3.825   3.532   0.368  0.1802  0.3988  0.3164
  573MPD2    C1 8495   3.791   3.660   0.407  0.2862 -0.8677 -0.2129
  573MPD2    C2 8496   3.726   3.735   0.309  0.3517  0.6583 -0.6310
  573MPD2    C3 8497   3.708   3.685   0.180 -0.6787 -0.5707 -1.4258
  573MPD2    C4 8498   3.742   3.557   0.144 -0.7171  0.1985 -0.1909
  573MPD2    C5 8499   3.802   3.484   0.243 -0.6313 -0.4935  0.1739
  573MPD2     H 8500   3.695   3.836   0.332 -0.6617  1.2174 -4.4814
  573MPD2    H1 8501   3.722   3.515   0.045 -2.0023  1.9978 -0.7007
  573MPD2    H2 8502   3.866   3.456   0.434 -1.0985  0.1892  0.8676
  573MPD2    H3 8503   3.851   3.390   0.221  1.0215  0.1596  1.0620
  573MPD2     N 8504   3.645   3.782   0.096 -0.4146  0.3914 -0.0212
  573MPD2    H5 8505   3.612   3.862   0.149 -0.2661  1.3124 -1.3233
  573MPD2    N1 8506   3.801   3.689   0.545 -1.6736  0.1019  0.8209
  573MPD2    H7 8507   3.823   3.616   0.612  0.2671 -1.7159 -1.7516
  574TMC3    C1 8508   3.509   3.842  17.617 -0.4371  0.8598 -0.2237
  574TMC3    C2 8509   3.411   3.885   0.006  0.1344  0.1915  0.3824
  574TMC3    C3 8510   3.324   3.972  17.650  0.1757 -0.7339  0.0584
  574TMC3    C4 8511   3.510   3.873  17.487  0.0458  0.6011 -1.0272
  574TMC3    C5 8512   3.408   3.946  17.436  0.1668 -0.4143 -0.3744
  574TMC3    C6 8513   3.325   4.015  17.520  0.5656 -0.1691  0.1030
  574TMC3     C 8514   3.604   3.748  17.665 -0.3605  0.3216  0.2535
  574TMC3     O 8515   3.635   3.655  17.588 -0.3588 -0.0643  0.1633
  574TMC3     H 8516   3.382   3.825   0.091  0.1284 -0.2780  0.0496
  574TMC3    H1 8517   3.577   3.810  17.428 -0.7073 -0.6040 -0.5989
  574TMC3    H2 8518   3.268   4.102  17.491  0.8909  0.7211  2.1331
  574TMC3    C7 8519   3.426   3.986  17.299 -0.2619  0.0342 -0.3652
  574TMC3    C8 8520   3.209   4.011   0.044  1.0238  0.0295 -0.5277
  574TMC3    O1 8521   3.530   3.942  17.247  0.3125 -0.2379 -0.4492
  574TMC3    O2 8522   3.204   3.978   0.163  0.8068  0.2714 -0.0100
  575TMC3    C1 8523   0.137   0.135  10.606 -0.0741 -0.1608 -0.6716
  575TMC3    C2 8524   0.033   0.043  10.623  0.2573  0.4158  0.7598
  575TMC3    C3 8525   4.675   0.023  10.517  0.0616  0.2939  0.2121
  575TMC3    C4 8526   0.151   0.199  10.487 -0.5049 -0.3476 -0.0044
  575TMC3    C5 8527   0.060   0.173  10.388  0.3234  0.8721  0.0186
  575TMC3    C6 8528   4.678   0.089  10.402  0.1024  0.0556 -0.6641
  575TMC3     C 8529   0.222   0.156  10.722 -0.4634  0.3903 -0.0051
  575TMC3     O 8530   0.168   0.142  10.829 -0.0626  0.1636  0.5967
  575TMC3     H 8531   0.024   4.709  10.714 -0.6185  2.7314  2.1550
  575TMC3    H1 8532   0.219   0.282  10.474 -0.9457  0.2697  1.6022
  575TMC3    H2 8533   4.595   0.079  10.333 -0.2839 -2.4926  0.1811
  575TMC3    C7 8534   0.094   0.230  10.258 -0.2136 -0.0171  0.2996
  575TMC3    C8 8535   4.580   4.639  10.523  0.0150 -0.0378 -0.7330
  575TMC3    O1 8536   0.165   0.331  10.246  0.2718  0.1838 -0.3077
  575TMC3    O2 8537   4.538   4.598  10.417  0.1572 -0.0957 -0.3507
  576MPD2     C 8538   0.578   1.745  12.334 -0.7006 -0.0109 -0.4827
  576MPD2    C1 8539   0.608   1.857  12.264  0.2393  0.2781 -0.5794
  576MPD2    C2 8540   0.572   1.980  12.309  0.1213 -0.1902 -0.4424
  576MPD2    C3 8541   0.488   1.998  12.419 -0.2634 -0.8400 -0.5222
  576MPD2    C4 8542   0.446   1.882  12.482  0.2537 -0.3486 -0.1875
  576MPD2    C5 8543   0.492   1.757  12.440  0.0105  0.0477  0.0816
  576MPD2     H 8544   0.603   2.068  12.254 -0.8160  0.5564  0.2280
  576MPD2    H1 8545   0.387   1.871  12.572 -0.3167 -0.6997 -0.6053
  576MPD2    H2 8546   0.588   1.644  12.297 -0.8524 -0.8461  1.7447
  576MPD2    H3 8547   0.470   1.674  12.507 -0.3587 -0.0364 -0.1410
  576MPD2     N 8548   0.454   2.126  12.460  0.6431 -0.3270  0.2626
  576MPD2    H5 8549   0.488   2.208  12.410  1.4402 -0.5683  0.4245
  576MPD2    N1 8550   0.697   1.860  12.156  0.4631 -0.9039  0.6180
  576MPD2    H7 8551   0.721   1.946  12.108  0.4653  0.9935  4.0541
  577TMC3    C1 8552   0.855   1.778  12.001  0.7947 -0.6908 -0.1560
  577TMC3    C2 8553   0.939   1.674  11.976  0.4768  0.5460  0.4506
  577TMC3    C3 8554   1.002   1.674  11.853 -0.9001 -0.1783  0.5255
  577TMC3    C4 8555   0.826   1.876  11.912  0.7357 -0.6031  0.0629
  577TMC3    C5 8556   0.894   1.871  11.787  0.6674  0.0894  0.0184
  577TMC3    C6 8557   0.982   1.772  11.758 -0.2611  0.0675  0.2152
  577TMC3     C 8558   0.767   1.755  12.118 -0.2183 -0.6542  0.1215
  577TMC3     O 8559   0.751   1.638  12.148  0.1322 -0.0164  0.7485
  577TMC3     H 8560   0.962   1.600  12.052  2.3928  0.2091 -0.4464
  577TMC3    H1 8561   0.766   1.962  11.939  1.5491  0.3115 -1.0089
  577TMC3    H2 8562   1.020   1.756  11.658  0.6479  1.4924  0.3260
  577TMC3    C7 8563   0.873   1.974  11.690 -0.6492  0.6474 -0.2610
  577TMC3    C8 8564   1.060   1.553  11.808 -0.3313 -0.3044  0.0734
  577TMC3    O1 8565   0.971   2.008  11.629  0.1194 -0.4428  0.7126
  577TMC3    O2 8566   1.028   1.447  11.864 -0.2063 -0.1211 -0.7540
  578MPD2     C 8567   3.659   1.698   0.890 -0.4202 -0.4150  0.2483
  578MPD2    C1 8568   3.645   1.635   0.769  0.8378 -0.3022  0.1123
  578MPD2    C2 8569   3.616   1.498   0.779  0.1689 -0.3219  0.0435
  578MPD2    C3 8570   3.614   1.430   0.898 -1.3395  0.0207 -0.0900
  578MPD2    C4 8571   3.664   1.503   1.009  0.3724  0.4603  0.3738
  578MPD2    C5 8572   3.685   1.636   1.008  0.4135  0.1670 -0.5354
  578MPD2     H 8573   3.589   1.447   0.688 -1.2826 -0.6037  0.6294
  578MPD2    H1 8574   3.666   1.448   1.102  0.5300 -0.1529  0.0065
  578MPD2    H2 8575   3.663   1.806   0.893 -0.5297 -0.4031 -0.0196
  578MPD2    H3 8576   3.706   1.698   1.094 -0.8456 -0.6864  0.3874
  578MPD2     N 8577   3.600   1.286   0.885 -0.0211 -0.3354  0.5908
  578MPD2    H5 8578   3.583   1.243   0.795 -0.2601  0.0967  0.4283
  578MPD2    N1 8579   3.642   1.712   0.655  0.1586  0.2303 -0.1668
  578MPD2    H7 8580   3.666   1.809   0.671 -0.0941 -0.0704  1.9338
  579TMC3    C1 8581   3.585   1.061   0.959 -0.3576  0.9036  0.4196
  579TMC3    C2 8582   3.683   0.976   1.001 -0.6766  0.0808 -0.1801
  579TMC3    C3 8583   3.672   0.846   0.975  0.2114  0.7961  0.4179
  579TMC3    C4 8584   3.483   1.027   0.878 -0.0511  0.1692  0.4993
  579TMC3    C5 8585   3.472   0.889   0.870  0.0713 -0.1571  0.3685
  579TMC3    C6 8586   3.562   0.800   0.919  0.6226 -0.1834  0.5831
  579TMC3     C 8587   3.613   1.200   0.987 -0.1600 -0.0726  0.6226
  579TMC3     O 8588   3.638   1.226   1.104  0.6667 -0.3398  0.2361
  579TMC3     H 8589   3.749   1.014   1.079  1.3938 -3.0885 -0.3969
  579TMC3    H1 8590   3.417   1.100   0.832 -1.1166 -1.2601 -0.2325
  579TMC3    H2 8591   3.554   0.694   0.899  1.4628 -0.1195 -0.0770
  579TMC3    C7 8592   3.348   0.846   0.807 -0.3496 -0.1211 -0.5222
  579TMC3    C8 8593   3.771   0.753   1.012  0.5402 -0.3540 -0.2253
  579TMC3    O1 8594   3.303   0.908   0.710 -0.3644 -0.2028  0.9238
  579TMC3    O2 8595   3.745   0.634   0.996  0.4179  0.6062 -0.2983
  580TMC3    C1 8596   2.808   1.611  11.787 -0.3636  0.1632 -0.5723
  580TMC3    C2 8597   2.868   1.717  11.849  0.5933  0.1060 -0.4282
  580TMC3    C3 8598   2.980   1.684  11.922  0.4400 -0.0767  0.0152
  580TMC3    C4 8599   2.845   1.482  11.809  0.7315 -0.3900  0.4601
  580TMC3    C5 8600   2.938   1.457  11.908 -0.2357 -0.4271  0.4176
  580TMC3    C6 8601   3.010   1.554  11.963 -0.7760 -0.6441  0.2771
  580TMC3     C 8602   2.790   1.628  11.649  0.7076  0.2915  0.6061
  580TMC3     O 8603   2.841   1.557  11.569  0.5331  0.1726 -0.3430
  580TMC3     H 8604   2.855   1.820  11.818  3.8021  0.4164 -0.7502
  580TMC3    H1 8605   2.791   1.402  11.759  0.0705 -0.1310  0.7680
  580TMC3    H2 8606   3.089   1.528  12.032 -0.5617  0.0395  0.2954
  580TMC3    C7 8607   3.007   1.324  11.903 -0.0547  0.0876  0.4112
  580TMC3    C8 8608   3.098   1.759  11.904 -0.1399  0.5911 -0.5234
  580TMC3    O1 8609   3.131   1.333  11.907 -0.2254  0.1467  0.5621
  580TMC3    O2 8610   3.088   1.879  11.903 -0.1786 -0.1871  0.3376
  581MPD2     C 8611   0.976   0.767  14.301 -0.2599  0.4777 -1.0606
  581MPD2    C1 8612   0.849   0.724  14.325  0.0031 -0.3255 -0.4901
  581MPD2    C2 8613   0.745   0.805  14.281  0.2100  0.0383 -0.0356
  581MPD2    C3 8614   0.774   0.922  14.214 -1.0032 -0.3726  0.2203
  581MPD2    C4 8615   0.903   0.954  14.181 -0.0137  0.2011 -0.1850
  581MPD2    C5 8616   1.001   0.874  14.223  0.0704  0.4758  0.4922
  581MPD2     H 8617   0.644   0.777  14.308 -0.0233 -0.2495 -1.1893
  581MPD2    H1 8618   0.924   1.033  14.111  1.2151 -0.7423 -0.8859
  581MPD2    H2 8619   1.059   0.711  14.341  0.9723  1.5919 -2.0731
  581MPD2    H3 8620   1.103   0.905  14.202 -1.1598  3.1823 -1.5065
  581MPD2     N 8621   0.669   1.009  14.175 -0.1108 -0.7739  0.2845
  581MPD2    H5 8622   0.576   0.970  14.170  0.0291 -0.9922 -0.7000
  581MPD2    N1 8623   0.820   0.600  14.396  0.3969  1.3205  0.7901
  581MPD2    H7 8624   0.900   0.559  14.444  0.1391  0.4968  0.5182
  582TMC3    C1 8625   0.697   0.474  14.550 -0.0863 -0.2231  0.0444
  582TMC3    C2 8626   0.814   0.412  14.590  0.0651  0.5147 -0.1109
  582TMC3    C3 8627   0.824   0.383  14.723 -0.2971  0.1659 -0.0881
  582TMC3    C4 8628   0.585   0.476  14.633  0.0280  0.8213 -0.2419
  582TMC3    C5 8629   0.597   0.445  14.764  0.4764  0.1908  0.3397
  582TMC3    C6 8630   0.719   0.402  14.813 -0.5107  0.1279 -0.0500
  582TMC3     C 8631   0.687   0.558  14.430 -0.0142 -0.3400  0.4891
  582TMC3     O 8632   0.572   0.589  14.392 -0.4201  0.3320  0.9639
  582TMC3     H 8633   0.901   0.403  14.526 -0.5288  0.9894 -0.9811
  582TMC3    H1 8634   0.489   0.515  14.601  0.1146  1.6124  0.4774
  582TMC3    H2 8635   0.724   0.378  14.919  2.1642 -0.0274 -0.2087
  582TMC3    C7 8636   0.510   0.518  14.863 -0.2527  0.3856  0.5808
  582TMC3    C8 8637   0.950   0.348  14.778  0.5041  0.0868  0.0020
  582TMC3    O1 8638   0.500   0.472  14.976  0.0635  0.2859  0.0992
  582TMC3    O2 8639   1.027   0.273  14.717  0.1532 -0.0521 -0.2402
  583MPD2     C 8640   1.075   2.165  16.522  0.8272 -0.1885 -0.0045
  583MPD2    C1 8641   1.105   2.282  16.452 -0.2162 -0.3685 -0.5457
  583MPD2    C2 8642   1.038   2.395  16.494  0.9398  0.5811  0.0027
  583MPD2    C3 8643   0.946   2.396  16.600 -0.2414 -0.1416  0.2599
  583MPD2    C4 8644   0.931   2.277  16.673 -0.1362 -0.1225  0.0371
  583MPD2    C5 8645   1.006   2.162  16.640 -0.3608  0.3091 -0.2354
  583MPD2     H 8646   1.048   2.489  16.442  2.1721  0.0279 -0.7523
  583MPD2    H1 8647   0.873   2.263  16.763 -1.8012  1.0141 -0.8741
  583MPD2    H2 8648   1.114   2.070  16.489 -0.1935  0.0222 -1.8438
  583MPD2    H3 8649   0.988   2.074  16.701 -1.9921  1.1829  0.5669
  583MPD2     N 8650   0.863   2.507  16.617  0.3226  0.1978 -0.0428
  583MPD2    H5 8651   0.881   2.588  16.559  1.3603  0.6355  0.9079
  583MPD2    N1 8652   1.188   2.287  16.338 -0.8396  0.7663  0.8736
  583MPD2    H7 8653   1.191   2.375  16.287  1.7625 -0.2934 -0.7831
  584TMC3    C1 8654   0.710   2.657  16.735  0.1766 -0.4564  1.3518
  584TMC3    C2 8655   0.740   2.756  16.643  0.2145  0.1160 -0.1873
  584TMC3    C3 8656   0.720   2.885  16.680 -0.2619 -0.5087 -0.5976
  584TMC3    C4 8657   0.649   2.682  16.856  1.0456  0.6429 -0.4416
  584TMC3    C5 8658   0.636   2.818  16.892  0.5766 -0.4489  0.6708
  584TMC3    C6 8659   0.658   2.918  16.794  0.0801  0.5486 -0.0134
  584TMC3     C 8660   0.785   2.529  16.732  0.4881  0.8438 -0.1472
  584TMC3     O 8661   0.764   2.461  16.830  0.5010  0.1343  0.0501
  584TMC3     H 8662   0.790   2.739  16.549  2.3743  1.3600  0.7310
  584TMC3    H1 8663   0.642   2.608  16.935 -0.3007 -0.1015 -1.2643
  584TMC3    H2 8664   0.641   3.025  16.800  0.1303  0.3828  3.1165
  584TMC3    C7 8665   0.609   2.842  17.031  0.1904  0.0145 -0.0067
  584TMC3    C8 8666   0.812   2.979  16.622 -0.8918  0.3624 -0.0212
  584TMC3    O1 8667   0.579   2.742  17.095  0.7559  0.7358  0.1106
  584TMC3    O2 8668   0.837   2.957  16.505  0.2776  0.2920 -0.2749
  585MPD2     C 8669   1.124   0.493   0.533  0.4418  0.1896  0.2556
  585MPD2    C1 8670   1.020   0.566   0.475  0.1693  0.2804  0.3712
  585MPD2    C2 8671   0.978   0.525   0.349  0.0651  0.9244  0.0618
  585MPD2    C3 8672   1.050   0.427   0.274  0.5086 -0.4381 -0.2259
  585MPD2    C4 8673   1.161   0.367   0.335 -0.5402  0.4693  0.3498
  585MPD2    C5 8674   1.192   0.395   0.465 -0.0582 -0.1413 -0.3032
  585MPD2     H 8675   0.894   0.577   0.305  0.0333  1.7592  1.1014
  585MPD2    H1 8676   1.216   0.290   0.283 -1.2950 -0.9674  1.6925
  585MPD2    H2 8677   1.160   0.515   0.633 -0.8318 -0.2514  0.8087
  585MPD2    H3 8678   1.265   0.333   0.517  0.7197  0.6742 -0.4217
  585MPD2     N 8679   1.002   0.386   0.146 -0.0499 -0.5177 -0.1375
  585MPD2    H5 8680   1.044   0.301   0.108 -0.4152 -1.0309  0.6210
  585MPD2    N1 8681   0.963   0.662   0.559  0.6534 -0.5116 -0.3175
  585MPD2    H7 8682   1.001   0.675   0.652  0.4435  0.5162 -0.3731
  586TMC3    C1 8683   0.877   0.392  17.630 -0.3698  0.4744 -0.4558
  586TMC3    C2 8684   0.945   0.286  17.565 -0.0434 -0.3714 -0.2421
  586TMC3    C3 8685   0.914   0.256  17.435 -0.3464 -0.1632 -0.0976
  586TMC3    C4 8686   0.776   0.452  17.564  0.2219  0.3239  0.1330
  586TMC3    C5 8687   0.742   0.405  17.437  0.0212 -0.4800 -0.7000
  586TMC3    C6 8688   0.809   0.309  17.365 -0.3974 -0.1138 -0.7943
  586TMC3     C 8689   0.910   0.449   0.065 -1.0928  0.1593 -0.5356
  586TMC3     O 8690   0.850   0.557   0.087  0.2222  0.1023 -0.1575
  586TMC3     H 8691   1.025   0.241  17.623  1.6197 -0.0071 -2.2691
  586TMC3    H1 8692   0.715   0.528  17.611  0.6978 -0.0997  1.4119
  586TMC3    H2 8693   0.778   0.273  17.268  1.4105 -0.2279 -1.3156
  586TMC3    C7 8694   0.628   0.463  17.366 -0.2811 -0.1191  0.1242
  586TMC3    C8 8695   1.014   0.167  17.366 -0.0776  0.1111  0.8717
  586TMC3    O1 8696   0.532   0.502  17.433 -0.3883 -0.0143  0.4722
  586TMC3    O2 8697   1.093   0.105  17.439  0.1819 -0.2523 -0.3658
  587TMC3    C1 8698   2.873   0.081  15.943 -0.4163 -0.2290  0.1855
  587TMC3    C2 8699   2.826   0.199  15.896 -0.1098 -0.6809  0.8867
  587TMC3    C3 8700   2.859   0.241  15.769 -0.7910  0.3220 -0.7790
  587TMC3    C4 8701   2.939   4.716  15.861  0.7107  0.5801  0.2074
  587TMC3    C5 8702   2.958   0.034  15.732 -0.1215 -0.2792  0.1080
  587TMC3    C6 8703   2.922   0.159  15.683  0.5858 -0.7310  0.5263
  587TMC3     C 8704   2.814   0.034  16.068  0.1186  0.1091 -0.0724
  587TMC3     O 8705   2.734   0.114  16.117  0.7191 -0.0589 -0.5374
  587TMC3     H 8706   2.769   0.260  15.965 -1.3399 -1.5280  0.6233
  587TMC3    H1 8707   2.964   4.616  15.893 -0.2998 -0.2215 -1.5161
  587TMC3    H2 8708   2.957   0.201  15.589 -0.4621 -1.5244 -0.2282
  587TMC3    C7 8709   3.059   4.690  15.649 -0.1047 -0.2417 -0.6763
  587TMC3    C8 8710   2.815   0.380  15.728 -0.5731  0.0208  0.4473
  587TMC3    O1 8711   3.063   0.009  15.535 -0.3458 -0.1545  0.5129
  587TMC3    O2 8712   2.858   0.420  15.619  0.2607  0.1855 -0.4417
  588TMC3    C1 8713   0.280   2.734   9.654  0.0944  0.0279 -0.3127
  588TMC3    C2 8714   0.264   2.596   9.634  0.8978 -0.3046 -0.2335
  588TMC3    C3 8715   0.349   2.513   9.700 -0.0430  0.3294  0.0754
  588TMC3    C4 8716   0.386   2.782   9.721 -0.5987 -0.0782 -0.7330
  588TMC3    C5 8717   0.470   2.692   9.778 -0.3841 -0.0088  0.7395
  588TMC3    C6 8718   0.463   2.553   9.764  0.8131 -0.6559  0.2488
  588TMC3     C 8719   0.192   2.829   9.588 -0.3010  0.8861 -0.5850
  588TMC3     O 8720   0.102   2.775   9.527  0.5527 -0.2051 -0.3450
  588TMC3     H 8721   0.171   2.563   9.589 -0.6359  2.1790  1.1177
  588TMC3    H1 8722   0.380   2.884   9.758  0.2846  0.1867 -1.3388
  588TMC3    H2 8723   0.540   2.489   9.807 -0.8381 -1.3209  2.2610
  588TMC3    C7 8724   0.567   2.740   9.871 -0.0371  0.2785 -0.1380
  588TMC3    C8 8725   0.314   2.372   9.718 -0.5481 -0.0874  0.3522
  588TMC3    O1 8726   0.622   2.668   9.951 -0.1736  0.5419  0.6014
  588TMC3    O2 8727   0.215   2.332   9.657 -0.1182 -0.1498  0.2698
  589TMC3    C1 8728   4.525   4.137   1.092  0.5443 -0.3320  0.0832
  589TMC3    C2 8729   4.601   4.146   1.206 -0.2323  0.4942  0.2932
  589TMC3    C3 8730   4.689   4.049   1.242 -0.6807  0.4263 -0.2011
  589TMC3    C4 8731   4.533   4.027   1.016 -0.2701 -0.0454 -0.0649
  589TMC3    C5 8732   4.623   3.926   1.057 -0.1103  0.0360  0.2347
  589TMC3    C6 8733   4.703   3.936   1.165 -0.5053  0.8056 -0.6076
  589TMC3     C 8734   4.464   4.255   1.031 -0.1369 -0.1509 -0.4432
  589TMC3     O 8735   4.468   4.276   0.910  0.4946  0.1594 -0.2866
  589TMC3     H 8736   4.589   4.226   1.279 -0.4807 -0.0843  0.8882
  589TMC3    H1 8737   4.485   4.031   0.919  1.8991 -0.7091 -1.1561
  589TMC3    H2 8738   0.058   3.866   1.187  0.5872  1.9738 -0.8069
  589TMC3    C7 8739   4.616   3.792   0.992  0.0389 -0.1392 -0.6749
  589TMC3    C8 8740   0.049   4.081   1.356 -0.3641 -0.0655  0.8914
  589TMC3    O1 8741   4.672   3.696   1.047 -0.4841 -0.2903 -0.1259
  589TMC3    O2 8742   0.014   4.167   1.433  0.0726  0.2738  0.4952
  590MPD2     C 8743   3.569   3.255  16.298  0.0232  0.3956  0.5387
  590MPD2    C1 8744   3.525   3.352  16.210  0.5706  0.2256 -0.1452
  590MPD2    C2 8745   3.611   3.409  16.117 -0.5417 -0.0531  0.3535
  590MPD2    C3 8746   3.748   3.367  16.122 -0.5067 -0.2462  0.6012
  590MPD2    C4 8747   3.798   3.288  16.222 -0.3664 -0.8349 -0.0179
  590MPD2    C5 8748   3.706   3.234  16.303  0.0581 -0.6535 -0.3331
  590MPD2     H 8749   3.583   3.483  16.043  1.3084  1.8816  1.5665
  590MPD2    H1 8750   3.901   3.255  16.223 -0.6249 -1.6162  0.9831
  590MPD2    H2 8751   3.503   3.209  16.371 -1.2132 -1.8528 -1.9860
  590MPD2    H3 8752   3.747   3.167  16.378 -2.1868  0.2845  1.7216
  590MPD2     N 8753   3.833   3.428  16.027  0.4325 -0.5113  0.1949
  590MPD2    H5 8754   3.781   3.480  15.958  1.1860 -1.0385 -0.7649
  590MPD2    N1 8755   3.383   3.365  16.205  0.3696  0.1958 -0.0981
  590MPD2    H7 8756   3.322   3.326  16.276  0.4188 -1.6547 -1.0538
  591TMC3    C1 8757   4.014   3.466  15.883 -0.2548  0.3513 -0.1736
  591TMC3    C2 8758   4.079   3.395  15.782 -0.0127 -0.0694  0.5738
  591TMC3    C3 8759   4.098   3.449  15.660 -0.3822  0.5306 -0.1990
  591TMC3    C4 8760   3.962   3.587  15.855  0.0906 -0.6408  0.0431
  591TMC3    C5 8761   3.984   3.644  15.731  0.4737 -0.0009 -0.2643
  591TMC3    C6 8762   4.044   3.570  15.631  0.0551  0.6784 -0.2628
  591TMC3     C 8763   3.969   3.400  16.001 -0.3347 -0.2383 -0.0222
  591TMC3     O 8764   4.040   3.305  16.033  0.4905 -0.1631  0.3709
  591TMC3     H 8765   4.117   3.296  15.804 -0.1674 -1.0793 -3.7082
  591TMC3    H1 8766   3.922   3.652  15.932  0.4142  0.9007 -1.1009
  591TMC3    H2 8767   4.054   3.613  15.532 -1.8618  0.9181 -0.3582
  591TMC3    C7 8768   3.944   3.782  15.710  0.0430 -0.0469  0.2966
  591TMC3    C8 8769   4.146   3.357  15.555  0.2889 -0.6707  0.3543
  591TMC3    O1 8770   3.882   3.838  15.800 -0.5019  0.0133 -0.7215
  591TMC3    O2 8771   4.214   3.259  15.592 -0.3168 -0.1753  0.1832
  592MPD2     C 8772   4.072   0.966  10.958  0.5010  0.1375  0.5826
  592MPD2    C1 8773   4.114   0.959  11.087 -0.0188  0.2708  0.0336
  592MPD2    C2 8774   4.044   0.874  11.175  0.3932  0.0512  0.0024
  592MPD2    C3 8775   3.945   0.790  11.127  0.9938  0.0911  0.0058
  592MPD2    C4 8776   3.908   0.795  10.992  0.4834 -0.2092 -0.2708
  592MPD2    C5 8777   3.979   0.876  10.906 -0.4217 -0.4779 -0.0817
  592MPD2     H 8778   4.073   0.870  11.279  0.9188  1.3298 -0.0949
  592MPD2    H1 8779   3.832   0.731  10.950 -0.9720  1.3014  0.0527
  592MPD2    H2 8780   4.115   1.037  10.888 -0.4553  1.3720  1.2505
  592MPD2    H3 8781   3.955   0.876  10.800  1.3225 -0.3284 -0.4695
  592MPD2     N 8782   3.887   0.698  11.225 -0.1439 -0.2309 -0.2951
  592MPD2    H5 8783   3.930   0.700  11.317 -1.9663  2.8364  0.4880
  592MPD2    N1 8784   4.221   1.036  11.131 -0.6938  0.3198 -0.7207
  592MPD2    H7 8785   4.276   1.087  11.063 -0.1764  0.0346 -0.5159
  593TMC3    C1 8786   4.364   1.166  11.281 -0.3403 -0.5157  0.1329
  593TMC3    C2 8787   4.377   1.243  11.393 -0.8825  0.5629 -0.1715
  593TMC3    C3 8788   4.482   1.324  11.414 -0.0953 -0.0034 -0.3997
  593TMC3    C4 8789   4.450   1.177  11.177  0.1479 -0.1510  0.5995
  593TMC3    C5 8790   4.550   1.273  11.193 -0.7384  0.4965  0.1947
  593TMC3    C6 8791   4.562   1.340  11.306 -0.2421 -0.3455 -0.3638
  593TMC3     C 8792   4.240   1.081  11.264 -0.2070 -0.4435 -0.2199
  593TMC3     O 8793   4.162   1.075  11.361 -0.2270 -0.4263 -0.1090
  593TMC3     H 8794   4.320   1.220  11.483  3.1914  0.4186  2.3798
  593TMC3    H1 8795   4.464   1.101  11.101 -1.7282 -0.2368  0.3449
  593TMC3    H2 8796   4.634   1.421  11.305  0.3062 -0.8188  1.2177
  593TMC3    C7 8797   4.649   1.297  11.090 -0.4081  0.0994 -0.1815
  593TMC3    C8 8798   4.507   1.377  11.540 -0.1163 -0.1951  0.6925
  593TMC3    O1 8799   0.028   1.355  11.122 -0.2493 -0.7227  0.0530
  593TMC3    O2 8800   4.439   1.339  11.637  0.5322 -0.0358  0.0206
  594MPD2     C 8801   2.770   4.441  13.245 -0.2414 -1.1384  0.0005
  594MPD2    C1 8802   2.796   4.381  13.367  0.1600 -0.7896  0.1208
  594MPD2    C2 8803   2.910   4.421  13.433  0.1751 -0.3035 -0.0154
  594MPD2    C3 8804   2.994   4.518  13.388 -0.0534  0.0570  0.1017
  594MPD2    C4 8805   2.959   4.584  13.275 -0.5130 -0.1011 -0.3453
  594MPD2    C5 8806   2.850   4.543  13.202  0.8431  0.3737 -0.0310
  594MPD2     H 8807   2.931   4.386  13.533  0.3973  1.1422  0.4576
  594MPD2    H1 8808   3.014   4.672  13.244  2.1275 -1.8229 -0.5845
  594MPD2    H2 8809   2.681   4.403  13.195 -0.8336  0.6527 -0.3088
  594MPD2    H3 8810   2.821   4.597  13.112 -0.8665 -1.7399 -0.7390
  594MPD2     N 8811   3.096   4.561  13.476 -0.4243 -0.2199  0.2093
  594MPD2    H5 8812   3.119   4.514  13.564 -0.0656  1.5866  1.0774
  594MPD2    N1 8813   2.715   4.280  13.423 -0.5561 -0.7376 -0.0845
  594MPD2    H7 8814   2.644   4.255  13.355 -0.6343  0.3681 -0.4123
  595TMC3    C1 8815   3.441   0.080  13.676  0.3321  0.1890  0.0178
  595TMC3    C2 8816   3.371   0.051  13.565  0.3023  0.2144 -0.3561
  595TMC3    C3 8817   3.257   4.703  13.581 -0.4091  0.3041  0.5892
  595TMC3    C4 8818   3.392   0.044  13.803 -0.0784 -0.4995 -0.2848
  595TMC3    C5 8819   3.279   4.701  13.816  0.6307  0.7410 -0.1207
  595TMC3    C6 8820   3.208   4.664  13.702 -0.6766  0.7891  0.3535
  595TMC3     C 8821   3.580   0.111  13.670  0.2223 -0.1478  0.1921
  595TMC3     O 8822   3.642   0.120  13.775 -0.4382  0.0879  0.3349
  595TMC3     H 8823   3.395   0.087  13.465  0.2125 -2.8279 -1.4898
  595TMC3    H1 8824   3.459   0.065  13.885 -1.9919 -0.1233  1.1752
  595TMC3    H2 8825   3.104   4.635  13.711 -0.1814 -0.8036  0.9158
  595TMC3    C7 8826   3.194   4.714  13.941 -0.0819  0.5208  0.1488
  595TMC3    C8 8827   3.184   4.669  13.458  0.1975  0.4309  0.0888
  595TMC3    O1 8828   3.072   4.689  13.925  0.6441 -0.4909 -0.4167
  595TMC3    O2 8829   3.194   0.014  13.355  0.4309 -0.0683 -0.2036
  596MPD2     C 8830   2.052   1.901  16.488 -0.2158 -0.5239 -0.1206
  596MPD2    C1 8831   2.062   2.037  16.441  0.6542 -0.9981  0.1021
  596MPD2    C2 8832   2.123   2.061  16.321  0.1901  0.0345  0.7701
  596MPD2    C3 8833   2.155   1.955  16.233  0.4244 -0.0436  0.2177
  596MPD2    C4 8834   2.145   1.828  16.283  0.0095 -0.5641 -0.2225
  596MPD2    C5 8835   2.092   1.799  16.410 -0.2681  0.1702  0.0210
  596MPD2     H 8836   2.120   2.166  16.296 -1.8662 -0.0815  0.5809
  596MPD2    H1 8837   2.185   1.748  16.221 -1.4271  0.3662 -2.3648
  596MPD2    H2 8838   2.016   1.876  16.587 -1.2393  1.2132 -0.0447
  596MPD2    H3 8839   2.088   1.701  16.454  1.1474  0.6481  1.1970
  596MPD2     N 8840   2.184   1.975  16.095 -0.0534  0.3712 -0.1706
  596MPD2    H5 8841   2.172   1.897  16.031 -3.4990 -1.3373  2.5762
  596MPD2    N1 8842   2.018   2.147  16.509 -0.1691 -0.4682 -0.4831
  596MPD2    H7 8843   2.054   2.232  16.468 -0.9897 -0.1965 -0.6506
  597TMC3    C1 8844   1.926   2.302  16.662 -1.1932 -0.0086  0.3152
  597TMC3    C2 8845   2.020   2.398  16.632  0.0170  0.2898 -0.0824
  597TMC3    C3 8846   1.983   2.525  16.645  0.3215  0.0448 -0.2791
  597TMC3    C4 8847   1.810   2.332  16.721 -0.1387 -0.0417  0.1544
  597TMC3    C5 8848   1.779   2.466  16.741 -0.5337 -0.5606 -0.3135
  597TMC3    C6 8849   1.869   2.559  16.706 -0.3868  0.0550  0.0470
  597TMC3     C 8850   1.941   2.158  16.618 -0.3725  0.1905  0.0228
  597TMC3     O 8851   1.863   2.077  16.668 -0.5343 -0.6501  0.2725
  597TMC3     H 8852   2.118   2.366  16.598 -0.1082 -1.8534  1.5424
  597TMC3    H1 8853   1.735   2.255  16.737  0.5542 -0.3307  2.0318
  597TMC3    H2 8854   1.849   2.665  16.718  0.4096  0.0873  1.0018
  597TMC3    C7 8855   1.685   2.494  16.847  0.4961  0.3326 -0.6727
  597TMC3    C8 8856   2.061   2.631  16.591  1.2201  0.4598  0.5392
  597TMC3    O1 8857   1.640   2.395  16.891 -0.0768 -0.4371  0.3179
  597TMC3    O2 8858   2.024   2.745  16.617 -0.5979 -0.0082 -0.4734
  598TMC3    C1 8859   0.318   3.730  15.390 -0.3185  0.4830  0.5217
  598TMC3    C2 8860   0.258   3.608  15.413 -0.0741 -0.4324 -0.4344
  598TMC3    C3 8861   0.193   3.558  15.304 -0.7210 -0.5412 -0.2506
  598TMC3    C4 8862   0.307   3.803  15.275  0.4405  0.8284 -0.1833
  598TMC3    C5 8863   0.235   3.748  15.176  0.1956  0.3171 -0.7883
  598TMC3    C6 8864   0.176   3.626  15.187  0.3528  0.2253  0.1560
  598TMC3     C 8865   0.435   3.764  15.472  0.0946  0.4979 -0.6967
  598TMC3     O 8866   0.462   3.886  15.494  0.4325 -0.5204  0.2218
  598TMC3     H 8867   0.266   3.552  15.505 -1.3099  1.3217  0.7329
  598TMC3    H1 8868   0.355   3.900  15.272  0.9762  0.5837  0.4427
  598TMC3    H2 8869   0.119   3.585  15.104 -0.2138  0.5709  0.3783
  598TMC3    C7 8870   0.262   3.794  15.044  0.4617  0.4637  0.1568
  598TMC3    C8 8871   0.155   3.412  15.318  0.2279  0.0202  0.6062
  598TMC3    O1 8872   0.256   3.719  14.944 -0.0852 -0.6859  0.2087
  598TMC3    O2 8873   0.185   3.363  15.424 -0.1158 -0.5830  0.6598
  599MPD2     C 8874   0.184   1.409  15.430 -0.0788 -0.5038 -0.1074
  599MPD2    C1 8875   0.153   1.287  15.486 -0.2445  0.1468  0.4824
  599MPD2    C2 8876   0.060   1.279  15.591 -0.1645 -0.7599 -0.3514
  599MPD2    C3 8877   4.719   1.391  15.632  0.5146  0.3440 -0.5659
  599MPD2    C4 8878   0.034   1.514  15.588 -0.0450 -0.0307 -0.1609
  599MPD2    C5 8879   0.125   1.520  15.488 -0.0233 -0.5540 -0.3744
  599MPD2     H 8880   0.034   1.186  15.639 -2.2001 -0.4435 -0.8202
  599MPD2    H1 8881   4.718   1.605  15.630 -0.3884  1.1176 -2.9999
  599MPD2    H2 8882   0.262   1.423  15.356 -0.4028 -1.4434 -0.6203
  599MPD2    H3 8883   0.153   1.614  15.442 -0.9805  0.0200  0.2331
  599MPD2     N 8884   4.628   1.397  15.738  0.2029  0.2031  0.0505
  599MPD2    H5 8885   4.619   1.487  15.785  0.8586 -0.3851  1.2960
  599MPD2    N1 8886   0.214   1.173  15.430  0.5598 -0.3880  0.9198
  599MPD2    H7 8887   0.285   1.191  15.360  0.5206  0.6719  1.1584
  600TMC3    C1 8888   4.466   1.316  15.885 -0.1903  0.2615  0.3581
  600TMC3    C2 8889   4.422   1.202  15.959 -0.2726 -0.3107  0.7047
  600TMC3    C3 8890   4.390   1.221  16.093  0.1934  0.1066 -0.2245
  600TMC3    C4 8891   4.461   1.442  15.939  0.3177  1.3482 -0.2079
  600TMC3    C5 8892   4.424   1.454  16.066 -0.5951 -0.5192 -0.2098
  600TMC3    C6 8893   4.389   1.351  16.145 -0.7459  0.1266 -0.3323
  600TMC3     C 8894   4.558   1.287  15.782  0.0474 -0.2139  0.1260
  600TMC3     O 8895   4.543   1.180  15.726  0.0832  0.2077 -0.1488
  600TMC3     H 8896   4.438   1.100  15.925  1.0979 -0.4787  1.8530
  600TMC3    H1 8897   4.490   1.531  15.883  1.5670  0.4801 -0.9438
  600TMC3    H2 8898   4.352   1.365  16.246  0.3505 -0.6926  0.1743
  600TMC3    C7 8899   4.373   1.586  16.113  0.6597 -0.4092  0.0749
  600TMC3    C8 8900   4.359   1.104  16.178 -0.7119 -0.3777 -0.0115
  600TMC3    O1 8901   4.311   1.580  16.220 -0.4953 -0.3285 -0.0866
  600TMC3    O2 8902   4.347   1.119  16.299  0.3097  0.3937 -0.9585
  601MPD2     C 8903   2.514   4.151  17.626 -0.0014  0.6624  0.3940
  601MPD2    C1 8904   2.416   4.100  17.547 -0.6900 -0.2589  0.4673
  601MPD2    C2 8905   2.371   3.972  17.576  0.6450 -0.1080 -0.0022
  601MPD2    C3 8906   2.406   3.906  17.692  0.3371 -0.7065 -0.1556
  601MPD2    C4 8907   2.493   3.967   0.083  0.0694  0.3029  0.0583
  601MPD2    C5 8908   2.546   4.086   0.046 -0.1821 -0.7532  0.1390
  601MPD2     H 8909   2.309   3.922  17.502 -1.6977  2.3049  0.3357
  601MPD2    H1 8910   2.517   3.919   0.177  1.4708 -0.6868 -0.7937
  601MPD2    H2 8911   2.555   4.249  17.610  1.2453  0.6439  3.5853
  601MPD2    H3 8912   2.608   4.138   0.119 -1.2053 -0.2308  0.6357
  601MPD2     N 8913   2.365   3.777   0.032 -0.2187  0.2544 -0.4120
  601MPD2    H5 8914   2.397   3.736   0.119 -1.7430 -0.5860 -0.2246
  601MPD2    N1 8915   2.382   4.149  17.425 -0.6848  0.4175 -0.7174
  601MPD2    H7 8916   2.307   4.106  17.371 -0.2898 -3.2885  1.6593
  602TMC3    C1 8917   2.356   4.309  17.251 -0.0643 -0.0346  0.1078
  602TMC3    C2 8918   2.380   4.444  17.216 -0.0283  0.6357  0.2811
  602TMC3    C3 8919   2.284   4.511  17.142  0.4377 -0.0434 -0.1867
  602TMC3    C4 8920   2.237   4.251  17.212 -0.5832  0.2430 -0.2314
  602TMC3    C5 8921   2.157   4.318  17.120 -0.7305  1.0048 -0.3591
  602TMC3    C6 8922   2.183   4.444  17.085  0.0625 -0.2068 -0.1594
  602TMC3     C 8923   2.436   4.260  17.369 -0.7081 -0.7872 -0.4057
  602TMC3     O 8924   2.536   4.324  17.400  0.1379  0.5785 -0.8684
  602TMC3     H 8925   2.462   4.496  17.262 -1.5571 -0.2653  4.0167
  602TMC3    H1 8926   2.207   4.150  17.236 -1.1434  0.6155  0.6666
  602TMC3    H2 8927   2.133   4.497  17.005  1.5801 -0.5643 -1.3473
  602TMC3    C7 8928   2.047   4.259  17.061 -0.4581  0.5255  0.1777
  602TMC3    C8 8929   2.276   4.652  17.150 -1.0812  0.4770 -0.7881
  602TMC3    O1 8930   2.054   4.140  17.031  0.2281  0.4820 -0.0826
  602TMC3    O2 8931   2.377   0.000  17.168  0.0969  0.4355 -0.5381
  603TMC3    C1 8932   4.671   0.485  10.629  0.2239  0.4774  0.4004
  603TMC3    C2 8933   4.686   0.482  10.768 -0.1418 -0.0096 -0.6520
  603TMC3    C3 8934   0.085   0.501  10.822 -0.3493  0.0512 -0.1004
  603TMC3    C4 8935   0.044   0.534  10.551 -0.5578 -0.6563  1.3973
  603TMC3    C5 8936   0.164   0.557  10.617 -0.2076 -0.1308  0.2005
  603TMC3    C6 8937   0.188   0.545  10.745  0.5306  0.2757 -0.8478
  603TMC3     C 8938   4.562   0.414  10.572  0.6096  0.1749 -0.3070
  603TMC3     O 8939   4.551   0.432  10.448  0.7455 -0.0129 -0.0752
  603TMC3     H 8940   4.609   0.464  10.843  0.9360  0.0716  0.4868
  603TMC3    H1 8941   0.041   0.506  10.446  0.7704 -0.1254  1.2210
  603TMC3    H2 8942   0.287   0.538  10.789  0.8381  1.6945 -1.3170
  603TMC3    C7 8943   0.263   0.627  10.540  0.4961  0.7384  1.0220
  603TMC3    C8 8944   0.090   0.494  10.966 -0.2318  0.0659  1.1352
  603TMC3    O1 8945   0.363   0.653  10.601  0.6129  0.3419 -0.0006
  603TMC3    O2 8946   0.016   0.415  11.025  0.3622 -0.3312 -0.1491
  604MPD2     C 8947   1.380   3.464  16.307  0.6405  0.0136 -0.4817
  604MPD2    C1 8948   1.286   3.491  16.214 -0.0255 -0.5078  0.1394
  604MPD2    C2 8949   1.311   3.458  16.080 -0.2670  0.4391 -0.1408
  604MPD2    C3 8950   1.437   3.418  16.039  0.1474 -0.8050 -1.5087
  604MPD2    C4 8951   1.528   3.387  16.138  0.1881  0.2965  0.0214
  604MPD2    C5 8952   1.503   3.408  16.274  0.3352  0.3892 -0.2015
  604MPD2     H 8953   1.235   3.480  16.007 -0.2752  0.7587 -0.0335
  604MPD2    H1 8954   1.618   3.333  16.112  1.1835  2.0627 -0.1565
  604MPD2    H2 8955   1.365   3.478  16.414  1.7689 -0.1808 -0.3040
  604MPD2    H3 8956   1.570   3.384  16.356 -0.3878 -0.7513  0.0605
  604MPD2     N 8957   1.465   3.396  15.900 -0.6366 -0.3201  0.4642
  604MPD2    H5 8958   1.395   3.419  15.830  0.3221  3.4963  0.7395
  604MPD2    N1 8959   1.156   3.543  16.265 -0.0499  0.7475 -0.4682
  604MPD2    H7 8960   1.161   3.581  16.358 -0.3210  0.8519 -0.4949
  605TMC3    C1 8961   0.941   3.624  16.242 -0.1559 -1.3206 -0.1202
  605TMC3    C2 8962   0.950   3.707  16.351  0.5881 -0.2261  0.3303
  605TMC3    C3 8963   0.854   3.801  16.380  0.1673 -0.3930  0.2722
  605TMC3    C4 8964   0.827   3.625  16.168  0.5016  0.0747 -0.2490
  605TMC3    C5 8965   0.728   3.710  16.204 -0.1433  0.4737  0.2677
  605TMC3    C6 8966   0.733   3.794  16.312  0.4802 -1.2313  0.8095
  605TMC3     C 8967   1.048   3.549  16.190  0.4197  0.7460 -0.6085
  605TMC3     O 8968   1.027   3.480  16.091  0.3455 -0.2095 -0.1997
  605TMC3     H 8969   1.042   3.720  16.406  0.3366  2.6654  0.0615
  605TMC3    H1 8970   0.830   3.572  16.073 -0.0292 -0.0270 -0.2074
  605TMC3    H2 8971   0.645   3.855  16.334  0.9788 -0.5339  0.8892
  605TMC3    C7 8972   0.617   3.738  16.109  0.0877  0.3548  0.1155
  605TMC3    C8 8973   0.900   3.918  16.452 -0.0388  0.6237  0.1663
  605TMC3    O1 8974   0.577   3.854  16.099  0.9020 -0.0715 -0.2305
  605TMC3    O2 8975   0.998   3.908  16.521  0.3777 -0.5618 -0.0028
  606TMC3    C1 8976   2.531   1.053  16.878 -0.4151 -1.0236  0.0711
  606TMC3    C2 8977   2.641   1.115  16.931  0.0579 -0.0007 -0.7046
  606TMC3    C3 8978   2.629   1.145  17.066 -0.7197  0.8563 -0.3721
  606TMC3    C4 8979   2.422   1.030  16.954 -0.3977  0.2017 -0.4606
  606TMC3    C5 8980   2.410   1.070  17.080 -0.2171 -0.3652  0.6675
  606TMC3    C6 8981   2.523   1.123  17.145  0.2800 -0.3439  0.7413
  606TMC3     C 8982   2.566   0.969  16.766 -0.2183 -0.2653 -1.1651
  606TMC3     O 8983   2.474   0.937  16.689  0.1619  0.9957 -0.6242
  606TMC3     H 8984   2.723   1.151  16.871  0.2470 -1.2367 -1.1790
  606TMC3    H1 8985   2.345   0.969  16.909  0.8152 -0.6027 -1.4527
  606TMC3    H2 8986   2.501   1.172  17.240 -1.9654 -3.5382  1.8536
  606TMC3    C7 8987   2.286   1.066  17.152  0.3403 -0.4205 -0.3475
  606TMC3    C8 8988   2.743   1.212  17.129  0.2623  0.1754 -0.1773
  606TMC3    O1 8989   2.287   1.053  17.270 -0.3864  0.1652 -0.3474
  606TMC3    O2 8990   2.813   1.288  17.062  0.0016  0.2786 -0.2364
  607MPD2     C 8991   4.045   0.356  11.485  0.2277 -0.7409 -0.0155
  607MPD2    C1 8992   4.097   0.435  11.580  0.0219 -0.9936 -0.1126
  607MPD2    C2 8993   4.071   0.401  11.705  0.7105  0.7435 -0.5173
  607MPD2    C3 8994   4.001   0.289  11.749  0.3431 -0.0238 -0.1905
  607MPD2    C4 8995   3.950   0.207  11.651  0.9326  0.0692  0.3270
  607MPD2    C5 8996   3.981   0.242  11.524  0.1341  0.4010 -0.0750
  607MPD2     H 8997   4.105   0.473  11.779  0.1104 -0.3818  0.8577
  607MPD2    H1 8998   3.887   0.125  11.684 -1.0827  0.5183 -2.4525
  607MPD2    H2 8999   4.051   0.380  11.379  0.3762 -0.6683  0.0093
  607MPD2    H3 9000   3.953   0.165  11.453 -0.4983  1.0095 -0.4875
  607MPD2     N 9001   3.968   0.284  11.888  0.6791  0.2896  0.0775
  607MPD2    H5 9002   4.014   0.360  11.936  0.0728  1.2536 -0.8440
  607MPD2    N1 9003   4.171   0.556  11.562 -1.0156 -0.2696 -0.0031
  607MPD2    H7 9004   4.206   0.596  11.648 -1.0020 -2.5178  1.0555
  608TMC3    C1 9005   4.275   0.752  11.487 -0.3933  0.5650  0.5255
  608TMC3    C2 9006   4.281   0.797  11.621 -0.1647 -0.2823  0.1448
  608TMC3    C3 9007   4.399   0.868  11.663  0.6598  0.0243  0.1699
  608TMC3    C4 9008   4.377   0.787  11.403 -0.4211 -0.4654 -0.4778
  608TMC3    C5 9009   4.486   0.865  11.445  0.0678  0.4008 -0.0914
  608TMC3    C6 9010   4.501   0.903  11.579 -0.1724 -0.4781 -0.0526
  608TMC3     C 9011   4.195   0.629  11.449  0.2101 -0.1260 -0.4786
  608TMC3     O 9012   4.162   0.604  11.334  0.0437  0.2817 -0.0450
  608TMC3     H 9013   4.196   0.779  11.685  0.9266  0.2911  1.7534
  608TMC3    H1 9014   4.371   0.757  11.299 -3.2821  0.3401 -0.5375
  608TMC3    H2 9015   4.600   0.929  11.614  0.1105 -3.0470  1.0207
  608TMC3    C7 9016   4.581   0.899  11.343 -0.7093 -0.0389  0.6899
  608TMC3    C8 9017   4.385   0.918  11.806 -0.0827  0.6497  0.6417
  608TMC3    O1 9018   4.559   0.853  11.231 -0.2730 -0.0487 -0.1523
  608TMC3    O2 9019   4.449   1.017  11.838  0.0467 -0.0531  0.0558
  609TMC3    C1 9020   3.312   3.340   8.904  0.2467 -0.4131 -0.1400
  609TMC3    C2 9021   3.310   3.257   8.798 -0.2327  1.0551 -0.1445
  609TMC3    C3 9022   3.420   3.179   8.772  0.2760  0.2790  0.2040
  609TMC3    C4 9023   3.424   3.345   8.988 -0.1962 -0.6285  0.5605
  609TMC3    C5 9024   3.524   3.254   8.967  0.5472 -0.6315 -0.2694
  609TMC3    C6 9025   3.524   3.168   8.865  0.1308 -0.0005  0.2519
  609TMC3     C 9026   3.183   3.369   8.961 -0.1231  0.1775  0.0502
  609TMC3     O 9027   3.083   3.324   8.899  0.2846 -0.4312  0.4585
  609TMC3     H 9028   3.232   3.273   8.724  0.3842  0.0233 -1.0277
  609TMC3    H1 9029   3.428   3.418   9.068  1.1475 -1.7282  1.4925
  609TMC3    H2 9030   3.592   3.086   8.850 -0.2220  0.1298 -2.0023
  609TMC3    C7 9031   3.625   3.248   9.077  0.7142 -0.0822  0.7216
  609TMC3    C8 9032   3.414   3.085   8.662  0.3207 -0.0881  0.4104
  609TMC3    O1 9033   3.602   3.314   9.181 -0.0787 -0.3213  0.4978
  609TMC3    O2 9034   3.523   3.052   8.627 -0.4502 -0.2421  0.1940
  610TMC3    C1 9035   4.513   0.251  12.496 -0.1537  0.3696  0.2007
  610TMC3    C2 9036   4.547   0.332  12.390 -0.1291 -0.1812  0.5220
  610TMC3    C3 9037   4.630   0.287  12.296  0.2377 -0.7665 -0.0436
  610TMC3    C4 9038   4.561   0.126  12.520  0.7354 -0.4964  0.2028
  610TMC3    C5 9039   4.647   0.084  12.420  0.3938  0.0689  0.4313
  610TMC3    C6 9040   4.678   0.160  12.309  1.0205 -0.1947  0.6448
  610TMC3     C 9041   4.399   0.297  12.569  0.5341 -0.1604  0.9593
  610TMC3     O 9042   4.312   0.376  12.522 -0.1202  0.2986 -0.3852
  610TMC3     H 9043   4.478   0.415  12.379 -0.1025  0.1983  3.2653
  610TMC3    H1 9044   4.539   0.070  12.610  1.8656 -1.4125 -0.0944
  610TMC3    H2 9045   0.035   0.128  12.243  0.2769 -2.5000  0.8735
  610TMC3    C7 9046   0.007   4.686  12.432 -0.4049 -0.7257 -0.0689
  610TMC3    C8 9047   4.667   0.375  12.183  0.4547  0.6916  0.3253
  610TMC3    O1 9048   0.116   4.692  12.373 -0.3734  0.0219  0.1024
  610TMC3    O2 9049   0.008   0.325  12.091  0.4865  0.1918  0.5742
  611MPD2     C 9050   3.992   1.058   9.822 -0.1796 -0.6564 -0.3040
  611MPD2    C1 9051   4.063   0.947   9.826  0.0429  0.9344  1.1256
  611MPD2    C2 9052   4.200   0.954   9.799 -0.0918 -0.2414  0.5739
  611MPD2    C3 9053   4.265   1.077   9.786 -0.0448  0.4179 -0.0154
  611MPD2    C4 9054   4.193   1.190   9.794 -0.3170  0.2929  0.2057
  611MPD2    C5 9055   4.055   1.180   9.806  0.0661 -0.6948  0.6273
  611MPD2     H 9056   4.253   0.861   9.782  2.4160  1.0886  1.0429
  611MPD2    H1 9057   4.241   1.285   9.774 -0.9802  0.9144  1.5200
  611MPD2    H2 9058   3.884   1.056   9.826 -0.1729 -0.6400 -0.0940
  611MPD2    H3 9059   3.994   1.267   9.785 -0.7448 -1.9298 -2.1553
  611MPD2     N 9060   4.406   1.096   9.757  0.8973  0.4505 -0.0760
  611MPD2    H5 9061   4.441   1.190   9.742 -1.4154  1.5504  1.3534
  611MPD2    N1 9062   4.003   0.821   9.848  0.9332 -0.1841  0.0634
  611MPD2    H7 9063   3.908   0.824   9.882  0.3821 -1.2778 -1.3874
  612TMC3    C1 9064   4.630   1.040   9.735  0.7838 -0.5425  0.7328
  612TMC3    C2 9065   0.006   0.980   9.805  0.2183 -0.7072  0.5891
  612TMC3    C3 9066   0.125   1.040   9.817  0.6188  0.3561  0.0222
  612TMC3    C4 9067   4.644   1.162   9.688  1.2036  0.9194  0.4537
  612TMC3    C5 9068   0.045   1.224   9.696  0.4260  0.4763  0.4966
  612TMC3    C6 9069   0.150   1.153   9.750 -0.3851  0.7960 -0.2247
  612TMC3     C 9070   4.500   0.990   9.750  0.6481  1.0119 -0.4789
  612TMC3     O 9071   4.487   0.866   9.774  0.1547 -0.4309  0.2998
  612TMC3     H 9072   4.701   0.888   9.855  0.2833 -1.0392  0.0131
  612TMC3    H1 9073   4.567   1.185   9.615  1.0841  0.3277  0.3968
  612TMC3    H2 9074   0.252   1.189   9.757  0.3076 -1.0735 -0.9166
  612TMC3    C7 9075   0.084   1.334   9.612 -0.1381  0.7007 -0.0623
  612TMC3    C8 9076   0.232   0.987   9.884 -0.9968 -0.2165  0.1910
  612TMC3    O1 9077   0.202   1.341   9.585  0.2925 -0.0332  0.0498
  612TMC3    O2 9078   0.346   1.020   9.851 -0.0917  0.1376 -0.1230
  613MPD2     C 9079   3.530   2.148  16.479 -0.1931  0.3266 -0.3337
  613MPD2    C1 9080   3.515   2.216  16.361  0.2697  0.5790  0.6031
  613MPD2    C2 9081   3.408   2.187  16.275 -0.5164  0.0515 -1.0040
  613MPD2    C3 9082   3.335   2.069  16.302  0.1349 -0.0808  0.5907
  613MPD2    C4 9083   3.357   1.994  16.421 -0.2843  0.7127 -0.1244
  613MPD2    C5 9084   3.442   2.050  16.514  0.0867 -0.0463 -0.3916
  613MPD2     H 9085   3.376   2.251  16.194 -1.0646  3.6856  2.0943
  613MPD2    H1 9086   3.304   1.904  16.449  1.4616 -0.1844  0.3088
  613MPD2    H2 9087   3.604   2.176  16.553 -2.0506  4.4482 -0.0509
  613MPD2    H3 9088   3.457   1.994  16.606  1.3681 -0.8232 -1.0867
  613MPD2     N 9089   3.245   2.008  16.214 -0.5013  1.0063 -0.5445
  613MPD2    H5 9090   3.223   1.912  16.235 -0.9028  1.4135  0.9171
  613MPD2    N1 9091   3.596   2.333  16.351  0.0565 -0.5562  0.1243
  613MPD2    H7 9092   3.649   2.353  16.435  1.8911 -1.5303 -0.8059
  614TMC3    C1 9093   3.568   2.380  16.107  0.3461 -0.3187 -0.1349
  614TMC3    C2 9094   3.615   2.260  16.057 -0.3947  0.4302  0.2972
  614TMC3    C3 9095   3.605   2.237  15.927  0.2812  0.2844  0.5877
  614TMC3    C4 9096   3.524   2.482  16.019 -0.3735  0.8186  0.4255
  614TMC3    C5 9097   3.503   2.444  15.889  0.0598 -0.0912 -0.2686
  614TMC3    C6 9098   3.553   2.327  15.839 -0.3937 -0.5598 -0.2183
  614TMC3     C 9099   3.606   2.425  16.240  0.1584 -0.1771 -0.5030
  614TMC3     O 9100   3.635   2.542  16.254 -0.1818 -0.4609 -0.0931
  614TMC3     H 9101   3.662   2.193  16.129  0.7078  2.1809  1.1981
  614TMC3    H1 9102   3.493   2.581  16.051 -1.5151  0.4927  0.3404
  614TMC3    H2 9103   3.542   2.308  15.733  0.1453 -1.1147 -0.1742
  614TMC3    C7 9104   3.417   2.528  15.809  0.0600  0.3623  0.9278
  614TMC3    C8 9105   3.597   2.096  15.891 -0.1013 -0.7355 -0.1011
  614TMC3    O1 9106   3.404   2.648  15.845  0.3982 -0.3342  0.2507
  614TMC3    O2 9107   3.587   2.016  15.985  0.1760 -0.2813 -0.3702
  615MPD2     C 9108   2.687   3.650  15.794 -0.1162  0.3616  0.1797
  615MPD2    C1 9109   2.566   3.705  15.818 -0.8502 -0.3400 -0.0600
  615MPD2    C2 9110   2.495   3.735  15.701 -0.2269  0.1087  0.0644
  615MPD2    C3 9111   2.542   3.696  15.577  0.4937 -0.2390  0.0478
  615MPD2    C4 9112   2.677   3.657  15.563  0.3479  0.8851  0.0721
  615MPD2    C5 9113   2.747   3.636  15.673  0.5656 -0.2241  0.0715
  615MPD2     H 9114   2.396   3.778  15.709  0.0560  1.0775 -1.6642
  615MPD2    H1 9115   2.722   3.652  15.465 -1.7572  3.1721 -1.0120
  615MPD2    H2 9116   2.760   3.632  15.872 -0.2859  0.1528  0.2873
  615MPD2    H3 9117   2.851   3.608  15.672  0.0980 -1.9251 -0.2802
  615MPD2     N 9118   2.481   3.733  15.454  0.1837  0.1961  0.9165
  615MPD2    H5 9119   2.537   3.745  15.371 -0.1471  0.2530  0.7008
  615MPD2    N1 9120   2.512   3.756  15.942  0.2681  0.2481  0.6389
  615MPD2    H7 9121   2.421   3.800  15.937 -0.7373 -1.8072  1.0113
  616TMC3    C1 9122   2.522   3.824  16.158  0.5314  0.9088  0.4661
  616TMC3    C2 9123   2.602   3.827  16.272  0.1106 -0.2051 -0.2398
  616TMC3    C3 9124   2.599   3.939  16.350 -0.3213  0.2182  0.0933
  616TMC3    C4 9125   2.451   3.933  16.117 -0.2298  0.3155  0.2033
  616TMC3    C5 9126   2.457   4.040  16.197 -0.3793 -0.2730 -0.7811
  616TMC3    C6 9127   2.522   4.039  16.313  0.0021 -0.1142 -0.1267
  616TMC3     C 9128   2.580   3.741  16.058  0.2341  0.0720  0.1617
  616TMC3     O 9129   2.664   3.660  16.100  0.0679 -0.3766  0.1823
  616TMC3     H 9130   2.667   3.746  16.304 -0.3361  0.3719  2.1151
  616TMC3    H1 9131   2.382   3.945  16.034 -0.8135  0.1675  0.6696
  616TMC3    H2 9132   2.550   4.136  16.354 -0.6276 -0.0349  0.1165
  616TMC3    C7 9133   2.374   4.161  16.172  0.5276 -0.3742  0.1514
  616TMC3    C8 9134   2.707   3.957  16.443  0.4340 -0.1115  0.2750
  616TMC3    O1 9135   2.346   4.178  16.054 -0.3904 -0.0652  0.7284
  616TMC3    O2 9136   2.675   4.040  16.527 -0.4965  0.4497 -0.7820
  617MPD2     C 9137   1.026   2.259  13.205  0.5557 -0.3920  0.5802
  617MPD2    C1 9138   0.964   2.201  13.318 -0.1327  0.6650  0.0293
  617MPD2    C2 9139   0.838   2.149  13.293 -0.1437  0.2215  0.2633
  617MPD2    C3 9140   0.776   2.163  13.167 -0.5180 -0.2105 -0.4438
  617MPD2    C4 9141   0.838   2.233  13.066  0.0745 -0.0171  0.4226
  617MPD2    C5 9142   0.968   2.270  13.083 -0.0566  0.2220  0.2955
  617MPD2     H 9143   0.780   2.091  13.364  0.9198 -3.7522 -2.1338
  617MPD2    H1 9144   0.791   2.256  12.971 -0.8909 -1.0170  0.6517
  617MPD2    H2 9145   1.126   2.300  13.205  0.2909  0.2544  0.0302
  617MPD2    H3 9146   1.024   2.306  12.997 -1.9474  0.4168 -0.8614
  617MPD2     N 9147   0.644   2.114  13.148 -0.8125 -0.6859 -0.1347
  617MPD2    H5 9148   0.614   2.085  13.055 -1.3304  1.1206 -0.5320
  617MPD2    N1 9149   1.028   2.201  13.441  0.0699  0.3526  0.1211
  617MPD2    H7 9150   1.118   2.248  13.441  0.4512 -0.3856  0.1253
  618TMC3    C1 9151   1.090   2.118  13.650  0.6965 -0.3581 -0.3772
  618TMC3    C2 9152   1.147   1.996  13.668  0.1127  1.2596  0.7023
  618TMC3    C3 9153   1.277   2.004  13.699 -0.1568  0.4920  0.2738
  618TMC3    C4 9154   1.158   2.231  13.664  0.0472  0.0738  0.6379
  618TMC3    C5 9155   1.286   2.234  13.706  0.0473 -0.2809 -0.2455
  618TMC3    C6 9156   1.344   2.116  13.738 -0.0984  0.2806 -1.5132
  618TMC3     C 9157   0.987   2.130  13.552 -0.8935  0.2703 -0.0793
  618TMC3     O 9158   0.893   2.055  13.561  0.2259  0.3900 -0.3682
  618TMC3     H 9159   1.091   1.909  13.637  0.9125  0.8025  0.5595
  618TMC3    H1 9160   1.107   2.324  13.640  1.5275  0.3801 -1.3106
  618TMC3    H2 9161   1.447   2.110  13.771 -0.4512 -0.3022 -0.5056
  618TMC3    C7 9162   1.362   2.299  13.598 -0.0940 -0.0187 -0.6203
  618TMC3    C8 9163   1.350   1.948  13.590  1.2176  0.3023  0.2292
  618TMC3    O1 9164   1.295   2.349  13.509 -0.3410  0.7999  0.1760
  618TMC3    O2 9165   1.282   1.927  13.490  1.0545  0.0874  0.0096
  619MPD2     C 9166   2.186   3.438  13.238  0.7148 -0.9244  0.5076
  619MPD2    C1 9167   2.084   3.482  13.167  0.0146  0.2054  0.0867
  619MPD2    C2 9168   1.953   3.470  13.213 -0.2112  0.1261 -0.8156
  619MPD2    C3 9169   1.917   3.412  13.334 -1.0173 -0.9716  0.0481
  619MPD2    C4 9170   2.028   3.360  13.407  0.1448 -0.2546 -0.3283
  619MPD2    C5 9171   2.152   3.370  13.352 -0.0452 -1.0980 -0.3821
  619MPD2     H 9172   1.879   3.527  13.158  0.4088  1.7328  0.0263
  619MPD2    H1 9173   2.033   3.318  13.506 -1.0830  1.6551  0.5439
  619MPD2    H2 9174   2.293   3.437  13.221  0.8727 -0.4475  1.4383
  619MPD2    H3 9175   2.227   3.321  13.414 -0.7121 -2.5407 -0.7151
  619MPD2     N 9176   1.785   3.396  13.387  0.1419 -0.3231  0.2673
  619MPD2    H5 9177   1.774   3.367  13.484 -3.7758  1.0964  0.2433
  619MPD2    N1 9178   2.100   3.565  13.048  0.5360 -0.3126  0.5984
  619MPD2    H7 9179   2.013   3.602  13.010 -0.3173 -2.5951  0.3438
  620TMC3    C1 9180   2.195   3.685  12.874 -0.3778  0.0724  0.0831
  620TMC3    C2 9181   2.086   3.651  12.804  0.4083 -0.2844 -0.0064
  620TMC3    C3 9182   2.016   3.742  12.726 -0.4063  0.7504 -0.3839
  620TMC3    C4 9183   2.247   3.808  12.870 -0.2020  0.3494  0.7069
  620TMC3    C5 9184   2.177   3.901  12.797 -0.2833  0.5397 -0.2626
  620TMC3    C6 9185   2.070   3.868  12.726 -0.4260  0.4729  0.2644
  620TMC3     C 9186   2.219   3.608  12.999 -0.2101  0.5321  0.3517
  620TMC3     O 9187   2.332   3.597  13.041 -0.1338 -0.1009 -0.4047
  620TMC3     H 9188   2.059   3.546  12.806 -0.6653  0.0074  0.7080
  620TMC3    H1 9189   2.333   3.839  12.928  0.7470  1.0992 -1.1203
  620TMC3    H2 9190   2.037   3.943  12.655  0.1406  0.6113  0.1450
  620TMC3    C7 9191   2.165   4.016  12.875 -0.0512  0.2138  0.3662
  620TMC3    C8 9192   1.879   3.753  12.761 -0.1868  0.1445  0.4729
  620TMC3    O1 9193   2.263   4.066  12.930  0.0371  0.1633 -0.0091
  620TMC3    O2 9194   1.849   3.871  12.778  0.0929  0.6566 -0.0564
  621MPD2     C 9195   2.731   3.731   9.623 -0.3730  0.7299  0.2458
  621MPD2    C1 9196   2.855   3.768   9.673  0.2494 -0.0024 -0.3262
  621MPD2    C2 9197   2.921   3.876   9.613  0.2091  0.1417  0.4072
  621MPD2    C3 9198   2.863   3.955   9.516 -0.2100 -0.2093 -0.0761
  621MPD2    C4 9199   2.741   3.921   9.478 -0.1974  0.5141  0.0395
  621MPD2    C5 9200   2.670   3.813   9.527 -0.6818  0.3225 -0.1262
  621MPD2     H 9201   3.019   3.904   9.653  0.8616 -0.4569 -0.7814
  621MPD2    H1 9202   2.687   3.989   9.413  0.5864 -0.5315 -1.7063
  621MPD2    H2 9203   2.687   3.640   9.661  3.0007 -1.0842 -0.2787
  621MPD2    H3 9204   2.568   3.780   9.511 -0.3276  0.2607 -2.1624
  621MPD2     N 9205   2.922   4.067   9.450 -0.3496 -0.7590 -0.0029
  621MPD2    H5 9206   2.867   4.113   9.378  0.6662  0.3117 -0.0894
  621MPD2    N1 9207   2.926   3.693   9.771  0.4391 -0.0265 -0.1270
  621MPD2    H7 9208   3.019   3.729   9.789  0.9305 -0.3158 -2.0233
  622TMC3    C1 9209   2.988   3.518   9.919 -0.2475 -0.7527 -0.2118
  622TMC3    C2 9210   3.049   3.593  10.014  0.3351  0.0770  0.0349
  622TMC3    C3 9211   3.121   3.540  10.113  0.4379 -0.4917 -0.8542
  622TMC3    C4 9212   3.003   3.382   9.912 -0.4330 -0.3907 -0.2522
  622TMC3    C5 9213   3.077   3.325  10.007 -0.0228 -0.0339  1.0238
  622TMC3    C6 9214   3.132   3.405  10.109 -0.3443  0.0565 -0.1983
  622TMC3     C 9215   2.881   3.577   9.830 -0.2775 -0.1879 -0.4968
  622TMC3     O 9216   2.791   3.502   9.794 -0.1417  0.4318 -0.1439
  622TMC3     H 9217   3.043   3.701  10.020 -0.7115 -0.1944  4.0834
  622TMC3    H1 9218   2.946   3.337   9.831  1.8582 -0.2113 -1.9832
  622TMC3    H2 9219   3.185   3.356  10.190 -0.7721  0.5063  0.3517
  622TMC3    C7 9220   3.085   3.179  10.013 -0.4229  0.3931  0.0594
  622TMC3    C8 9221   3.084   3.577  10.251 -0.2734 -0.4736 -0.0279
  622TMC3    O1 9222   3.130   3.129  10.117 -0.3683  0.6234 -0.0199
  622TMC3    O2 9223   3.158   3.557  10.345  0.3178 -0.3908 -0.0434
  623MPD2     C 9224   1.364   0.008  15.714  0.7425  0.5657  0.4709
  623MPD2    C1 9225   1.260   4.661  15.780  0.4825  0.0232  0.2440
  623MPD2    C2 9226   1.295   4.598  15.903  0.1187  0.1340  0.5598
  623MPD2    C3 9227   1.421   4.588  15.948  0.3862 -0.3369 -0.2365
  623MPD2    C4 9228   1.523   4.650  15.875 -0.1035 -0.4963  0.3987
  623MPD2    C5 9229   1.498   4.723  15.760 -0.1866  0.3633  0.3175
  623MPD2     H 9230   1.216   4.552  15.961 -0.5074 -0.2270 -0.5600
  623MPD2    H1 9231   1.624   4.647  15.913 -0.2783  0.4605  0.9344
  623MPD2    H2 9232   1.344   0.055  15.619  0.2830 -0.7461 -0.0715
  623MPD2    H3 9233   1.582   0.048  15.711 -1.2740  1.0450 -0.8508
  623MPD2     N 9234   1.435   4.518  16.072 -0.0281  0.2850  0.8841
  623MPD2    H5 9235   1.353   4.487  16.124  0.3710 -1.6777  0.3261
  623MPD2    N1 9236   1.123   4.674  15.739  0.5391 -0.1952  0.0550
  623MPD2    H7 9237   1.116   0.005  15.654  0.0509  1.4379  1.1360
  624TMC3    C1 9238   1.628   4.283  16.422 -0.7010  0.6862 -0.2384
  624TMC3    C2 9239   1.512   4.265  16.490 -0.2908 -0.0259  0.0500
  624TMC3    C3 9240   1.406   4.343  16.451 -0.0937 -0.0729 -0.0606
  624TMC3    C4 9241   1.642   4.355  16.312 -0.1357  0.1987  0.1608
  624TMC3    C5 9242   1.536   4.428  16.265 -0.0435  0.3185 -0.3287
  624TMC3    C6 9243   1.422   4.420  16.334 -0.2703  0.9959  0.5228
  624TMC3     C 9244   1.742   4.206  16.461 -0.4156 -0.2253 -0.3598
  624TMC3     O 9245   1.758   4.202  16.584 -0.4844 -0.2268 -0.0314
  624TMC3     H 9246   1.497   4.205  16.579 -0.0600 -1.0535 -0.5977
  624TMC3    H1 9247   1.735   4.371  16.259 -0.6830 -0.2143 -0.9306
  624TMC3    H2 9248   1.344   4.485  16.297 -2.2980 -0.4836  2.1499
  624TMC3    C7 9249   1.553   4.493  16.135 -0.5750 -0.4668 -0.4254
  624TMC3    C8 9250   1.277   4.291  16.490  0.7363 -0.4531  0.2689
  624TMC3    O1 9251   1.669   4.502  16.094  0.5243 -0.2329  0.9476
  624TMC3    O2 9252   1.276   4.182  16.549 -0.3580 -0.5941 -0.2187
  625MPD2     C 9253   2.013   4.676   0.145  0.4842 -0.3980 -0.1406
  625MPD2    C1 9254   2.048   0.087   0.148 -0.1987  0.4491  0.4195
  625MPD2    C2 9255   2.035   0.156   0.270 -0.1987  0.6795 -0.8078
  625MPD2    C3 9256   1.985   0.095   0.388 -0.0319  0.1055  0.6042
  625MPD2    C4 9257   1.943   4.688   0.377 -0.0804 -0.2691 -0.0279
  625MPD2    C5 9258   1.962   4.621   0.258  0.5264  0.7033  0.6882
  625MPD2     H 9259   2.077   0.256   0.278 -2.6328  1.5092  1.5683
  625MPD2    H1 9260   1.903   4.630   0.460 -1.8344 -1.4685 -1.6912
  625MPD2    H2 9261   2.026   4.608   0.062 -2.2693 -0.4800 -0.5217
  625MPD2    H3 9262   1.936   4.516   0.252  1.1259  0.6445 -0.9053
  625MPD2     N 9263   1.973   0.171   0.503 -0.2053  0.1879 -0.0164
  625MPD2    H5 9264   1.966   0.272   0.500 -1.6132  0.0983  0.0108
  625MPD2    N1 9265   2.102   0.158   0.042  0.2610  0.6812 -0.1899
  625MPD2    H7 9266   2.121   0.257   0.059 -1.3153  1.3101 -2.0154
  626TMC3    C1 9267   2.080   0.248  17.516 -0.3330 -0.1693  0.8117
  626TMC3    C2 9268   1.983   0.252  17.417 -0.4164  0.2564  0.1904
  626TMC3    C3 9269   1.965   0.376  17.358 -0.1628  1.1219 -0.0265
  626TMC3    C4 9270   2.150   0.354  17.560  0.3329 -0.2852  0.3993
  626TMC3    C5 9271   2.131   0.471  17.495 -0.6207 -0.1152 -0.8853
  626TMC3    C6 9272   2.041   0.488  17.390  1.0082 -0.2960  0.0537
  626TMC3     C 9273   2.078   0.132  17.609 -0.2897  1.1840 -0.6887
  626TMC3     O 9274   2.025   0.029  17.567  0.1079 -0.1953  0.0682
  626TMC3     H 9275   1.924   0.167  17.387 -0.7547  0.9879 -1.2504
  626TMC3    H1 9276   2.232   0.340  17.629  1.2685 -0.9151 -0.8475
  626TMC3    H2 9277   2.017   0.586  17.351  1.1235 -0.4369 -0.3681
  626TMC3    C7 9278   2.160   0.582  17.577 -0.5943 -0.0248  0.0756
  626TMC3    C8 9279   1.837   0.415  17.313  0.6266  0.7515  0.0998
  626TMC3    O1 9280   2.209   0.681  17.524 -0.8273 -1.0300 -0.0263
  626TMC3    O2 9281   1.828   0.512  17.238  0.1914 -0.0726 -0.1652
  627MPD2     C 9282   0.117   0.965  13.722 -0.0139 -0.5059 -0.2925
  627MPD2    C1 9283   0.185   0.932  13.840 -0.3715 -0.0031  0.3550
  627MPD2    C2 9284   0.163   0.808  13.900  0.3663  0.1051 -0.1141
  627MPD2    C3 9285   0.070   0.724  13.847 -0.3369  0.0343  0.4821
  627MPD2    C4 9286   4.720   0.762  13.735 -0.9636  0.4405  0.2247
  627MPD2    C5 9287   0.024   0.884  13.668 -0.3444 -1.0581  0.2063
  627MPD2     H 9288   0.216   0.781  13.991 -1.0041  0.3659  0.7661
  627MPD2    H1 9289   4.643   0.698  13.694  1.1565 -0.0407 -3.0404
  627MPD2    H2 9290   0.133   1.062  13.674  1.2110 -0.0400  1.0565
  627MPD2    H3 9291   4.697   0.919  13.579  1.9359 -0.8392 -0.9897
  627MPD2     N 9292   0.055   0.602  13.910 -0.7143  0.3877  0.5719
  627MPD2    H5 9293   0.111   0.585  13.993  0.9377  1.3591 -0.3463
  627MPD2    N1 9294   0.279   1.026  13.900 -0.0373  1.0984 -0.3291
  627MPD2    H7 9295   0.319   0.998  13.989  2.2492 -2.5718 -2.4854
  628TMC3    C1 9296   0.408   1.230  13.939 -0.2974  0.2327 -0.1020
  628TMC3    C2 9297   0.500   1.156  14.008 -0.0986 -0.4385  0.8434
  628TMC3    C3 9298   0.577   1.215  14.100 -0.2448  0.3402  0.5151
  628TMC3    C4 9299   0.410   1.366  13.942 -0.8528 -0.1294 -0.4151
  628TMC3    C5 9300   0.499   1.425  14.023  0.5373 -0.9203 -0.0946
  628TMC3    C6 9301   0.591   1.353  14.096  0.6689 -0.5789 -0.1970
  628TMC3     C 9302   0.307   1.158  13.862 -0.0739 -0.0559 -0.3315
  628TMC3     O 9303   0.257   1.223  13.770 -0.1291 -0.0256 -0.2354
  628TMC3     H 9304   0.507   1.050  13.986 -1.0681 -0.2724 -0.3122
  628TMC3    H1 9305   0.339   1.418  13.879 -2.1156 -0.8437  0.4180
  628TMC3    H2 9306   0.647   1.400  14.175  1.1447  1.0594 -1.5238
  628TMC3    C7 9307   0.545   1.561  13.996  0.1276 -0.8280  0.2279
  628TMC3    C8 9308   0.694   1.141  14.141  0.1468 -0.1748  0.7985
  628TMC3    O1 9309   0.634   1.598  14.068  0.3965 -0.3375  0.2121
  628TMC3    O2 9310   0.795   1.207  14.162 -0.2251 -0.9372  0.0451
  629MPD2     C 9311   3.163   3.892  16.657  0.0391  0.3737  1.0546
  629MPD2    C1 9312   3.165   3.824  16.534  0.3318 -0.5101 -0.5689
  629MPD2    C2 9313   3.053   3.826  16.457 -0.0940  0.5601  0.2188
  629MPD2    C3 9314   2.944   3.902  16.492 -1.3008 -0.4825 -0.8976
  629MPD2    C4 9315   2.953   3.977  16.606  0.2132  0.1018  0.6357
  629MPD2    C5 9316   3.062   3.980  16.690  0.5612  0.7042 -0.7815
  629MPD2     H 9317   3.049   3.766  16.366  0.9544 -0.3452  0.7628
  629MPD2    H1 9318   2.875   4.046  16.636 -1.0728 -1.2246  0.2869
  629MPD2    H2 9319   3.250   3.888  16.721  0.7208  0.9373  0.1639
  629MPD2    H3 9320   3.070   4.042  16.778  1.7567  0.0298 -0.4118
  629MPD2     N 9321   2.827   3.900  16.410  0.5656 -0.3428  0.1834
  629MPD2    H5 9322   2.833   3.844  16.326  0.2428 -1.5515  0.9730
  629MPD2    N1 9323   3.289   3.764  16.495 -0.2838 -0.1198 -0.1447
  629MPD2    H7 9324   3.362   3.771  16.565 -1.3305  1.3276  0.8023
  630TMC3    C1 9325   3.458   3.665  16.369  0.2180 -0.3411 -1.0819
  630TMC3    C2 9326   3.521   3.699  16.256 -0.1627  0.0735  0.7684
  630TMC3    C3 9327   3.659   3.708  16.241  0.7168  0.1900 -1.0723
  630TMC3    C4 9328   3.524   3.617  16.472  0.2990  0.1720 -0.1730
  630TMC3    C5 9329   3.662   3.608  16.451  0.2457 -0.1816 -0.2120
  630TMC3    C6 9330   3.734   3.652  16.340 -1.1080  0.4873  0.8968
  630TMC3     C 9331   3.320   3.711  16.373 -0.6670  0.6503  0.6399
  630TMC3     O 9332   3.262   3.728  16.266  0.0352 -0.3884  0.5736
  630TMC3     H 9333   3.453   3.734  16.179  0.4892 -0.1971  0.0645
  630TMC3    H1 9334   3.470   3.564  16.550 -0.4278  0.0069 -0.7907
  630TMC3    H2 9335   3.842   3.644  16.334 -1.1424  0.0115  0.8986
  630TMC3    C7 9336   3.724   3.530  16.558  0.5123 -0.7439 -0.4772
  630TMC3    C8 9337   3.716   3.821  16.173 -0.0505  0.4654 -0.0586
  630TMC3    O1 9338   3.661   3.545  16.662 -0.4594 -0.2275 -0.0355
  630TMC3    O2 9339   3.836   3.823  16.163 -0.2881 -0.0114 -0.3618
  631MPD2     C 9340   1.571   4.203  15.281  0.5253 -0.7385 -0.3836
  631MPD2    C1 9341   1.656   4.270  15.196 -0.5878  0.0932 -0.8841
  631MPD2    C2 9342   1.778   4.215  15.157 -0.4226 -0.0466 -0.2532
  631MPD2    C3 9343   1.803   4.087  15.199 -0.5346  0.7994 -0.2685
  631MPD2    C4 9344   1.716   4.019  15.282  0.2346  0.1460 -0.1239
  631MPD2    C5 9345   1.605   4.077  15.320  0.4803 -0.1844  0.1003
  631MPD2     H 9346   1.843   4.260  15.083  0.4763 -0.7909  0.0916
  631MPD2    H1 9347   1.745   3.925  15.327  1.3890  0.1738 -0.8030
  631MPD2    H2 9348   1.482   4.255  15.315 -1.2624 -2.1598 -2.8305
  631MPD2    H3 9349   1.539   4.026  15.390 -0.0648 -0.5723 -0.6937
  631MPD2     N 9350   1.930   4.032  15.172 -0.1581  0.1269 -0.1129
  631MPD2    H5 9351   2.005   4.091  15.135 -0.8737  0.3673 -1.1647
  631MPD2    N1 9352   1.609   4.394  15.149  0.2482 -0.0377 -0.2638
  631MPD2    H7 9353   1.525   4.432  15.193 -0.1545  0.2938 -1.3256
  632TMC3    C1 9354   1.599   4.598  15.035  0.8015 -0.2325  0.4342
  632TMC3    C2 9355   1.588   4.669  15.149 -0.2428  0.1608  0.8015
  632TMC3    C3 9356   1.599   0.082  15.150  0.1282 -0.4849  0.6039
  632TMC3    C4 9357   1.621   4.664  14.920 -0.1328  0.7012 -0.8623
  632TMC3    C5 9358   1.637   0.076  14.918  0.3141  0.2857 -0.3932
  632TMC3    C6 9359   1.620   0.151  15.035 -0.3450 -0.0376  0.2263
  632TMC3     C 9360   1.666   4.473  15.051  0.7973 -0.0218  0.2535
  632TMC3     O 9361   1.759   4.464  14.973 -0.4036  0.0002  0.1104
  632TMC3     H 9362   1.604   4.623  15.246 -1.9317 -2.3712 -0.1257
  632TMC3    H1 9363   1.649   4.604  14.834 -1.0399  0.8205 -1.2440
  632TMC3    H2 9364   1.649   0.255  15.042  1.7285 -0.5808 -0.3088
  632TMC3    C7 9365   1.726   0.135  14.813 -0.5503 -0.3442 -0.6116
  632TMC3    C8 9366   1.563   0.146  15.269 -1.1403 -0.0062  0.3333
  632TMC3    O1 9367   1.798   0.231  14.839 -0.5435 -0.3210 -0.9229
  632TMC3    O2 9368   1.505   0.085  15.356  0.2293  0.4320 -0.5448
  633MPD2     C 9369   1.225   1.882  17.031  0.2642 -0.2027 -0.2909
  633MPD2    C1 9370   1.253   1.846  16.897 -0.0308 -0.5159  0.3590
  633MPD2    C2 9371   1.270   1.712  16.868  0.2004 -0.2269 -0.0280
  633MPD2    C3 9372   1.257   1.608  16.954  0.0260  0.3744  0.4075
  633MPD2    C4 9373   1.230   1.640  17.085 -0.1702 -0.2637  0.2210
  633MPD2    C5 9374   1.205   1.773  17.118  0.0495 -0.0654 -0.5834
  633MPD2     H 9375   1.280   1.689  16.762  1.4745 -2.6224  0.6105
  633MPD2    H1 9376   1.205   1.565  17.159  2.1939 -3.0099 -1.7764
  633MPD2    H2 9377   1.220   1.985  17.065 -1.6850 -0.1464 -0.7620
  633MPD2    H3 9378   1.192   1.799  17.223 -1.8638 -2.2357 -0.2800
  633MPD2     N 9379   1.261   1.474  16.921  0.2369 -0.1585 -0.3542
  633MPD2    H5 9380   1.272   1.406  16.996 -0.6617 -0.9028 -0.9004
  633MPD2    N1 9381   1.266   1.940  16.795  0.0691 -0.0871  0.1237
  633MPD2    H7 9382   1.288   1.907  16.701  0.0967 -1.1380  0.5032
  634TMC3    C1 9383   1.363   2.135  16.715  0.2388 -0.2881 -1.3370
  634TMC3    C2 9384   1.449   2.066  16.635  0.0656 -0.8382  0.3314
  634TMC3    C3 9385   1.541   2.125  16.555 -0.5887  0.6029 -0.1890
  634TMC3    C4 9386   1.354   2.270  16.709  0.3591  0.1001 -0.3364
  634TMC3    C5 9387   1.442   2.326  16.621  0.1982  0.3390  0.7391
  634TMC3    C6 9388   1.534   2.260  16.548 -0.1327  0.1376 -0.4710
  634TMC3     C 9389   1.275   2.076  16.811  0.4579 -0.0825 -0.7091
  634TMC3     O 9390   1.231   2.145  16.905  0.4319 -0.2726  0.4951
  634TMC3     H 9391   1.456   1.958  16.637 -0.1287 -0.8630 -0.4356
  634TMC3    H1 9392   1.277   2.332  16.753 -0.3977 -1.6869  0.8556
  634TMC3    H2 9393   1.615   2.314  16.501  0.2658  0.3588  0.4570
  634TMC3    C7 9394   1.422   2.454  16.561 -0.3289 -0.0092 -0.1622
  634TMC3    C8 9395   1.619   2.041  16.456 -0.6122  0.2023 -0.1646
  634TMC3    O1 9396   1.474   2.476  16.454 -0.4555  0.0069  0.6072
  634TMC3    O2 9397   1.626   1.920  16.484  0.2756 -0.0504 -0.1279
  635TMC3    C1 9398   1.903   2.758  17.203  0.3130  0.0290  0.0577
  635TMC3    C2 9399   1.976   2.671  17.128 -0.4754  0.0889 -0.5360
  635TMC3    C3 9400   1.939   2.542  17.128  0.0082  0.1178  0.5429
  635TMC3    C4 9401   1.807   2.711  17.299 -0.2700 -0.2560  0.5332
  635TMC3    C5 9402   1.770   2.582  17.292 -0.5908 -0.1465  0.4559
  635TMC3    C6 9403   1.844   2.499  17.213  0.2499  0.5599 -0.5725
  635TMC3     C 9404   1.975   2.883  17.244  0.4281  0.7254  0.0381
  635TMC3     O 9405   1.930   2.949  17.340 -0.6492 -0.9284 -0.2456
  635TMC3     H 9406   2.042   2.707  17.050  0.1465 -1.2372 -0.6260
  635TMC3    H1 9407   1.749   2.779  17.361  1.3917  0.7118  1.0034
  635TMC3    H2 9408   1.826   2.392  17.215 -0.0338  0.6531  1.6072
  635TMC3    C7 9409   1.676   2.539  17.395 -1.1729  0.4268 -0.5810
  635TMC3    C8 9410   2.022   2.447  17.053 -0.2662  0.5427  0.2359
  635TMC3    O1 9411   1.639   2.625  17.475 -0.4557  0.0478 -0.1255
  635TMC3    O2 9412   2.114   2.490  16.990  0.1603 -0.7241  0.0433
  636MPD2     C 9413   2.890   2.297  15.272 -0.0723  0.9440  0.2154
  636MPD2    C1 9414   2.929   2.371  15.381  0.2283  0.4308  0.2085
  636MPD2    C2 9415   2.976   2.302  15.490 -0.4722  0.3013 -0.6467
  636MPD2    C3 9416   2.990   2.167  15.489  0.5277  0.7104  0.1081
  636MPD2    C4 9417   2.968   2.097  15.375  0.4044  0.1249  0.1708
  636MPD2    C5 9418   2.914   2.162  15.269 -0.4356  0.2441  0.5481
  636MPD2     H 9419   3.005   2.353  15.581 -1.6344  1.8441 -1.1364
  636MPD2    H1 9420   2.977   1.989  15.372  1.9225  0.2550 -0.1458
  636MPD2    H2 9421   2.849   2.353  15.189 -0.1876  1.9425  0.9501
  636MPD2    H3 9422   2.901   2.101  15.180  0.2734  0.1437  0.5089
  636MPD2     N 9423   3.031   2.100  15.611  0.0013 -0.2797 -0.4791
  636MPD2    H5 9424   3.034   2.165  15.689  1.4543 -1.0314  0.0708
  636MPD2    N1 9425   2.919   2.513  15.386  0.2729 -0.4269 -0.0006
  636MPD2    H7 9426   2.937   2.550  15.479 -1.3128 -1.4575  0.7237
  637TMC3    C1 9427   3.093   1.925  15.769 -0.3598 -0.2304  0.0241
  637TMC3    C2 9428   3.117   2.019  15.868  0.1426 -0.3788  0.3380
  637TMC3    C3 9429   3.170   1.968  15.982  0.0349 -0.6481 -0.4806
  637TMC3    C4 9430   3.131   1.790  15.782 -0.5415 -0.0364  0.0059
  637TMC3    C5 9431   3.193   1.750  15.894  0.3735 -0.6070  0.1464
  637TMC3    C6 9432   3.209   1.844  15.993 -0.0262 -0.3494  0.5217
  637TMC3     C 9433   3.065   1.964  15.632  0.1689  1.0469  0.4358
  637TMC3     O 9434   3.051   1.867  15.556  0.4584 -0.3184  0.1893
  637TMC3     H 9435   3.086   2.122  15.857 -0.2538 -0.1103  3.7198
  637TMC3    H1 9436   3.105   1.716  15.707 -1.1341  0.3588 -0.1801
  637TMC3    H2 9437   3.266   1.815  16.081  1.1347 -0.9872 -0.4466
  637TMC3    C7 9438   3.301   1.653  15.885 -0.2591 -0.3053 -0.6165
  637TMC3    C8 9439   3.216   2.061  16.090 -0.2905 -0.5534 -0.3777
  637TMC3    O1 9440   3.379   1.650  15.979  0.5079 -0.4428  0.3569
  637TMC3    O2 9441   3.191   2.181  16.059  0.3115  0.2193  0.2889
  638MPD2     C 9442   2.681   1.280  14.643 -0.1361  0.1386 -0.1446
  638MPD2    C1 9443   2.629   1.184  14.558 -0.2812  0.2951  0.0015
  638MPD2    C2 9444   2.593   1.063  14.620 -1.0997 -0.5403  0.0219
  638MPD2    C3 9445   2.593   1.046  14.756 -0.5004 -0.1583  0.2331
  638MPD2    C4 9446   2.633   1.147  14.839  0.2132 -0.4716 -0.2711
  638MPD2    C5 9447   2.675   1.262  14.779 -0.7711  0.1477  0.9937
  638MPD2     H 9448   2.552   0.983  14.560  0.8617 -0.0604 -1.9596
  638MPD2    H1 9449   2.612   1.134  14.944  2.7225 -0.2411  0.2523
  638MPD2    H2 9450   2.722   1.372  14.604 -0.6399  0.3171 -0.2440
  638MPD2    H3 9451   2.727   1.341  14.832  0.9710  0.3224 -0.9897
  638MPD2     N 9452   2.557   0.920  14.806  0.1246 -0.9316  0.3671
  638MPD2    H5 9453   2.523   0.852  14.739 -0.5540 -1.2066  0.9945
  638MPD2    N1 9454   2.637   1.193  14.422 -0.2384  0.5004  0.1621
  638MPD2    H7 9455   2.687   1.277  14.395 -0.6187  0.5189 -0.4972
  639TMC3    C1 9456   2.492   0.737  14.941  0.0517 -0.5980 -0.1096
  639TMC3    C2 9457   2.408   0.697  14.837  0.1052  0.7188 -0.4442
  639TMC3    C3 9458   2.421   0.561  14.810 -0.4216  0.7349  0.1266
  639TMC3    C4 9459   2.590   0.656  14.997 -0.3469 -1.0405  0.6384
  639TMC3    C5 9460   2.596   0.527  14.960  0.6208 -0.3330  0.7532
  639TMC3    C6 9461   2.511   0.481  14.867 -0.2718  0.1906 -0.5191
  639TMC3     C 9462   2.539   0.872  14.936  0.0704 -0.1477  0.7090
  639TMC3     O 9463   2.580   0.929  15.036  0.2892  0.1153 -0.1886
  639TMC3     H 9464   2.327   0.763  14.808 -0.7360 -0.5195 -0.9151
  639TMC3    H1 9465   2.651   0.700  15.074  1.7029 -1.5330 -0.6908
  639TMC3    H2 9466   2.518   0.378  14.833  0.5257  0.0827 -0.0050
  639TMC3    C7 9467   2.667   0.432  15.046 -0.9320  0.2923  0.3707
  639TMC3    C8 9468   2.344   0.507  14.707 -0.9957 -0.5056 -0.4166
  639TMC3    O1 9469   2.602   0.338  15.086  0.2830 -0.5322  0.1078
  639TMC3    O2 9470   2.392   0.414  14.642  0.1886  0.0693 -0.1765
  640MPD2     C 9471   3.459   4.602   9.562  0.7843 -0.3955 -0.5069
  640MPD2    C1 9472   3.522   4.633   9.448  0.1776 -0.3293  0.0629
  640MPD2    C2 9473   3.549   0.041   9.421 -0.2578  0.0062  0.3409
  640MPD2    C3 9474   3.515   0.146   9.502 -0.6376  0.1180 -0.1111
  640MPD2    C4 9475   3.432   0.117   9.604 -0.2305 -0.2811  0.1916
  640MPD2    C5 9476   3.408   4.711   9.636  0.9538 -0.7347  0.6598
  640MPD2     H 9477   3.606   0.062   9.331  0.8674 -0.6140  0.9114
  640MPD2    H1 9478   3.395   0.189   9.676 -0.5149  0.6569 -0.9024
  640MPD2    H2 9479   3.442   4.496   9.578 -1.2761 -0.1408 -1.0977
  640MPD2    H3 9480   3.355   4.690   9.728  1.3867 -1.6504  0.7040
  640MPD2     N 9481   3.538   0.285   9.469  0.0354 -0.1453 -0.2357
  640MPD2    H5 9482   3.492   0.353   9.529 -2.6840 -2.8035  0.7045
  640MPD2    N1 9483   3.568   4.525   9.372 -0.4238 -0.6522 -0.7610
  640MPD2    H7 9484   3.556   4.431   9.407  0.7763 -0.5927 -0.2205
  641TMC3    C1 9485   3.691   4.412   9.209 -0.5123 -0.1616 -0.1411
  641TMC3    C2 9486   3.733   4.326   9.305  0.0331 -0.2925  0.4163
  641TMC3    C3 9487   3.770   4.197   9.269 -0.0847  0.0663 -0.2046
  641TMC3    C4 9488   3.697   4.380   9.073  0.5103  0.1095  0.4194
  641TMC3    C5 9489   3.730   4.257   9.044  0.6385 -0.0548  0.2118
  641TMC3    C6 9490   3.768   4.162   9.136  0.3211 -0.0574 -0.1402
  641TMC3     C 9491   3.631   4.538   9.249 -0.1129 -0.2029  0.4178
  641TMC3     O 9492   3.639   4.629   9.166 -0.0701 -0.1325 -0.1798
  641TMC3     H 9493   3.758   4.362   9.405 -0.2966 -1.6307  0.9822
  641TMC3    H1 9494   3.668   4.452   8.997 -1.6617 -1.1638  0.0647
  641TMC3    H2 9495   3.802   4.064   9.106  0.9315 -0.5693  2.1858
  641TMC3    C7 9496   3.714   4.220   8.906 -0.7665 -0.1082  0.1527
  641TMC3    C8 9497   3.815   4.103   9.370  0.0668  0.5754  0.2167
  641TMC3    O1 9498   3.777   4.264   8.810  0.4576  0.0166  0.7812
  641TMC3    O2 9499   3.872   3.999   9.339  0.2450 -1.0345  0.1293
  642TMC3    C1 9500   4.195   1.418  11.831 -0.3260 -0.4809  0.5610
  642TMC3    C2 9501   4.265   1.426  11.949  0.0437 -0.8627 -0.3094
  642TMC3    C3 9502   4.262   1.322  12.034 -0.4817 -0.5854 -0.2765
  642TMC3    C4 9503   4.129   1.310  11.793  0.1416 -0.5376 -0.2095
  642TMC3    C5 9504   4.128   1.205  11.882 -0.2784  0.4734 -0.3164
  642TMC3    C6 9505   4.183   1.214  12.006  0.4362 -0.5079 -0.3931
  642TMC3     C 9506   4.150   1.535  11.772 -0.0019 -0.2358  0.4244
  642TMC3     O 9507   4.142   1.527  11.652 -0.3750 -0.6051  0.4714
  642TMC3     H 9508   4.319   1.518  11.971 -0.3571 -0.4755 -0.9381
  642TMC3    H1 9509   4.067   1.305  11.704 -1.6369 -1.1548  1.0402
  642TMC3    H2 9510   4.174   1.130  12.073 -0.2441 -0.9326 -1.0110
  642TMC3    C7 9511   4.052   1.085  11.844 -0.8287 -0.2094 -0.9896
  642TMC3    C8 9512   4.326   1.325  12.156 -0.0658  0.1970  0.6017
  642TMC3    O1 9513   4.023   1.072  11.727 -0.8944 -0.3369  0.0207
  642TMC3    O2 9514   4.276   1.285  12.255 -0.4112 -0.1682  0.1114
  643TMC3    C1 9515   3.409   4.435  17.293  0.5217  0.0484 -0.4267
  643TMC3    C2 9516   3.316   4.428  17.192  0.3104 -0.8322  0.1043
  643TMC3    C3 9517   3.356   4.477  17.070 -0.3370 -0.7802 -0.9976
  643TMC3    C4 9518   3.543   4.470  17.272 -0.7965 -0.0909  0.3931
  643TMC3    C5 9519   3.577   4.513  17.148  0.0049 -0.0170 -0.3638
  643TMC3    C6 9520   3.486   4.510  17.046 -0.2612 -0.5645 -0.5995
  643TMC3     C 9521   3.364   4.415  17.430 -0.9575  0.6024 -0.9238
  643TMC3     O 9522   3.252   4.363  17.436  0.2194 -0.5704 -0.5822
  643TMC3     H 9523   3.211   4.414  17.214  0.1958 -0.1078  0.0238
  643TMC3    H1 9524   3.596   4.487  17.365  2.0772  2.2127 -1.6715
  643TMC3    H2 9525   3.518   4.560  16.955 -1.0971  0.8730 -0.0994
  643TMC3    C7 9526   3.672   4.618  17.133  0.0324  0.0100  0.1268
  643TMC3    C8 9527   3.267   4.578  17.014 -0.3358  0.3032 -0.1668
  643TMC3    O1 9528   3.630   4.723  17.085  0.6799  0.0179  0.5183
  643TMC3    O2 9529   3.146   4.551  17.008 -0.1031  0.0816 -0.2273
  644MPD2     C 9530   4.301   1.052   9.373  0.2652 -0.0463  0.0724
  644MPD2    C1 9531   4.183   1.004   9.419  0.3988 -0.3563 -0.5308
  644MPD2    C2 9532   4.091   1.104   9.447  0.1473  0.8201 -0.0697
  644MPD2    C3 9533   4.122   1.243   9.444 -0.1608  0.8710 -0.5241
  644MPD2    C4 9534   4.242   1.289   9.399 -0.8303  0.2084  0.7271
  644MPD2    C5 9535   4.334   1.190   9.361 -0.9627 -0.3251 -0.2005
  644MPD2     H 9536   3.989   1.081   9.475  0.3336  1.8901  1.4732
  644MPD2    H1 9537   4.268   1.390   9.371 -2.4679 -0.0091 -1.6009
  644MPD2    H2 9538   4.386   0.988   9.355  0.6084  0.4977 -0.2378
  644MPD2    H3 9539   4.424   1.204   9.303 -1.2192  0.1992 -0.4665
  644MPD2     N 9540   4.016   1.330   9.475 -0.0212  0.1043 -0.2722
  644MPD2    H5 9541   3.922   1.296   9.492 -0.9863  2.8243 -0.1816
  644MPD2    N1 9542   4.153   0.862   9.422 -0.3862 -0.1642  0.6128
  644MPD2    H7 9543   4.228   0.800   9.392  2.3825  3.8833 -0.8648
  645TMC3    C1 9544   3.896   1.517   9.531  1.0121  0.4530 -0.2260
  645TMC3    C2 9545   3.885   1.650   9.498  0.2590 -0.7008  0.5241
  645TMC3    C3 9546   3.778   1.714   9.548  0.4764  0.2313 -0.1179
  645TMC3    C4 9547   3.817   1.455   9.624 -0.3686  0.3587  0.0468
  645TMC3    C5 9548   3.712   1.526   9.673 -0.2565 -0.6432  0.5069
  645TMC3    C6 9549   3.690   1.656   9.638  0.6826 -0.0606  0.2893
  645TMC3     C 9550   4.027   1.464   9.499  0.1882  0.4607  0.0355
  645TMC3     O 9551   4.119   1.540   9.488  0.0979 -0.1660  0.0285
  645TMC3     H 9552   3.951   1.703   9.429 -1.7617  0.1616 -0.7389
  645TMC3    H1 9553   3.844   1.356   9.660  0.0774  0.3282 -0.3762
  645TMC3    H2 9554   3.632   1.729   9.693  0.2861 -0.6281  0.6171
  645TMC3    C7 9555   3.637   1.467   9.781  0.3513 -0.7592 -0.5565
  645TMC3    C8 9556   3.756   1.856   9.516 -0.2329  0.2870 -0.3507
  645TMC3    O1 9557   3.679   1.360   9.822 -0.1337  0.0809 -0.0365
  645TMC3    O2 9558   3.856   1.926   9.505  0.1561  0.4728 -0.1203
  646MPD2     C 9559   2.694   4.585  14.084 -0.2796 -0.8757 -0.4243
  646MPD2    C1 9560   2.594   4.566  14.183 -0.2778  0.0874 -0.2646
  646MPD2    C2 9561   2.473   4.627  14.173 -0.0993  0.5167 -0.3440
  646MPD2    C3 9562   2.449   4.709  14.058  0.2903 -0.1736  0.0816
  646MPD2    C4 9563   2.549   0.008  13.970 -0.6142 -0.4116 -0.0728
  646MPD2    C5 9564   2.665   4.672  13.983  0.3170  0.7836 -0.4075
  646MPD2     H 9565   2.397   4.619  14.249  1.3803  0.3749  1.1193
  646MPD2    H1 9566   2.537   0.062  13.877  1.2572  1.8853  1.0067
  646MPD2    H2 9567   2.790   4.535  14.090 -0.5052 -1.5131 -1.9425
  646MPD2    H3 9568   2.730   4.701  13.902  0.4119 -3.0117 -1.6934
  646MPD2     N 9569   2.313   0.032  14.042 -0.2271  0.4747  0.1597
  646MPD2    H5 9570   2.245   4.721  14.109 -0.0717  1.0894  0.6310
  646MPD2    N1 9571   2.621   4.475  14.285  0.2684  0.4674 -0.0813
  646MPD2    H7 9572   2.714   4.438  14.272 -0.2846 -0.9863  0.0952
  647TMC3    C1 9573   2.631   4.366  14.490 -0.1556 -0.8221  0.1385
  647TMC3    C2 9574   2.564   4.272  14.569 -0.3783 -0.1417 -0.1015
  647TMC3    C3 9575   2.649   4.194  14.652  0.0361 -0.1595 -0.3244
  647TMC3    C4 9576   2.763   4.389  14.493 -0.0291  0.1123 -0.0956
  647TMC3    C5 9577   2.843   4.305  14.577  0.0521 -0.3789 -0.1428
  647TMC3    C6 9578   2.786   4.212  14.662 -0.4685 -0.0485  0.5379
  647TMC3     C 9579   2.545   4.438  14.391 -0.6739 -1.1664  0.1196
  647TMC3     O 9580   2.432   4.467  14.413  0.3886 -0.0496 -0.1571
  647TMC3     H 9581   2.455   4.267  14.569 -0.4747  2.2207  0.7130
  647TMC3    H1 9582   2.814   4.460  14.428 -0.1008 -0.2261 -0.5220
  647TMC3    H2 9583   2.845   4.148  14.727  0.9813  2.2634  1.4872
  647TMC3    C7 9584   2.987   4.307  14.573 -0.5569  0.1906 -0.5448
  647TMC3    C8 9585   2.600   4.073  14.720  0.1491  0.0892  0.5589
  647TMC3    O1 9586   3.050   4.275  14.674  0.2258 -0.6961  0.5002
  647TMC3    O2 9587   2.680   4.006  14.778  0.5581 -0.2113 -0.4268
  648TMC3    C1 9588   2.193   2.094  15.889  0.1004 -0.0512  0.0324
  648TMC3    C2 9589   2.251   1.992  15.810 -0.7091  0.4299  0.6941
  648TMC3    C3 9590   2.240   2.005  15.675 -0.5751 -0.8533  0.0557
  648TMC3    C4 9591   2.141   2.208  15.820 -0.6240  0.4398 -0.3607
  648TMC3    C5 9592   2.137   2.206  15.683 -0.9033  0.1047  0.6928
  648TMC3    C6 9593   2.177   2.104  15.601 -0.0938  0.0269 -0.0662
  648TMC3     C 9594   2.182   2.097  16.030  0.2581  0.2593 -0.4263
  648TMC3     O 9595   2.193   2.211  16.072 -0.3042  0.1044 -0.4083
  648TMC3     H 9596   2.307   1.909  15.850 -1.3546 -0.4041 -0.1155
  648TMC3    H1 9597   2.112   2.291  15.884 -0.3402  1.9825 -2.2346
  648TMC3    H2 9598   2.193   2.110  15.494  1.1977 -0.4272  0.0978
  648TMC3    C7 9599   2.071   2.319  15.616 -0.3787  0.1320 -0.2822
  648TMC3    C8 9600   2.281   1.889  15.598  0.1013  0.7183 -0.4218
  648TMC3    O1 9601   2.091   2.334  15.495 -0.0266 -0.2894  0.1482
  648TMC3    O2 9602   2.369   1.818  15.644  0.0320  0.3240  0.2093
  649TMC3    C1 9603   1.146   3.560  12.481 -0.2231  0.6446  0.4221
  649TMC3    C2 9604   1.258   3.641  12.490  0.5987  0.6276 -0.1143
  649TMC3    C3 9605   1.295   3.683  12.616  0.2187 -0.0958  0.9531
  649TMC3    C4 9606   1.068   3.535  12.585  0.2381  0.4920  0.8832
  649TMC3    C5 9607   1.112   3.568  12.706  0.2834 -0.1474  0.1019
  649TMC3    C6 9608   1.220   3.641  12.725 -0.3984 -0.2221  0.9790
  649TMC3     C 9609   1.088   3.546  12.343 -0.2427  0.3957 -0.0470
  649TMC3     O 9610   0.968   3.551  12.333 -0.3360 -0.1532  0.7768
  649TMC3     H 9611   1.316   3.678  12.406  2.9874 -2.1549  0.2837
  649TMC3    H1 9612   0.973   3.484  12.572  0.6172  0.0860 -0.2787
  649TMC3    H2 9613   1.237   3.683  12.824  0.5729  1.5374  0.0731
  649TMC3    C7 9614   1.046   3.502  12.828  0.7656 -0.1359 -0.3872
  649TMC3    C8 9615   1.381   3.798  12.637 -0.1684 -0.3094  0.0498
  649TMC3    O1 9616   0.925   3.477  12.823  0.1169 -0.0537 -0.6491
  649TMC3    O2 9617   1.339   3.892  12.704  0.1416 -0.0247 -0.3671
  650TMC3    C1 9618   3.523   0.726  12.204 -0.3982  0.2086  0.7514
  650TMC3    C2 9619   3.560   0.859  12.226  0.9393 -0.8457  0.0792
  650TMC3    C3 9620   3.561   0.945  12.123 -0.1356  0.4859 -0.3565
  650TMC3    C4 9621   3.489   0.679  12.075 -0.2502  0.6083 -0.0661
  650TMC3    C5 9622   3.482   0.776  11.985 -0.0332  0.8898  0.7485
  650TMC3    C6 9623   3.519   0.902  11.998 -0.2026  0.7007 -0.7223
  650TMC3     C 9624   3.581   0.629  12.302  0.1811 -0.5221  0.2583
  650TMC3     O 9625   3.668   0.672  12.376 -0.6811  0.3189 -0.1781
  650TMC3     H 9626   3.595   0.888  12.325  1.9521 -0.7075 -0.3200
  650TMC3    H1 9627   3.451   0.578  12.066 -0.3491  0.5857  0.5645
  650TMC3    H2 9628   3.531   0.967  11.912  0.2523  0.2349 -1.0136
  650TMC3    C7 9629   3.345   0.770  11.935  0.2512 -0.7117 -1.0189
  650TMC3    C8 9630   3.514   1.078  12.144 -0.4909  0.4350 -0.2714
  650TMC3    O1 9631   3.312   0.663  11.886  0.5088 -0.3204  0.0462
  650TMC3    O2 9632   3.524   1.143  12.045 -0.3594  0.4775 -0.3958
  651MPD2     C 9633   3.046   2.007  10.809 -1.3016  0.5462  0.4392
  651MPD2    C1 9634   2.969   2.109  10.752 -0.1499 -0.3361 -0.6662
  651MPD2    C2 9635   3.021   2.198  10.660  0.3973  0.2787 -0.4430
  651MPD2    C3 9636   3.155   2.183  10.628  0.1839 -0.3180 -0.0432
  651MPD2    C4 9637   3.229   2.097  10.705  0.0790  0.6992 -0.0946
  651MPD2    C5 9638   3.181   2.008  10.793  0.0785  0.2872  0.3657
  651MPD2     H 9639   2.954   2.269  10.612 -1.1521 -0.6125  0.3912
  651MPD2    H1 9640   3.337   2.099  10.699  0.1464  0.7484  1.1563
  651MPD2    H2 9641   3.011   1.934  10.881 -0.5856 -0.0208  0.2127
  651MPD2    H3 9642   3.244   1.932  10.837 -0.3898  1.4992  3.1449
  651MPD2     N 9643   3.223   2.265  10.533  0.7989 -0.2883 -0.1455
  651MPD2    H5 9644   3.324   2.269  10.533  0.8442 -1.1767  0.8584
  651MPD2    N1 9645   2.831   2.133  10.791  0.5286  0.0728  0.4584
  651MPD2    H7 9646   2.788   2.214  10.746  0.4724  0.5037  1.2849
  652TMC3    C1 9647   3.466   2.530  10.348 -0.4255 -0.0558  0.0432
  652TMC3    C2 9648   3.378   2.460  10.424 -0.1362  0.3983  0.8003
  652TMC3    C3 9649   3.263   2.417  10.372 -0.5006 -0.6940  0.6661
  652TMC3    C4 9650   3.438   2.583  10.228 -0.6975 -0.0543 -0.0396
  652TMC3    C5 9651   3.320   2.535  10.174  0.1335 -0.2090  0.0715
  652TMC3    C6 9652   3.232   2.457  10.248  0.2379  0.0815  0.1831
  652TMC3     C 9653   3.577   2.582  10.422 -0.2130  0.4123 -0.8939
  652TMC3     O 9654   3.582   2.551  10.539  0.2183  0.3075 -0.0647
  652TMC3     H 9655   3.401   2.442  10.529  0.0471 -0.2299  0.6537
  652TMC3    H1 9656   3.514   2.631  10.167 -0.5946 -0.2278 -0.0474
  652TMC3    H2 9657   3.137   2.427  10.205 -0.5026  1.3836  0.9220
  652TMC3    C7 9658   3.276   2.581  10.045 -0.2337 -0.1405  0.4194
  652TMC3    C8 9659   3.164   2.345  10.442  0.0322 -0.1299 -0.2254
  652TMC3    O1 9660   3.206   2.515   9.973  0.3183  0.1929  0.2296
  652TMC3    O2 9661   3.047   2.371  10.417  0.1473  0.2920 -0.0813
  653MPD2     C 9662   1.003   1.878  17.489  0.7343  0.2517 -0.0392
  653MPD2    C1 9663   0.990   1.962  17.381  0.1312 -0.3820 -0.1526
  653MPD2    C2 9664   0.955   1.907  17.259  0.3301  0.5764  0.1304
  653MPD2    C3 9665   0.922   1.773  17.246  0.1068 -0.5146 -0.2893
  653MPD2    C4 9666   0.925   1.693  17.361 -0.6272  0.1053 -0.5317
  653MPD2    C5 9667   0.965   1.743  17.479  0.1949 -0.1055 -0.3503
  653MPD2     H 9668   0.944   1.969  17.171 -0.3534  0.9788  0.4987
  653MPD2    H1 9669   0.885   1.592  17.359 -1.2642  0.3752 -1.0871
  653MPD2    H2 9670   1.040   1.892  17.590 -0.1941 -2.5291  0.6876
  653MPD2    H3 9671   0.975   1.679  17.566  1.1127  0.7596  0.1916
  653MPD2     N 9672   0.878   1.726  17.120  0.0382 -0.2809  0.2364
  653MPD2    H5 9673   0.882   1.796  17.046  3.1454 -0.2699  0.4225
  653MPD2    N1 9674   1.020   2.099  17.383  0.1663 -0.2320  0.3709
  653MPD2    H7 9675   1.022   2.144  17.292 -2.2542  0.9927  0.9391
  654TMC3    C1 9676   0.867   1.574  16.933  0.0952  0.2924 -0.0704
  654TMC3    C2 9677   0.923   1.660  16.852 -0.2832  0.1300 -0.2650
  654TMC3    C3 9678   0.940   1.630  16.727 -0.2569 -0.4464  0.9446
  654TMC3    C4 9679   0.818   1.451  16.893 -0.1764 -0.6306 -0.3135
  654TMC3    C5 9680   0.843   1.419  16.762  0.3400 -0.4716  0.1087
  654TMC3    C6 9681   0.913   1.501  16.680 -0.5930  1.2272  0.4658
  654TMC3     C 9682   0.863   1.597  17.080 -0.2770 -0.5624  0.0196
  654TMC3     O 9683   0.891   1.499  17.148  0.3841 -0.3922 -0.5081
  654TMC3     H 9684   0.963   1.756  16.884  1.5741 -0.8465  0.3583
  654TMC3    H1 9685   0.793   1.383  16.974  0.4252  0.8434  1.0937
  654TMC3    H2 9686   0.932   1.475  16.576 -2.0297  1.3098  0.1791
  654TMC3    C7 9687   0.856   1.279  16.736  0.2931 -0.0326 -0.0211
  654TMC3    C8 9688   0.921   1.743  16.637 -0.8523  0.2952  0.4216
  654TMC3    O1 9689   0.950   1.242  16.667 -0.3740 -0.8782  0.5663
  654TMC3    O2 9690   0.901   1.853  16.684  0.0997 -0.4142  0.9936
  655MPD2     C 9691   2.641   2.154  15.741  0.0569 -0.4913 -0.0633
  655MPD2    C1 9692   2.552   2.221  15.659  0.9978  0.1319  0.1696
  655MPD2    C2 9693   2.533   2.171  15.532  0.1182 -0.1618  0.6866
  655MPD2    C3 9694   2.592   2.050  15.491 -0.6919  0.1563 -0.0132
  655MPD2    C4 9695   2.687   1.984  15.573  0.1042  0.0230  0.4570
  655MPD2    C5 9696   2.700   2.039  15.700  0.9309  0.0875 -0.8419
  655MPD2     H 9697   2.474   2.230  15.462  1.8414  0.8986  0.0995
  655MPD2    H1 9698   2.737   1.889  15.556  0.3247 -0.3286  3.0746
  655MPD2    H2 9699   2.653   2.187  15.844 -3.2717  0.5790 -0.0071
  655MPD2    H3 9700   2.758   1.989  15.776 -0.6545 -1.6799 -0.7976
  655MPD2     N 9701   2.571   1.989  15.361 -0.4484 -0.2846  0.0281
  655MPD2    H5 9702   2.624   1.907  15.331  1.3000  0.6484  0.5476
  655MPD2    N1 9703   2.489   2.345  15.690  0.2974 -1.0400  0.4944
  655MPD2    H7 9704   2.443   2.396  15.614  1.0313 -0.1587  0.6452
  656TMC3    C1 9705   2.428   2.519  15.840  0.9787 -0.3960 -0.1581
  656TMC3    C2 9706   2.342   2.537  15.941  0.2332  0.1404  0.2680
  656TMC3    C3 9707   2.254   2.644  15.947  0.1368 -0.0174  0.1193
  656TMC3    C4 9708   2.423   2.613  15.734 -0.3681 -0.9703  0.2454
  656TMC3    C5 9709   2.343   2.728  15.743 -0.4240 -0.6417 -0.0716
  656TMC3    C6 9710   2.251   2.738  15.845  0.2336  0.0248 -0.2372
  656TMC3     C 9711   2.488   2.390  15.822  0.3455 -0.7280 -0.7833
  656TMC3     O 9712   2.514   2.340  15.930 -0.7778  0.2619 -0.5542
  656TMC3     H 9713   2.328   2.453  16.008 -0.1187  1.0837  1.3573
  656TMC3    H1 9714   2.492   2.604  15.651 -1.0183  1.9652 -0.5995
  656TMC3    H2 9715   2.175   2.815  15.848  1.5029  1.3255 -1.5923
  656TMC3    C7 9716   2.305   2.779  15.613  0.0227  0.8448 -0.0049
  656TMC3    C8 9717   2.126   2.605  16.008 -0.0726  0.3488 -0.4182
  656TMC3    O1 9718   2.370   2.738  15.520  0.0410  0.5426 -0.0467
  656TMC3    O2 9719   2.094   2.490  15.989 -0.5476 -0.3899 -0.3335
  657TMC3    C1 9720   1.232   1.690  14.406 -0.7736 -0.8005  0.3453
  657TMC3    C2 9721   1.276   1.716  14.532  0.2054 -0.1659  0.3127
  657TMC3    C3 9722   1.269   1.844  14.580  0.1642 -0.5063  0.5647
  657TMC3    C4 9723   1.173   1.793  14.333 -0.5935 -0.5845 -0.3596
  657TMC3    C5 9724   1.139   1.911  14.393  0.1475  1.2654 -0.1754
  657TMC3    C6 9725   1.192   1.934  14.516  0.7400  0.0435 -0.4578
  657TMC3     C 9726   1.318   1.605  14.323  0.4924 -0.2866  0.0192
  657TMC3     O 9727   1.368   1.673  14.229 -0.4438  0.2292  0.1142
  657TMC3     H 9728   1.326   1.633  14.582  0.5372 -0.9827 -1.3539
  657TMC3    H1 9729   1.160   1.777  14.226  0.5290 -0.8694 -0.4552
  657TMC3    H2 9730   1.172   2.029  14.563 -1.4524 -0.3570 -0.5671
  657TMC3    C7 9731   1.120   2.035  14.314 -0.1155 -0.0736 -0.2749
  657TMC3    C8 9732   1.284   1.867  14.718  0.6602  0.0656 -0.4076
  657TMC3    O1 9733   1.167   2.133  14.367 -0.1384  0.1477 -0.0786
  657TMC3    O2 9734   1.231   1.962  14.772 -0.0101 -0.2457 -0.6268
  658MPD2     C 9735   2.876   1.892  14.598  0.4338 -0.1629  0.7051
  658MPD2    C1 9736   2.823   1.985  14.680  0.0812 -0.1213 -0.3998
  658MPD2    C2 9737   2.796   2.114  14.626 -0.2628  0.2506  0.2401
  658MPD2    C3 9738   2.828   2.141  14.495 -0.0995 -0.1085 -0.3942
  658MPD2    C4 9739   2.899   2.046  14.424  0.1233 -0.6355 -0.0798
  658MPD2    C5 9740   2.929   1.926  14.473 -0.3403 -0.1352  0.5729
  658MPD2     H 9741   2.764   2.188  14.698 -1.1317 -1.0410  1.1667
  658MPD2    H1 9742   2.923   2.046  14.318  1.6041 -3.1323  0.2471
  658MPD2    H2 9743   2.884   1.790  14.633 -1.5103 -0.8448 -0.8173
  658MPD2    H3 9744   2.974   1.850  14.410  0.0183 -1.0633  1.9514
  658MPD2     N 9745   2.784   2.262  14.436 -0.3399  0.0507 -1.1068
  658MPD2    H5 9746   2.718   2.314  14.493  1.3356  2.5802 -1.5225
  658MPD2    N1 9747   2.783   1.935  14.807 -0.5653 -0.3421  0.4068
  658MPD2    H7 9748   2.777   1.835  14.828  1.8561 -1.3822 -3.9933
  659TMC3    C1 9749   2.620   1.946  14.967 -0.8731 -0.4175 -0.0390
  659TMC3    C2 9750   2.600   1.974  15.100  0.7555 -0.1391  0.5043
  659TMC3    C3 9751   2.475   1.956  15.149 -0.4104  0.1469  0.4741
  659TMC3    C4 9752   2.524   1.894  14.889  0.5562 -0.1979  0.5183
  659TMC3    C5 9753   2.403   1.864  14.951 -0.4426 -0.0525 -0.4642
  659TMC3    C6 9754   2.377   1.909  15.082  0.3930  0.3326 -0.0473
  659TMC3     C 9755   2.723   2.015  14.899 -0.0861  0.6992  0.3752
  659TMC3     O 9756   2.749   2.128  14.930 -0.0227 -0.3746 -0.5556
  659TMC3     H 9757   2.684   2.011  15.157  0.9729 -1.4241  1.0179
  659TMC3    H1 9758   2.544   1.874  14.784 -3.0114 -0.4143 -0.1244
  659TMC3    H2 9759   2.286   1.882  15.134  0.4114 -0.8708 -0.6518
  659TMC3    C7 9760   2.287   1.843  14.872  0.4197 -0.0462  0.0273
  659TMC3    C8 9761   2.462   2.017  15.282  0.4279 -0.7445 -0.6947
  659TMC3    O1 9762   2.170   1.850  14.918 -0.2397  0.1625 -0.0010
  659TMC3    O2 9763   2.364   2.090  15.304 -0.1787  0.3597 -0.4581
  660MPD2     C 9764   0.378   0.969  12.024 -0.1960  0.2273 -0.2691
  660MPD2    C1 9765   0.412   1.068  12.112  0.1180  0.4691  0.1128
  660MPD2    C2 9766   0.353   1.063  12.234 -0.4034 -0.5838  0.9536
  660MPD2    C3 9767   0.282   0.951  12.278 -0.9530 -0.3528  0.0035
  660MPD2    C4 9768   0.257   0.851  12.186 -0.0293 -0.3628 -0.5681
  660MPD2    C5 9769   0.299   0.867  12.057  0.3680 -0.1323  0.1228
  660MPD2     H 9770   0.364   1.140  12.310 -4.0543  0.5589  0.3110
  660MPD2    H1 9771   0.199   0.762  12.207 -2.0753  1.1528  0.1834
  660MPD2    H2 9772   0.405   0.982  11.920 -1.0889  0.4892 -0.4729
  660MPD2    H3 9773   0.277   0.790  11.984 -1.4495  1.8587 -1.4388
  660MPD2     N 9774   0.225   0.932  12.406 -0.5341  0.4662 -0.2801
  660MPD2    H5 9775   0.163   0.852  12.417 -2.9450  1.8083 -3.8909
  660MPD2    N1 9776   0.497   1.169  12.076  0.1183 -0.1824  0.1347
  660MPD2    H7 9777   0.524   1.170  11.978 -0.7797 -1.5290 -0.1332
  661TMC3    C1 9778   0.569   1.389  12.089  0.1268 -0.5936  0.8061
  661TMC3    C2 9779   0.635   1.378  11.972 -0.3415 -0.5374 -0.2142
  661TMC3    C3 9780   0.598   1.460  11.869  0.5681  0.1461  0.2678
  661TMC3    C4 9781   0.474   1.485  12.105  0.3240 -0.3417 -0.6755
  661TMC3    C5 9782   0.443   1.555  11.999  0.2130  0.1077 -0.2686
  661TMC3    C6 9783   0.502   1.553  11.879 -0.2065 -0.2389 -0.6689
  661TMC3     C 9784   0.532   1.272  12.164  1.3371  0.2778 -0.3930
  661TMC3     O 9785   0.512   1.299  12.280  0.7443  0.2093 -0.1368
  661TMC3     H 9786   0.714   1.304  11.966  1.4661  1.3776  0.0129
  661TMC3    H1 9787   0.417   1.500  12.195  0.0531 -2.4045 -0.5024
  661TMC3    H2 9788   0.467   1.621  11.802  0.8541  0.9480 -0.1035
  661TMC3    C7 9789   0.302   1.577  11.993 -0.0716  0.8352  0.1019
  661TMC3    C8 9790   0.683   1.464  11.753  0.0132  1.0120  0.0059
  661TMC3    O1 9791   0.235   1.591  12.094  0.3887 -0.6177 -0.0008
  661TMC3    O2 9792   0.747   1.361  11.731  0.1017  0.1925 -0.5273
  662MPD2     C 9793   1.085   4.606  16.947 -0.1491 -0.4082 -0.0626
  662MPD2    C1 9794   1.124   4.583  17.081  0.5405 -0.0853 -0.0673
  662MPD2    C2 9795   1.101   4.681  17.170 -0.6909 -0.2738  0.9807
  662MPD2    C3 9796   1.032   0.074  17.138  0.0299  0.3996  0.0251
  662MPD2    C4 9797   0.994   0.099  17.007 -0.6604 -0.9247 -0.2992
  662MPD2    C5 9798   1.020   0.001  16.917 -0.0310  0.0633 -0.3837
  662MPD2     H 9799   1.155   4.678  17.264  0.7455 -0.2970  0.1374
  662MPD2    H1 9800   0.946   0.194  16.986 -0.0779  0.1787  3.2888
  662MPD2    H2 9801   1.097   4.531  16.869 -1.5972 -0.3848 -0.3060
  662MPD2    H3 9802   0.988   4.722  16.814  2.4088 -0.1714 -1.1387
  662MPD2     N 9803   1.002   0.173  17.231  0.1261  0.2662 -0.7293
  662MPD2    H5 9804   0.950   0.254  17.197 -0.8096 -0.1851 -0.3948
  662MPD2    N1 9805   1.185   4.457  17.102  0.0391  0.8307 -0.1682
  662MPD2    H7 9806   1.191   4.388  17.027 -0.0303  1.6520 -0.9299
  663TMC3    C1 9807   1.319   4.288  17.213  0.7576 -0.5282 -0.2861
  663TMC3    C2 9808   1.415   4.264  17.311 -0.1661  0.7659 -0.1109
  663TMC3    C3 9809   1.501   4.157  17.296  0.6756  0.2679 -0.3797
  663TMC3    C4 9810   1.286   4.200  17.111  0.2881  0.0718 -0.3598
  663TMC3    C5 9811   1.374   4.096  17.100 -0.8355 -0.5070 -0.3648
  663TMC3    C6 9812   1.480   4.071  17.187 -0.2034  0.7540 -0.5025
  663TMC3     C 9813   1.246   4.417  17.221 -0.3491 -0.2889 -0.1687
  663TMC3     O 9814   1.257   4.478  17.323 -1.0908 -0.2455  0.3018
  663TMC3     H 9815   1.467   4.352  17.347  0.5812 -0.2175  1.2153
  663TMC3    H1 9816   1.192   4.195  17.058  0.1786 -1.1895 -0.0517
  663TMC3    H2 9817   1.523   3.972  17.197 -0.4367  0.5783 -1.1881
  663TMC3    C7 9818   1.329   3.984  17.017  0.0373 -0.2154 -0.5265
  663TMC3    C8 9819   1.511   4.080  17.420  0.5634 -0.5004  0.2785
  663TMC3    O1 9820   1.409   3.934  16.942  0.3635  0.0209  0.1005
  663TMC3    O2 9821   1.545   3.963  17.416 -0.1474  0.3477 -0.4819
  664MPD2     C 9822   4.121   3.155   0.019  0.3377  0.1071 -0.3488
  664MPD2    C1 9823   4.088   3.289   0.037  0.2516  0.0873 -0.8007
  664MPD2    C2 9824   4.129   3.353   0.152 -0.1175  0.3746  0.3169
  664MPD2    C3 9825   4.198   3.287   0.248  0.2719  0.0618 -0.3347
  664MPD2    C4 9826   4.235   3.159   0.232  0.3018 -0.1605 -0.0422
  664MPD2    C5 9827   4.200   3.093   0.117  0.1967 -0.5546  0.2434
  664MPD2     H 9828   4.099   3.457   0.151 -0.6331  0.2322  3.3769
  664MPD2    H1 9829   4.292   3.104   0.306 -0.2221 -1.0746 -0.3347
  664MPD2    H2 9830   4.091   3.087  17.635  2.1797 -2.1682  0.8813
  664MPD2    H3 9831   4.219   2.986   0.108  0.5395 -0.5195  0.5487
  664MPD2     N 9832   4.211   3.337   0.376  0.2265 -0.1661  0.1411
  664MPD2    H5 9833   4.246   3.274   0.447  3.1502  1.6491  0.3427
  664MPD2    N1 9834   4.025   3.364  17.628 -0.1965 -0.2173  0.4161
  664MPD2    H7 9835   4.015   3.464  17.642  1.3367  0.1533 -1.1446
  665TMC3    C1 9836   4.192   3.486   0.556 -0.0314  0.2200 -0.2976
  665TMC3    C2 9837   4.173   3.380   0.640  0.1113 -0.1153  0.1220
  665TMC3    C3 9838   4.164   3.395   0.774  0.0964  0.6948 -1.1930
  665TMC3    C4 9839   4.210   3.611   0.606  0.0444 -0.7375 -0.3660
  665TMC3    C5 9840   4.201   3.625   0.743  0.0544 -0.0573  0.0365
  665TMC3    C6 9841   4.176   3.518   0.830  0.2536 -0.0169 -0.2966
  665TMC3     C 9842   4.175   3.468   0.416 -0.0082 -0.3466  0.3889
  665TMC3     O 9843   4.161   3.571   0.354  0.0068 -0.1530  0.3552
  665TMC3     H 9844   4.144   3.280   0.608 -1.5042  0.5320 -0.4285
  665TMC3    H1 9845   4.229   3.695   0.540 -1.4161 -0.0839  0.0380
  665TMC3    H2 9846   4.179   3.531   0.938 -4.4591  2.4953 -0.4209
  665TMC3    C7 9847   4.194   3.764   0.787 -0.9959 -0.1337  0.3737
  665TMC3    C8 9848   4.104   3.284   0.840  0.0651  0.1864  0.3132
  665TMC3    O1 9849   4.200   3.850   0.698 -0.2345 -0.3364  0.5333
  665TMC3    O2 9850   4.127   3.171   0.805  0.9177  0.1152  0.2416
  666TMC3    C1 9851   3.112   4.184   9.382 -0.2529  0.4384 -0.6945
  666TMC3    C2 9852   3.228   4.117   9.362  0.4918  0.4095 -0.2862
  666TMC3    C3 9853   3.311   4.171   9.269  0.2544  0.1915  0.0378
  666TMC3    C4 9854   3.080   4.303   9.327  0.2293  0.2715 -0.3752
  666TMC3    C5 9855   3.169   4.359   9.234 -0.7456 -0.2547  0.4619
  666TMC3    C6 9856   3.293   4.291   9.206 -0.5819  0.0083  0.0596
  666TMC3     C 9857   3.042   4.121   9.491  0.3399 -0.2733 -0.0783
  666TMC3     O 9858   3.120   4.096   9.580  0.1311  0.6562 -0.0347
  666TMC3     H 9859   3.246   4.021   9.408  1.9037  0.9858  0.3747
  666TMC3    H1 9860   2.985   4.344   9.358  0.2760  0.2390 -0.1929
  666TMC3    H2 9861   3.368   4.326   9.136 -0.3610  3.6494  2.0850
  666TMC3    C7 9862   3.150   4.497   9.215  0.3965 -0.0622  0.2769
  666TMC3    C8 9863   3.415   4.088   9.223 -0.4821 -0.1180 -0.4576
  666TMC3    O1 9864   3.054   4.536   9.278 -0.7597  0.1391  0.2784
  666TMC3    O2 9865   3.463   4.096   9.107 -0.2765 -0.2987  0.2435
  667MPD2     C 9866   4.561   4.059  13.827  0.1052 -0.4897 -0.6739
  667MPD2    C1 9867   4.599   3.981  13.934 -0.0222  0.4364 -0.1026
  667MPD2    C2 9868   4.564   3.849  13.937  0.1638  0.1938  0.2234
  667MPD2    C3 9869   4.492   3.792  13.828 -0.1151 -0.2822 -0.0909
  667MPD2    C4 9870   4.455   3.874  13.721  0.5728 -0.7534  0.9866
  667MPD2    C5 9871   4.497   4.002  13.722 -0.4286 -0.0811 -0.3988
  667MPD2     H 9872   4.590   3.796  14.028  2.3171  0.5382 -0.1833
  667MPD2    H1 9873   4.399   3.829  13.640 -0.7458 -0.4455  1.7404
  667MPD2    H2 9874   4.582   4.165  13.829 -0.7631 -0.3097 -1.3675
  667MPD2    H3 9875   4.465   4.063  13.639  1.1688  0.1172 -0.8767
  667MPD2     N 9876   4.434   3.658  13.832  0.1028  0.2776  0.5083
  667MPD2    H5 9877   4.377   3.633  13.752  1.7494  0.8757 -0.8465
  667MPD2    N1 9878   4.659   4.036  14.046  0.2221  0.1438  0.3463
  667MPD2    H7 9879   4.667   3.977  14.129 -0.0664  1.2698  1.1741
  668TMC3    C1 9880   0.067   4.183  14.173 -0.6523  0.3126  0.1721
  668TMC3    C2 9881   0.182   4.255  14.156  0.2621 -0.3269  1.1979
  668TMC3    C3 9882   0.268   4.267  14.257  0.4864  0.7751  0.4167
  668TMC3    C4 9883   0.039   4.118  14.292  0.3070 -0.6609 -0.1948
  668TMC3    C5 9884   0.133   4.135  14.389  0.1374  0.7519 -0.2994
  668TMC3    C6 9885   0.240   4.219  14.381 -0.6888  0.0773  0.1786
  668TMC3     C 9886   0.000   4.155  14.046  0.3490 -0.6371  0.5241
  668TMC3     O 9887   0.023   4.234  13.952  0.3840  0.0316 -0.2825
  668TMC3     H 9888   0.207   4.294  14.058  0.5624 -2.0905  0.5912
  668TMC3    H1 9889   4.669   4.065  14.306 -0.1164  0.4799  1.2905
  668TMC3    H2 9890   0.311   4.228  14.463  0.4420 -0.3196 -0.7670
  668TMC3    C7 9891   0.087   4.102  14.522 -0.3466  0.1454 -0.0927
  668TMC3    C8 9892   0.365   4.374  14.263 -0.1827 -0.3901 -0.4430
  668TMC3    O1 9893   0.145   4.171  14.606 -0.0029 -0.1004 -0.5452
  668TMC3    O2 9894   0.444   4.371  14.354  0.4253  0.1559 -0.0945
  669TMC3    C1 9895   2.547   3.969  13.740  0.2635 -0.2240 -0.6424
  669TMC3    C2 9896   2.415   3.998  13.711  0.4124 -0.0330  0.5375
  669TMC3    C3 9897   2.395   4.085  13.609  0.1325 -0.4496  0.2917
  669TMC3    C4 9898   2.652   4.028  13.669  0.2004  0.2510  0.2548
  669TMC3    C5 9899   2.626   4.112  13.571  0.5988  0.4932 -0.2418
  669TMC3    C6 9900   2.502   4.145  13.536 -0.5523 -0.3337 -0.8085
  669TMC3     C 9901   2.562   3.898  13.866 -0.0752  1.1038 -1.2551
  669TMC3     O 9902   2.462   3.840  13.907  0.9323  0.0084  0.0403
  669TMC3     H 9903   2.333   3.956  13.766  0.7838 -2.5499 -0.8195
  669TMC3    H1 9904   2.754   4.013  13.704  0.4854  0.5965 -0.4299
  669TMC3    H2 9905   2.474   4.199  13.446  0.2285  2.4947  0.6276
  669TMC3    C7 9906   2.737   4.199  13.535  0.4177  0.1551 -0.0080
  669TMC3    C8 9907   2.256   4.121  13.583  0.3286  0.6316 -0.2767
  669TMC3    O1 9908   2.835   4.195  13.609  0.5424  0.5524  0.2121
  669TMC3    O2 9909   2.174   4.047  13.628  0.2039  0.2461  0.0665
  670MPD2     C 9910   0.947   1.988  12.721  0.8364 -0.4080 -0.4605
  670MPD2    C1 9911   1.040   2.000  12.821 -0.2011  0.0849 -0.7765
  670MPD2    C2 9912   1.014   1.945  12.948  0.6137  0.9860 -0.6830
  670MPD2    C3 9913   0.896   1.880  12.974 -0.4133  0.2851  0.4724
  670MPD2    C4 9914   0.808   1.859  12.867 -0.1209  0.1706  0.0058
  670MPD2    C5 9915   0.831   1.918  12.745 -1.0287 -0.3410  0.0354
  670MPD2     H 9916   1.083   1.961  13.030 -0.9057 -0.8100  0.9432
  670MPD2    H1 9917   0.712   1.811  12.882  0.3066 -0.0734  1.9954
  670MPD2    H2 9918   0.968   2.012  12.617  0.2509  1.3876 -0.1723
  670MPD2    H3 9919   0.769   1.897  12.659  0.4809 -0.7378 -0.9506
  670MPD2     N 9920   0.873   1.830  13.104 -0.2129 -0.0524 -1.0350
  670MPD2    H5 9921   0.940   1.852  13.177 -0.3296 -0.0892 -0.9170
  670MPD2    N1 9922   1.164   2.063  12.808 -0.2736  0.3090  0.5410
  670MPD2    H7 9923   1.221   2.049  12.891  2.2490 -0.0425 -1.2280
  671TMC3    C1 9924   0.772   1.732  13.286 -0.1742 -0.0100 -0.3420
  671TMC3    C2 9925   0.891   1.755  13.353  0.1894  0.6354  0.0298
  671TMC3    C3 9926   0.886   1.711  13.485 -0.2666  0.2852  0.5902
  671TMC3    C4 9927   0.658   1.685  13.348 -0.4307 -0.8031  0.0110
  671TMC3    C5 9928   0.651   1.673  13.485  0.3684  0.1209  0.5469
  671TMC3    C6 9929   0.768   1.693  13.552 -0.3957 -0.1059 -0.5107
  671TMC3     C 9930   0.767   1.751  13.145  0.5135  0.3355  0.2965
  671TMC3     O 9931   0.672   1.703  13.086 -0.0380 -0.5415 -0.0474
  671TMC3     H 9932   0.981   1.740  13.295 -0.7429  0.2810 -1.3099
  671TMC3    H1 9933   0.577   1.641  13.292 -2.5909 -1.1918  3.5041
  671TMC3    H2 9934   0.774   1.688  13.660  1.4844  0.7162 -0.5776
  671TMC3    C7 9935   0.572   1.560  13.525 -0.4063  0.3482  0.0763
  671TMC3    C8 9936   0.989   1.634  13.543 -0.2519  0.1622  0.1286
  671TMC3    O1 9937   0.464   1.539  13.474 -0.3827 -0.4124 -0.1812
  671TMC3    O2 9938   0.947   1.554  13.628  0.1294  0.0290  0.3187
  672MPD2     C 9939   0.598   1.928   0.683  0.3954 -0.2359 -0.5234
  672MPD2    C1 9940   0.705   1.841   0.679 -0.3220  0.2677 -0.2982
  672MPD2    C2 9941   0.824   1.871   0.751  0.5908 -0.1525  0.2576
  672MPD2    C3 9942   0.827   1.982   0.829 -0.0421 -0.3745 -0.0223
  672MPD2    C4 9943   0.729   2.076   0.822 -0.7036  0.0007  0.3564
  672MPD2    C5 9944   0.611   2.044   0.755 -0.1911 -0.7199 -0.7551
  672MPD2     H 9945   0.909   1.807   0.730  0.4575  0.1095 -1.1219
  672MPD2    H1 9946   0.724   2.172   0.872 -1.7534  1.2050 -2.0676
  672MPD2    H2 9947   0.514   1.915   0.616  0.8852  2.2615 -1.6278
  672MPD2    H3 9948   0.544   2.127   0.732 -0.7144 -1.0528 -0.4333
  672MPD2     N 9949   0.949   2.025   0.889 -0.0507  0.5132  0.2251
  672MPD2    H5 9950   0.952   2.118   0.929 -0.4594  1.8079 -2.8083
  672MPD2    N1 9951   0.688   1.730   0.587  0.2782  0.2056 -0.1772
  672MPD2    H7 9952   0.621   1.742   0.513 -0.3779  0.6968  0.4954
  673TMC3    C1 9953   0.770   1.566   0.445 -0.0510  0.1706  0.1199
  673TMC3    C2 9954   0.833   1.445   0.439  0.6287  0.0693 -0.1244
  673TMC3    C3 9955   0.869   1.398   0.316  0.0799  0.2589 -0.5730
  673TMC3    C4 9956   0.763   1.650   0.337  0.7333  0.5525  0.1401
  673TMC3    C5 9957   0.809   1.600   0.215 -0.3410  0.1538 -0.8162
  673TMC3    C6 9958   0.858   1.471   0.202 -0.8423 -0.0714  0.3618
  673TMC3     C 9959   0.772   1.624   0.575  0.3834 -0.6992 -0.2817
  673TMC3     O 9960   0.861   1.580   0.651 -0.2000 -0.4042 -0.2863
  673TMC3     H 9961   0.820   1.383   0.527 -0.2213  1.7195  0.9016
  673TMC3    H1 9962   0.723   1.749   0.356 -0.2755  0.0339  0.6948
  673TMC3    H2 9963   0.880   1.428   0.105 -0.0156 -0.4674  0.7274
  673TMC3    C7 9964   0.772   1.662   0.089  0.0399 -0.2610  0.1759
  673TMC3    C8 9965   0.936   1.274   0.307  0.5334 -0.0196 -0.3236
  673TMC3    O1 9966   0.715   1.604  17.694  0.4025 -0.4203 -0.7229
  673TMC3    O2 9967   0.944   1.212   0.201 -0.1276 -0.7945  0.3286
  674MPD2     C 9968   0.478   1.397   0.227  0.6204  0.6933 -0.8241
  674MPD2    C1 9969   0.542   1.288   0.181 -0.7448  0.6194 -0.4650
  674MPD2    C2 9970   0.579   1.190   0.266 -0.1668  0.5962 -0.0832
  674MPD2    C3 9971   0.548   1.195   0.397 -0.5784 -0.0892 -0.0543
  674MPD2    C4 9972   0.470   1.298   0.445 -0.0886 -0.4745  0.8288
  674MPD2    C5 9973   0.441   1.399   0.363 -0.0169 -0.7289 -0.2627
  674MPD2     H 9974   0.650   1.114   0.235  0.1534  1.1639 -0.7137
  674MPD2    H1 9975   0.439   1.309   0.548  1.0986 -1.2190  1.2636
  674MPD2    H2 9976   0.458   1.482   0.163 -1.0274 -0.0920 -1.3492
  674MPD2    H3 9977   0.399   1.492   0.401 -0.6708 -0.4415 -1.6910
  674MPD2     N 9978   0.582   1.081   0.474 -0.6547  0.3426  1.0784
  674MPD2    H5 9979   0.644   1.016   0.427  1.1050  1.4007  1.9313
  674MPD2    N1 9980   0.588   1.288   0.047  0.2624  0.0054  0.5091
  674MPD2    H7 9981   0.580   1.374  17.688 -2.1606  0.3702  1.4468
  675TMC3    C1 9982   0.704   1.172  17.550 -0.4176  0.3165  0.0786
  675TMC3    C2 9983   0.724   1.051  17.486  0.1624  0.4222 -0.5543
  675TMC3    C3 9984   0.846   1.031  17.431  0.1965 -0.4385  0.5984
  675TMC3    C4 9985   0.798   1.271  17.547 -0.0241  0.1581 -0.1245
  675TMC3    C5 9986   0.920   1.252  17.486  0.0373  0.1977  0.5467
  675TMC3    C6 9987   0.948   1.126  17.429  0.0874 -0.3243  0.3644
  675TMC3     C 9988   0.624   1.163  17.672  0.2115  0.1274  0.2489
  675TMC3     O 9989   0.594   1.053   0.017 -0.0512  0.5412 -0.0685
  675TMC3     H 9990   0.651   0.971  17.486 -0.3402  0.8789 -1.0738
  675TMC3    H1 9991   0.778   1.365  17.598 -0.3523  1.2819 -2.3270
  675TMC3    H2 9992   1.046   1.104  17.388  0.5742 -1.7577  2.2881
  675TMC3    C7 9993   1.019   1.355  17.506  0.1920  0.3302  0.0804
  675TMC3    C8 9994   0.888   0.896  17.406 -0.1827  0.1563 -0.4085
  675TMC3    O1 9995   1.021   1.415  17.615  0.1803 -0.5367  0.4584
  675TMC3    O2 9996   0.834   0.834  17.314  0.0296  0.5846 -0.3499
  676MPD2     C 9997   3.583   0.354  10.564  0.6844  0.6799  0.0777
  676MPD2    C1 9998   3.605   0.287  10.680 -0.1708 -0.1693  0.3459
  676MPD2    C2 9999   3.675   0.170  10.674  0.1711  0.5832  0.0968
  676MPD2    C310000   3.721   0.115  10.557  0.3867  0.1275  0.4785
  676MPD2    C410001   3.680   0.176  10.440 -0.0528 -0.6767  0.2886
  676MPD2    C510002   3.599   0.290  10.446  0.1988  0.1900  0.3805
  676MPD2     H10003   3.706   0.123  10.767 -0.5540 -1.4376 -0.6751
  676MPD2    H110004   3.694   0.130  10.344  1.0459 -0.3210  0.2709
  676MPD2    H210005   3.524   0.444  10.572  0.7320  1.0248 -3.4110
  676MPD2    H310006   3.571   0.340  10.354 -1.2566 -1.5246 -0.0992
  676MPD2     N10007   3.808   0.000  10.541  0.3811 -0.6926 -0.4195
  676MPD2    H510008   3.808   4.681  10.449  2.6774 -1.6202  0.0260
  676MPD2    N110009   3.552   0.333  10.805 -0.1167 -0.3471 -0.2750
  676MPD2    H710010   3.528   0.261  10.872  0.7125  1.4710  1.9720
  677TMC3    C110011   3.407   0.469  10.928  0.3884 -0.0062  0.1685
  677TMC3    C210012   3.315   0.365  10.926 -0.5918  0.8117  1.0321
  677TMC3    C310013   3.216   0.358  11.011 -0.6654 -0.4805 -0.4325
  677TMC3    C410014   3.412   0.565  11.029 -0.2711  0.1674 -0.7316
  677TMC3    C510015   3.313   0.551  11.117  0.4172  0.4882  0.0632
  677TMC3    C610016   3.209   0.462  11.100  0.4155  0.1764  0.5828
  677TMC3     C10017   3.509   0.465  10.826  0.0889 -0.5893  0.1152
  677TMC3     O10018   3.544   0.570  10.774 -0.6809  0.3834 -0.6199
  677TMC3     H10019   3.319   0.283  10.855  0.1614 -0.1388  2.1814
  677TMC3    H110020   3.485   0.645  11.024 -2.8746  2.5488 -0.1898
  677TMC3    H210021   3.134   0.461  11.179 -1.3786 -2.1149 -1.1857
  677TMC3    C710022   3.302   0.639  11.238 -0.3169  0.1306  0.4040
  677TMC3    C810023   3.117   0.252  10.996 -0.2668 -0.2601  0.4630
  677TMC3    O110024   3.209   0.609  11.314 -0.0313  0.5002 -0.0515
  677TMC3    O210025   3.094   0.207  10.881 -0.6533  0.1181  0.2672
  678MPD2     C10026   0.524   4.167   1.522  0.4033 -0.2347  0.2902
  678MPD2    C110027   0.541   4.061   1.437 -0.1346 -0.6583  0.0550
  678MPD2    C210028   0.425   4.004   1.393 -0.3373  0.6730 -0.0884
  678MPD2    C310029   0.296   4.060   1.417 -0.0589 -0.3390 -0.4869
  678MPD2    C410030   0.284   4.164   1.502 -0.2531  0.7844 -0.2340
  678MPD2    C510031   0.401   4.207   1.556  0.3344 -0.4404  0.4729
  678MPD2     H10032   0.433   3.909   1.342  3.7165  1.1980 -0.4335
  678MPD2    H110033   0.193   4.211   1.538 -1.8971 -1.4077 -1.5677
  678MPD2    H210034   0.606   4.204   1.583 -0.7948  0.4788  1.4635
  678MPD2    H310035   0.396   4.284   1.632 -1.6202 -0.9686  0.8873
  678MPD2     N10036   0.180   4.023   1.351 -0.3421 -0.3479  0.4987
  678MPD2    H510037   0.200   3.953   1.280  2.2590  0.5054  0.3695
  678MPD2    N110038   0.667   4.003   1.412 -0.3732 -0.1529  0.5192
  678MPD2    H710039   0.670   3.912   1.368 -1.2930  0.0314  0.0657
  679TMC3    C110040   1.046   3.853   1.357  0.3656 -0.0019  0.3839
  679TMC3    C210041   0.922   3.888   1.390  0.9673 -0.0629  0.1243
  679TMC3    C310042   0.894   4.024   1.378  0.5938  0.3727 -0.6417
  679TMC3    C410043   1.143   3.932   1.309 -0.1201 -0.3160  0.4913
  679TMC3    C510044   1.113   4.070   1.304  0.2483  0.3647 -0.2029
  679TMC3    C610045   0.983   4.108   1.322  0.4313  0.3249 -0.3773
  679TMC3     C10046   1.076   3.710   1.340  0.4238 -0.1362 -0.5396
  679TMC3     O10047   1.167   3.689   1.264  0.3363  0.2530  0.2022
  679TMC3     H10048   0.852   3.820   1.438 -1.2486  3.7704  2.2623
  679TMC3    H110049   1.239   3.899   1.270 -1.1455 -1.1040 -1.3713
  679TMC3    H210050   0.964   4.213   1.304  0.4715  0.0863 -1.8368
  679TMC3    C710051   1.193   4.143   1.212 -0.1823  0.3015 -0.0839
  679TMC3    C810052   0.774   4.081   1.426 -0.1475 -0.1500  0.0399
  679TMC3    O110053   1.129   4.225   1.149 -0.2280  0.2198  0.0028
  679TMC3    O210054   0.781   4.202   1.435  0.0943  0.4875 -1.1393
  680MPD2     C10055   0.300   3.664  13.316 -0.7149 -0.0413  0.2721
  680MPD2    C110056   0.393   3.636  13.418 -0.9565 -0.6185 -0.1527
  680MPD2    C210057   0.439   3.741  13.499  0.1410 -0.2171  0.4850
  680MPD2    C310058   0.413   3.876  13.464  0.1472  0.7037 -0.4818
  680MPD2    C410059   0.319   3.893  13.365 -0.2245 -0.1821 -0.2936
  680MPD2    C510060   0.257   3.791  13.298 -0.2317 -0.1289  0.0307
  680MPD2     H10061   0.507   3.714  13.579 -0.2554 -0.1967  0.8309
  680MPD2    H110062   0.298   3.996  13.338 -1.5407  0.2036  2.1343
  680MPD2    H210063   0.271   3.595  13.237 -0.7777 -0.1541  0.3940
  680MPD2    H310064   0.189   3.813  13.217 -0.0477  1.0810  0.2034
  680MPD2     N10065   0.474   3.987  13.528  0.0463  0.3632 -0.2001
  680MPD2    H510066   0.454   4.082  13.497 -2.7457  0.0077  0.5341
  680MPD2    N110067   0.451   3.509  13.436  0.0073 -0.3796  0.2647
  680MPD2    H710068   0.525   3.512  13.505 -0.9726 -2.6938  1.3877
  681TMC3    C110069   0.485   3.280  13.433  0.4347  0.5785 -0.3285
  681TMC3    C210070   0.415   3.171  13.472 -0.0389  0.2061 -0.6547
  681TMC3    C310071   0.466   3.045  13.453 -0.0039  0.4701  0.5266
  681TMC3    C410072   0.604   3.267  13.363  0.0328 -0.4461  0.0303
  681TMC3    C510073   0.646   3.136  13.333 -0.5211  0.6767  0.1969
  681TMC3    C610074   0.580   3.024  13.379  0.0677  0.5979  0.0563
  681TMC3     C10075   0.402   3.391  13.395  0.0808  0.8613  0.0706
  681TMC3     O10076   0.314   3.368  13.310 -0.0312 -0.3079  0.2188
  681TMC3     H10077   0.317   3.183  13.518 -0.2464 -1.3290 -0.6947
  681TMC3    H110078   0.659   3.354  13.330 -0.8207  0.2395  0.4226
  681TMC3    H210079   0.628   2.927  13.370 -0.3378  0.1377  2.7116
  681TMC3    C710080   0.781   3.133  13.288  0.0132 -0.0155  0.1058
  681TMC3    C810081   0.436   2.946  13.552  0.2974 -0.0139  0.5158
  681TMC3    O110082   0.843   3.031  13.303 -0.4874  0.0101 -0.0920
  681TMC3    O210083   0.464   2.834  13.518  0.1551 -0.3504  0.1489
  682MPD2     C10084   2.944   0.642  10.128 -0.0285 -0.5843  0.3822
  682MPD2    C110085   2.900   0.523  10.070  0.1740 -0.0079 -0.1541
  682MPD2    C210086   2.788   0.459  10.112 -0.1099 -0.3133 -0.5047
  682MPD2    C310087   2.710   0.511  10.218 -0.2451 -0.3562  0.3471
  682MPD2    C410088   2.746   0.636  10.264 -0.2959 -0.0572 -0.1989
  682MPD2    C510089   2.862   0.695  10.228  0.4198 -0.4953 -0.1167
  682MPD2     H10090   2.761   0.362  10.072  0.1034 -1.4047  1.9902
  682MPD2    H110091   2.688   0.682  10.343 -0.7214 -2.2057  0.7346
  682MPD2    H210092   3.031   0.699  10.098 -0.3450  0.1689  0.8901
  682MPD2    H310093   2.899   0.778  10.287 -0.5719 -1.6753  2.1783
  682MPD2     N10094   2.584   0.469  10.251 -0.3615  0.0611 -0.3433
  682MPD2    H510095   2.539   0.507  10.333  1.0530 -0.8230  0.8530
  682MPD2    N110096   2.979   0.446   9.985 -0.3244  0.1940 -0.4950
  682MPD2    H710097   2.946   0.353   9.961  1.1189 -0.5809  0.5065
  683TMC3    C110098   2.217   0.372  10.403  0.5362 -0.5325  0.4403
  683TMC3    C210099   2.136   0.271  10.347  0.5599 -0.0943 -0.0765
  683TMC3    C310100   2.176   0.211  10.228 -0.3512  0.2241  0.2019
  683TMC3    C410101   2.347   0.402  10.359 -0.1346 -0.4155 -0.4154
  683TMC3    C510102   2.382   0.343  10.241  0.7596 -0.0390  0.1649
  683TMC3    C610103   2.302   0.247  10.178  0.5389  0.4103 -0.1579
  683TMC3     C10104   2.179   0.440  10.519 -0.1870  0.8076 -0.5181
  683TMC3     O10105   2.259   0.463  10.608 -0.2561  0.6730 -0.0354
  683TMC3     H10106   2.056   0.223  10.402  1.8774 -0.8186  1.2489
  683TMC3    H110107   2.408   0.467  10.420 -1.1901  1.7022 -1.6085
  683TMC3    H210108   2.331   0.206  10.082 -0.0279  1.4339 -0.7645
  683TMC3    C710109   2.516   0.361  10.193  0.0368  0.2193  0.6820
  683TMC3    C810110   2.149   0.077  10.188 -0.3564  0.0151  0.1778
  683TMC3    O110111   2.545   0.296  10.094  0.3434 -0.1304 -0.9184
  683TMC3    O210112   2.179   0.041  10.076 -0.7674 -0.3350 -0.5324
  684MPD2     C10113   0.292   4.638  16.023 -0.5229  0.6833  0.4101
  684MPD2    C110114   0.417   4.689  16.070 -0.4994 -0.2962  1.6796
  684MPD2    C210115   0.401   0.020  16.199 -0.1700 -0.5253 -0.7572
  684MPD2    C310116   0.284   0.029  16.268 -0.1101 -0.1695  0.2031
  684MPD2    C410117   0.176   4.691  16.215  1.0390  0.2975  0.1499
  684MPD2    C510118   0.177   4.647  16.093 -0.0134 -0.2439 -0.4583
  684MPD2     H10119   0.495   0.059  16.237  0.6289 -1.6030 -1.6384
  684MPD2    H110120   0.090   4.680  16.280  1.4742  0.7481  0.8101
  684MPD2    H210121   0.290   4.589  15.926 -0.2006 -1.5317  1.5247
  684MPD2    H310122   0.091   4.599  16.046  0.9381  0.1002 -2.5663
  684MPD2     N10123   0.266   0.075  16.399 -0.0775 -0.4530  0.8719
  684MPD2    H510124   0.184   0.042  16.448 -2.2093  3.0640 -0.3524
  684MPD2    N110125   0.532   4.711  15.993  0.1474  0.3139 -0.6283
  684MPD2    H710126   0.617   0.028  16.031  1.1737 -2.1702 -0.3328
  685TMC3    C110127   0.656   0.020  15.802 -0.4485 -0.8585  1.2090
  685TMC3    C210128   0.640   0.023  15.667 -0.3527 -0.2706  1.1692
  685TMC3    C310129   0.741   4.710  15.583  0.7865 -0.1859 -0.9838
  685TMC3    C410130   0.777   4.715  15.854  0.1182  0.7520  0.8149
  685TMC3    C510131   0.886   4.708  15.766 -0.2770  0.2150 -0.1101
  685TMC3    C610132   0.865   4.706  15.633 -0.5355 -0.3110  0.0761
  685TMC3     C10133   0.549   4.677  15.858  0.0875 -0.7478  0.3231
  685TMC3     O10134   0.473   4.620  15.783 -0.3933 -1.1048 -0.2366
  685TMC3     H10135   0.545   0.051  15.625 -0.6190  1.5837  3.0072
  685TMC3    H110136   0.774   4.692  15.960  1.0418  0.3695  0.7620
  685TMC3    H210137   0.948   4.691  15.566 -0.9555  1.1966 -0.7725
  685TMC3    C710138   1.011   4.647  15.817  0.4658 -0.1410 -0.0416
  685TMC3    C810139   0.694   4.643  15.465  0.6137  0.2055 -0.3292
  685TMC3    O110140   1.004   4.612  15.933  0.2387  0.4765  0.3064
  685TMC3    O210141   0.768   4.655  15.370  0.2050 -0.2216 -0.1398
  686MPD2     C10142   2.024   4.419  15.331  0.3725  0.1632  0.4943
  686MPD2    C110143   2.092   4.311  15.380  0.2267  0.1866 -0.2048
  686MPD2    C210144   2.200   4.268  15.311 -0.0102  0.0950 -0.4779
  686MPD2    C310145   2.236   4.312  15.188 -0.0778  0.1608  0.7227
  686MPD2    C410146   2.168   4.418  15.135 -0.6154 -1.1922 -0.3277
  686MPD2    C510147   2.059   4.468  15.205 -0.7895 -0.7623 -0.5637
  686MPD2     H10148   2.242   4.177  15.354  0.4521  0.6691  0.2742
  686MPD2    H110149   2.194   4.449  15.035 -0.1664 -0.9534 -0.1383
  686MPD2    H210150   1.933   4.455  15.377  0.1986 -0.6361  0.7817
  686MPD2    H310151   2.001   4.546  15.157  2.0961  0.1600 -2.5728
  686MPD2     N10152   2.342   4.248  15.122  0.1681 -0.5185 -0.8599
  686MPD2    H510153   2.382   4.313  15.055  0.2118 -1.3462 -1.6380
  686MPD2    N110154   2.053   4.246  15.502 -0.8126  0.4309 -0.3880
  686MPD2    H710155   1.972   4.284  15.550 -1.1696  0.9003 -1.3555
  687TMC3    C110156   2.333   4.019  15.193  0.3260 -0.6454 -0.2964
  687TMC3    C210157   2.200   4.016  15.154  0.8496  0.7131  0.4896
  687TMC3    C310158   2.125   3.905  15.203  0.6999 -0.2838 -0.9935
  687TMC3    C410159   2.394   3.930  15.272  1.3760 -0.4725 -0.4350
  687TMC3    C510160   2.313   3.827  15.321  1.0409  0.6533  0.1709
  687TMC3    C610161   2.179   3.822  15.295 -0.8844  0.4780  0.6453
  687TMC3     C10162   2.415   4.130  15.142  0.0407 -0.6088  0.5430
  687TMC3     O10163   2.525   4.102  15.102  0.2900 -0.4374 -0.2545
  687TMC3     H10164   2.165   4.075  15.071 -0.2060 -0.7326 -0.0943
  687TMC3    H110165   2.493   3.961  15.301  0.7804 -1.7813  3.0730
  687TMC3    H210166   2.118   3.747  15.345 -0.9771  0.2106  0.1328
  687TMC3    C710167   2.348   3.763  15.449  0.1252  0.3028  0.3785
  687TMC3    C810168   1.979   3.916  15.217 -0.4819 -0.1816  0.6518
  687TMC3    O110169   2.256   3.714  15.514 -0.3110 -0.1883 -0.5390
  687TMC3    O210170   1.925   3.815  15.254 -0.2142  0.3641 -0.3055
  688MPD2     C10171   1.422   2.824  17.166 -0.5352 -0.5043 -0.2336
  688MPD2    C110172   1.414   2.686  17.152  0.7801 -0.2374 -0.2255
  688MPD2    C210173   1.507   2.618  17.073 -0.5557 -0.3076  0.7864
  688MPD2    C310174   1.598   2.684  16.992  0.1011 -0.2086 -0.5018
  688MPD2    C410175   1.609   2.826  17.015 -0.1975  0.1791 -0.7235
  688MPD2    C510176   1.522   2.888  17.099  0.4093 -0.4554  0.2303
  688MPD2     H10177   1.506   2.509  17.067  1.9601 -0.3752  1.6215
  688MPD2    H110178   1.671   2.893  16.958  2.3630  0.3133  2.2006
  688MPD2    H210179   1.341   2.876  17.214  0.6101  1.5486 -0.5340
  688MPD2    H310180   1.528   2.996  17.085  4.5353 -0.6406  0.5536
  688MPD2     N10181   1.681   2.623  16.893 -0.8059  0.7029  0.3264
  688MPD2    H510182   1.725   2.691  16.831 -1.1333 -2.4366 -3.3360
  688MPD2    N110183   1.315   2.624  17.235  1.2059  0.0781 -0.2295
  688MPD2    H710184   1.253   2.687  17.284  0.6751 -0.5077 -0.1421
  689TMC3    C110185   1.202   2.461  17.350  0.0008 -0.1062 -0.0654
  689TMC3    C210186   1.198   2.541  17.461  0.0757 -0.4239 -0.5438
  689TMC3    C310187   1.131   2.504  17.570  0.6844 -0.0735 -0.3509
  689TMC3    C410188   1.150   2.335  17.359 -0.7731 -0.9842 -0.3805
  689TMC3    C510189   1.087   2.300  17.480  0.3702  0.4613 -0.0301
  689TMC3    C610190   1.068   2.387  17.582  0.2027  0.3177  0.3844
  689TMC3     C10191   1.288   2.495  17.238 -0.1343 -0.6909 -0.0914
  689TMC3     O10192   1.303   2.410  17.150 -0.6629  0.3370 -0.2026
  689TMC3     H10193   1.251   2.635  17.453 -0.2143 -0.1678  0.6151
  689TMC3    H110194   1.165   2.269  17.274  0.4581 -0.3578 -0.6477
  689TMC3    H210195   1.017   2.357  17.673  1.6383  0.0844  1.1172
  689TMC3    C710196   1.050   2.163  17.505 -0.3813 -0.0585 -0.2315
  689TMC3    C810197   1.107   2.609  17.674 -0.2528 -0.6421 -0.5400
  689TMC3    O110198   1.043   2.126  17.622  0.1475 -0.1003  0.4954
  689TMC3    O210199   1.062   2.574   0.085 -0.2654 -0.5294  0.0150
  690MPD2     C10200   3.283   0.022  15.081  0.6014  0.2953  0.1144
  690MPD2    C110201   3.360   4.631  15.113  0.0152 -0.0294 -0.5219
  690MPD2    C210202   3.499   4.640  15.103  0.2416 -0.3940  0.2557
  690MPD2    C310203   3.563   0.042  15.082  0.0211  0.1263  0.0970
  690MPD2    C410204   3.482   0.155  15.064  0.2823 -0.0244 -0.9478
  690MPD2    C510205   3.348   0.147  15.065 -0.2556 -0.1755 -0.2477
  690MPD2     H10206   3.562   4.552  15.113 -2.4570 -2.5942 -2.1499
  690MPD2    H110207   3.526   0.252  15.044  0.0328  0.1772 -0.5252
  690MPD2    H210208   3.175   0.024  15.082  0.6289  1.1421  1.5087
  690MPD2    H310209   3.294   0.240  15.049 -0.0464 -0.3353 -1.9292
  690MPD2     N10210   3.703   0.041  15.080 -0.6333 -0.3603  0.3496
  690MPD2    H510211   3.746   4.682  15.122 -0.6930  0.3275  1.7581
  690MPD2    N110212   3.302   4.508  15.134 -0.0769 -0.4973  0.1388
  690MPD2    H710213   3.362   4.429  15.157  1.2839  0.5622  0.2449
  691TMC3    C110214   3.129   4.356  15.210 -0.6376 -0.0765 -0.5975
  691TMC3    C210215   3.032   4.373  15.311 -0.3880  0.3585 -0.3246
  691TMC3    C310216   3.022   4.273  15.408  0.2306 -0.2883  0.0507
  691TMC3    C410217   3.217   4.263  15.202  0.0045 -0.5454 -0.7538
  691TMC3    C510218   3.206   4.172  15.298  0.2849  0.5437  0.5237
  691TMC3    C610219   3.112   4.173  15.392  0.3018  0.2826  0.8192
  691TMC3     C10220   3.164   4.487  15.142  0.4596 -0.0761 -0.0463
  691TMC3     O10221   3.078   4.572  15.142 -0.0608 -0.0971 -0.2297
  691TMC3     H10222   2.952   4.444  15.293 -0.7332 -0.5987 -2.5273
  691TMC3    H110223   3.273   4.254  15.110  0.2606 -0.1325 -0.6367
  691TMC3    H210224   3.110   4.100  15.472 -0.6610  0.1864  0.7037
  691TMC3    C710225   3.240   4.039  15.267  0.8072  0.4345 -0.5633
  691TMC3    C810226   2.958   4.301  15.536 -0.0735 -0.2481 -0.0337
  691TMC3    O110227   3.350   4.021  15.225 -0.0402  0.5821  0.1684
  691TMC3    O210228   2.964   4.213  15.624 -0.1207 -0.1535  0.7695
  692TMC3    C110229   0.301   0.950  15.419  0.0485 -0.3697  0.4604
  692TMC3    C210230   0.428   1.006  15.410  0.4935 -0.1444  0.1464
  692TMC3    C310231   0.539   0.922  15.425  0.3931 -0.0524  0.3277
  692TMC3    C410232   0.279   0.815  15.407 -0.0491  0.8748 -0.1174
  692TMC3    C510233   0.388   0.736  15.430  0.4837  0.4709  0.4067
  692TMC3    C610234   0.512   0.784  15.449  0.5108  0.0575 -0.1547
  692TMC3     C10235   0.189   1.040  15.457  0.0016  0.4158 -0.4928
  692TMC3     O10236   0.092   0.993  15.511  0.2970  0.0889 -0.0811
  692TMC3     H10237   0.437   1.108  15.444  0.7014 -0.0699 -0.1352
  692TMC3    H110238   0.178   0.775  15.408  0.4607 -0.4193 -0.2387
  692TMC3    H210239   0.595   0.716  15.468 -0.0747 -1.8089 -4.2778
  692TMC3    C710240   0.356   0.599  15.464  0.4527  0.1169  0.2472
  692TMC3    C810241   0.649   0.962  15.509  0.7626 -0.3417 -0.4828
  692TMC3    O110242   0.263   0.547  15.406 -0.0783 -0.5991 -0.7561
  692TMC3    O210243   0.689   0.874  15.584  0.3810  0.3906  0.0328
  693MPD2     C10244   0.042   4.017  10.809 -0.2519 -0.2492 -0.2669
  693MPD2    C110245   0.023   3.878  10.803  0.0097  0.5993  0.7926
  693MPD2    C210246   0.128   3.798  10.761 -0.4920  0.1779  0.5309
  693MPD2    C310247   0.254   3.851  10.742 -0.4711  0.1023 -0.6723
  693MPD2    C410248   0.273   3.988  10.745  0.6402  0.0359 -0.4767
  693MPD2    C510249   0.170   4.072  10.779  0.9276 -0.4375  0.2372
  693MPD2     H10250   0.111   3.691  10.753  0.5431 -0.1364  2.5111
  693MPD2    H110251   0.370   4.035  10.734  0.4506 -0.0892 -2.7391
  693MPD2    H210252   4.686   4.086  10.837  1.3057  1.2787  0.4031
  693MPD2    H310253   0.193   4.178  10.784 -1.4751 -0.0245  2.0873
  693MPD2     N10254   0.371   3.776  10.716  0.5044  0.1480  0.3408
  693MPD2    H510255   0.459   3.827  10.716  0.8131 -0.3941  1.8057
  693MPD2    N110256   4.618   3.835  10.836  0.0428 -0.3475  0.0596
  693MPD2    H710257   4.550   3.903  10.867 -0.1989 -0.1446 -0.9235
  694TMC3    C110258   4.438   3.703  10.863  0.3495  0.8117  0.3525
  694TMC3    C210259   4.344   3.633  10.790  0.0798 -1.1938  0.1145
  694TMC3    C310260   4.229   3.595  10.853  0.7580 -0.0596 -0.4709
  694TMC3    C410261   4.423   3.722  10.999 -0.8103 -0.1545  1.0908
  694TMC3    C510262   4.310   3.663  11.052  0.5386  0.2209  0.4345
  694TMC3    C610263   4.206   3.613  10.979  0.8571  0.1049  1.0265
  694TMC3     C10264   4.571   3.706  10.810 -0.5659  0.1075 -0.4969
  694TMC3     O10265   4.613   3.620  10.735  0.2237  0.2030  0.9480
  694TMC3     H10266   4.355   3.618  10.683 -1.5301 -0.1454 -0.1881
  694TMC3    H110267   4.502   3.762  11.061  0.2569 -1.0515  0.3034
  694TMC3    H210268   4.116   3.573  11.024  1.2512  0.1332  1.8433
  694TMC3    C710269   4.306   3.655  11.198 -0.6544  0.1678 -0.5515
  694TMC3    C810270   4.123   3.544  10.770 -0.5755  0.4286  0.4324
  694TMC3    O110271   4.391   3.717  11.261  0.0657  0.0678 -0.1996
  694TMC3    O210272   4.031   3.480  10.826  0.6101 -0.1689 -0.2201
  695MPD2     C10273   0.833   0.540  13.537 -0.3873  0.1476 -0.6811
  695MPD2    C110274   0.849   0.679  13.517  0.3365  0.1974  0.4607
  695MPD2    C210275   0.750   0.744  13.445  0.2950  0.4996  0.1522
  695MPD2    C310276   0.641   0.684  13.387 -0.6989 -0.4501 -0.0327
  695MPD2    C410277   0.624   0.544  13.409 -0.1691 -0.0129  0.7076
  695MPD2    C510278   0.724   0.472  13.474 -0.3776  0.4084 -0.3115
  695MPD2     H10279   0.759   0.851  13.431 -1.4500  0.4222 -1.4950
  695MPD2    H110280   0.555   0.483  13.352 -0.8783  4.1887 -2.8853
  695MPD2    H210281   0.905   0.482  13.593 -1.6379 -1.2858 -0.5477
  695MPD2    H310282   0.719   0.363  13.474  0.5760  0.3671  2.7405
  695MPD2     N10283   0.546   0.750  13.312  0.0787  0.0990 -0.7611
  695MPD2    H510284   0.570   0.846  13.288 -0.3733 -0.1235 -2.0979
  695MPD2    N110285   0.955   0.756  13.577 -0.1568  0.2589 -0.8854
  695MPD2    H710286   0.974   0.850  13.543  0.2286  0.1747 -0.9078
  696TMC3    C110287   0.343   0.806  13.241 -0.5117  0.1097  0.2493
  696TMC3    C210288   0.293   0.877  13.343 -0.1067  0.2179 -0.3146
  696TMC3    C310289   0.253   1.003  13.313 -0.5617  0.8833 -0.0506
  696TMC3    C410290   0.369   0.861  13.118  0.0514 -0.4633  0.2366
  696TMC3    C510291   0.295   0.973  13.088  0.4256 -0.0687  0.2685
  696TMC3    C610292   0.227   1.044  13.188  0.5029 -0.3215  0.4157
  696TMC3     C10293   0.421   0.704  13.278 -0.0760  0.4963  0.2306
  696TMC3     O10294   0.356   0.602  13.315  0.2926 -0.1012 -0.0962
  696TMC3     H10295   0.305   0.833  13.441 -1.0831  2.4877  0.8071
  696TMC3    H110296   0.403   0.802  13.033  0.2433 -0.5728  0.3869
  696TMC3    H210297   0.171   1.135  13.171  0.4036 -0.7690 -1.6336
  696TMC3    C710298   0.345   1.055  12.979  0.5469 -0.3427 -0.5946
  696TMC3    C810299   0.316   1.102  13.399 -0.1579  0.3868  0.6122
  696TMC3    O110300   0.404   1.000  12.881  0.3680  0.4882 -0.3575
  696TMC3    O210301   0.307   1.218  13.354 -0.6646  0.0905 -0.6784
  697MPD2     C10302   0.537   2.481  15.567 -0.3869  0.0281 -0.3472
  697MPD2    C110303   0.469   2.471  15.449 -0.0262  0.0713  0.0231
  697MPD2    C210304   0.446   2.593  15.386 -0.3342 -0.3762 -1.4191
  697MPD2    C310305   0.481   2.718  15.439  0.6674 -0.4451 -0.5429
  697MPD2    C410306   0.555   2.727  15.552  0.5707  0.1228  0.6597
  697MPD2    C510307   0.581   2.608  15.620  0.4942 -0.4025 -0.7275
  697MPD2     H10308   0.389   2.592  15.294 -1.0038  0.0700 -1.0034
  697MPD2    H110309   0.589   2.818  15.601 -1.7247  1.1058  0.4296
  697MPD2    H210310   0.564   2.393  15.626  1.2468 -0.0435 -1.1822
  697MPD2    H310311   0.641   2.605  15.711 -0.6955 -0.4389  0.0479
  697MPD2     N10312   0.451   2.828  15.355 -0.4387  0.9809  0.1884
  697MPD2    H510313   0.393   2.807  15.274 -2.5752  1.6980  1.5410
  697MPD2    N110314   0.410   2.355  15.390  0.3636 -0.2275  0.5084
  697MPD2    H710315   0.370   2.364  15.297  0.7182  0.4657  0.4165
  698TMC3    C110316   0.482   3.048  15.248  0.3522  0.4404  0.8383
  698TMC3    C210317   0.496   3.184  15.279  0.8844  0.4762  0.6738
  698TMC3    C310318   0.462   3.269  15.173  0.2534  0.4655  0.2917
  698TMC3    C410319   0.440   2.999  15.127 -0.1330  0.0379  0.0938
  698TMC3    C510320   0.406   3.086  15.031  0.5862  0.2607 -0.2033
  698TMC3    C610321   0.418   3.221  15.051 -0.1989  0.1993  0.3602
  698TMC3     C10322   0.510   2.956  15.365 -0.1779 -0.1604  0.1005
  698TMC3     O10323   0.577   3.001  15.457  0.5275  0.1620 -0.2823
  698TMC3     H10324   0.534   3.222  15.374  2.3229  0.1854  0.2150
  698TMC3    H110325   0.445   2.891  15.114 -2.1468  0.0221 -0.6488
  698TMC3    H210326   0.392   3.289  14.971 -1.6659 -0.1317  0.5496
  698TMC3    C710327   0.342   3.043  14.910  0.1414 -0.4624 -0.5249
  698TMC3    C810328   0.500   3.407  15.199  0.8141  0.5623 -0.1042
  698TMC3    O110329   0.341   3.109  14.810 -0.7064 -0.2034 -0.1968
  698TMC3    O210330   0.499   3.436  15.317 -0.0989  0.3935  0.2441
  699TMC3    C110331   0.151   0.981  12.619  0.1528 -0.3826 -0.3116
  699TMC3    C210332   0.158   0.858  12.679 -0.3576 -0.0913  0.1809
  699TMC3    C310333   0.099   0.849  12.803 -0.2013  0.0562  0.1720
  699TMC3    C410334   0.077   1.086  12.680  0.2723  0.2101 -0.2621
  699TMC3    C510335   0.011   1.062  12.793 -0.1930 -0.1145 -0.1763
  699TMC3    C610336   0.012   0.939  12.857  0.2884  0.0057  0.3335
  699TMC3     C10337   0.239   1.018  12.512  0.4877 -0.4953 -0.5899
  699TMC3     O10338   0.288   1.133  12.511  0.2027  0.0620 -0.4577
  699TMC3     H10339   0.221   0.781  12.636 -1.0233 -0.5767  0.0699
  699TMC3    H110340   0.058   1.177  12.625  0.8368 -0.0659 -0.9148
  699TMC3    H210341   4.705   0.923  12.960 -0.0295  0.2547  0.2781
  699TMC3    C710342   4.701   1.174  12.879 -0.1798  0.2099  0.7423
  699TMC3    C810343   0.131   0.735  12.886  0.2016 -0.0004 -0.4338
  699TMC3    O110344   4.628   1.168  12.976  0.3470 -0.5355 -0.1353
  699TMC3    O210345   0.053   0.707  12.979  0.1894 -0.0169 -0.5322
  700TMC3    C110346   4.206   2.614  16.669  1.2892 -0.0665  0.0195
  700TMC3    C210347   4.318   2.536  16.672 -0.2586  0.1041  0.0458
  700TMC3    C310348   4.414   2.564  16.767  0.4983 -0.4243  0.8616
  700TMC3    C410349   4.182   2.706  16.763  0.0648  0.0607 -0.1445
  700TMC3    C510350   4.277   2.726  16.864 -0.5164 -0.0947  0.3913
  700TMC3    C610351   4.394   2.655  16.859 -0.1778 -0.5444 -0.0409
  700TMC3     C10352   4.169   2.639  16.532  0.2659  0.7228 -0.5168
  700TMC3     O10353   4.122   2.545  16.468 -0.2022  0.3125  0.1408
  700TMC3     H10354   4.348   2.470  16.592 -1.2147 -0.7663  0.3991
  700TMC3    H110355   4.093   2.768  16.757  1.3153  1.9622  0.9445
  700TMC3    H210356   4.463   2.687  16.936 -0.7346 -1.7500  0.9597
  700TMC3    C710357   4.260   2.833  16.959 -0.0361 -0.1280 -0.5745
  700TMC3    C810358   4.551   2.536  16.733 -0.1205  0.2492 -0.2314
  700TMC3    O110359   4.225   2.944  16.920  0.4503  0.2971 -0.2493
  700TMC3    O210360   4.578   2.524  16.615  0.0500  0.4006  1.1238
  701TMC3    C110361   4.155   1.694  15.211  0.4346  0.2741  0.4811
  701TMC3    C210362   4.146   1.664  15.073  0.8291  0.2110 -0.0712
  701TMC3    C310363   4.244   1.731  14.996 -1.0161 -0.0007  0.4329
  701TMC3    C410364   4.245   1.780  15.266  0.7507  0.6374  0.0787
  701TMC3    C510365   4.334   1.842  15.180 -0.0785 -0.0600  0.2210
  701TMC3    C610366   4.340   1.812  15.051  0.2841  0.8616  0.3297
  701TMC3     C10367   4.049   1.628  15.292 -0.8921  0.0829 -0.5959
  701TMC3     O10368   4.005   1.520  15.250  0.5778  0.1814 -0.8487
  701TMC3     H10369   4.066   1.608  15.027  1.2919 -0.4419 -0.0789
  701TMC3    H110370   4.250   1.814  15.369  0.1364 -0.5915  0.5089
  701TMC3    H210371   4.400   1.873  14.985  1.6066  1.3605  1.9873
  701TMC3    C710372   4.412   1.955  15.230 -0.0393 -0.2538  0.3695
  701TMC3    C810373   4.220   1.767  14.851 -0.5505 -0.3339 -0.2385
  701TMC3    O110374   4.501   1.999  15.159  0.2744  0.1204  0.0512
  701TMC3    O210375   4.241   1.887  14.820 -0.0650  0.1540  0.0547
  702MPD2     C10376   4.295   4.595  10.153  0.5018 -0.1995 -0.2164
  702MPD2    C110377   4.195   4.641  10.229 -0.3167 -1.0164  0.5546
  702MPD2    C210378   4.140   0.033  10.189 -0.1799  0.2843  0.0340
  702MPD2    C310379   4.182   0.111  10.076 -0.1250  0.0616 -0.9351
  702MPD2    C410380   4.292   0.061  10.003 -0.3118  0.5016 -0.1536
  702MPD2    C510381   4.335   4.662  10.043 -0.5776  0.1659 -0.0287
  702MPD2     H10382   4.053   0.064  10.246 -0.0744 -0.6266  0.6778
  702MPD2    H110383   4.335   0.103   9.912 -0.0311  0.1311 -0.1946
  702MPD2    H210384   4.337   4.497  10.172 -0.3977 -0.1015  2.1945
  702MPD2    H310385   4.414   4.618   9.984 -0.0250 -0.3026  1.0593
  702MPD2     N10386   4.120   0.238  10.039  0.5476 -0.1722  0.0783
  702MPD2    H510387   4.157   0.290   9.960  1.5724 -2.3356 -0.8732
  702MPD2    N110388   4.141   4.577  10.335  0.7004  0.1402  0.5644
  702MPD2    H710389   4.078   4.630  10.395 -1.3327 -0.7453 -0.8043
  703TMC3    C110390   3.963   0.416  10.059 -0.0296  0.1949 -0.0851
  703TMC3    C210391   3.828   0.439  10.077 -0.0448 -0.5464  0.7906
  703TMC3    C310392   3.768   0.542  10.010 -0.3735  0.6397 -0.7234
  703TMC3    C410393   4.036   0.492   9.969  0.3692 -0.2896  0.3027
  703TMC3    C510394   3.977   0.592   9.902 -0.2585 -0.2117 -0.1439
  703TMC3    C610395   3.847   0.622   9.930 -0.0545  0.1268 -0.5362
  703TMC3     C10396   4.015   0.295  10.113  0.3324 -0.5734 -0.0319
  703TMC3     O10397   3.955   0.266  10.216 -0.0150 -0.4586  0.1853
  703TMC3     H10398   3.769   0.366  10.131  0.3382 -1.1823  0.3596
  703TMC3    H110399   4.142   0.475   9.980  0.3408 -0.8245 -0.2254
  703TMC3    H210400   3.798   0.697   9.869 -0.9103  0.6588  0.8159
  703TMC3    C710401   4.066   0.694   9.854 -0.3155 -0.1807 -0.3257
  703TMC3    C810402   3.683   0.617  10.101  0.2131 -0.0577 -0.7877
  703TMC3    O110403   4.169   0.654   9.809 -0.3414 -0.2841 -0.4653
  703TMC3    O210404   3.698   0.738  10.103  0.3897  0.0164 -0.5622
  704TMC3    C110405   1.873   2.975  12.630  0.0972 -0.0583  0.2451
  704TMC3    C210406   1.972   2.985  12.539 -0.0827 -0.1681 -0.4198
  704TMC3    C310407   2.080   2.904  12.548 -0.7656 -0.3507 -0.4397
  704TMC3    C410408   1.884   2.882  12.728 -0.0499  0.0022 -0.7018
  704TMC3    C510409   1.979   2.784  12.719 -0.5150  0.4328 -0.0260
  704TMC3    C610410   2.085   2.792  12.633 -0.6121 -0.0136  0.1093
  704TMC3     C10411   1.739   2.971  12.574  0.4333  0.1716  0.4631
  704TMC3     O10412   1.644   3.007  12.643 -0.0776 -0.4590  0.3991
  704TMC3     H10413   1.974   3.071  12.473  2.7142 -0.3048 -0.5173
  704TMC3    H110414   1.816   2.889  12.812  1.1222 -2.0393  0.4210
  704TMC3    H210415   2.156   2.711  12.631 -1.5165 -0.7870 -0.6169
  704TMC3    C710416   2.000   2.694  12.832  0.1253 -0.1926 -0.2660
  704TMC3    C810417   2.150   2.891  12.418  0.0232 -0.0418 -0.0564
  704TMC3    O110418   2.112   2.691  12.878 -0.3032  0.7194 -0.8135
  704TMC3    O210419   2.077   2.907  12.317  0.1453  0.3866  0.4982
  705MPD2     C10420   1.239   0.794  16.126  0.2648  0.0321  0.4813
  705MPD2    C110421   1.126   0.756  16.058 -0.1219 -0.2998 -0.3750
  705MPD2    C210422   1.005   0.775  16.115  0.0685  0.0410  0.2791
  705MPD2    C310423   0.998   0.818  16.247 -0.0885  0.1148  0.2367
  705MPD2    C410424   1.116   0.845  16.312 -0.1170  0.3660  0.2445
  705MPD2    C510425   1.234   0.848  16.247  0.5227  0.4195 -0.8215
  705MPD2     H10426   0.912   0.756  16.062  0.3274 -1.2653  0.2964
  705MPD2    H110427   1.121   0.882  16.413 -0.8431  1.2190 -0.0332
  705MPD2    H210428   1.336   0.782  16.080  0.8013 -0.7532  1.8205
  705MPD2    H310429   1.323   0.872  16.304 -1.8656  0.0990  3.0584
  705MPD2     N10430   0.878   0.826  16.322 -0.0111 -0.4618 -0.6589
  705MPD2    H510431   0.887   0.858  16.417  0.1554 -0.7647 -0.5733
  705MPD2    N110432   1.130   0.703  15.929 -0.3253  0.1557  0.0107
  705MPD2    H710433   1.046   0.704  15.873 -0.4875  0.2016  0.2538
  706TMC3    C110434   1.245   0.650  15.508 -0.0977 -0.0764  0.3538
  706TMC3    C210435   1.178   0.762  15.463 -0.5384  0.6433  0.5098
  706TMC3    C310436   1.132   0.847  15.562  0.0642 -0.1430  0.0095
  706TMC3    C410437   1.273   0.626  15.634  0.4434 -0.2821  0.0075
  706TMC3    C510438   1.203   0.700  15.722 -0.5537 -0.0615  0.1477
  706TMC3    C610439   1.131   0.812  15.689  0.4869 -0.0796 -0.0450
  706TMC3     C10440   1.269   0.543  15.411  0.4967 -0.0455  0.3816
  706TMC3     O10441   1.361   0.465  15.431  0.5573 -0.2337  0.2405
  706TMC3     H10442   1.178   0.792  15.359  2.3091 -1.1746 -0.0383
  706TMC3    H110443   1.337   0.546  15.669 -0.4982 -1.1948 -0.3630
  706TMC3    H210444   1.073   0.864  15.764  1.7682  1.8556 -0.3962
  706TMC3    C710445   1.240   0.685  15.855 -0.2516 -0.5786  0.1647
  706TMC3    C810446   1.106   0.982  15.523  0.5792 -0.0017 -0.3478
  706TMC3    O110447   1.357   0.671  15.878 -0.2652 -0.0951  0.4860
  706TMC3    O210448   1.084   1.012  15.406  0.2738 -0.2503 -0.4506
  707TMC3    C110449   3.064   4.278   1.356 -0.4269  0.2886 -0.4758
  707TMC3    C210450   3.091   4.234   1.483 -0.5667 -0.2929  0.1158
  707TMC3    C310451   3.110   4.331   1.578 -0.0934 -0.4125  0.3571
  707TMC3    C410452   3.056   4.411   1.323 -0.5224 -0.1147 -0.5580
  707TMC3    C510453   3.088   4.503   1.417  0.0232  0.0456  0.3524
  707TMC3    C610454   3.113   4.461   1.544 -0.4634 -0.1670  0.3565
  707TMC3     C10455   3.133   4.194   1.262 -1.5290  0.0680  0.4477
  707TMC3     O10456   3.203   4.100   1.308  0.3674 -0.2841 -0.2986
  707TMC3     H10457   3.096   4.130   1.514  1.1566 -0.1054  0.4668
  707TMC3    H110458   3.050   4.444   1.219 -2.0472 -0.7136 -0.6469
  707TMC3    H210459   3.128   4.536   1.620  1.5361  2.5859 -2.7444
  707TMC3    C710460   3.096   4.648   1.380  0.6810  0.4946 -0.1653
  707TMC3    C810461   3.194   4.301   1.692  0.1366  0.6571 -0.4848
  707TMC3    O110462   3.034   4.681   1.278  0.5229  0.1684 -0.6571
  707TMC3    O210463   3.207   4.391   1.778  0.3118 -0.0229  0.1265
  708MPD2     C10464   3.643   4.370  12.912 -0.9517  0.4912  0.1786
  708MPD2    C110465   3.593   4.295  13.020  0.1509  0.7289  0.1307
  708MPD2    C210466   3.680   4.206  13.075  0.3809  0.7164  0.3207
  708MPD2    C310467   3.814   4.197  13.039 -0.0984 -0.6296  0.2780
  708MPD2    C410468   3.859   4.294  12.951  0.0020  0.1639 -0.0626
  708MPD2    C510469   3.771   4.371  12.884 -0.1453  0.0307  0.3969
  708MPD2     H10470   3.641   4.142  13.154 -0.1779 -1.2267 -1.5002
  708MPD2    H110471   3.962   4.300  12.919 -0.2945  2.6969 -0.5028
  708MPD2    H210472   3.585   4.452  12.870 -1.3641  1.1798  2.0698
  708MPD2    H310473   3.813   4.445  12.816  1.0189  0.1649  1.2569
  708MPD2     N10474   3.905   4.104  13.100  0.3311  0.0967  0.3798
  708MPD2    H510475   4.006   4.115  13.089  0.4803 -0.8540  0.8506
  708MPD2    N110476   3.457   4.320  13.063 -0.1137  0.5040 -0.2043
  708MPD2    H710477   3.397   4.376  13.003 -0.0054  1.8687  0.9615
  709TMC3    C110478   3.256   4.310  13.186  0.0982 -0.7042 -0.1604
  709TMC3    C210479   3.186   4.284  13.069 -0.0644  0.0435 -0.0898
  709TMC3    C310480   3.074   4.207  13.079 -0.5021 -0.2697  0.4005
  709TMC3    C410481   3.209   4.264  13.306 -0.6628  0.6428  0.3030
  709TMC3    C510482   3.114   4.170  13.308  0.2129  0.0688 -0.0888
  709TMC3    C610483   3.043   4.144  13.196 -0.2480  0.3303  0.1529
  709TMC3     C10484   3.402   4.283  13.183 -0.2574 -0.4180 -1.2437
  709TMC3     O10485   3.460   4.218  13.268 -0.0323  0.3037 -0.2255
  709TMC3     H10486   3.217   4.324  12.974  1.6400 -1.9947 -0.4042
  709TMC3    H110487   3.263   4.287  13.397 -1.8213 -1.6434  1.5743
  709TMC3    H210488   2.963   4.071  13.202 -1.7067  1.9573  0.4684
  709TMC3    C710489   3.147   4.059  13.387 -0.2902  0.8068 -0.5001
  709TMC3    C810490   2.957   4.235  13.001  0.3191  0.7693  0.6945
  709TMC3    O110491   3.060   3.986  13.436  0.2385  0.0157  0.0289
  709TMC3    O210492   2.848   4.210  13.053  0.2513 -0.3986  0.1929
  710TMC3    C110493   1.268   4.652   0.509 -0.0393 -0.6752  0.4889
  710TMC3    C210494   1.316   4.593   0.396  0.9291 -0.6346 -0.1133
  710TMC3    C310495   1.390   4.482   0.411  0.2631 -0.0373  0.3617
  710TMC3    C410496   1.280   4.588   0.629 -0.1816 -0.4047 -0.7425
  710TMC3    C510497   1.345   4.467   0.636  0.3630  0.0015  0.2616
  710TMC3    C610498   1.406   4.420   0.527 -0.1522 -0.6279 -0.0179
  710TMC3     C10499   1.146   0.009   0.486  0.2640  0.0384 -0.2648
  710TMC3     O10500   1.088   4.714   0.376 -0.4558 -0.2042 -0.2710
  710TMC3     H10501   1.292   4.636   0.300 -0.3112 -0.1636  0.4109
  710TMC3    H110502   1.220   4.622   0.712  1.9737  0.6675  0.3745
  710TMC3    H210503   1.449   4.321   0.540 -0.3080 -0.6171  0.5906
  710TMC3    C710504   1.347   4.395   0.768 -0.1812  0.0434  0.0269
  710TMC3    C810505   1.434   4.411   0.284 -0.3564  0.0783  0.3912
  710TMC3    O110506   1.265   4.437   0.845  0.2636 -0.0162 -0.2684
  710TMC3    O210507   1.433   4.481   0.183  0.2430 -0.2310  0.2772
  711TMC3    C110508   0.012   1.849  14.414  0.3024 -0.0710  0.0322
  711TMC3    C210509   0.092   1.874  14.527 -0.0056  0.6974 -0.3785
  711TMC3    C310510   0.226   1.885  14.518  1.1350  0.1649  0.1485
  711TMC3    C410511   0.078   1.819  14.299 -0.6573  0.4525  0.1609
  711TMC3    C510512   0.215   1.833  14.294 -0.1400 -0.1731  0.3401
  711TMC3    C610513   0.290   1.873  14.398 -0.2164  0.3945  0.5177
  711TMC3     C10514   4.613   1.774  14.429  0.2915 -0.3294 -0.3070
  711TMC3     O10515   4.577   1.699  14.339  0.3754 -0.2937  0.4919
  711TMC3     H10516   0.061   1.890  14.630 -3.2323  0.3478 -1.2813
  711TMC3    H110517   0.021   1.780  14.215 -1.3812  0.1044  0.8174
  711TMC3    H210518   0.397   1.853  14.396 -0.4821 -1.1949  2.4468
  711TMC3    C710519   0.273   1.813  14.160  0.5836  0.5128  0.1395
  711TMC3    C810520   0.301   1.833  14.634 -0.4123  0.6793  0.6438
  711TMC3    O110521   0.291   1.919  14.102  0.2239 -0.7923  0.0920
  711TMC3    O210522   0.421   1.861  14.658  0.1953  0.2122 -0.1475
  712MPD2     C10523   1.481   2.686  13.633  0.6757  0.5731 -0.5115
  712MPD2    C110524   1.393   2.742  13.548 -0.3841  0.6845  0.6043
  712MPD2    C210525   1.374   2.876  13.541 -0.4545  0.1971  0.6180
  712MPD2    C310526   1.445   2.963  13.630 -0.7385 -0.2652 -0.2011
  712MPD2    C410527   1.539   2.906  13.714  0.1868 -0.6663 -1.2601
  712MPD2    C510528   1.556   2.774  13.712  0.4696  0.7285 -0.5346
  712MPD2     H10529   1.299   2.912  13.472 -0.7234 -2.0161 -0.2448
  712MPD2    H110530   1.596   2.964  13.785 -1.9303  0.7074 -0.6695
  712MPD2    H210531   1.516   2.583  13.631  0.9501  0.6827 -1.1855
  712MPD2    H310532   1.619   2.722  13.784 -0.4329  1.4830  0.8058
  712MPD2     N10533   1.424   3.107  13.629 -0.0533  0.0953 -0.4562
  712MPD2    H510534   1.490   3.169  13.675 -1.0768  1.5986 -1.0285
  712MPD2    N110535   1.325   2.653  13.467  0.3039 -0.3958 -0.0667
  712MPD2    H710536   1.333   2.556  13.495  1.9236  0.2697  1.8228
  713TMC3    C110537   1.382   3.297  13.505  0.5910  0.6235 -0.0578
  713TMC3    C210538   1.513   3.322  13.475  0.1325  0.2000  0.1600
  713TMC3    C310539   1.548   3.423  13.386 -0.2834 -0.7163 -0.0877
  713TMC3    C410540   1.284   3.371  13.449  0.0076 -0.0419  0.3882
  713TMC3    C510541   1.311   3.465  13.356  0.1133  1.0169  0.2907
  713TMC3    C610542   1.444   3.497  13.332  0.5090  0.5200 -0.2006
  713TMC3     C10543   1.340   3.172  13.542  0.4266 -0.6277 -0.4343
  713TMC3     O10544   1.245   3.132  13.484  0.2624  0.6384  0.1283
  713TMC3     H10545   1.588   3.246  13.495  1.8799  1.0983 -2.8831
  713TMC3    H110546   1.183   3.344  13.479  0.5335 -1.0702  1.2090
  713TMC3    H210547   1.465   3.578  13.263  2.4964  1.2494  1.2894
  713TMC3    C710548   1.214   3.557  13.307 -0.1270  0.3224  0.6643
  713TMC3    C810549   1.673   3.428  13.315  0.0728 -0.0131  0.0807
  713TMC3    O110550   1.245   3.630  13.211  0.4338  0.9218  0.1227
  713TMC3    O210551   1.656   3.443  13.195 -1.0380 -0.1515  0.4631
  714MPD2     C10552   3.330   1.412   1.459 -0.0205  0.2794  0.1212
  714MPD2    C110553   3.361   1.321   1.362  0.4130  0.3712  0.3192
  714MPD2    C210554   3.371   1.359   1.225  0.2051 -0.2140  0.9490
  714MPD2    C310555   3.326   1.487   1.195  0.0843  0.2930  0.0450
  714MPD2    C410556   3.288   1.576   1.288 -0.0842 -0.4103 -0.5174
  714MPD2    C510557   3.278   1.533   1.417 -0.2004  0.0024  0.4212
  714MPD2     H10558   3.398   1.287   1.148  1.2965  0.0148  1.1309
  714MPD2    H110559   3.244   1.673   1.266  0.2847  0.1838  1.4361
  714MPD2    H210560   3.338   1.391   1.565  1.2618  1.5941  0.2784
  714MPD2    H310561   3.241   1.603   1.491 -0.3607  0.8710 -0.4883
  714MPD2     N10562   3.315   1.512   1.058 -0.6172  0.0214  0.3459
  714MPD2    H510563   3.322   1.435   0.992  1.4555  0.3018  0.2442
  714MPD2    N110564   3.387   1.187   1.394  0.3996  0.3352 -0.0193
  714MPD2    H710565   3.414   1.164   1.489 -0.6019 -0.4397  0.0786
  715TMC3    C110566   3.433   0.956   1.353 -0.1189  0.0438 -0.0944
  715TMC3    C210567   3.406   0.836   1.288 -0.0282 -0.6103  0.0668
  715TMC3    C310568   3.497   0.732   1.292  0.7597 -0.2639  0.5496
  715TMC3    C410569   3.549   0.964   1.424 -0.2250 -0.5506  0.2466
  715TMC3    C510570   3.633   0.860   1.422 -0.7127 -0.1336  0.0636
  715TMC3    C610571   3.614   0.741   1.354 -1.2951 -0.7520 -0.1269
  715TMC3     C10572   3.361   1.077   1.310  0.0936 -0.5978 -0.7026
  715TMC3     O10573   3.293   1.067   1.212  0.2211  0.1046 -0.5212
  715TMC3     H10574   3.323   0.823   1.219  0.3424 -1.5280 -0.2087
  715TMC3    H110575   3.572   1.057   1.474  0.5749  0.8520 -2.7340
  715TMC3    H210576   3.699   0.674   1.344 -1.4975 -0.9468 -0.5329
  715TMC3    C710577   3.772   0.883   1.474  0.1886  0.4125  0.0251
  715TMC3    C810578   3.468   0.612   1.207  0.5895 -0.2709 -0.1991
  715TMC3    O110579   3.841   0.785   1.489  0.3051  0.7668  0.5282
  715TMC3    O210580   3.390   0.627   1.111 -0.1022 -0.2122  0.6505
  716MPD2     C10581   3.812   4.152   9.743 -1.4388 -0.2516 -0.1198
  716MPD2    C110582   3.827   4.087   9.620 -0.2500 -0.0695  0.0345
  716MPD2    C210583   3.876   3.963   9.623 -0.6493  0.6176 -0.0610
  716MPD2    C310584   3.913   3.903   9.741  0.2515 -0.2976 -0.4037
  716MPD2    C410585   3.906   3.966   9.861 -0.0462  0.1972  0.3334
  716MPD2    C510586   3.852   4.091   9.860  0.1683  1.2475 -0.0443
  716MPD2     H10587   3.884   3.899   9.535  1.9167 -0.5465  1.0260
  716MPD2    H110588   3.938   3.925   9.956 -1.6588  1.7857  1.5549
  716MPD2    H210589   3.776   4.254   9.734  0.9079  0.5754 -0.0266
  716MPD2    H310590   3.854   4.143   9.956  0.1231  1.9315 -0.4120
  716MPD2     N10591   3.954   3.764   9.737  0.5493 -0.1756 -0.2774
  716MPD2    H510592   3.964   3.730   9.641  0.1839 -0.3291 -0.2605
  716MPD2    N110593   3.787   4.153   9.495 -0.2492  0.5834  0.3841
  716MPD2    H710594   3.718   4.227   9.496 -0.0200  0.8222 -2.6791
  717TMC3    C110595   4.011   3.545   9.798  0.0529  0.1402  0.1411
  717TMC3    C210596   3.968   3.508   9.676  0.2797 -0.2561 -0.7239
  717TMC3    C310597   3.997   3.383   9.642  0.2170  0.3197 -0.2749
  717TMC3    C410598   4.074   3.460   9.890 -0.0367 -0.1097  0.4394
  717TMC3    C510599   4.101   3.328   9.847  0.0797  0.0028 -0.2773
  717TMC3    C610600   4.054   3.287   9.724 -0.0435  0.3535  0.4252
  717TMC3     C10601   3.983   3.677   9.842  0.4703  0.2324 -0.0254
  717TMC3     O10602   3.995   3.706   9.959 -0.8174  0.6969  0.4712
  717TMC3     H10603   3.906   3.570   9.612 -0.2776  0.7688  0.7990
  717TMC3    H110604   4.128   3.497   9.977 -0.8925 -2.6330  2.0474
  717TMC3    H210605   4.071   3.184   9.695 -1.3028  0.0498  0.7619
  717TMC3    C710606   4.175   3.236   9.940  0.8136 -0.5454  0.1477
  717TMC3    C810607   3.923   3.324   9.524 -1.2143  0.3947 -0.3749
  717TMC3    O110608   4.215   3.131   9.890 -0.3323 -0.1995 -0.1770
  717TMC3    O210609   3.843   3.398   9.462 -0.5591  0.2115  0.6885
  718MPD2     C10610   3.107   2.727  13.304  0.3021  0.1830 -0.0804
  718MPD2    C110611   3.110   2.747  13.167  0.8304  0.3689 -0.0591
  718MPD2    C210612   3.031   2.664  13.086  0.1377  0.3224 -0.5271
  718MPD2    C310613   2.948   2.572  13.145  0.5307  0.0941 -0.3741
  718MPD2    C410614   2.959   2.543  13.278  0.1720  0.2199 -0.6762
  718MPD2    C510615   3.042   2.622  13.359  0.4838 -0.5979  0.3730
  718MPD2     H10616   3.023   2.686  12.980  1.3817  1.9188 -0.2817
  718MPD2    H110617   2.906   2.464  13.330 -1.1032  0.8822 -0.9765
  718MPD2    H210618   3.164   2.791  13.371  0.3623  0.6053 -0.5367
  718MPD2    H310619   3.047   2.612  13.467 -1.1808 -3.2489  0.1958
  718MPD2     N10620   2.859   2.509  13.057  0.5010  0.0805 -0.1745
  718MPD2    H510621   2.861   2.539  12.960 -0.4391  0.8738  0.0532
  718MPD2    N110622   3.188   2.850  13.118  0.5459  0.0651  0.5484
  718MPD2    H710623   3.211   2.930  13.176  1.7718 -1.4600  2.1662
  719TMC3    C110624   3.284   2.974  12.939  0.0864  0.1085  0.2962
  719TMC3    C210625   3.183   3.049  12.888 -0.3977 -0.6464  0.8153
  719TMC3    C310626   3.201   3.114  12.768  0.1848 -0.2147  0.0070
  719TMC3    C410627   3.397   2.948  12.863  0.6563 -0.2078 -0.3754
  719TMC3    C510628   3.420   3.024  12.753  0.9727  0.3162 -0.3115
  719TMC3    C610629   3.324   3.111  12.704  0.1875 -0.1998  0.1861
  719TMC3     C10630   3.238   2.844  12.988  0.7413 -0.5238 -0.3705
  719TMC3     O10631   3.251   2.747  12.916 -0.4262  0.0253  0.2650
  719TMC3     H10632   3.085   3.042  12.933 -0.0209  2.6056  2.1005
  719TMC3    H110633   3.477   2.888  12.906  0.6081  0.4879  0.6664
  719TMC3    H210634   3.340   3.169  12.614  0.9945 -0.5910  0.0758
  719TMC3    C710635   3.534   2.981  12.671  0.2851 -0.9990  0.4054
  719TMC3    C810636   3.088   3.111  12.663 -0.2839 -0.3183 -0.2249
  719TMC3    O110637   3.580   2.868  12.688  0.3726 -0.1608  0.3421
  719TMC3    O210638   3.126   3.134  12.546  0.9629  0.0732  1.0066
  720MPD2     C10639   1.294   4.412  13.467  0.4752  0.0314 -0.4524
  720MPD2    C110640   1.376   4.515  13.429 -0.4930  0.0569 -0.5482
  720MPD2    C210641   1.493   4.533  13.502 -0.5590 -0.1017  0.7704
  720MPD2    C310642   1.520   4.474  13.627  0.5321 -0.3851  0.4178
  720MPD2    C410643   1.435   4.367  13.657  0.4753 -0.2446  0.6461
  720MPD2    C510644   1.316   4.344  13.583  0.2276  0.1188  0.0507
  720MPD2     H10645   1.554   4.619  13.475  0.6204 -1.3557 -0.6039
  720MPD2    H110646   1.461   4.295  13.733 -0.3067 -2.4966 -1.2222
  720MPD2    H210647   1.205   4.386  13.411 -0.3421  2.4926 -0.2781
  720MPD2    H310648   1.257   4.257  13.609  1.1521 -0.6374 -0.3751
  720MPD2     N10649   1.635   4.510  13.705  0.5350 -0.4857 -0.3211
  720MPD2    H510650   1.689   4.591  13.678 -1.1630  1.5975  2.5838
  720MPD2    N110651   1.365   4.579  13.305 -0.8272 -0.0506 -0.7094
  720MPD2    H710652   1.442   4.638  13.276  1.2538 -1.5015  1.8393
  721TMC3    C110653   1.792   4.510  13.882 -0.3059 -0.1768  0.4752
  721TMC3    C210654   1.804   4.517  14.019  0.5208  0.3918 -0.1697
  721TMC3    C310655   1.936   4.512  14.064  0.3323 -0.2095  0.5507
  721TMC3    C410656   1.901   4.512  13.793 -0.7571  0.4785 -0.0076
  721TMC3    C510657   2.024   4.485  13.848 -0.7999 -0.5601  0.0050
  721TMC3    C610658   2.041   4.480  13.986  0.1719  0.1020 -0.5402
  721TMC3     C10659   1.666   4.455  13.831 -0.0839  0.5042 -0.2626
  721TMC3     O10660   1.611   4.376  13.900  1.0118 -0.5372  0.3811
  721TMC3     H10661   1.722   4.550  14.081  0.4984 -0.1373  0.0817
  721TMC3    H110662   1.897   4.510  13.685  2.1205  1.2966 -0.1298
  721TMC3    H210663   2.143   4.481  14.022  0.0314 -0.7054 -0.1212
  721TMC3    C710664   2.140   4.498  13.769 -0.5105 -0.1299  0.1143
  721TMC3    C810665   1.975   4.610  14.167 -0.0792  0.0708 -0.3373
  721TMC3    O110666   2.161   4.598  13.705  0.1699  0.0404 -0.2917
  721TMC3    O210667   2.087   4.656  14.167 -0.2758 -0.0027  0.2415
  722MPD2     C10668   0.644   3.225  12.919  0.4108  0.3890  0.2047
  722MPD2    C110669   0.581   3.316  12.833  0.5068  0.5513 -0.5077
  722MPD2    C210670   0.443   3.322  12.839  0.0643  0.1037  0.1436
  722MPD2    C310671   0.370   3.234  12.913  0.2476 -0.3535 -0.4515
  722MPD2    C410672   0.431   3.140  12.995 -0.1536 -0.0233 -0.0199
  722MPD2    C510673   0.571   3.136  12.991  0.0554 -0.4643  0.0947
  722MPD2     H10674   0.383   3.384  12.773  0.9014  2.2907  1.4220
  722MPD2    H110675   0.373   3.063  13.044 -1.5091  0.1852 -1.3053
  722MPD2    H210676   0.752   3.230  12.913  0.5196  0.2429  2.0800
  722MPD2    H310677   0.624   3.061  13.048  3.1992  1.7045  0.0047
  722MPD2     N10678   0.228   3.247  12.922  0.0250  0.2513 -0.3740
  722MPD2    H510679   0.177   3.179  12.978  1.1348 -0.3117 -0.0406
  722MPD2    N110680   0.662   3.419  12.774 -0.0335 -1.0689  0.5554
  722MPD2    H710681   0.758   3.428  12.805  0.1100 -0.2764 -0.1262
  723TMC3    C110682   0.010   3.325  12.878 -0.3634 -0.3796 -0.2765
  723TMC3    C210683   4.694   3.196  12.911 -0.1691  0.6846 -0.0117
  723TMC3    C310684   4.565   3.164  12.883  0.2457 -1.5502  0.4771
  723TMC3    C410685   4.655   3.415  12.810 -0.2288 -0.8539 -0.4981
  723TMC3    C510686   4.523   3.374  12.791 -0.5412  0.3354  0.4434
  723TMC3    C610687   4.480   3.248  12.818 -0.7192 -0.4172 -0.1513
  723TMC3     C10688   0.154   3.359  12.880 -0.1152 -0.3741 -0.5749
  723TMC3     O10689   0.192   3.468  12.832  0.1689 -0.2006  0.5682
  723TMC3     H10690   0.041   3.118  12.937  0.8299  1.2016 -1.1891
  723TMC3    H110691   4.684   3.520  12.801  0.0203 -0.9587 -0.9383
  723TMC3    H210692   4.377   3.217  12.812 -1.5859  2.6452 -0.7363
  723TMC3    C710693   4.435   3.462  12.734  0.1487 -0.1085 -0.0928
  723TMC3    C810694   4.534   3.019  12.875 -0.0822 -0.2058 -0.5015
  723TMC3    O110695   4.474   3.580  12.729 -0.4087  0.4740  0.5038
  723TMC3    O210696   4.477   2.979  12.771  0.3405 -0.0485 -0.9829
  724TMC3    C110697   0.413   1.759   9.651  0.1061  0.0728  0.4655
  724TMC3    C210698   0.472   1.873   9.686 -0.0670  0.3900  0.8538
  724TMC3    C310699   0.467   1.971   9.584  0.1432 -0.3827  0.8260
  724TMC3    C410700   0.360   1.723   9.528  0.7632 -0.3267  0.7045
  724TMC3    C510701   0.363   1.819   9.436  0.0681 -0.5706  0.1882
  724TMC3    C610702   0.411   1.944   9.461 -0.1266  0.1837  0.2826
  724TMC3     C10703   0.368   1.678   9.768  0.5070  0.4226  0.0422
  724TMC3     O10704   0.450   1.648   9.857  0.2045  0.3200 -0.3524
  724TMC3     H10705   0.476   1.905   9.789  0.3378 -0.4207  1.0869
  724TMC3    H110706   0.344   1.617   9.515  1.9524 -0.0770 -2.6745
  724TMC3    H210707   0.411   2.019   9.382  0.5787  0.3777  0.4729
  724TMC3    C710708   0.397   1.774   9.305 -0.0368 -0.1202 -0.3065
  724TMC3    C810709   0.554   2.087   9.581 -0.1728  0.6153 -0.3742
  724TMC3    O110710   0.487   1.688   9.291  0.2595  0.3902  0.3952
  724TMC3    O210711   0.557   2.166   9.488  0.3721  0.1414  0.7811
  725TMC3    C110712   1.623   0.364  12.662  0.3182 -0.3922  0.6806
  725TMC3    C210713   1.564   0.389  12.539  0.0131 -0.4617  0.2572
  725TMC3    C310714   1.541   0.274  12.461  0.7576  0.2322  0.1345
  725TMC3    C410715   1.666   0.242  12.706 -0.2791  0.3262 -0.1397
  725TMC3    C510716   1.643   0.136  12.620 -0.0569 -0.2156 -0.8793
  725TMC3    C610717   1.576   0.148  12.494  1.0299  1.1168 -0.0497
  725TMC3     C10718   1.679   0.483  12.715 -0.6684 -0.5169  0.1945
  725TMC3     O10719   1.698   0.572  12.638 -0.3428  0.0834  0.0051
  725TMC3     H10720   1.528   0.487  12.509 -3.2114 -1.5133  0.7602
  725TMC3    H110721   1.732   0.228  12.791  1.4725  0.8711 -1.4041
  725TMC3    H210722   1.534   0.064  12.441  4.9004 -0.6624 -0.3273
  725TMC3    C710723   1.729   0.025  12.640  0.3797 -0.0081  0.6158
  725TMC3    C810724   1.455   0.294  12.353 -0.3420  0.4159 -0.1998
  725TMC3    O110725   1.771   4.701  12.743  0.2649 -0.1782  0.5069
  725TMC3    O210726   1.388   0.199  12.312  0.8005  0.2823  0.0702
  726MPD2     C10727   0.228   1.971  10.567  0.4945 -0.0088 -0.9943
  726MPD2    C110728   0.143   2.034  10.477  0.2420 -0.1429 -0.3492
  726MPD2    C210729   0.003   2.020  10.490  0.1694 -0.2445  0.6760
  726MPD2    C310730   4.674   1.945  10.598  0.0343 -0.1323  0.4125
  726MPD2    C410731   0.035   1.872  10.682  0.8396 -0.1418  0.4071
  726MPD2    C510732   0.173   1.896  10.666  0.1434 -0.4835 -0.0707
  726MPD2     H10733   4.655   2.074  10.430  0.7714 -1.2901 -0.9941
  726MPD2    H110734   4.722   1.815  10.766 -1.0104 -0.8810 -0.8879
  726MPD2    H210735   0.334   1.992  10.561  0.6421 -0.0302  1.3164
  726MPD2    H310736   0.232   1.837  10.735 -1.8135 -0.4774  1.6148
  726MPD2     N10737   4.535   1.927  10.631 -0.0016 -0.5071 -0.2242
  726MPD2    H510738   4.525   1.867  10.713 -0.8593  0.1008  0.1182
  726MPD2    N110739   0.193   2.123  10.372 -0.3736 -0.0579 -0.1226
  726MPD2    H710740   0.118   2.175  10.326  0.1476 -0.6563 -1.6535
  727TMC3    C110741   0.353   2.255  10.262 -0.2384  0.4184  0.2637
  727TMC3    C210742   0.481   2.303  10.289  0.1232 -0.0052  0.1673
  727TMC3    C310743   0.511   2.427  10.248 -0.6965 -0.6890  0.0400
  727TMC3    C410744   0.251   2.329  10.209 -0.3173  1.4187 -0.5353
  727TMC3    C510745   0.289   2.453  10.170 -0.0974  0.3686 -0.2615
  727TMC3    C610746   0.415   2.505  10.189  0.5085  0.1181 -0.2933
  727TMC3     C10747   0.322   2.136  10.338  0.3014  0.3256 -0.3219
  727TMC3     O10748   0.415   2.059  10.374 -0.4682 -0.2008  0.0141
  727TMC3     H10749   0.550   2.238  10.341  0.6115  1.7806  1.7384
  727TMC3    H110750   0.157   2.289  10.172 -0.0373  1.7945 -1.6596
  727TMC3    H210751   0.447   2.595  10.137 -1.6380 -0.2497 -2.2722
  727TMC3    C710752   0.221   2.514  10.050 -0.5152 -0.2503  0.7083
  727TMC3    C810753   0.602   2.493  10.341 -0.3571 -0.5000 -0.7947
  727TMC3    O110754   0.150   2.449   9.979 -0.0496  0.3944 -0.0771
  727TMC3    O210755   0.691   2.414  10.378  0.3888 -0.0163 -0.4916
  728TMC3    C110756   3.927   0.126  15.056 -0.0094 -0.7038 -0.4865
  728TMC3    C210757   3.975   0.041  15.163  0.0699  0.1521 -0.3893
  728TMC3    C310758   4.108   0.000  15.170 -0.1767  0.2761 -0.5249
  728TMC3    C410759   4.008   0.161  14.952 -0.0544 -1.1263 -0.2092
  728TMC3    C510760   4.140   0.128  14.965 -0.8479 -0.1112 -0.1220
  728TMC3    C610761   4.190   0.052  15.066 -0.8345 -0.6028  0.2587
  728TMC3     C10762   3.783   0.146  15.032  0.4667 -0.3976  0.0411
  728TMC3     O10763   3.746   0.239  14.965 -0.1906 -0.1578 -0.2356
  728TMC3     H10764   3.917   0.013  15.250  2.9895 -1.9153  0.8756
  728TMC3    H110765   3.974   0.223  14.870  1.5666 -0.6664 -0.5327
  728TMC3    H210766   4.294   0.024  15.054 -0.4688  1.0362 -0.3002
  728TMC3    C710767   4.221   0.159  14.851  0.4047 -0.7061  0.2642
  728TMC3    C810768   4.150   4.610  15.249  0.1411 -0.5209  0.3571
  728TMC3    O110769   4.296   0.068  14.814 -0.1135 -0.4697 -0.0353
  728TMC3    O210770   4.068   4.537  15.291 -0.2566  0.1494 -0.5530
  729MPD2     C10771   1.411   1.350  16.092  0.1608 -0.4275 -0.6360
  729MPD2    C110772   1.525   1.312  16.161 -0.3321 -0.3309 -0.7580
  729MPD2    C210773   1.505   1.235  16.276 -0.2356 -0.1086  0.0056
  729MPD2    C310774   1.379   1.180  16.309 -0.3351 -0.2155  0.9521
  729MPD2    C410775   1.277   1.203  16.223  0.1077  0.0433 -0.5392
  729MPD2    C510776   1.291   1.296  16.121  0.0494  0.8598  0.9384
  729MPD2     H10777   1.586   1.214  16.345 -0.3166 -0.3652  0.0218
  729MPD2    H110778   1.177   1.163  16.235  0.5483 -0.6771  0.7162
  729MPD2    H210779   1.417   1.412  16.003 -0.6777  2.0339  1.0157
  729MPD2    H310780   1.204   1.339  16.072  1.0573  1.2521 -0.4829
  729MPD2     N10781   1.358   1.129  16.434  0.7318  0.1475 -0.3024
  729MPD2    H510782   1.263   1.130  16.470  0.8552 -2.4182  0.0952
  729MPD2    N110783   1.654   1.354  16.115 -0.1111  0.3975  0.0877
  729MPD2    H710784   1.662   1.428  16.046  3.1335 -0.4491 -0.4705
  730TMC3    C110785   1.403   1.105  16.670 -0.0761 -0.6074 -0.4048
  730TMC3    C210786   1.501   1.076  16.766  1.0166 -0.3436 -0.2211
  730TMC3    C310787   1.502   1.148  16.884 -0.3126  0.1213  0.8697
  730TMC3    C410788   1.313   1.206  16.698 -0.6405 -0.0413 -0.0089
  730TMC3    C510789   1.319   1.273  16.815 -0.3268  0.6684  0.0810
  730TMC3    C610790   1.414   1.249  16.904  0.3186 -0.3895 -0.2478
  730TMC3     C10791   1.449   1.089  16.531 -0.2829  0.5019  0.3187
  730TMC3     O10792   1.568   1.053  16.511 -0.4697  0.5836  0.0874
  730TMC3     H10793   1.574   0.998  16.750  0.5981 -0.6091 -0.8175
  730TMC3    H110794   1.248   1.250  16.623  3.0849 -0.9829 -3.7902
  730TMC3    H210795   1.429   1.314  16.989  1.6398 -1.3994  0.3011
  730TMC3    C710796   1.273   1.415  16.800 -0.0575  0.0625  0.1725
  730TMC3    C810797   1.583   1.111  16.995  0.7485 -0.6180  0.0606
  730TMC3    O110798   1.261   1.470  16.694 -0.7811  0.6441 -0.4274
  730TMC3    O210799   1.534   1.124  17.105  0.0118 -0.4240  0.0566
  731MPD2     C10800   1.479   0.331  11.625  0.1561  0.1990  0.0703
  731MPD2    C110801   1.393   0.263  11.539 -0.1859  0.1714  0.1103
  731MPD2    C210802   1.306   0.164  11.590  0.3643  0.5240 -0.2730
  731MPD2    C310803   1.292   0.134  11.725 -0.7431  0.0438  0.3627
  731MPD2    C410804   1.384   0.202  11.809 -0.0513 -0.0641  0.2343
  731MPD2    C510805   1.473   0.292  11.756 -0.8219 -0.7377  0.1346
  731MPD2     H10806   1.238   0.114  11.522  1.2530  0.4315 -1.0971
  731MPD2    H110807   1.382   0.193  11.917 -1.6006  0.7174  0.2794
  731MPD2    H210808   1.562   0.394  11.594  0.5525 -0.8006 -0.8609
  731MPD2    H310809   1.542   0.340  11.824  0.3466  0.9670 -2.2692
  731MPD2     N10810   1.196   0.035  11.774  0.1923  0.6676 -0.2200
  731MPD2    H510811   1.149   4.698  11.707  0.7715 -2.1353  1.9196
  731MPD2    N110812   1.405   0.281  11.399  0.2946 -0.0121 -0.1197
  731MPD2    H710813   1.482   0.341  11.369  2.1608 -1.3185  2.0704
  732TMC3    C110814   1.387   0.197  11.174  0.0868  0.3014 -0.3735
  732TMC3    C210815   1.302   0.145  11.075  0.3894  0.0100  0.0734
  732TMC3    C310816   1.358   0.109  10.955 -0.0736 -0.0679 -0.3723
  732TMC3    C410817   1.520   0.203  11.158  0.2675  0.2372  0.0305
  732TMC3    C510818   1.573   0.161  11.039  0.7685  0.1915  0.3891
  732TMC3    C610819   1.495   0.115  10.938 -0.3830  0.3589 -0.1484
  732TMC3     C10820   1.326   0.231  11.298  0.4011 -0.4643  0.2176
  732TMC3     O10821   1.210   0.192  11.303 -0.6251  0.1105 -0.1677
  732TMC3     H10822   1.194   0.154  11.076  0.3242 -0.7712  0.0384
  732TMC3    H110823   1.589   0.228  11.238 -0.4917  3.2537 -0.2562
  732TMC3    H210824   1.540   0.064  10.853 -0.2431 -0.1207  0.2089
  732TMC3    C710825   1.710   0.120  11.031  0.7709 -0.7880  0.7465
  732TMC3    C810826   1.298   4.711  10.909  0.7593  0.5232  1.1573
  732TMC3    O110827   1.766   0.098  10.925 -0.8431  0.2449 -0.0212
  732TMC3    O210828   1.310   4.695  10.788  0.1567 -0.1437  0.2787
  733TMC3    C110829   2.428   2.464  12.980 -1.0807 -0.3752  0.0483
  733TMC3    C210830   2.528   2.404  13.050  0.1549  0.0334  0.8825
  733TMC3    C310831   2.654   2.403  12.995 -0.2538  0.4429 -0.6402
  733TMC3    C410832   2.449   2.518  12.851 -0.1727 -0.2708  0.0125
  733TMC3    C510833   2.577   2.492  12.796  0.5906  0.1116  0.4444
  733TMC3    C610834   2.680   2.443  12.873  0.2956  0.6995  0.6265
  733TMC3     C10835   2.343   2.556  13.049  0.0098 -0.2517  0.5973
  733TMC3     O10836   2.364   2.672  13.039  0.1130 -0.0548  0.1990
  733TMC3     H10837   2.514   2.383  13.155 -0.3329 -0.9910  0.6070
  733TMC3    H110838   2.365   2.562  12.800  0.0293 -0.9417 -0.8926
  733TMC3    H210839   2.777   2.446  12.825 -0.5120 -2.4985 -1.1933
  733TMC3    C710840   2.616   2.565  12.680 -0.0067 -0.8796  0.2270
  733TMC3    C810841   2.758   2.425  13.095  0.1176 -0.5805  0.0305
  733TMC3    O110842   2.535   2.572  12.584 -0.0645 -0.1897 -0.0521
  733TMC3    O210843   2.738   2.394  13.213 -0.4063  0.2047  0.4273
  734MPD2     C10844   4.220   0.807  12.294 -0.2981  0.7073 -0.0388
  734MPD2    C110845   4.191   0.705  12.202  0.7476  0.3398  0.1464
  734MPD2    C210846   4.220   0.718  12.067 -0.1262 -0.0876  0.4437
  734MPD2    C310847   4.293   0.828  12.019 -0.6107 -0.2708  0.2603
  734MPD2    C410848   4.330   0.921  12.111  0.4079 -0.1969  0.0093
  734MPD2    C510849   4.292   0.912  12.247  0.1860  0.9082 -0.4156
  734MPD2     H10850   4.198   0.635  12.002  0.5321  0.5715 -0.6288
  734MPD2    H110851   4.405   0.996  12.087  0.5961  0.2582  2.0508
  734MPD2    H210852   4.173   0.798  12.391 -2.6623  0.8326 -1.1821
  734MPD2    H310853   4.319   0.984  12.324  0.6900 -0.0452  0.2989
  734MPD2     N10854   4.318   0.828  11.883  0.0818  0.5953  0.7482
  734MPD2    H510855   4.289   0.748  11.828  0.4940 -0.0849  1.5254
  734MPD2    N110856   4.123   0.590  12.250  0.0160 -0.4653 -0.4209
  734MPD2    H710857   4.102   0.601  12.348 -2.2659  2.1713 -1.1997
  735TMC3    C110858   3.985   0.395  12.241 -0.0512  0.9161  0.0490
  735TMC3    C210859   3.916   0.344  12.143 -0.1013  0.7220 -0.4897
  735TMC3    C310860   3.929   0.212  12.104 -0.0642  0.0890 -1.4386
  735TMC3    C410861   4.067   0.307  12.306  0.1263 -0.2965  0.1221
  735TMC3    C510862   4.093   0.184  12.262  0.1361  0.4072 -0.1579
  735TMC3    C610863   4.020   0.127  12.162 -0.3333 -0.0060  0.5231
  735TMC3     C10864   4.069   0.489  12.174 -0.2505 -0.1603 -0.8429
  735TMC3     O10865   4.062   0.475  12.052  0.5562 -0.5348  0.0126
  735TMC3     H10866   3.840   0.401  12.090 -1.6386  0.4500  1.4309
  735TMC3    H110867   4.146   0.351  12.366  1.7178 -1.5039 -1.0862
  735TMC3    H210868   4.045   0.034  12.113 -0.4429  1.3402 -2.0771
  735TMC3    C710869   4.233   0.151  12.242 -1.0374  0.3154  0.5129
  735TMC3    C810870   3.913   0.181  11.962  1.1439 -0.3170  0.2929
  735TMC3    O110871   4.312   0.243  12.222  0.2456  0.3142  0.3052
  735TMC3    O210872   3.862   0.078  11.921  0.0259 -0.5209 -0.5766
  736MPD2     C10873   4.381   4.538  12.224  0.9338  0.2433  0.1161
  736MPD2    C110874   4.375   4.673  12.193  0.5216 -0.4766  0.0150
  736MPD2    C210875   4.472   0.009  12.110 -0.6700 -0.2038  1.0047
  736MPD2    C310876   4.568   4.653  12.046  0.1575  0.1250 -0.7688
  736MPD2    C410877   4.581   4.523  12.092  0.2264 -0.0795 -0.3347
  736MPD2    C510878   4.492   4.475  12.183 -0.1834 -0.2960 -0.4062
  736MPD2     H10879   4.455   0.115  12.091 -0.8488 -0.4904 -0.4153
  736MPD2    H110880   4.649   4.449  12.050  0.1281 -0.7860  0.7484
  736MPD2    H210881   4.307   4.488  12.285  1.4641 -0.4744  0.1742
  736MPD2    H310882   4.502   4.368  12.197 -1.4925 -0.7160 -2.6292
  736MPD2     N10883   4.660   4.707  11.953  0.1265  0.1979  0.2729
  736MPD2    H510884   0.001   4.633  11.928 -0.9488 -0.1332 -1.5052
  736MPD2    N110885   4.261   0.018  12.250 -0.3656  0.4554  0.3558
  736MPD2    H710886   4.186   4.683  12.289 -1.7260  2.9987  1.5507
  737TMC3    C110887   0.039   0.115  11.791  0.4233 -0.3104  0.5096
  737TMC3    C210888   0.091   0.235  11.766 -0.1078  0.1234  0.7526
  737TMC3    C310889   0.179   0.253  11.666 -0.1497  0.4560  0.9630
  737TMC3    C410890   0.067   0.008  11.710 -0.6858 -1.1390  0.7912
  737TMC3    C510891   0.164   0.023  11.610  0.4256 -0.4244 -0.1843
  737TMC3    C610892   0.215   0.145  11.586 -0.3367  0.0634 -0.4854
  737TMC3     C10893   4.663   0.106  11.900  0.6251 -0.3185  0.1496
  737TMC3     O10894   4.573   0.188  11.901  0.0090  0.1141  0.2968
  737TMC3     H10895   0.076   0.319  11.833 -0.7957 -1.5305  2.6833
  737TMC3    H110896   0.014   4.638  11.724 -0.5108 -1.4574 -0.7553
  737TMC3    H210897   0.287   0.167  11.508 -1.4549  1.8362 -1.0122
  737TMC3    C710898   0.214   4.628  11.537  0.2899 -0.2498 -0.2678
  737TMC3    C810899   0.201   0.386  11.609 -0.4259  0.6098  0.2628
  737TMC3    O110900   0.164   4.516  11.556 -0.2048 -0.3938  0.1745
  737TMC3    O210901   0.226   0.482  11.679 -0.5750  0.0285 -0.1860
  738MPD2     C10902   0.612   3.679  15.189  0.6842  0.0707 -0.2400
  738MPD2    C110903   0.620   3.596  15.084  0.4335  0.2115  0.1012
  738MPD2    C210904   0.680   3.642  14.971 -0.3226  0.1529  0.2023
  738MPD2    C310905   0.751   3.764  14.976  0.3583 -0.4415  0.2602
  738MPD2    C410906   0.755   3.842  15.095 -0.6838  0.0074 -0.4843
  738MPD2    C510907   0.677   3.806  15.201 -0.2523 -0.1480 -0.1727
  738MPD2     H10908   0.680   3.590  14.876 -0.2046  2.1114 -0.8724
  738MPD2    H110909   0.819   3.928  15.111 -0.6587  0.2324 -1.8413
  738MPD2    H210910   0.559   3.647  15.278 -0.8344  0.7330 -0.9184
  738MPD2    H310911   0.677   3.864  15.293  0.2787  0.1810 -0.3814
  738MPD2     N10912   0.840   3.808  14.871  0.0869 -0.0881 -0.3170
  738MPD2    H510913   0.887   3.898  14.872  1.2454 -0.6965  0.5734
  738MPD2    N110914   0.555   3.469  15.085 -0.2509  0.1082  0.0411
  738MPD2    H710915   0.558   3.410  15.003  0.2214 -0.2608  0.3241
  739TMC3    C110916   0.986   3.785  14.704  0.5977  0.1705  0.1221
  739TMC3    C210917   0.986   3.784  14.565 -0.5439  0.1777 -0.7551
  739TMC3    C310918   1.080   3.862  14.505  0.0710 -0.0105  0.0264
  739TMC3    C410919   1.089   3.832  14.780 -0.6507  0.0818  1.4347
  739TMC3    C510920   1.189   3.897  14.711  0.4369 -1.0919  0.3993
  739TMC3    C610921   1.181   3.918  14.578  0.7316  0.4794 -0.3290
  739TMC3     C10922   0.874   3.734  14.765  0.7964 -0.2181  0.1198
  739TMC3     O10923   0.796   3.663  14.701 -0.3492 -0.3707 -1.0673
  739TMC3     H10924   0.897   3.763  14.506 -0.3069  1.0083 -1.4177
  739TMC3    H110925   1.095   3.820  14.888 -0.4205  0.4606  1.4629
  739TMC3    H210926   1.262   3.976  14.534  0.1731  1.3929 -0.1483
  739TMC3    C710927   1.316   3.920  14.780  0.3493 -0.2031 -0.0302
  739TMC3    C810928   1.090   3.870  14.359  0.0789 -0.1516 -0.5256
  739TMC3    O110929   1.383   4.014  14.745  0.0378  0.0043 -0.3561
  739TMC3    O210930   0.988   3.826  14.306  1.1718  0.0462 -0.4687
  740TMC3    C110931   0.875   0.434  13.982  0.5222  0.2770 -0.1190
  740TMC3    C210932   0.940   0.447  14.094 -0.0255 -0.0499 -0.0919
  740TMC3    C310933   1.068   0.410  14.097 -0.4913  0.3087  0.0434
  740TMC3    C410934   0.934   0.375  13.875 -0.0359 -0.0360  0.2716
  740TMC3    C510935   1.054   0.313  13.890  0.1977  0.2254  0.1210
  740TMC3    C610936   1.128   0.330  14.003 -0.3427  0.1935 -0.2001
  740TMC3     C10937   0.735   0.440  14.000 -0.0800 -0.1345 -0.7280
  740TMC3     O10938   0.670   0.476  13.906 -0.2065  0.4289 -0.0844
  740TMC3     H10939   0.887   0.490  14.178  1.3888  1.4004  0.0568
  740TMC3    H110940   0.890   0.371  13.776 -0.1144  1.5192  0.2432
  740TMC3    H210941   1.227   0.287  14.011 -0.6862 -0.7227 -0.8201
  740TMC3    C710942   1.142   0.276  13.777  0.1718 -1.1304  0.0623
  740TMC3    C810943   1.108   0.367  14.235  0.2423 -0.0824  0.0264
  740TMC3    O110944   1.172   0.159  13.767  0.7777  0.4505  0.0855
  740TMC3    O210945   1.019   0.339  14.318 -0.1322  0.0286  1.1640
  741TMC3    C110946   1.018   4.243  14.376  0.2770  0.5881 -0.3409
  741TMC3    C210947   0.909   4.189  14.320 -0.5570 -0.4768  0.5823
  741TMC3    C310948   0.817   4.135  14.406  0.0003  1.0685  0.1187
  741TMC3    C410949   1.036   4.253  14.509 -0.1741 -0.8290 -0.9605
  741TMC3    C510950   0.942   4.196  14.589 -0.4519 -0.4000  0.2940
  741TMC3    C610951   0.834   4.133  14.541  0.0061  0.3642 -0.0016
  741TMC3     C10952   1.111   4.313  14.298 -0.6014  0.4566  0.3409
  741TMC3     O10953   1.213   4.351  14.351  0.8748  0.4782 -0.5556
  741TMC3     H10954   0.903   4.170  14.213  0.2231 -1.1308  0.6560
  741TMC3    H110955   1.126   4.296  14.553 -0.8639 -1.1472  0.7528
  741TMC3    H210956   0.761   4.078  14.599 -1.9876  3.3287  0.3480
  741TMC3    C710957   0.973   4.167  14.728 -0.1654  0.1144  0.0708
  741TMC3    C810958   0.686   4.109  14.335  0.1947  0.5344 -0.0756
  741TMC3    O110959   0.907   4.073  14.773 -0.3374 -0.1732  0.1155
  741TMC3    O210960   0.686   4.129  14.215 -0.4324 -0.3381 -0.2691
  742TMC3    C110961   1.189   2.860  14.885  0.2173  0.4439 -0.0050
  742TMC3    C210962   1.076   2.829  14.810  1.0739  0.7773  0.3935
  742TMC3    C310963   1.047   2.698  14.789 -0.6154  0.2953  0.5271
  742TMC3    C410964   1.280   2.765  14.926 -0.6674 -0.3591 -0.1651
  742TMC3    C510965   1.243   2.631  14.908  0.1615 -0.0142  0.0914
  742TMC3    C610966   1.133   2.599  14.835 -0.6793 -0.0403 -0.3451
  742TMC3     C10967   1.232   3.002  14.878 -0.9064  0.1265 -0.6260
  742TMC3     O10968   1.156   3.066  14.808 -0.0180 -0.5839 -0.1382
  742TMC3     H10969   0.998   2.901  14.790  2.6927  2.5202  0.4153
  742TMC3    H110970   1.373   2.795  14.972  0.4201 -0.2910 -2.4324
  742TMC3    H210971   1.117   2.496  14.805 -0.0835 -0.3694  0.4659
  742TMC3    C710972   1.332   2.519  14.940 -0.2625 -0.0049 -0.5858
  742TMC3    C810973   0.957   2.666  14.678 -0.0259  0.5508 -0.6147
  742TMC3    O110974   1.346   2.436  14.848 -0.0951 -0.2116  0.5214
  742TMC3    O210975   0.925   2.552  14.659 -0.6320 -0.2088  0.2226
  743MPD2     C10976   4.148   3.841   2.016  0.0262 -0.5019 -0.3495
  743MPD2    C110977   4.161   3.730   1.929 -0.5605  0.1505  0.3555
  743MPD2    C210978   4.280   3.664   1.901 -0.4929  0.3854  0.2845
  743MPD2    C310979   4.391   3.693   1.980 -0.3123  0.0511 -0.7811
  743MPD2    C410980   4.377   3.799   2.073 -0.6188  0.1523  0.2790
  743MPD2    C510981   4.265   3.880   2.085  0.1839  0.5262 -0.3345
  743MPD2     H10982   4.288   3.574   1.841 -0.3939  0.8117 -0.3308
  743MPD2    H110983   4.453   3.820   2.147 -0.1665  1.4162 -0.5443
  743MPD2    H210984   4.060   3.904   2.015  3.1250  3.7596  1.3897
  743MPD2    H310985   4.275   3.958   2.160  1.6049  1.6227 -1.6885
  743MPD2     N10986   4.493   3.610   1.967 -0.4999  0.4767  0.2857
  743MPD2    H510987   4.475   3.542   1.894 -1.1499  1.3501 -0.3695
  743MPD2    N110988   4.035   3.701   1.862 -0.3006 -0.4744  1.0140
  743MPD2    H710989   3.957   3.766   1.862  0.6160  0.6927 -2.6875
  744TMC3    C110990   3.897   3.569   1.721 -0.0391 -0.1845  0.0995
  744TMC3    C210991   3.805   3.665   1.725 -0.4792 -0.1958 -0.2456
  744TMC3    C310992   3.693   3.659   1.641  0.0757  0.0919  0.1511
  744TMC3    C410993   3.881   3.454   1.644 -0.7996 -0.1395 -0.5010
  744TMC3    C510994   3.779   3.452   1.548 -0.4552 -0.1187  0.1360
  744TMC3    C610995   3.682   3.552   1.549 -0.3798 -0.2064 -0.5191
  744TMC3     C10996   4.015   3.576   1.803  0.8333  0.1033 -0.1129
  744TMC3     O10997   4.091   3.481   1.810  0.0622  0.0236 -0.1833
  744TMC3     H10998   3.831   3.765   1.759 -0.0985 -0.5057  0.3832
  744TMC3    H110999   3.949   3.369   1.644 -2.5581 -1.5360 -0.9100
  744TMC3    H211000   3.603   3.546   1.475  1.6413 -0.4275 -2.6643
  744TMC3    C711001   3.803   3.392   1.419  0.4440 -0.3157 -0.6572
  744TMC3    C811002   3.604   3.770   1.631 -0.2678  0.2841 -0.3670
  744TMC3    O111003   3.747   3.440   1.325  0.1819 -0.2296 -0.2972
  744TMC3    O211004   3.552   3.788   1.521  0.0512 -0.0416  0.6038
  745TMC3    C111005   1.167   2.578  13.325 -0.5786 -0.1983  0.3859
  745TMC3    C211006   1.062   2.578  13.416  0.0601  0.5977 -0.5388
  745TMC3    C311007   0.939   2.616  13.373  0.1929 -0.3511  0.8341
  745TMC3    C411008   1.137   2.584  13.191 -0.4990 -0.4250  0.2837
  745TMC3    C511009   1.012   2.606  13.150 -0.0820  0.5220  0.3608
  745TMC3    C611010   0.911   2.631  13.241  0.3397  0.2796 -0.7657
  745TMC3     C11011   1.254   2.681  13.355  0.2681 -0.4461  0.1774
  745TMC3     O11012   1.220   2.785  13.302 -0.5190 -0.0457 -0.2966
  745TMC3     H11013   1.087   2.584  13.521  3.6887  1.3838 -1.4486
  745TMC3    H111014   1.216   2.553  13.124 -0.3507  0.9700 -0.1961
  745TMC3    H211015   0.812   2.658  13.207 -0.1409 -1.3047 -0.6290
  745TMC3    C711016   1.006   2.693  13.032 -0.4765 -0.2843 -0.0039
  745TMC3    C811017   0.870   2.708  13.460 -0.0334 -0.0119  0.6242
  745TMC3    O111018   0.908   2.688  12.956  0.0949  1.0196  0.0661
  745TMC3    O211019   0.754   2.732  13.440 -0.5482 -0.2016  0.4722
  746TMC3    C111020   3.896   4.527  10.589  0.1175 -0.9494 -0.4544
  746TMC3    C211021   4.028   4.513  10.557  0.2207  0.1186 -0.2114
  746TMC3    C311022   4.065   4.409  10.478  0.2009 -0.3810  0.1285
  746TMC3    C411023   3.801   4.452  10.524 -0.1503 -0.1253 -0.0541
  746TMC3    C511024   3.846   4.356  10.437  0.0535 -0.3845  0.0016
  746TMC3    C611025   3.978   4.313  10.434 -0.0274 -0.1145  0.4499
  746TMC3     C11026   3.864   4.655  10.642  0.7181  0.1236  0.7658
  746TMC3     O11027   3.900   4.695  10.753  0.0122  0.3586  1.2065
  746TMC3     H11028   4.101   4.586  10.590 -0.6994  0.7766  0.3771
  746TMC3    H111029   3.693   4.460  10.536 -0.1329 -0.2465  0.1780
  746TMC3    H211030   4.008   4.240  10.360 -3.9996  0.2660 -1.4862
  746TMC3    C711031   3.743   4.274  10.366  0.7392 -0.3982  0.7095
  746TMC3    C811032   4.158   4.446  10.369  0.4943 -0.4364  1.0153
  746TMC3    O111033   3.634   4.328  10.346  0.1463 -0.1199 -0.1976
  746TMC3    O211034   4.225   4.354  10.321 -0.1681 -0.0134  0.3225
  747TMC3    C111035   0.779   0.085  10.644  0.1788 -0.0483  0.8032
  747TMC3    C211036   0.695   0.000  10.704 -0.8299  0.2749 -0.0359
  747TMC3    C311037   0.702   4.710  10.839  0.4207  0.5860  0.1287
  747TMC3    C411038   0.863   0.173  10.707  1.1317  0.3254  0.2619
  747TMC3    C511039   0.873   0.149  10.839 -0.2049  0.2527  0.7809
  747TMC3    C611040   0.790   0.065  10.907  0.0812 -0.3875  0.2067
  747TMC3     C11041   0.760   0.124  10.505 -1.3411  0.3855  0.4237
  747TMC3     O11042   0.789   0.245  10.481  0.0754 -0.0024 -0.3841
  747TMC3     H11043   0.642   4.653  10.642  1.3634 -1.6036  0.2268
  747TMC3    H111044   0.922   0.245  10.650 -1.2976  1.8273 -0.3560
  747TMC3    H211045   0.821   0.043  11.008 -3.4048  1.1979  1.6071
  747TMC3    C711046   0.977   0.219  10.912 -0.2492 -0.2732 -0.2609
  747TMC3    C811047   0.611   4.618  10.917  0.0023 -0.3379  0.1581
  747TMC3    O111048   0.961   0.242  11.030  0.3917  0.1269  0.1616
  747TMC3    O211049   0.567   4.527  10.851  0.0069 -0.0452 -0.5619
  748MPD2     C11050   2.892   4.307   2.235 -0.3209 -0.1790 -0.0025
  748MPD2    C111051   2.940   4.263   2.113  0.9420 -0.3643  0.2281
  748MPD2    C211052   3.042   4.329   2.052 -0.2473 -0.5646 -0.4324
  748MPD2    C311053   3.106   4.441   2.107 -0.5518 -0.4169  0.0897
  748MPD2    C411054   3.046   4.490   2.223  0.2105 -0.0717 -0.1345
  748MPD2    C511055   2.947   4.421   2.286 -0.6855 -0.3299 -0.1529
  748MPD2     H11056   3.072   4.302   1.951  1.4101 -0.3357  0.0049
  748MPD2    H111057   3.083   4.571   2.285  0.5866 -1.5988  1.6560
  748MPD2    H211058   2.803   4.273   2.286 -0.0611  0.4783  0.8912
  748MPD2    H311059   2.919   4.465   2.382  1.1854  0.2072  0.1354
  748MPD2     N11060   3.210   4.506   2.043  0.4949 -0.2446 -0.1421
  748MPD2    H511061   3.244   4.465   1.957 -1.8599 -1.3073 -0.5663
  748MPD2    N111062   2.872   4.155   2.054  0.0969 -0.6257  0.3141
  748MPD2    H711063   2.806   4.107   2.114 -1.1674  0.5000 -0.1982
  749TMC3    C111064   3.407   4.622   2.026 -0.5373 -0.1256  0.1357
  749TMC3    C211065   3.522   4.579   2.087 -0.1783  0.5535 -0.2481
  749TMC3    C311066   3.624   4.540   1.999  0.6473  0.1933  0.0556
  749TMC3    C411067   3.392   4.632   1.889  0.3447  0.1749  0.0223
  749TMC3    C511068   3.489   4.582   1.811 -0.2296  0.0969 -0.2291
  749TMC3    C611069   3.609   4.535   1.862 -0.3238 -0.3529  0.4442
  749TMC3     C11070   3.287   4.605   2.097 -0.5397  0.0364  0.0712
  749TMC3     O11071   3.286   4.654   2.208  0.2444 -0.6421 -0.2952
  749TMC3     H11072   3.538   4.558   2.192  0.0815 -0.0799 -0.4110
  749TMC3    H111073   3.299   4.673   1.851  0.6098  0.0286 -0.7749
  749TMC3    H211074   3.683   4.496   1.794 -0.9070 -0.7665  0.0392
  749TMC3    C711075   3.454   4.560   1.676 -0.1116  0.3218 -0.6991
  749TMC3    C811076   3.751   4.510   2.066  0.2292  0.0355 -0.6289
  749TMC3    O111077   3.370   4.638   1.627 -1.0806 -0.2370 -0.2848
  749TMC3    O211078   3.754   4.542   2.185 -0.4557 -0.0876 -0.3941
  750MPD2     C11079   3.672   1.684  11.190 -0.8207 -0.4392  0.2585
  750MPD2    C111080   3.542   1.666  11.141  0.0402 -0.4052  0.3649
  750MPD2    C211081   3.499   1.546  11.091  0.6968 -0.0660  0.0434
  750MPD2    C311082   3.593   1.445  11.079 -0.5871 -0.3039 -0.4687
  750MPD2    C411083   3.728   1.465  11.117 -0.0959  0.9763  0.5705
  750MPD2    C511084   3.762   1.585  11.177  0.3829  0.3885  0.3651
  750MPD2     H11085   3.407   1.536  11.035  0.5323  0.3869  0.2300
  750MPD2    H111086   3.798   1.383  11.108 -0.0458  0.9909  0.8146
  750MPD2    H211087   3.706   1.779  11.229 -1.5906  0.1890 -0.5934
  750MPD2    H311088   3.867   1.606  11.196  0.5735  0.8850 -1.2957
  750MPD2     N11089   3.559   1.319  11.021 -0.5363 -0.7786 -0.5450
  750MPD2    H511090   3.637   1.256  11.008 -0.3736 -0.8699  0.9048
  750MPD2    N111091   3.462   1.780  11.152 -0.7346 -0.3853  0.3531
  750MPD2    H711092   3.489   1.860  11.208  0.3105 -0.3886 -0.1524
  751TMC3    C111093   3.433   1.144  10.927 -0.4557 -0.7673 -0.1938
  751TMC3    C211094   3.326   1.056  10.947  1.0872  0.7256 -0.3705
  751TMC3    C311095   3.334   0.942  10.872  0.3901  0.1254  0.3446
  751TMC3    C411096   3.537   1.109  10.841 -0.6132 -0.7401  0.2518
  751TMC3    C511097   3.543   0.983  10.775  0.2849 -0.4069 -0.5233
  751TMC3    C611098   3.441   0.900  10.792 -0.2224 -0.7646 -0.7092
  751TMC3     C11099   3.433   1.276  10.992  0.8486  0.4119  0.4757
  751TMC3     O11100   3.331   1.320  11.046 -0.5760 -0.8402 -0.0059
  751TMC3     H11101   3.247   1.079  11.017 -0.6023  0.2347 -2.1247
  751TMC3    H111102   3.623   1.167  10.809 -1.6995  0.9605  0.3922
  751TMC3    H211103   3.444   0.795  10.766 -2.6048 -1.3413  1.3332
  751TMC3    C711104   3.673   0.936  10.728  0.8313  0.0180 -0.0401
  751TMC3    C811105   3.216   0.857  10.853  0.7433 -0.7144 -0.2330
  751TMC3    O111106   3.759   1.021  10.722 -0.0699  0.0132  0.3009
  751TMC3    O211107   3.221   0.790  10.752  0.2502 -0.0626  0.3537
  752TMC3    C111108   2.389   0.591  16.395 -0.3270  0.3535 -0.1129
  752TMC3    C211109   2.325   0.478  16.348 -1.0676 -0.1369 -1.4319
  752TMC3    C311110   2.223   0.425  16.415 -0.0990  0.3061  0.6639
  752TMC3    C411111   2.352   0.652  16.522 -0.6951  0.5975 -0.1037
  752TMC3    C511112   2.257   0.582  16.593  0.2265  0.3909  0.3200
  752TMC3    C611113   2.193   0.473  16.542 -0.3208  0.1081  0.4013
  752TMC3     C11114   2.463   0.675  16.307  0.0604  0.1726 -0.5072
  752TMC3     O11115   2.554   0.635  16.234 -0.0074 -0.3311 -0.1471
  752TMC3     H11116   2.359   0.430  16.257 -4.1831 -1.1332 -2.1077
  752TMC3    H111117   2.390   0.745  16.564 -0.3076 -0.3823  1.6749
  752TMC3    H211118   2.115   0.431  16.604  0.1251 -1.9404 -0.4442
  752TMC3    C711119   2.234   0.620  16.726  0.0775 -0.1629 -0.2545
  752TMC3    C811120   2.147   0.316  16.362 -0.6848 -0.1500  1.0616
  752TMC3    O111121   2.122   0.601  16.762 -0.6645  0.3183  0.2616
  752TMC3    O211122   2.091   0.243  16.443  0.0046 -0.4290 -0.1667
  753TMC3    C111123   4.134   2.614  13.209 -0.1090 -0.4250  0.0781
  753TMC3    C211124   4.205   2.572  13.318 -0.0720 -0.3345 -0.0215
  753TMC3    C311125   4.185   2.437  13.353 -0.3650  0.5564  0.1752
  753TMC3    C411126   4.050   2.533  13.133 -0.2770  0.2396 -0.5359
  753TMC3    C511127   4.047   2.400  13.165 -0.3035 -0.0316  0.0064
  753TMC3    C611128   4.117   2.346  13.272  0.3139  0.2285 -0.9267
  753TMC3     C11129   4.141   2.751  13.169 -0.6995  0.1100 -0.2116
  753TMC3     O11130   4.114   2.781  13.053  0.2275  0.1384 -0.4652
  753TMC3     H11131   4.267   2.638  13.376 -0.9010  1.5390 -1.2729
  753TMC3    H111132   3.989   2.572  13.053 -0.0397  0.9056 -0.3932
  753TMC3    H211133   4.123   2.238  13.286 -1.2027  0.1083 -1.2264
  753TMC3    C711134   3.968   2.317  13.076  0.3493  0.1621  0.5814
  753TMC3    C811135   4.263   2.376  13.465  0.1048 -0.3093  0.5745
  753TMC3    O111136   3.969   2.359  12.963  0.2071 -0.0377 -0.1246
  753TMC3    O211137   4.276   2.252  13.467 -0.3541 -0.0310  0.6811
  754MPD2     C11138   2.355   1.058  12.280 -0.0518 -0.2873 -0.4379
  754MPD2    C111139   2.301   0.970  12.373 -0.1665  1.2362 -0.2690
  754MPD2    C211140   2.183   1.002  12.433  0.4985 -0.1872  0.2270
  754MPD2    C311141   2.134   1.134  12.406 -0.0208  0.0786  0.2995
  754MPD2    C411142   2.200   1.226  12.326 -0.3149  0.1370  0.2162
  754MPD2    C511143   2.303   1.179  12.252 -0.7445  0.3000  0.6789
  754MPD2     H11144   2.141   0.932  12.504 -0.9622  0.4156 -0.0530
  754MPD2    H111145   2.180   1.331  12.307  2.2264  0.3665 -1.1145
  754MPD2    H211146   2.450   1.040  12.230  1.3442 -0.4420  2.2525
  754MPD2    H311147   2.351   1.237  12.174 -0.3764 -0.0543  0.6453
  754MPD2     N11148   2.036   1.181  12.495 -0.5578  0.7485 -0.3488
  754MPD2    H511149   1.997   1.114  12.560  0.4058  0.8438  0.3296
  754MPD2    N111150   2.370   0.857  12.403 -0.2927 -0.6226  0.3211
  754MPD2    H711151   2.468   0.853  12.377 -0.2063 -0.0550  0.5722
  755MPD2     C11152   2.466   1.313  13.339 -0.3759 -0.0919 -0.0600
  755MPD2    C111153   2.376   1.414  13.325  0.2648  0.0699 -0.7030
  755MPD2    C211154   2.298   1.414  13.210  0.6963 -0.1241 -0.3159
  755MPD2    C311155   2.288   1.299  13.134  0.8890 -0.5478  0.2973
  755MPD2    C411156   2.381   1.196  13.156  0.5682 -0.0089  0.5215
  755MPD2    C511157   2.474   1.214  13.247  0.9463  0.3348 -0.1250
  755MPD2     H11158   2.235   1.501  13.194 -0.3668 -0.6885  0.8978
  755MPD2    H111159   2.382   1.107  13.094 -0.9795 -0.3403  0.9577
  755MPD2    H211160   2.531   1.313  13.426 -2.0124  1.2469  1.1672
  755MPD2    H311161   2.553   1.140  13.259 -1.7896 -2.6534 -0.7082
  755MPD2     N11162   2.191   1.275  13.034 -0.7308  0.0245 -1.4368
  755MPD2    H511163   2.185   1.182  12.995 -0.2673 -0.5053 -0.2539
  755MPD2    N111164   2.347   1.514  13.422 -0.0744 -0.1813 -0.1049
  755MPD2    H711165   2.267   1.570  13.396 -0.0863  0.2114  0.8004
  756MPD2     C11166   4.195   2.730   9.649 -0.0861 -0.3477 -0.1147
  756MPD2    C111167   4.152   2.605   9.694 -0.2066 -1.0960  0.3260
  756MPD2    C211168   4.129   2.515   9.593  0.5064  0.2928  0.4465
  756MPD2    C311169   4.133   2.549   9.454  0.3855 -0.5040 -0.5508
  756MPD2    C411170   4.173   2.674   9.416  0.0842  0.2029  0.1273
  756MPD2    C511171   4.203   2.765   9.518 -0.2001  0.1048 -0.2388
  756MPD2     H11172   4.093   2.419   9.628  0.7691  0.5283  1.3927
  756MPD2    H111173   4.182   2.713   9.315  2.9087 -2.7177 -0.7384
  756MPD2    H211174   4.215   2.811   9.718 -0.4442 -0.9991  0.7551
  756MPD2    H311175   4.241   2.864   9.495 -1.9103  1.1435  1.4028
  756MPD2     N11176   4.102   2.438   9.364 -0.0622 -0.1460  0.5404
  756MPD2    H511177   4.082   2.348   9.406 -2.9763 -0.5732 -1.7363
  756MPD2    N111178   4.124   2.572   9.831 -0.5900  0.0747 -0.7005
  756MPD2    H711179   4.096   2.477   9.855 -0.7679 -0.5035 -3.1854
  757MPD2     C11180   3.996   1.463   9.170 -0.0591  0.9303  0.4936
  757MPD2    C111181   3.865   1.510   9.165 -0.6525  0.2073  0.1423
  757MPD2    C211182   3.841   1.645   9.175 -0.0081  0.1785  0.4791
  757MPD2    C311183   3.945   1.734   9.168  0.2184 -0.0231  0.2474
  757MPD2    C411184   4.073   1.687   9.158 -0.3909 -0.1781  0.3486
  757MPD2    C511185   4.100   1.550   9.158 -0.1628  0.3984  0.5641
  757MPD2     H11186   3.738   1.678   9.183  0.5352  2.4244 -1.8079
  757MPD2    H111187   4.157   1.756   9.155 -0.4593 -0.1954 -1.6587
  757MPD2    H211188   4.020   1.358   9.161 -1.9390  0.4243  1.3323
  757MPD2    H311189   4.201   1.521   9.133 -0.2520 -0.0786  0.7581
  757MPD2     N11190   3.900   1.870   9.173 -0.3294  0.3673  0.0200
  757MPD2    H511191   3.800   1.890   9.173 -0.4696 -0.3306  1.8826
  757MPD2    N111192   3.767   1.407   9.171  0.5764  0.1062 -0.5095
  757MPD2    H711193   3.805   1.313   9.166  2.9118  1.0500 -0.6120
  758MPD2     C11194   3.239   0.326  15.705  0.5258  0.6247 -0.3312
  758MPD2    C111195   3.214   0.280  15.825  0.4894  0.6109  0.4360
  758MPD2    C211196   3.145   0.362  15.912  0.3261  0.4064  0.1444
  758MPD2    C311197   3.110   0.493  15.881  0.5848  0.7010  0.2798
  758MPD2    C411198   3.133   0.536  15.750  0.5781 -0.0234  0.2470
  758MPD2    C511199   3.193   0.450  15.662 -0.1424  0.3617  0.1749
  758MPD2     H11200   3.121   0.321  16.010 -1.4903  0.7784 -0.1460
  758MPD2    H111201   3.109   0.640  15.730 -0.4328  0.1647  2.4205
  758MPD2    H211202   3.303   0.273  15.635 -1.0052 -0.4223 -0.9381
  758MPD2    H311203   3.220   0.488  15.564 -0.9777 -0.6976 -0.4615
  758MPD2     N11204   3.056   0.574  15.988  0.0173  0.3751 -0.4741
  758MPD2    H511205   3.062   0.542  16.084 -0.9360  2.5576  0.3221
  758MPD2    N111206   3.271   0.151  15.859 -0.0401  0.0500 -0.3606
  758MPD2    H711207   3.329   0.116  15.784  1.2637  1.8567 -0.1846
  759MPD2     C11208   1.935   3.281   9.785 -0.0175 -0.0646 -1.1194
  759MPD2    C111209   2.045   3.363   9.797  0.4341 -0.1966  0.1467
  759MPD2    C211210   2.115   3.397   9.687 -0.3335 -0.0168 -0.1197
  759MPD2    C311211   2.072   3.370   9.561 -0.3410 -0.6046 -0.0906
  759MPD2    C411212   1.954   3.294   9.549  0.1934  0.1315  0.2647
  759MPD2    C511213   1.897   3.238   9.661 -0.6605 -0.2280 -0.5389
  759MPD2     H11214   2.210   3.447   9.700 -0.2875 -0.3053  0.6402
  759MPD2    H111215   1.910   3.265   9.455 -0.6790 -0.8724  0.9755
  759MPD2    H211216   1.872   3.256   9.869 -1.2007  1.4854 -1.5558
  759MPD2    H311217   1.808   3.177   9.653 -1.1676  0.4729 -0.2980
  759MPD2     N11218   2.150   3.395   9.445 -0.5275  0.0789  0.2205
  759MPD2    H511219   2.233   3.451   9.461 -0.6286  0.3068 -0.0458
  759MPD2    N111220   2.079   3.409   9.928  0.3346 -0.4632  0.4862
  759MPD2    H711221   2.011   3.377   9.996  1.1980 -0.9791  1.1050
  760MPD2     C11222   1.777   1.530  11.923 -0.2720  0.3432  0.4967
  760MPD2    C111223   1.864   1.478  11.828 -0.1674 -0.2435 -0.5995
  760MPD2    C211224   1.847   1.346  11.793 -0.3779  0.1355 -0.3270
  760MPD2    C311225   1.772   1.261  11.868  0.7404  0.0716 -0.0752
  760MPD2    C411226   1.679   1.314  11.949 -0.0645 -0.0341  0.3544
  760MPD2    C511227   1.684   1.451  11.972 -0.4268  0.1978  0.0226
  760MPD2     H11228   1.907   1.310  11.710  1.5727 -1.1120  1.6169
  760MPD2    H111229   1.600   1.259  11.999 -1.2518 -0.1619 -1.6356
  760MPD2    H211230   1.776   1.634  11.955 -0.3498  0.5989 -0.3278
  760MPD2    H311231   1.610   1.494  12.037  0.1810  1.2914 -0.0057
  760MPD2     N11232   1.768   1.123  11.848 -0.3249 -0.0711  0.5480
  760MPD2    H511233   1.696   1.065  11.889 -1.2777 -0.3893 -1.5574
  760MPD2    N111234   1.965   1.555  11.769  0.0425  0.2650  0.2416
  760MPD2    H711235   2.019   1.510  11.695  1.5899  2.7177 -0.1191
  761MPD2     C11236   2.875   0.512  11.018 -0.0830 -0.0173  0.3308
  761MPD2    C111237   2.936   0.527  10.890 -0.0039 -0.0435 -1.1111
  761MPD2    C211238   3.018   0.640  10.869 -0.1415  0.4810 -0.0993
  761MPD2    C311239   3.038   0.730  10.970  0.4314 -0.0872  0.0519
  761MPD2    C411240   2.968   0.717  11.087 -0.7100  0.3825 -0.9376
  761MPD2    C511241   2.888   0.609  11.113 -0.3510 -0.1123  0.0384
  761MPD2     H11242   3.069   0.642  10.774 -1.7082  2.1219 -0.8994
  761MPD2    H111243   2.976   0.792  11.164  2.7953  1.3400 -2.2584
  761MPD2    H211244   2.806   0.431  11.037  1.1237 -1.0258  0.4837
  761MPD2    H311245   2.839   0.601  11.209  1.0189  0.7235  0.8224
  761MPD2     N11246   3.129   0.838  10.957 -0.8238 -0.4404  0.0713
  761MPD2    H511247   3.146   0.897  11.038 -1.3145  0.8502 -0.7659
  761MPD2    N111248   2.896   0.440  10.786  0.0787 -0.2069 -0.1913
  761MPD2    H711249   2.830   0.367  10.808  0.4907 -0.3040  0.7667
  762MPD2     C11250   3.311   0.625  10.445 -0.1728 -0.3574  0.2307
  762MPD2    C111251   3.286   0.513  10.360 -0.3175  0.1793  0.1823
  762MPD2    C211252   3.380   0.489  10.261 -0.0522 -0.5730 -0.6280
  762MPD2    C311253   3.485   0.579  10.232  0.7063 -0.4130 -0.3132
  762MPD2    C411254   3.494   0.694  10.311 -0.0733 -0.1630 -0.6104
  762MPD2    C511255   3.410   0.714  10.415 -0.7686  0.1715  0.0067
  762MPD2     H11256   3.372   0.400  10.198  2.5294 -1.0427 -0.3161
  762MPD2    H111257   3.575   0.766  10.300 -0.2574 -0.0237 -1.0882
  762MPD2    H211258   3.246   0.651  10.528 -1.0327 -0.2778 -0.4696
  762MPD2    H311259   3.424   0.800  10.479 -3.6735  0.3564  0.3981
  762MPD2     N11260   3.574   0.541  10.138 -0.5244  0.6259 -0.5858
  762MPD2    H511261   3.562   0.457  10.081  1.0770 -0.2317  0.3366
  762MPD2    N111262   3.174   0.433  10.384 -0.6533  0.4414  0.1605
  762MPD2    H711263   3.112   0.450  10.463 -0.0106  3.1653  0.0827
  763MPD2     C11264   4.685   0.873  15.990 -0.2931  0.0331 -0.5190
  763MPD2    C111265   0.017   0.914  15.870 -0.0671 -0.0915 -0.2648
  763MPD2    C211266   0.089   1.037  15.867  0.3420  0.9389  0.9976
  763MPD2    C311267   0.099   1.115  15.979  0.4573  0.1750  0.4359
  763MPD2    C411268   0.027   1.082  16.094 -0.1597 -0.5401  0.0984
  763MPD2    C511269   4.689   0.958  16.098 -0.2542  0.2194  1.0425
  763MPD2     H11270   0.132   1.070  15.773  1.8499  1.1668  1.7798
  763MPD2    H111271   0.019   1.148  16.180  0.8306  1.6464 -1.5084
  763MPD2    H211272   4.627   0.782  16.002 -1.8928  0.9825 -1.1261
  763MPD2    H311273   4.623   0.937  16.182 -0.1996 -0.5445  0.8959
  763MPD2     N11274   0.155   1.245  15.982 -0.1172  0.0844 -0.4361
  763MPD2    H511275   0.122   1.309  16.054 -0.7718 -0.2086 -0.4823
  763MPD2    N111276   0.003   0.841  15.747 -0.8367 -0.6376  0.3856
  763MPD2    H711277   0.028   0.884  15.659 -2.5301 -0.0449  0.2090
  764MPD2     C11278   3.262   2.244  16.723  0.7060  0.7055  0.6984
  764MPD2    C111279   3.145   2.171  16.729 -0.9203 -0.2352  0.0241
  764MPD2    C211280   3.117   2.103  16.851  0.4133  0.3163  0.0726
  764MPD2    C311281   3.196   2.110  16.960  1.3863 -0.7955  0.4506
  764MPD2    C411282   3.321   2.175  16.943  0.4544 -0.1502  0.3053
  764MPD2    C511283   3.349   2.246  16.831 -0.9301  0.4840 -0.0746
  764MPD2     H11284   3.021   2.051  16.856  0.2126  0.6263 -0.6043
  764MPD2    H111285   3.383   2.193  17.029  0.0730 -1.5506  0.8671
  764MPD2    H211286   3.284   2.305  16.636 -1.4725 -1.8560 -1.6523
  764MPD2    H311287   3.431   2.315  16.814 -0.0393 -0.4314  0.5836
  764MPD2     N11288   3.161   2.045  17.076  0.1480  0.3102 -0.0208
  764MPD2    H511289   3.071   1.998  17.079  1.3060 -1.8641  0.1712
  764MPD2    N111290   3.050   2.153  16.626  0.2755  0.2035 -0.7551
  764MPD2    H711291   2.975   2.085  16.632  0.2719  0.2799  0.0288
  765MPD2     C11292   2.604   4.589  15.783  0.5269 -1.2381  0.3149
  765MPD2    C111293   2.639   4.647  15.669 -0.5201  0.0179 -0.2913
  765MPD2    C211294   2.739   4.594  15.585  0.3669 -0.1116  0.2700
  765MPD2    C311295   2.793   4.471  15.620  0.1203 -0.4905  0.8666
  765MPD2    C411296   2.745   4.401  15.736  0.5179  0.4156  0.1781
  765MPD2    C511297   2.655   4.470  15.819  0.4567  0.2629 -0.0944
  765MPD2     H11298   2.784   4.645  15.501 -0.3455 -0.0668 -0.0856
  765MPD2    H111299   2.798   4.310  15.761 -1.8280 -0.7554  0.8837
  765MPD2    H211300   2.533   4.631  15.853 -0.1583  1.4740 -2.0044
  765MPD2    H311301   2.631   4.429  15.917  2.2159 -1.4820 -0.4163
  765MPD2     N11302   2.885   4.414  15.523  0.7457 -0.0630 -0.9169
  765MPD2    H511303   2.889   4.469  15.437 -3.5705  3.0137  0.8270
  765MPD2    N111304   2.584   0.049  15.633 -0.2550 -0.4300  0.3051
  765MPD2    H711305   2.510   0.082  15.693 -0.3407  1.6252 -0.9566
  766MPD2     C11306   2.079   0.165  15.133  0.9378  0.7351 -0.2360
  766MPD2    C111307   2.212   0.201  15.131 -0.5622  0.5117  0.6113
  766MPD2    C211308   2.292   0.179  15.022  0.0425 -0.6957  0.2660
  766MPD2    C311309   2.241   0.111  14.913 -0.3670  0.9106  0.2775
  766MPD2    C411310   2.114   0.065  14.914 -0.9219 -0.5176 -0.3339
  766MPD2    C511311   2.032   0.084  15.025 -0.1035 -0.3666 -0.4966
  766MPD2     H11312   2.398   0.202  15.018 -0.1333  0.3747  1.9919
  766MPD2    H111313   2.075   0.011  14.829  1.7013  2.3666 -3.3856
  766MPD2    H211314   2.015   0.182  15.218  1.6436 -1.1419  0.6714
  766MPD2    H311315   1.931   0.045  15.030 -0.1847 -0.3419 -1.8326
  766MPD2     N11316   2.317   0.076  14.794  0.4493  0.6018  0.1839
  766MPD2    H511317   2.272   0.016  14.726  0.9002  0.3075  0.1413
  766MPD2    N111318   2.273   0.260  15.242  0.3307 -0.4157 -0.0729
  766MPD2    H711319   2.364   0.304  15.234  0.5688 -1.1331 -1.2630
  767MPD2     C11320   1.983   0.535  14.670 -0.8454  0.0441 -0.0592
  767MPD2    C111321   2.109   0.513  14.628 -0.3278  0.1104  0.0787
  767MPD2    C211322   2.138   0.455  14.506  0.3093 -0.1017 -0.3119
  767MPD2    C311323   2.030   0.433  14.417 -0.5074 -0.4133 -0.6147
  767MPD2    C411324   1.902   0.452  14.463 -0.8823  0.6478  0.8041
  767MPD2    C511325   1.876   0.504  14.590  0.5376  0.0280 -0.0080
  767MPD2     H11326   2.241   0.443  14.474  0.2254  0.3416 -0.7430
  767MPD2    H111327   1.817   0.434  14.399  0.8135 -1.6789 -0.7657
  767MPD2    H211328   1.964   0.590  14.762  0.2398  0.1926  0.0840
  767MPD2    H311329   1.772   0.516  14.616  1.2382 -0.2446  2.8982
  767MPD2     N11330   2.055   0.382  14.287  0.4231 -1.2951 -0.0177
  767MPD2    H511331   2.150   0.375  14.252  0.7242 -1.4845  0.8546
  767MPD2    N111332   2.214   0.555  14.720  0.1594 -0.2403 -0.2094
  767MPD2    H711333   2.186   0.602  14.806  2.6708  1.1232 -0.1331
  768MPD2     C11334   2.867   3.994  10.730 -0.3675  0.3055 -1.0866
  768MPD2    C111335   2.988   3.962  10.673 -0.0882 -0.1974 -0.2557
  768MPD2    C211336   3.090   3.913  10.744  0.5722 -0.3972  0.4348
  768MPD2    C311337   3.065   3.879  10.877 -0.1142 -0.2982 -0.4896
  768MPD2    C411338   2.947   3.910  10.932  0.7868 -0.6511  0.2348
  768MPD2    C511339   2.850   3.967  10.857  0.1235 -0.4511  0.2380
  768MPD2     H11340   3.174   3.872  10.689 -0.5414 -2.9933  0.6347
  768MPD2    H111341   2.935   3.890  11.038  0.3185 -1.3710  0.0514
  768MPD2    H211342   2.789   4.052  10.683  1.3193  4.4226  1.1583
  768MPD2    H311343   2.755   4.003  10.895  0.0475  1.3147 -1.6075
  768MPD2     N11344   3.157   3.814  10.956 -0.7545  0.3217  0.4368
  768MPD2    H511345   3.122   3.774  11.043  0.1359 -0.9695  0.2065
  768MPD2    N111346   3.017   3.986  10.533 -0.7149 -0.3328 -1.0395
  768MPD2    H711347   3.112   3.983  10.496 -1.1514 -1.0283 -2.0970
  769MPD2     C11348   3.971   1.677  14.415 -0.1405 -0.2351 -0.2100
  769MPD2    C111349   3.983   1.556  14.484 -1.0249 -0.0429  0.0865
  769MPD2    C211350   4.050   1.556  14.603 -0.0820  0.4750  0.3492
  769MPD2    C311351   4.106   1.667  14.667 -0.4756  0.2421  0.9095
  769MPD2    C411352   4.097   1.782  14.587  0.0146  0.3062  0.2323
  769MPD2    C511353   4.026   1.788  14.473  0.0248 -0.0640  0.0883
  769MPD2     H11354   4.076   1.461  14.649 -1.3716 -1.2353 -2.4351
  769MPD2    H111355   4.127   1.881  14.622 -2.6777  0.1457  3.0540
  769MPD2    H211356   3.924   1.682  14.318  0.1234 -0.5930 -0.3554
  769MPD2    H311357   4.021   1.886  14.428 -0.2047 -0.4237 -0.6624
  769MPD2     N11358   4.169   1.663  14.790 -0.5195 -0.8020 -0.1409
  769MPD2    H511359   4.163   1.571  14.832  3.4141 -0.8249  0.3467
  769MPD2    N111360   3.917   1.446  14.426  0.0844  0.3338  0.4359
  769MPD2    H711361   3.898   1.445  14.326  1.7530 -1.4360  0.1386
  770MPD2     C11362   3.847   0.454  14.671  0.2359 -0.8504  0.1552
  770MPD2    C111363   3.777   0.550  14.736  0.1973 -0.8696 -0.1792
  770MPD2    C211364   3.751   0.673  14.684  0.2154  0.9959 -0.1979
  770MPD2    C311365   3.794   0.707  14.559  0.1700 -0.1681  0.4080
  770MPD2    C411366   3.858   0.609  14.492 -0.1817  1.0676 -0.3610
  770MPD2    C511367   3.888   0.488  14.547  0.6786  0.2202  0.4718
  770MPD2     H11368   3.704   0.754  14.739 -0.7553 -0.9319  1.8260
  770MPD2    H111369   3.894   0.630  14.392 -2.2784  1.2646 -1.0565
  770MPD2    H211370   3.871   0.357  14.712  1.1843 -0.4464  0.5480
  770MPD2    H311371   3.949   0.418  14.492  0.5830 -1.8345  2.9713
  770MPD2     N11372   3.787   0.836  14.499  0.0560 -0.3849 -0.4827
  770MPD2    H511373   3.754   0.910  14.560  2.2091 -0.0012  0.2125
  770MPD2    N111374   3.735   0.512  14.866 -0.8884 -0.5207  0.3844
  770MPD2    H711375   3.770   0.424  14.902 -1.5836 -0.3296  1.5282
  771MPD2     C11376   4.683   4.211  13.058 -0.2085  0.5868 -0.1580
  771MPD2    C111377   4.613   4.323  13.016 -0.4558 -0.1361 -0.0552
  771MPD2    C211378   4.500   4.308  12.936  0.7222 -0.1383  0.3984
  771MPD2    C311379   4.464   4.185  12.888  0.2289  0.7122  0.4470
  771MPD2    C411380   4.529   4.073  12.931 -1.0396  0.3614 -0.4566
  771MPD2    C511381   4.636   4.087  13.010  0.3356 -0.1196  0.6869
  771MPD2     H11382   4.451   4.400  12.908  0.8247 -0.0854  0.3926
  771MPD2    H111383   4.507   3.977  12.885  0.2571 -2.0474  3.9783
  771MPD2    H211384   0.054   4.207  13.111 -1.2113 -0.1299  1.5782
  771MPD2    H311385   4.693   4.000  13.039 -0.1296 -0.1564  1.4831
  771MPD2     N11386   4.356   4.164  12.801 -0.6645 -0.2710 -0.1982
  771MPD2    H511387   4.327   4.068  12.790 -1.4628 -0.1745  1.0378
  771MPD2    N111388   4.657   4.444  13.069 -0.0135  0.1313 -0.0094
  771MPD2    H711389   0.025   4.430  13.109 -0.5336  0.3186  1.2365
  772MPD2     C11390   4.454   0.172  13.705 -0.0193  0.2872  1.1175
  772MPD2    C111391   4.393   0.204  13.583  1.0201  0.0527  0.3017
  772MPD2    C211392   4.268   0.260  13.598  0.4961  0.0350  0.5557
  772MPD2    C311393   4.216   0.298  13.719 -0.0246  0.2977 -0.2472
  772MPD2    C411394   4.289   0.279  13.839  0.0073  0.4745  0.0983
  772MPD2    C511395   4.408   0.213  13.827 -0.4308 -0.5697 -0.3128
  772MPD2     H11396   4.203   0.264  13.512 -1.2529  3.3784  2.0100
  772MPD2    H111397   4.244   0.292  13.936 -2.1408  1.4135 -1.0112
  772MPD2    H211398   4.548   0.120  13.721 -0.7857 -1.5519 -0.3109
  772MPD2    H311399   4.467   0.198  13.917  2.0952  2.9811 -1.3604
  772MPD2     N11400   4.085   0.351  13.736  0.2273 -0.3233 -0.5328
  772MPD2    H511401   4.054   0.377  13.829  0.3462 -2.5544  0.1311
  772MPD2    N111402   4.452   0.177  13.456  0.2619  0.1696 -0.5861
  772MPD2    H711403   4.396   0.185  13.371  0.0294  0.1835 -0.4338
  773MPD2     C11404   3.471   0.747  17.694  0.2766  1.3719  0.2366
  773MPD2    C111405   3.559   0.801  17.606 -0.5699 -0.7865  0.3587
  773MPD2    C211406   3.667   0.872  17.654 -0.2400 -0.2440 -0.8562
  773MPD2    C311407   3.680   0.892   0.094 -0.1471  0.3392  0.2326
  773MPD2    C411408   3.592   0.829   0.181  0.0980 -0.2006 -0.5033
  773MPD2    C511409   3.486   0.757   0.136 -0.6111 -0.1491 -0.0972
  773MPD2     H11410   3.749   0.910  17.595  2.2863 -2.3116  1.3281
  773MPD2    H111411   3.609   0.837   0.288 -1.6182 -0.2341 -0.2284
  773MPD2    H211412   3.384   0.691  17.662 -0.1479  2.5416 -0.6680
  773MPD2    H311413   3.410   0.713   0.199 -1.6509  0.8143 -0.6634
  773MPD2     N11414   3.791   0.968   0.141  0.1981  0.8358  0.4701
  773MPD2    H511415   3.852   1.002   0.068  1.9548 -0.1413  1.4787
  773MPD2    N111416   3.553   0.789  17.464  0.0959 -0.0018 -0.5568
  773MPD2    H711417   3.617   0.846  17.409 -2.2324  2.4673 -0.7199
  774MPD2     C11418   2.500   4.681  13.016  0.2479 -0.0358 -0.2892
  774MPD2    C111419   2.567   0.067  13.063  0.0584 -0.5686 -0.4712
  774MPD2    C211420   2.569   0.191  12.994  0.3313 -0.4684 -0.7204
  774MPD2    C311421   2.502   0.193  12.875  0.2846 -0.2529  0.2521
  774MPD2    C411422   2.431   0.082  12.823 -0.5205  0.9800  0.7218
  774MPD2    C511423   2.431   4.690  12.895  0.4339  0.3667  0.6634
  774MPD2     H11424   2.614   0.284  13.027 -3.6774  1.9936 -2.0388
  774MPD2    H111425   2.373   0.087  12.732  0.7204 -0.5377 -0.1574
  774MPD2    H211426   2.515   4.583  13.061 -1.6205 -0.6970 -1.0858
  774MPD2    H311427   2.378   4.601  12.863  1.4108 -0.2385  0.7223
  774MPD2     N11428   2.512   0.316  12.802  0.3839  0.0887  0.3498
  774MPD2    H511429   2.566   0.387  12.849 -0.3377  0.5623  0.4521
  774MPD2    N111430   2.627   0.059  13.195  0.3051  0.5693  1.0247
  774MPD2    H711431   2.597   4.708  13.257  1.4000 -0.7524 -0.0538
  775MPD2     C11432   4.463   1.506  15.313  0.2509 -0.2646  0.1925
  775MPD2    C111433   4.465   1.601  15.417  0.1550  0.2503  0.4396
  775MPD2    C211434   4.565   1.702  15.410 -0.4045 -0.8004 -0.2681
  775MPD2    C311435   4.656   1.706  15.299  0.6033  0.1659  0.4795
  775MPD2    C411436   4.642   1.614  15.197 -0.1660 -0.3735 -0.5672
  775MPD2    C511437   4.547   1.514  15.211 -0.8262  0.2283 -0.6175
  775MPD2     H11438   4.573   1.778  15.486  0.9401 -1.0694 -0.1448
  775MPD2    H111439   4.697   1.630  15.106  0.8713  1.4318  0.3815
  775MPD2    H211440   4.386   1.430  15.313  1.6149 -1.6411 -0.8436
  775MPD2    H311441   4.534   1.447  15.127  2.4875  0.5647 -1.3902
  775MPD2     N11442   0.026   1.811  15.284  0.0121  0.3653 -0.3915
  775MPD2    H511443   0.079   1.812  15.197  2.0514 -0.1733  0.8232
  775MPD2    N111444   4.372   1.590  15.521 -0.0416  0.7306 -0.0043
  775MPD2    H711445   4.318   1.504  15.526 -0.8607  1.2133 -0.6001
  776MPD2     C11446   3.667   2.212  11.509 -0.1574  0.2756 -0.5219
  776MPD2    C111447   3.587   2.267  11.408  0.4446  0.6007  0.1619
  776MPD2    C211448   3.618   2.398  11.370 -0.0476 -0.1724 -0.1252
  776MPD2    C311449   3.717   2.480  11.430 -0.4712 -0.7531  0.1302
  776MPD2    C411450   3.780   2.416  11.537 -0.1565  0.2233 -0.0220
  776MPD2    C511451   3.762   2.283  11.570  0.3071 -0.4249  0.2240
  776MPD2     H11452   3.564   2.434  11.282  0.4376  3.3277  1.0186
  776MPD2    H111453   3.859   2.474  11.583  0.8944 -0.0286 -1.4891
  776MPD2    H211454   3.663   2.108  11.539 -0.7569  1.0096  1.9297
  776MPD2    H311455   3.826   2.243  11.648  0.3160  0.3200  0.6044
  776MPD2     N11456   3.748   2.612  11.384  0.5282  0.3115  0.2282
  776MPD2    H511457   3.832   2.657  11.421  0.7594 -0.6931  0.9234
  776MPD2    N111458   3.482   2.192  11.344 -0.2562  0.4190  0.2347
  776MPD2    H711459   3.479   2.094  11.369  2.3649 -0.2605 -2.1578
  777MPD2     C11460   4.188   4.112   1.149 -0.2622 -0.4524 -0.1491
  777MPD2    C111461   4.253   4.000   1.201 -0.0541  0.1864 -0.6403
  777MPD2    C211462   4.262   3.887   1.130  0.5109  0.1643  0.3841
  777MPD2    C311463   4.224   3.889   0.996  0.4374  0.7435  0.5718
  777MPD2    C411464   4.175   4.007   0.947  0.2615 -1.0114  0.1259
  777MPD2    C511465   4.153   4.124   1.019  0.5940 -0.4350 -0.2739
  777MPD2     H11466   4.293   3.793   1.173 -4.1554 -1.1014  0.9685
  777MPD2    H111467   4.156   4.019   0.840 -0.7640 -1.7964  0.2190
  777MPD2    H211468   4.191   4.198   1.214 -0.4050 -0.0001 -0.7389
  777MPD2    H311469   4.128   4.219   0.973 -0.8945  0.0279  1.4781
  777MPD2     N11470   4.228   3.771   0.917 -0.5927  0.2368  0.5680
  777MPD2    H511471   4.251   3.682   0.961  1.0614 -0.2740 -1.2987
  777MPD2    N111472   4.296   4.011   1.334 -0.1930  0.0175  0.1228
  777MPD2    H711473   4.281   4.090   1.395 -1.4717  1.2976 -1.8397
  778MPD2     C11474   0.396   4.672  14.035  0.1238  0.2894  0.0868
  778MPD2    C111475   0.424   4.580  14.140 -0.1604 -0.4250 -0.2098
  778MPD2    C211476   0.554   4.585  14.187  0.2633 -0.6071  0.3023
  778MPD2    C311477   0.643   4.682  14.150  0.4008 -0.1969 -0.2276
  778MPD2    C411478   0.613   0.039  14.040 -0.1418  0.6499 -0.8912
  778MPD2    C511479   0.487   0.037  13.986 -0.5637  0.5896  0.7659
  778MPD2     H11480   0.588   4.528  14.272  0.2628 -1.4918 -0.2861
  778MPD2    H111481   0.680   0.117  14.007  1.9693 -1.0777 -0.6353
  778MPD2    H211482   0.296   4.674  13.991 -0.0248 -0.5280  0.3953
  778MPD2    H311483   0.459   0.110  13.911  0.1047 -2.1110 -2.1324
  778MPD2     N11484   0.765   4.679  14.213  0.2244  0.1978  0.1975
  778MPD2    H511485   0.765   4.629  14.301 -1.7240 -3.9974 -2.2132
  778MPD2    N111486   0.341   4.469  14.169 -0.2808  0.5026  0.1780
  778MPD2    H711487   0.251   4.465  14.123 -0.5872 -0.1662  0.8339
  779MPD2     C11488   0.034   3.171  13.660 -0.1694 -0.1622 -0.5450
  779MPD2    C111489   0.062   3.210  13.789 -0.2143  0.2608  0.4167
  779MPD2    C211490   0.105   3.342  13.808 -0.2852  0.4748  0.4911
  779MPD2    C311491   0.096   3.433  13.699 -0.5737  0.1685  0.6095
  779MPD2    C411492   0.069   3.390  13.573  0.1249 -0.3688 -0.1643
  779MPD2    C511493   0.043   3.258  13.554  0.8423  0.1096 -0.1193
  779MPD2     H11494   0.122   3.379  13.909 -0.7100 -0.7224  0.9944
  779MPD2    H111495   0.076   3.453  13.485  1.2255 -0.5087 -0.1759
  779MPD2    H211496   0.020   3.064  13.645  0.2353 -0.4918  1.4546
  779MPD2    H311497   0.039   3.232  13.449 -1.0417  0.8080 -0.2255
  779MPD2     N11498   0.119   3.571  13.723  0.0137 -0.3087  0.5569
  779MPD2    H511499   0.147   3.598  13.817 -1.2354  1.6491  0.3668
  779MPD2    N111500   0.055   3.109  13.881  0.3115 -0.6150  0.3512
  779MPD2    H711501   0.022   3.022  13.840 -2.4873 -0.4864  2.2922
  780MPD2     C11502   4.678   2.017   1.185 -0.0210  0.3849 -0.3776
  780MPD2    C111503   4.619   2.144   1.200 -0.2884 -0.1853 -0.5354
  780MPD2    C211504   4.680   2.250   1.135 -0.3245  0.3865  0.8455
  780MPD2    C311505   0.053   2.234   1.035 -0.5008 -0.0724  0.4142
  780MPD2    C411506   0.103   2.105   1.013  0.2447 -0.0309  0.0723
  780MPD2    C511507   0.053   2.004   1.091  0.0768 -0.9391  0.5415
  780MPD2     H11508   4.645   2.351   1.155 -2.5265 -0.2907  0.4193
  780MPD2    H111509   0.191   2.089   0.951 -0.1872 -0.7589 -0.3594
  780MPD2    H211510   4.640   1.931   1.239  0.5403 -0.5951 -1.5526
  780MPD2    H311511   0.104   1.909   1.081 -1.3751 -1.5465 -1.1016
  780MPD2     N11512   0.089   2.351   0.966 -0.2482  0.5116  0.5303
  780MPD2    H511513   0.052   2.437   1.005  2.7380  1.8267  0.4609
  780MPD2    N111514   4.504   2.147   1.270  0.5885  0.2967  1.0636
  780MPD2    H711515   4.460   2.059   1.296  2.4035 -1.7425 -2.7488
  781MPD2     C11516   0.773   0.743  11.569 -0.1351  0.6233 -0.4604
  781MPD2    C111517   0.893   0.731  11.640 -0.8134  0.7196  0.0375
  781MPD2    C211518   1.005   0.782  11.580  0.3901 -0.0727  0.4709
  781MPD2    C311519   1.005   0.824  11.453 -0.2469 -0.5866 -0.1986
  781MPD2    C411520   0.885   0.848  11.387  0.6877  0.3437  0.3104
  781MPD2    C511521   0.771   0.804  11.448 -0.3417  0.0436  0.3581
  781MPD2     H11522   1.103   0.764  11.624  1.1489  1.7663 -0.4732
  781MPD2    H111523   0.879   0.889  11.287 -0.2362  1.9074  1.0013
  781MPD2    H211524   0.679   0.712  11.613 -0.6535  0.4729 -1.6719
  781MPD2    H311525   0.679   0.807  11.392 -1.2368 -0.8583  1.7869
  781MPD2     N11526   1.119   0.857  11.362  0.2254 -0.7547 -0.4622
  781MPD2    H511527   1.099   0.866  11.263 -1.2170 -0.6236 -0.1667
  781MPD2    N111528   0.903   0.660  11.762 -0.0242  0.6717  0.1231
  781MPD2    H711529   0.992   0.667  11.812 -0.5790 -0.0997  1.2242
  782MPD2     C11530   3.775   1.507  10.283 -0.1529 -1.1528 -0.3097
  782MPD2    C111531   3.912   1.506  10.288  0.9300 -0.7176 -0.4337
  782MPD2    C211532   3.988   1.601  10.353 -0.5949  0.5867  0.8287
  782MPD2    C311533   3.921   1.704  10.424  0.3158 -0.4155 -0.9269
  782MPD2    C411534   3.781   1.709  10.417  0.3854  0.1309 -0.0129
  782MPD2    C511535   3.713   1.612  10.349  0.3216  0.2765 -0.0917
  782MPD2     H11536   4.094   1.611  10.334 -0.1172  0.6529  3.5459
  782MPD2    H111537   3.735   1.801  10.453 -0.2982  0.5448 -1.9440
  782MPD2    H211538   3.720   1.429  10.231 -1.0007 -0.2501 -0.7527
  782MPD2    H311539   3.605   1.605  10.342  0.6659 -0.3070 -4.6556
  782MPD2     N11540   3.999   1.808  10.473  1.0721 -0.1652 -0.0003
  782MPD2    H511541   4.098   1.804  10.449  0.6721 -0.7333 -1.5794
  782MPD2    N111542   3.982   1.399  10.215 -0.2624  0.2840  0.2402
  782MPD2    H711543   3.926   1.321  10.182  0.8705 -0.3085 -0.2717
  783MPD2     C11544   3.795   0.637  10.562  0.0851  0.6629  0.3617
  783MPD2    C111545   3.783   0.771  10.584 -0.0718 -0.1671  0.6468
  783MPD2    C211546   3.857   0.868  10.514 -0.9881 -0.0123  0.0308
  783MPD2    C311547   3.931   0.826  10.407 -0.1782  0.0941 -0.2397
  783MPD2    C411548   3.935   0.691  10.375  0.9645  0.2520  0.1265
  783MPD2    C511549   3.872   0.600  10.459  0.7256 -0.5257 -0.5005
  783MPD2     H11550   3.850   0.975  10.529  1.1985  0.2127 -0.6067
  783MPD2    H111551   3.985   0.642  10.292  1.3197 -0.9067  1.0161
  783MPD2    H211552   3.727   0.566  10.607 -1.7110  3.1416  1.5619
  783MPD2    H311553   3.884   0.496  10.430  1.1304 -0.3315 -1.0211
  783MPD2     N11554   3.990   0.923  10.327  0.0137  0.1277 -0.1962
  783MPD2    H511555   3.987   1.016  10.367 -1.7044  0.4861 -1.1094
  783MPD2    N111556   3.685   0.808  10.685  0.3189  0.1432  0.3805
  783MPD2    H711557   3.619   0.735  10.712 -0.3336  0.4952 -0.2542
  784MPD2     C11558   1.274   0.935   0.490  0.3315  0.4123 -0.4075
  784MPD2    C111559   1.278   1.045   0.566  0.2037  0.0943  1.1918
  784MPD2    C211560   1.188   1.146   0.541  0.0540 -0.3104  0.4398
  784MPD2    C311561   1.091   1.135   0.445 -0.5782 -0.2021  0.1842
  784MPD2    C411562   1.092   1.027   0.368 -0.6937  0.3630 -0.4631
  784MPD2    C511563   1.182   0.931   0.387  0.1612 -0.2202 -0.1991
  784MPD2     H11564   1.204   1.235   0.601  0.1280 -0.9417  1.3600
  784MPD2    H111565   1.020   1.013   0.289  0.6012  0.4218 -1.6505
  784MPD2    H211566   1.343   0.854   0.506  0.7160  0.5554 -1.3360
  784MPD2    H311567   1.176   0.844   0.322  1.2386  0.1857 -0.8492
  784MPD2     N11568   1.012   1.254   0.418  0.5657 -0.6617 -0.1598
  784MPD2    H511569   1.016   1.324   0.491  2.1391 -0.8714 -0.0503
  784MPD2    N111570   1.372   1.062   0.664  0.0965  0.0133 -0.2074
  784MPD2    H711571   1.365   1.150   0.714 -1.7156 -1.4156  2.0594
  785MPD2     C11572   2.473   4.345   9.760  0.0979 -0.5575  0.2569
  785MPD2    C111573   2.380   4.411   9.680  0.4193 -0.0244  0.1498
  785MPD2    C211574   2.338   4.359   9.560 -0.1681  1.4996 -0.0586
  785MPD2    C311575   2.387   4.236   9.514 -0.1503 -0.0226  0.0231
  785MPD2    C411576   2.463   4.168   9.599  0.2189 -0.0459  0.1464
  785MPD2    C511577   2.510   4.218   9.724  0.3186 -0.0182 -0.3690
  785MPD2     H11578   2.277   4.423   9.496  0.5642 -0.0465 -2.3219
  785MPD2    H111579   2.495   4.067   9.579  0.3486  0.5581 -2.6017
  785MPD2    H211580   2.512   4.375   9.857  2.1748  1.0909 -1.0798
  785MPD2    H311581   2.573   4.163   9.793  1.2147  0.5550 -0.7275
  785MPD2     N11582   2.344   4.191   9.385  0.6760  0.5877  0.3865
  785MPD2    H511583   2.293   4.260   9.331  1.4904  0.5453 -0.4371
  785MPD2    N111584   2.324   4.537   9.703 -0.0209 -0.1285  0.4321
  785MPD2    H711585   2.251   4.565   9.638  1.5347 -2.8993 -2.5537
  786MPD2     C11586   0.822   2.763  14.189 -0.0258 -0.9896  0.8097
  786MPD2    C111587   0.779   2.663  14.272 -0.2630  0.5947 -0.1632
  786MPD2    C211588   0.822   2.658  14.408 -0.3813 -0.0625 -0.7482
  786MPD2    C311589   0.917   2.753  14.447 -0.2254 -0.1641 -0.2184
  786MPD2    C411590   0.943   2.858  14.360  0.3810 -0.3746  0.0738
  786MPD2    C511591   0.899   2.866  14.233  0.5560 -0.1068  0.4338
  786MPD2     H11592   0.791   2.582  14.479  1.6084 -0.4163 -0.2374
  786MPD2    H111593   1.012   2.934  14.395  0.3591  0.0280 -0.7638
  786MPD2    H211594   0.795   2.755  14.085 -0.1462  1.2009  0.6775
  786MPD2    H311595   0.931   2.953  14.176  1.6399  0.0132  1.2394
  786MPD2     N11596   0.968   2.760  14.579 -0.2485  0.6863 -0.1265
  786MPD2    H511597   1.030   2.837  14.603 -0.7322  0.9041  0.4234
  786MPD2    N111598   0.701   2.552  14.231  0.0676  0.2412 -0.3716
  786MPD2    H711599   0.683   2.481  14.301 -1.2743  0.9643  0.0083
  787MPD2     C11600   0.814   2.097  14.568 -0.5191  0.0661  0.2793
  787MPD2    C111601   0.763   2.031  14.461  0.7530 -0.1760 -0.4390
  787MPD2    C211602   0.764   1.896  14.467  0.4674 -0.1303 -0.7436
  787MPD2    C311603   0.848   1.827  14.561  0.0015  0.0519  0.2582
  787MPD2    C411604   0.916   1.901  14.655 -0.0965  0.2270  1.1325
  787MPD2    C511605   0.889   2.032  14.663 -0.3365  0.8084 -0.1942
  787MPD2     H11606   0.708   1.848  14.387  0.2210  1.3466 -1.4550
  787MPD2    H111607   0.986   1.865  14.729 -1.6066 -3.1094  0.9204
  787MPD2    H211608   0.784   2.201  14.577 -0.1955  0.0860  1.1325
  787MPD2    H311609   0.931   2.090  14.743  3.0140  0.5489 -1.7707
  787MPD2     N11610   0.861   1.688  14.550  0.0304  0.0228  0.0372
  787MPD2    H511611   0.818   1.649  14.467  2.0546 -2.9558  0.3840
  787MPD2    N111612   0.705   2.114  14.360  0.0534  0.8772 -0.4011
  787MPD2    H711613   0.708   2.215  14.373 -2.7273  0.7801  0.9195
  788MPD2     C11614   1.968   0.857   0.643  1.0251 -0.1184 -0.4048
  788MPD2    C111615   2.071   0.764   0.636  0.4479 -0.2447  0.7200
  788MPD2    C211616   2.180   0.780   0.553  0.0766  0.8075  0.3620
  788MPD2    C311617   2.193   0.898   0.485  0.2001  1.2757 -1.1089
  788MPD2    C411618   2.111   1.005   0.516  0.7997  0.3060 -0.7564
  788MPD2    C511619   1.994   0.982   0.593 -0.3249  0.5368  0.2038
  788MPD2     H11620   2.255   0.702   0.549  0.4069  1.0965  0.9470
  788MPD2    H111621   2.134   1.094   0.457 -0.0654 -0.7412 -2.6775
  788MPD2    H211622   1.875   0.832   0.694  0.7282 -0.8967 -1.3162
  788MPD2    H311623   1.924   1.062   0.619  0.0841  0.4676  1.4988
  788MPD2     N11624   2.290   0.904   0.383 -0.5020 -0.0314 -0.7798
  788MPD2    H511625   2.307   0.989   0.331 -0.9281  0.7779  0.4132
  788MPD2    N111626   2.058   0.636   0.703 -0.3606  0.1268  0.1133
  788MPD2    H711627   2.145   0.584   0.711  0.7181  1.8075 -0.7631
  789MPD2     C11628   2.767   0.673  15.740  0.2201  0.5825  0.5122
  789MPD2    C111629   2.684   0.579  15.801  0.0558 -0.0888 -0.2988
  789MPD2    C211630   2.565   0.615  15.860  0.3784 -0.2507  0.4463
  789MPD2    C311631   2.518   0.751  15.854 -0.0595  0.4405 -0.3517
  789MPD2    C411632   2.594   0.834  15.782 -0.3436  0.6327  0.4019
  789MPD2    C511633   2.717   0.798  15.732  0.5442  0.1271  0.0672
  789MPD2     H11634   2.494   0.544  15.903 -2.0056  0.2346 -2.6745
  789MPD2    H111635   2.558   0.933  15.758 -3.0077 -0.6894 -1.0762
  789MPD2    H211636   2.866   0.646  15.704  0.8027  0.0796  2.5083
  789MPD2    H311637   2.778   0.865  15.673 -2.2762  0.0162 -2.9850
  789MPD2     N11638   2.390   0.787  15.900 -0.2580  0.1042  0.0771
  789MPD2    H511639   2.357   0.881  15.882  0.6625  0.6275  1.0846
  789MPD2    N111640   2.722   0.443  15.807  0.1067 -0.3216 -0.8314
  789MPD2    H711641   2.692   0.390  15.889 -0.9615 -0.9138 -1.6040
  790MPD2     C11642   3.730   2.344  13.366 -0.4004  0.5292 -0.0941
  790MPD2    C111643   3.651   2.231  13.364  0.1302  0.1767 -0.0495
  790MPD2    C211644   3.547   2.220  13.271  0.3732  0.0205  0.0773
  790MPD2    C311645   3.533   2.322  13.176 -0.5729 -0.4895  0.7043
  790MPD2    C411646   3.614   2.437  13.181 -0.4394  0.1262 -0.5233
  790MPD2    C511647   3.710   2.446  13.275  0.6619  0.0187  0.1760
  790MPD2     H11648   3.471   2.143  13.263  1.2294 -0.9383  1.1996
  790MPD2    H111649   3.611   2.513  13.104 -0.2085 -0.0841 -0.7385
  790MPD2    H211650   3.797   2.365  13.448 -1.2661  2.4853  0.1080
  790MPD2    H311651   3.778   2.529  13.260 -0.6792  0.9865 -0.5629
  790MPD2     N11652   3.452   2.310  13.059  0.7297  0.0444  0.1717
  790MPD2    H511653   3.466   2.386  12.994  0.2713  0.2666  0.3377
  790MPD2    N111654   3.668   2.140  13.469  0.1134 -0.6219 -0.2368
  790MPD2    H711655   3.730   2.170  13.545  0.6908 -0.5151 -0.7506
  791MPD2     C11656   2.905   2.420  12.360  0.1985  0.6462 -0.4215
  791MPD2    C111657   2.912   2.340  12.473  0.4362 -0.4499  0.4212
  791MPD2    C211658   2.802   2.266  12.510  0.2050  0.2054 -0.5506
  791MPD2    C311659   2.688   2.266  12.426  0.6189 -0.6468 -0.0792
  791MPD2    C411660   2.688   2.347  12.319 -0.2084 -0.8843 -0.3499
  791MPD2    C511661   2.794   2.431  12.282  0.5941  0.2912 -0.2145
  791MPD2     H11662   2.789   2.216  12.606 -0.6394 -0.8347 -1.2121
  791MPD2    H111663   2.605   2.339  12.249  0.8689 -0.1498 -1.6998
  791MPD2    H211664   2.986   2.485  12.329  0.3494  0.9226  0.5371
  791MPD2    H311665   2.808   2.482  12.188  1.5388 -0.8097 -0.6679
  791MPD2     N11666   2.573   2.185  12.456  0.2130 -0.4208 -0.5947
  791MPD2    H511667   2.572   2.120  12.535  0.1476 -1.3345 -1.3475
  791MPD2    N111668   3.039   2.327  12.544  0.1865  0.7342 -0.7349
  791MPD2    H711669   3.105   2.400  12.518  1.7108 -0.7009 -0.8790
  792MPD2     C11670   4.024   2.124  11.300 -0.1600  0.3177 -0.1304
  792MPD2    C111671   3.975   2.195  11.191  0.5873 -0.2220  1.0197
  792MPD2    C211672   3.901   2.123  11.105 -0.2099 -1.0364 -0.7190
  792MPD2    C311673   3.882   1.985  11.112 -0.4290 -0.3127 -0.3032
  792MPD2    C411674   3.939   1.920  11.212  0.7366 -0.4219 -0.2048
  792MPD2    C511675   3.999   1.990  11.311  0.5548  0.0776 -0.0170
  792MPD2     H11676   3.858   2.178  11.022  2.0040  0.4089 -0.9307
  792MPD2    H111677   3.933   1.812  11.216 -2.9489 -0.2550 -1.1299
  792MPD2    H211678   4.084   2.165  11.381  0.3773 -0.8907  0.0825
  792MPD2    H311679   4.040   1.940  11.398 -1.0328  0.2461  0.8306
  792MPD2     N11680   3.806   1.916  11.013 -0.2349  0.3546 -0.3431
  792MPD2    H511681   3.827   1.819  10.994 -1.4126 -0.0897  0.5790
  792MPD2    N111682   3.994   2.337  11.188  0.5247 -0.1493 -0.1011
  792MPD2    H711683   4.064   2.371  11.254 -1.3248  0.2872  1.6290
  793MPD2     C11684   3.530   2.247  10.166  0.1118 -0.4827 -0.2118
  793MPD2    C111685   3.639   2.248  10.248  0.5125  0.1021 -0.6484
  793MPD2    C211686   3.649   2.150  10.347  0.3639  0.0159  0.1246
  793MPD2    C311687   3.534   2.074  10.379 -0.0156  0.4739 -0.1011
  793MPD2    C411688   3.414   2.083  10.303  0.2461  0.3965 -0.1096
  793MPD2    C511689   3.416   2.166  10.194  0.1135 -0.3298  0.3746
  793MPD2     H11690   3.745   2.148  10.398  0.9550  0.6503 -0.9523
  793MPD2    H111691   3.325   2.025  10.324  0.5310  0.0006  0.0078
  793MPD2    H211692   3.524   2.312  10.079 -0.7662  0.7259  0.7678
  793MPD2    H311693   3.330   2.170  10.128  0.6026  1.2016 -0.1816
  793MPD2     N11694   3.536   2.001  10.495  0.1351 -0.5797  0.1917
  793MPD2    H511695   3.623   2.000  10.547 -0.2894 -0.0076  0.9264
  793MPD2    N111696   3.755   2.321  10.231 -0.3088  0.2937 -0.2229
  793MPD2    H711697   3.833   2.289  10.286 -0.8901 -1.2976 -0.3339
  794MPD2     C11698   3.539   1.290  16.866  0.2063 -0.1048 -0.0516
  794MPD2    C111699   3.506   1.166  16.812 -0.1521  0.3487  0.2435
  794MPD2    C211700   3.489   1.151  16.675  0.2522 -0.6478  0.1158
  794MPD2    C311701   3.510   1.259  16.591 -0.6442  0.2262 -0.2499
  794MPD2    C411702   3.548   1.383  16.643 -0.3090  0.3579  0.3902
  794MPD2    C511703   3.561   1.397  16.783  0.0524 -0.5352 -0.2946
  794MPD2     H11704   3.466   1.053  16.636  0.3066  0.2393 -2.1282
  794MPD2    H111705   3.570   1.464  16.575 -0.8769  0.3606  0.2125
  794MPD2    H211706   3.558   1.304  16.972  0.8675 -2.2720  0.1159
  794MPD2    H311707   3.586   1.493  16.826 -1.3277  0.4921 -1.8293
  794MPD2     N11708   3.487   1.262  16.456  0.4133 -0.2062 -0.1342
  794MPD2    H511709   3.499   1.347  16.402 -1.2668 -0.4705 -0.9004
  794MPD2    N111710   3.481   1.054  16.890  0.1167  0.0464  0.8574
  794MPD2    H711711   3.450   0.974  16.836  0.1997 -0.6166  1.7916
  795MPD2     C11712   0.756   3.770  13.323 -0.4268 -0.2445 -0.6900
  795MPD2    C111713   0.832   3.743  13.214  0.2394 -0.5500  0.2561
  795MPD2    C211714   0.952   3.675  13.238  0.3030  0.3493 -0.3833
  795MPD2    C311715   0.995   3.643  13.369  0.5917  0.1460 -0.3243
  795MPD2    C411716   0.909   3.664  13.471  0.0163 -0.2250 -0.0952
  795MPD2    C511717   0.794   3.733  13.450 -1.3077  0.0940 -0.6348
  795MPD2     H11718   1.016   3.653  13.154  1.9241  0.3461  0.8469
  795MPD2    H111719   0.931   3.624  13.569  0.8540 -0.1639 -0.2565
  795MPD2    H211720   0.653   3.802  13.314 -0.1385  0.4460 -1.5612
  795MPD2    H311721   0.729   3.756  13.534 -0.1986  1.7293 -0.2259
  795MPD2     N11722   1.118   3.576  13.399  0.2646  0.1719  0.6894
  795MPD2    H511723   1.129   3.534  13.491 -1.1175  0.0706  0.7993
  795MPD2    N111724   0.790   3.762  13.089  0.3990  0.2441 -0.4808
  795MPD2    H711725   0.845   3.713  13.019  1.2649  2.1100 -1.1211
  796MPD2     C11726   0.333   0.219  15.818 -0.2817  0.0535 -0.7110
  796MPD2    C111727   0.381   0.336  15.882  0.3787  0.3422  0.2102
  796MPD2    C211728   0.394   0.454  15.808  0.0867  0.5161 -0.5947
  796MPD2    C311729   0.375   0.455  15.672  0.3197 -0.2063 -0.3985
  796MPD2    C411730   0.324   0.341  15.612  0.1929 -1.1541  0.2353
  796MPD2    C511731   0.297   0.227  15.684  0.1855 -0.3636  0.3660
  796MPD2     H11732   0.414   0.551  15.853 -1.1016  1.3703 -1.8984
  796MPD2    H111733   0.310   0.338  15.505  0.1799 -1.2277  0.2396
  796MPD2    H211734   0.308   0.128  15.872  2.7990  0.8682  2.0945
  796MPD2    H311735   0.257   0.144  15.629 -0.8163  0.1841  0.2647
  796MPD2     N11736   0.400   0.572  15.596 -0.4510  1.0429  0.2634
  796MPD2    H511737   0.426   0.653  15.651 -2.9298 -0.4313  3.6004
  796MPD2    N111738   0.399   0.335  16.028 -0.1025  0.2277  0.0116
  796MPD2    H711739   0.379   0.247  16.075  1.2509  0.1339  0.4037
  797MPD2     C11740   1.780   4.215  16.924  0.8059  0.2997  0.3885
  797MPD2    C111741   1.820   4.329  16.996 -0.1036  0.3234  0.1102
  797MPD2    C211742   1.735   4.441  16.996 -0.1041 -0.4074 -0.6695
  797MPD2    C311743   1.613   4.442  16.930 -0.3014 -0.4905  0.4198
  797MPD2    C411744   1.567   4.329  16.871  0.5764 -0.6334 -0.4426
  797MPD2    C511745   1.656   4.214  16.869  0.1924 -0.2097 -0.1640
  797MPD2     H11746   1.768   4.530  17.049  2.4407 -2.0143  0.4610
  797MPD2    H111747   1.468   4.315  16.828  0.0678  0.8132  0.2474
  797MPD2    H211748   1.835   4.122  16.925 -1.6538 -1.1698 -1.2230
  797MPD2    H311749   1.628   4.122  16.818 -0.2087  0.8913 -1.9278
  797MPD2     N11750   1.536   4.563  16.938  0.1481  0.1123 -0.5018
  797MPD2    H511751   1.588   4.633  16.989  0.4815  0.6563 -1.5887
  797MPD2    N111752   1.950   4.351  17.055 -0.6719  0.3171  0.2516
  797MPD2    H711753   1.959   4.441  17.100  0.8117 -0.1451  0.8632
  798MPD2     C11754   1.985   0.326  16.986  0.7041 -0.4021 -0.3765
  798MPD2    C111755   1.905   0.216  17.011 -0.0354  0.7203  0.4648
  798MPD2    C211756   1.963   0.094  17.062  0.8404 -0.4664 -0.1493
  798MPD2    C311757   2.095   0.090  17.095  0.0480 -0.1208 -0.0504
  798MPD2    C411758   2.171   0.201  17.067 -0.4742  0.9404 -0.0324
  798MPD2    C511759   2.120   0.319  17.024  0.2178  0.2351  0.3095
  798MPD2     H11760   1.908   0.001  17.062 -1.1029  0.6894  2.5657
  798MPD2    H111761   2.279   0.197  17.076 -0.5350  1.7219  1.0370
  798MPD2    H211762   1.934   0.410  16.940 -2.7011 -1.2968  1.8017
  798MPD2    H311763   2.187   0.402  17.007 -1.2329  1.1846 -0.7296
  798MPD2     N11764   2.142   4.689  17.142  0.3567  0.4230 -0.0383
  798MPD2    H511765   2.070   4.619  17.156 -0.3037  1.3937  1.3976
  798MPD2    N111766   1.770   0.229  16.977 -0.4311  0.3000  0.4004
  798MPD2    H711767   1.735   0.305  16.919  0.5491  1.7626  1.7266
  799MPD2     C11768   0.618   1.812  13.861 -0.6663 -0.3778  0.2899
  799MPD2    C111769   0.509   1.739  13.833 -0.1005  0.4885 -0.8068
  799MPD2    C211770   0.421   1.785  13.736  0.4259 -0.2297  0.0398
  799MPD2    C311771   0.456   1.903  13.667  0.3433 -0.0044 -1.1615
  799MPD2    C411772   0.560   1.978  13.706  0.6927 -0.7042  0.3821
  799MPD2    C511773   0.649   1.928  13.796  0.9446 -0.5771 -0.6813
  799MPD2     H11774   0.338   1.722  13.704  2.8265 -1.5565 -3.6203
  799MPD2    H111775   0.587   2.067  13.651  0.1909 -0.1121  1.1156
  799MPD2    H211776   0.695   1.776  13.928 -1.4470 -0.2166  1.2677
  799MPD2    H311777   0.734   1.991  13.821 -0.0311  0.6014 -0.3180
  799MPD2     N11778   0.392   1.945  13.552  0.8617 -0.3451  0.6183
  799MPD2    H511779   0.434   2.026  13.508 -0.5141  1.1902  2.1446
  799MPD2    N111780   0.482   1.614  13.889 -0.0063  0.0319 -0.5393
  799MPD2    H711781   0.408   1.558  13.847  0.0703 -0.0094 -0.6178
  800MPD2     C11782   0.877   3.061  13.813  0.2423  0.8505 -0.9034
  800MPD2    C111783   1.006   3.022  13.802 -0.2264  0.1821  0.0497
  800MPD2    C211784   1.027   2.920  13.714 -0.6231 -0.1040 -0.1576
  800MPD2    C311785   0.922   2.864  13.640  0.4493 -0.1467  0.1677
  800MPD2    C411786   0.791   2.911  13.661 -0.1129 -0.0686 -0.5529
  800MPD2    C511787   0.777   3.002  13.752 -0.1240  0.4060  0.3314
  800MPD2     H11788   1.131   2.894  13.702 -0.3853  0.7944 -0.0693
  800MPD2    H111789   0.702   2.870  13.616 -0.1337 -0.4141 -0.2020
  800MPD2    H211790   0.853   3.142  13.881 -1.3847  1.3730 -2.1079
  800MPD2    H311791   0.675   3.037  13.764  0.3842  1.4968  1.5230
  800MPD2     N11792   0.955   2.773  13.541 -0.0019 -0.6506  0.5493
  800MPD2    H511793   1.050   2.741  13.530  0.1615 -0.1181  0.4117
  800MPD2    N111794   1.105   3.082  13.880  0.8655  0.0107  0.1029
  800MPD2    H711795   1.086   3.173  13.922 -3.0606 -0.4859 -0.6311
  801MPD2     C11796   1.269   3.533  14.312 -0.3894  0.2181  0.4866
  801MPD2    C111797   1.204   3.450  14.225  0.0054  0.0983  0.9243
  801MPD2    C211798   1.085   3.387  14.259  0.8183  0.2615  0.6921
  801MPD2    C311799   1.037   3.385  14.391 -0.0403  0.0259  0.0229
  801MPD2    C411800   1.116   3.452  14.477 -0.0654  0.4336  0.6982
  801MPD2    C511801   1.217   3.531  14.438  0.2864 -0.6534  0.0130
  801MPD2     H11802   1.047   3.325  14.179 -0.6136  0.5465  1.1384
  801MPD2    H111803   1.080   3.459  14.579  0.3206  0.4738  0.8311
  801MPD2    H211804   1.365   3.583  14.299  0.7456 -2.4267 -1.0936
  801MPD2    H311805   1.262   3.590  14.517 -1.0902 -0.1003  0.3920
  801MPD2     N11806   0.927   3.304  14.437 -0.2101 -0.6379 -0.8485
  801MPD2    H511807   0.892   3.325  14.530  2.6175 -0.1847  0.1029
  801MPD2    N111808   1.252   3.408  14.102 -0.3235  0.0264 -0.6659
  801MPD2    H711809   1.193   3.342  14.054  0.9317 -2.1914  0.8081
  802MPD2     C11810   0.413   3.834   0.189 -0.2624  0.3375  0.3114
  802MPD2    C111811   0.363   3.719   0.259  0.6338  0.1439 -0.1416
  802MPD2    C211812   0.359   3.604   0.181 -0.4248 -0.4209 -0.3760
  802MPD2    C311813   0.408   3.597   0.053  0.3754 -0.6783  0.0681
  802MPD2    C411814   0.469   3.709  17.695 -0.6641 -0.2723 -0.4983
  802MPD2    C511815   0.466   3.826   0.062  0.4022 -0.4455 -0.2298
  802MPD2     H11816   0.311   3.513   0.216 -0.9340  0.0891  0.2467
  802MPD2    H111817   0.518   3.709  17.598  1.2750  0.1323  0.4885
  802MPD2    H211818   0.400   3.937   0.219  0.7259  0.4829  0.2412
  802MPD2    H311819   0.472   3.919   0.007  1.4331 -0.1675  0.3568
  802MPD2     N11820   0.392   3.477  17.674 -0.2878  0.7029  0.2526
  802MPD2    H511821   0.356   3.399   0.034 -0.2804  2.2967  2.4927
  802MPD2    N111822   0.305   3.719   0.385  0.4566 -0.6425 -0.2994
  802MPD2    H711823   0.266   3.629   0.410  0.5618 -0.7911 -0.6707
  803MPD2     C11824   1.944   2.466  11.599 -0.6507 -0.2259  0.6795
  803MPD2    C111825   1.985   2.551  11.699  0.0185 -0.5836  0.1997
  803MPD2    C211826   1.910   2.550  11.817  0.0417  0.6957 -0.2874
  803MPD2    C311827   1.805   2.464  11.834 -0.8324 -0.3928  0.1867
  803MPD2    C411828   1.768   2.381  11.732  0.7605 -0.7760  0.6863
  803MPD2    C511829   1.835   2.385  11.616  0.3774 -0.1882  0.0593
  803MPD2     H11830   1.928   2.624  11.895  1.2145 -0.5447  0.6034
  803MPD2    H111831   1.679   2.319  11.738 -0.1921  0.5440  0.3269
  803MPD2    H211832   1.991   2.462  11.502  1.1819 -2.1032  1.6446
  803MPD2    H311833   1.808   2.318  11.536  0.1118 -0.2196  0.1733
  803MPD2     N11834   1.720   2.465  11.945 -0.0663 -0.0051  0.0713
  803MPD2    H511835   1.629   2.421  11.934  0.7579 -1.6981  0.0824
  803MPD2    N111836   2.102   2.636  11.696 -0.7619 -0.1250  0.3658
  803MPD2    H711837   2.122   2.687  11.782  1.3444  0.9083 -0.7243
  804MPD2     C11838   1.060   3.146  16.550  0.4454 -0.3526 -0.8817
  804MPD2    C111839   0.995   3.146  16.676 -0.2340  0.3019 -0.0719
  804MPD2    C211840   1.048   3.229  16.776 -0.6402 -0.2087 -0.5056
  804MPD2    C311841   1.152   3.322  16.754 -0.4232 -0.0146  0.6930
  804MPD2    C411842   1.208   3.320  16.624  0.1916 -0.4627 -0.2213
  804MPD2    C511843   1.160   3.241  16.522  0.1139  0.0817  0.3431
  804MPD2     H11844   1.011   3.225  16.878 -0.1988  1.0726 -0.2922
  804MPD2    H111845   1.285   3.390  16.596 -1.0810  0.8196 -0.5415
  804MPD2    H211846   1.026   3.088  16.465  1.5230 -2.0126 -0.1822
  804MPD2    H311847   1.208   3.239  16.425 -1.0840 -0.3934 -0.2556
  804MPD2     N11848   1.220   3.382  16.860 -0.0917 -0.7379 -0.3910
  804MPD2    H511849   1.186   3.363  16.954  1.6551  0.8257  0.5649
  804MPD2    N111850   0.880   3.065  16.710 -0.8895 -0.0270 -0.2628
  804MPD2    H711851   0.843   3.076  16.803 -1.3086  1.4809 -0.6124
  805MPD2     C11852   0.149   1.579  14.856  0.2543  0.4644  0.3717
  805MPD2    C111853   0.236   1.669  14.808  0.0496  0.6658 -0.1070
  805MPD2    C211854   0.341   1.712  14.894  0.8514  0.0349 -0.0076
  805MPD2    C311855   0.358   1.661  15.019 -0.1673 -0.2094 -0.2356
  805MPD2    C411856   0.262   1.573  15.068  0.0630 -0.1016  0.4855
  805MPD2    C511857   0.162   1.529  14.985 -0.2293 -0.5025 -0.4073
  805MPD2     H11858   0.414   1.788  14.867  1.1892 -0.4863 -0.5866
  805MPD2    H111859   0.267   1.525  15.164 -1.0150  0.4188  0.8062
  805MPD2    H211860   0.058   1.548  14.806  0.2540 -2.3628  2.0853
  805MPD2    H311861   0.102   1.445  15.018 -0.9891 -0.3293 -1.3451
  805MPD2     N11862   0.474   1.699  15.094 -0.0008 -0.6584 -0.0789
  805MPD2    H511863   0.539   1.763  15.049 -0.1366 -0.1347  0.4621
  805MPD2    N111864   0.217   1.734  14.684  0.7097  0.2857  0.4881
  805MPD2    H711865   0.134   1.706  14.633  1.1495  0.4719 -0.3224
  806MPD2     C11866   1.257   0.536  17.490  0.5162  0.0965 -0.4135
  806MPD2    C111867   1.261   0.634  17.593  0.1777  0.3508 -0.1078
  806MPD2    C211868   1.175   0.738  17.590 -0.0837  0.1476 -0.4411
  806MPD2    C311869   1.081   0.756  17.486 -0.4031 -0.1663  0.3448
  806MPD2    C411870   1.083   0.667  17.385  0.4457  0.3189 -0.4230
  806MPD2    C511871   1.164   0.556  17.389  0.3867  0.8996  0.2019
  806MPD2     H11872   1.168   0.807  17.673 -3.0332 -2.4967  1.5118
  806MPD2    H111873   1.023   0.678  17.295 -0.4938  0.6003  0.2456
  806MPD2    H211874   1.313   0.444  17.502 -1.1848 -0.9712 -0.6932
  806MPD2    H311875   1.149   0.484  17.310  1.6576  1.0230 -0.1551
  806MPD2     N11876   0.992   0.861  17.493  0.2308 -0.0710 -0.0511
  806MPD2    H511877   1.010   0.929  17.566  0.9000 -0.7149  0.3852
  806MPD2    N111878   1.340   0.608   0.009  0.0011  0.0514  0.1684
  806MPD2    H711879   1.372   0.513   0.023 -0.1403  0.4893  3.5859
  807MPD2     C11880   1.601   0.091   0.520  0.2828  1.0879  0.4746
  807MPD2    C111881   1.549   0.191   0.598 -0.4475  0.6080 -0.1281
  807MPD2    C211882   1.543   0.171   0.740  0.8608  0.2319 -0.0739
  807MPD2    C311883   1.581   0.053   0.798 -0.3116 -0.8333 -0.8194
  807MPD2    C411884   1.634   4.673   0.719 -0.5664  0.4240  0.1340
  807MPD2    C511885   1.640   4.698   0.580 -0.0513 -0.4724 -0.6924
  807MPD2     H11886   1.494   0.248   0.798  1.1474 -0.5512  1.2036
  807MPD2    H111887   1.682   4.581   0.752  0.0528  1.6256  2.5611
  807MPD2    H211888   1.616   0.098   0.413  0.3956  2.5442  0.5802
  807MPD2    H311889   1.695   4.627   0.519  1.2980 -0.7017  0.7873
  807MPD2     N11890   1.561   0.041   0.941  0.2790  0.5412  0.3259
  807MPD2    H511891   1.508   0.114   0.986 -0.1206  0.9497 -0.8037
  807MPD2    N111892   1.537   0.327   0.545  0.1465  0.0881  0.3792
  807MPD2    H711893   1.537   0.399   0.616  1.3505 -0.8202  1.3099
  808MPD2     C11894   1.600   2.576  10.311 -0.8750  0.1371  0.0119
  808MPD2    C111895   1.637   2.448  10.284 -0.2639  0.2115  0.5217
  808MPD2    C211896   1.770   2.413  10.276  0.1302  0.2885  0.0024
  808MPD2    C311897   1.872   2.505  10.310 -0.4711  0.3941  1.0021
  808MPD2    C411898   1.833   2.632  10.348 -0.1177 -0.2881  0.2960
  808MPD2    C511899   1.698   2.670  10.334  0.0751  0.2243  0.6215
  808MPD2     H11900   1.802   2.312  10.251  1.0419  0.3099  1.0814
  808MPD2    H111901   1.899   2.718  10.353 -0.7757  0.3480 -1.9612
  808MPD2    H211902   1.499   2.615  10.306 -0.9086  0.1876  1.1236
  808MPD2    H311903   1.670   2.772  10.354 -1.8280 -0.4574  1.4236
  808MPD2     N11904   2.009   2.468  10.307 -0.1076  0.1546  0.4359
  808MPD2    H511905   2.074   2.545  10.316 -0.7289  0.6591  0.5750
  808MPD2    N111906   1.544   2.345  10.252 -0.7386 -0.7315 -0.4099
  808MPD2    H711907   1.590   2.262  10.216 -0.1948 -0.2811 -0.7786
  809MPD2     C11908   2.399   2.192   9.562  0.4005 -0.4461  0.0075
  809MPD2    C111909   2.453   2.293   9.625 -0.1628 -0.1880  0.1529
  809MPD2    C211910   2.467   2.288   9.762 -0.0739  0.7518  0.1438
  809MPD2    C311911   2.419   2.176   9.840 -0.2982  1.2361  0.1483
  809MPD2    C411912   2.369   2.069   9.773  0.1856  0.0048  0.0689
  809MPD2    C511913   2.364   2.080   9.637 -0.9701 -0.3910 -0.2285
  809MPD2     H11914   2.517   2.373   9.808  0.3990  0.6202 -0.1271
  809MPD2    H111915   2.324   1.979   9.813  0.4746 -0.1948 -0.0515
  809MPD2    H211916   2.385   2.180   9.455 -2.0110 -2.7493  0.5542
  809MPD2    H311917   2.324   1.988   9.597  0.9634 -0.4534 -2.0489
  809MPD2     N11918   2.423   2.166   9.976  0.0375  0.6083 -0.0236
  809MPD2    H511919   2.382   2.085  10.023 -0.6573  1.3915  0.7356
  809MPD2    N111920   2.499   2.407   9.561 -0.0390 -0.4360  0.2430
  809MPD2    H711921   2.556   2.464   9.623  0.9628  1.4952 -2.4282
  810MPD2     C11922   1.393   1.917  10.545  0.6120 -0.7468 -0.0563
  810MPD2    C111923   1.292   2.004  10.508  0.4060 -0.4190  0.2612
  810MPD2    C211924   1.306   2.135  10.557 -0.2648 -0.4900  0.8637
  810MPD2    C311925   1.421   2.174  10.619 -0.0212 -0.7229  0.2743
  810MPD2    C411926   1.525   2.089  10.636 -0.3042  0.0831  0.3186
  810MPD2    C511927   1.509   1.960  10.602 -0.0575  0.1252  0.1068
  810MPD2     H11928   1.231   2.208  10.532  0.2096 -0.6338 -1.0236
  810MPD2    H111929   1.613   2.121  10.690  0.7907 -2.1215 -0.1877
  810MPD2    H211930   1.389   1.812  10.518  1.2261 -1.2599  1.8408
  810MPD2    H311931   1.589   1.894  10.635  1.2853  1.5886 -0.2600
  810MPD2     N11932   1.428   2.317  10.656  0.3068  0.4851  0.3279
  810MPD2    H511933   1.517   2.360  10.679  1.0750 -1.2087  0.4919
  810MPD2    N111934   1.185   1.945  10.438  0.1672  0.1948  0.2064
  810MPD2    H711935   1.192   1.846  10.420  1.1631 -0.0474  1.9781
  811MPD2     C11936   0.335   1.955  10.015 -0.0721  0.4526 -0.4424
  811MPD2    C111937   0.456   2.014  10.014 -0.2143  0.3063  0.1933
  811MPD2    C211938   0.473   2.127   9.936  0.1478  0.7715 -0.0685
  811MPD2    C311939   0.371   2.185   9.872 -0.1297 -0.3654 -0.0066
  811MPD2    C411940   0.245   2.122   9.874  0.2607 -0.5093 -0.3060
  811MPD2    C511941   0.230   2.008   9.946  0.2426  0.2275 -0.2688
  811MPD2     H11942   0.566   2.182   9.932  0.4708  0.4288  2.4944
  811MPD2    H111943   0.154   2.157   9.827  0.9301 -0.2706 -1.4354
  811MPD2    H211944   0.308   1.870  10.078  0.0445  0.1782 -0.7612
  811MPD2    H311945   0.134   1.958   9.953  0.4902 -1.0314 -5.2832
  811MPD2     N11946   0.385   2.315   9.810 -0.5486 -0.4807  0.1262
  811MPD2    H511947   0.475   2.362   9.821 -2.1008  2.4188  0.3674
  811MPD2    N111948   0.552   1.952  10.105  0.3281  0.3564  0.0163
  811MPD2    H711949   0.525   1.867  10.153  0.5717 -0.9159 -2.1388
  812MPD2     C11950   4.653   2.202  11.993  0.1410 -0.0839 -0.0246
  812MPD2    C111951   4.548   2.248  12.063  0.2307  0.4269 -0.2020
  812MPD2    C211952   4.460   2.160  12.126  0.6439 -0.1977  0.2996
  812MPD2    C311953   4.478   2.025  12.123  0.0606 -0.0117  0.1794
  812MPD2    C411954   4.577   1.978  12.041  0.0822  0.6898 -0.0827
  812MPD2    C511955   4.668   2.063  11.986  0.5172 -0.4162  0.3803
  812MPD2     H11956   4.366   2.195  12.168  0.3946  0.1447 -0.5282
  812MPD2    H111957   4.595   1.872  12.029 -2.2138  0.3225 -0.1704
  812MPD2    H211958   0.003   2.263  11.941 -0.4264 -0.6460 -1.4883
  812MPD2    H311959   0.019   2.020  11.920  0.3322  0.2330 -0.2497
  812MPD2     N11960   4.381   1.950  12.192 -0.7526  0.4108  0.4481
  812MPD2    H511961   4.319   2.005  12.250 -0.6219  0.7212  0.2937
  812MPD2    N111962   4.528   2.386  12.076  0.4442  0.0300  0.3819
  812MPD2    H711963   4.601   2.442  12.033  0.8900 -0.3970  0.5794
  813MPD2     C11964   3.517   4.138  12.234  0.1192  0.2693 -0.0909
  813MPD2    C111965   3.412   4.205  12.184 -0.6124  0.0137  0.1426
  813MPD2    C211966   3.286   4.173  12.229 -0.2584 -0.0308 -0.8122
  813MPD2    C311967   3.268   4.083  12.334  0.3734  0.4220  0.5462
  813MPD2    C411968   3.377   4.019  12.391 -0.0771  0.6804 -0.0586
  813MPD2    C511969   3.498   4.038  12.327 -0.7050 -0.3979 -1.1513
  813MPD2     H11970   3.194   4.212  12.188 -1.1233 -0.6762  0.5099
  813MPD2    H111971   3.369   3.957  12.480  1.7037  1.8033  0.8849
  813MPD2    H211972   3.614   4.154  12.188  0.1187 -2.1699 -0.9561
  813MPD2    H311973   3.583   3.984  12.367 -1.0843 -0.4568 -0.4262
  813MPD2     N11974   3.144   4.076  12.400 -0.3640  0.7748  0.4295
  813MPD2    H511975   3.076   4.150  12.385  0.5591  1.1533 -1.8911
  813MPD2    N111976   3.420   4.312  12.095 -0.2967 -0.1647  0.0717
  813MPD2    H711977   3.510   4.333  12.052  0.3715 -1.1817  0.9769
  814MPD2     C11978   3.812   0.645  11.954  0.6968  0.3848 -0.0905
  814MPD2    C111979   3.841   0.708  11.828  0.4808 -0.2660  0.2042
  814MPD2    C211980   3.923   0.822  11.827  0.0821 -0.2022 -0.2807
  814MPD2    C311981   3.946   0.888  11.948  0.6850  0.2324 -0.4558
  814MPD2    C411982   3.912   0.827  12.071 -0.4800  0.4897  0.7671
  814MPD2    C511983   3.852   0.707  12.071  0.6921  0.3516  0.1207
  814MPD2     H11984   3.960   0.855  11.731  1.9450  0.2442  0.5997
  814MPD2    H111985   3.931   0.882  12.162  2.2948  1.2245 -0.2608
  814MPD2    H211986   3.754   0.554  11.964  1.3302 -0.1739 -1.4661
  814MPD2    H311987   3.827   0.664  12.167  1.7146  0.4263  0.4230
  814MPD2     N11988   4.008   1.011  11.951  0.6090 -0.2087  0.1179
  814MPD2    H511989   4.032   1.052  12.041  0.3191 -0.3065  0.2393
  814MPD2    N111990   3.806   0.644  11.708  0.6273  0.4555 -0.2436
  814MPD2    H711991   3.857   0.681  11.629 -1.1892  2.6785 -0.3941
  815MPD2     C11992   4.373   3.926  11.789 -1.0113  0.3344  0.8492
  815MPD2    C111993   4.374   3.794  11.834 -0.2728 -0.3833 -0.5759
  815MPD2    C211994   4.265   3.744  11.907 -0.0081 -0.2791  0.0295
  815MPD2    C311995   4.162   3.823  11.945  0.2430  0.2619  0.3718
  815MPD2    C411996   4.160   3.952  11.894 -0.9930 -0.0890 -0.2668
  815MPD2    C511997   4.259   3.998  11.812  0.6852  0.3531 -0.6575
  815MPD2     H11998   4.263   3.639  11.932 -0.0493  0.1885  1.9761
  815MPD2    H111999   4.084   4.023  11.925 -0.8003 -0.3237  0.7513
  815MPD2    H212000   4.453   3.964  11.727  0.1053 -2.0696  0.8216
  815MPD2    H312001   4.252   4.099  11.774 -2.2172  1.0998  1.8715
  815MPD2     N12002   4.058   3.761  12.009  0.5897  0.4100 -0.3957
  815MPD2    H512003   4.079   3.671  12.049 -2.9311 -0.0455  0.4684
  815MPD2    N112004   4.484   3.722  11.807 -0.0838 -0.0366  0.3135
  815MPD2    H712005   4.546   3.760  11.736  1.3526 -2.2083  0.4215
  816MPD2     C12006   0.116   2.510  16.955 -0.0205  0.9703 -0.4215
  816MPD2    C112007   0.051   2.504  16.838 -0.0210  0.1226 -0.0044
  816MPD2    C212008   0.127   2.487  16.728  0.1408 -0.5069 -0.7709
  816MPD2    C312009   0.264   2.467  16.733  0.6391 -0.4566 -0.3831
  816MPD2    C412010   0.326   2.469  16.854  0.2586 -0.2280 -0.0669
  816MPD2    C512011   0.251   2.493  16.961  0.8621 -0.3557  1.0726
  816MPD2     H12012   0.089   2.481  16.627  0.6991 -2.9592 -0.8255
  816MPD2    H112013   0.431   2.450  16.870  0.4454  0.3265 -0.6077
  816MPD2    H212014   0.066   2.520  17.051  0.7660 -1.0542  0.1989
  816MPD2    H312015   0.301   2.501  17.056 -1.3068 -1.8609  2.3645
  816MPD2     N12016   0.327   2.455  16.608 -0.1933  0.4711 -0.4007
  816MPD2    H512017   0.276   2.475  16.523  1.6480  0.9724 -1.3911
  816MPD2    N112018   4.633   2.513  16.842 -0.5488 -0.4256  0.1145
  816MPD2    H712019   4.586   2.496  16.930 -0.0741 -1.4169  0.1713
  817MPD2     C12020   3.817   4.699   9.918  0.1993  0.1876  0.4475
  817MPD2    C112021   3.945   4.690   9.857  0.2917 -0.2546  0.2104
  817MPD2    C212022   3.980   0.075   9.775 -0.5291  0.5799 -0.0632
  817MPD2    C312023   3.906   0.185   9.755  0.2152  0.3976 -0.4968
  817MPD2    C412024   3.787   0.196   9.822  0.2878  0.4313  0.0699
  817MPD2    C512025   3.747   0.088   9.895 -0.6735 -0.3229 -0.7424
  817MPD2     H12026   4.071   0.069   9.715 -0.0614  0.5304  0.6569
  817MPD2    H112027   3.719   0.280   9.816  0.3665  0.5716  1.1551
  817MPD2    H212028   3.759   4.623   9.969  1.6069 -1.3324 -0.2406
  817MPD2    H312029   3.648   0.086   9.939 -0.9204  0.8860 -1.2518
  817MPD2     N12030   3.947   0.277   9.656 -0.0256 -0.7121 -0.5079
  817MPD2    H512031   4.032   0.258   9.604 -0.3333  1.8412 -1.9419
  817MPD2    N112032   4.025   4.578   9.871  0.3770  1.0575 -0.1754
  817MPD2    H712033   4.109   4.577   9.814  0.9301 -2.1609  0.7230
  818MPD2     C12034   3.308   0.254   9.221 -0.4115 -0.7227 -0.1611
  818MPD2    C112035   3.200   0.200   9.282 -0.0810 -0.0777 -0.0170
  818MPD2    C212036   3.184   0.069   9.263  0.2397 -0.2637  0.1365
  818MPD2    C312037   3.267   4.718   9.181  0.0892  0.0366  0.0315
  818MPD2    C412038   3.375   0.057   9.116  0.9098 -0.3428 -0.0198
  818MPD2    C512039   3.391   0.190   9.135 -0.8892  0.0337 -0.2787
  818MPD2     H12040   3.104   0.019   9.317 -0.3125  0.9491  0.4451
  818MPD2    H112041   3.444   0.008   9.048 -0.2443 -1.5356 -0.3255
  818MPD2    H212042   3.332   0.357   9.244  1.9991 -0.9806 -1.5271
  818MPD2    H312043   3.477   0.230   9.083  0.4106 -1.9437  0.3214
  818MPD2     N12044   3.258   4.575   9.176 -0.0315  0.3967  1.2095
  818MPD2    H512045   3.341   4.526   9.143 -1.0036 -0.3689 -0.0857
  818MPD2    N112046   3.120   0.260   9.381  0.4665  0.4666 -0.4597
  818MPD2    H712047   3.045   0.200   9.416 -0.7977  1.3791 -1.5767
  819MPD2     C12048   0.907   1.795  15.006  0.4042  0.2075 -0.5820
  819MPD2    C112049   0.875   1.665  15.020  0.5902  0.3823 -0.8565
  819MPD2    C212050   0.959   1.581  15.104 -0.5731 -0.3754  0.0791
  819MPD2    C312051   1.076   1.639  15.160 -0.3873  0.1080  0.8364
  819MPD2    C412052   1.092   1.772  15.154  0.0086  0.0627 -0.9115
  819MPD2    C512053   1.020   1.845  15.070 -0.0100 -0.3055 -0.1368
  819MPD2     H12054   0.947   1.474  15.114  0.9837 -0.7404 -1.9545
  819MPD2    H112055   1.172   1.822  15.207 -0.0142 -0.4798 -0.3681
  819MPD2    H212056   0.853   1.865  14.943 -0.2489 -0.3551 -0.6551
  819MPD2    H312057   1.052   1.944  15.039 -0.9551  0.1755  0.4196
  819MPD2     N12058   1.167   1.554  15.234  0.2525 -0.0972  0.6111
  819MPD2    H512059   1.162   1.455  15.213 -0.9473 -0.7609  4.0940
  819MPD2    N112060   0.760   1.615  14.952  0.2433  0.3360 -0.1415
  819MPD2    H712061   0.718   1.676  14.883  2.0464 -0.2902 -1.7929
  820MPD2     C12062   0.183   1.464  14.121 -0.8807  0.4715 -0.6596
  820MPD2    C112063   0.248   1.564  14.177  0.3473 -0.2910  0.0752
  820MPD2    C212064   0.310   1.542  14.297 -0.0603 -0.7029 -0.4089
  820MPD2    C312065   0.309   1.421  14.358  0.8382  0.0140  0.0637
  820MPD2    C412066   0.236   1.316  14.297  0.1045 -0.2169 -0.4074
  820MPD2    C512067   0.173   1.336  14.177 -1.0380  0.2541 -0.7029
  820MPD2     H12068   0.357   1.627  14.345  0.0320 -0.9368 -0.0873
  820MPD2    H112069   0.219   1.219  14.342 -1.8276  1.5187  2.6236
  820MPD2    H212070   0.128   1.484  14.029 -0.9525 -1.9625 -1.1302
  820MPD2    H312071   0.121   1.256  14.125  0.9913 -0.3848 -1.7398
  820MPD2     N12072   0.367   1.398  14.483  0.4080  0.0691 -0.5907
  820MPD2    H512073   0.334   1.320  14.540 -0.3166  0.1777 -0.8634
  820MPD2    N112074   0.251   1.691  14.110 -0.5209 -0.5721  0.3906
  820MPD2    H712075   0.224   1.687  14.012  1.3790 -1.1078 -0.1038
  821MPD2     C12076   1.145   2.817  12.807  0.2831  0.8692  0.6807
  821MPD2    C112077   1.192   2.832  12.937  0.2344  0.0255  0.5937
  821MPD2    C212078   1.304   2.895  12.966  0.0185 -0.3896  0.1296
  821MPD2    C312079   1.392   2.931  12.872 -0.8297 -0.2426 -0.1457
  821MPD2    C412080   1.351   2.926  12.744  0.0902  0.3171  0.3288
  821MPD2    C512081   1.225   2.877  12.718 -0.2664  0.1097 -0.6619
  821MPD2     H12082   1.322   2.904  13.072 -0.6834 -0.3267  0.2443
  821MPD2    H112083   1.411   2.964  12.662 -0.9243 -1.5261 -1.2428
  821MPD2    H212084   1.058   2.760  12.778  0.6767 -1.2253  3.6153
  821MPD2    H312085   1.201   2.863  12.613  0.1440 -1.1791 -0.5856
  821MPD2     N12086   1.517   3.000  12.894 -0.4650  0.5365  0.1011
  821MPD2    H512087   1.574   3.024  12.813  0.2084  1.3414  0.8226
  821MPD2    N112088   1.122   2.768  13.044 -0.1404 -0.6302 -0.0822
  821MPD2    H712089   1.166   2.777  13.135 -0.6735 -0.0930  0.1266
  822MPD2     C12090   1.951   2.577  15.531 -0.0776 -0.9626 -0.3635
  822MPD2    C112091   1.935   2.519  15.660  0.0623  0.3641 -0.7237
  822MPD2    C212092   1.870   2.591  15.757 -0.0581 -0.3832 -0.0238
  822MPD2    C312093   1.808   2.718  15.740 -0.1471  0.4177 -0.4356
  822MPD2    C412094   1.807   2.755  15.608 -0.0003 -0.0624  0.0340
  822MPD2    C512095   1.888   2.693  15.514 -0.7396  0.1293  0.1720
  822MPD2     H12096   1.870   2.553  15.858  1.9037 -1.2727 -0.3556
  822MPD2    H112097   1.764   2.851  15.581 -0.6519 -0.4038 -0.1293
  822MPD2    H212098   1.996   2.532  15.443  3.5264  0.6148  0.6841
  822MPD2    H312099   1.902   2.740  15.417  3.3671 -1.6978 -0.1209
  822MPD2     N12100   1.750   2.786  15.847  0.2822  0.3890  0.0797
  822MPD2    H512101   1.757   2.746  15.940  2.6989 -0.5764 -0.5083
  822MPD2    N112102   1.997   2.402  15.699 -0.6038  0.8028 -0.0736
  822MPD2    H712103   2.013   2.389  15.799 -1.8681 -0.1508 -0.0017
  823MPD2     C12104   1.385   2.971  16.611 -0.5472 -0.7052  0.4805
  823MPD2    C112105   1.431   2.888  16.510  0.4565  0.1716 -0.3805
  823MPD2    C212106   1.417   2.753  16.519  0.6182 -0.0791 -0.1302
  823MPD2    C312107   1.373   2.690  16.636  0.7910  0.2260 -0.4828
  823MPD2    C412108   1.344   2.768  16.746 -0.2025 -0.2232  0.4160
  823MPD2    C512109   1.344   2.906  16.727  0.4750 -0.3647  0.0817
  823MPD2     H12110   1.454   2.698  16.434  0.7433  0.1526 -0.2254
  823MPD2    H112111   1.290   2.728  16.832  0.9856  0.8297  1.6644
  823MPD2    H212112   1.398   3.078  16.615  1.0100 -0.7954 -2.3966
  823MPD2    H312113   1.302   2.970  16.804  1.6549  0.6374 -0.1127
  823MPD2     N12114   1.371   2.547  16.651  0.6382  0.3785  0.4084
  823MPD2    H512115   1.317   2.518  16.732 -2.2033  0.1237 -1.5655
  823MPD2    N112116   1.496   2.945  16.396  0.3551  0.1522  0.6931
  823MPD2    H712117   1.527   3.041  16.401 -0.6901  0.5308 -0.0693
  824MPD2     C12118   2.102   1.735  15.313  0.1238 -0.2549  0.5648
  824MPD2    C112119   2.207   1.768  15.393 -0.5080 -0.7468 -0.6082
  824MPD2    C212120   2.321   1.699  15.370 -0.0570  0.2147  0.8825
  824MPD2    C312121   2.327   1.595  15.277  0.3142 -1.3007 -0.2317
  824MPD2    C412122   2.216   1.562  15.195 -0.4166 -0.7778  0.4552
  824MPD2    C512123   2.102   1.637  15.217  0.0522  0.3189 -0.2253
  824MPD2     H12124   2.406   1.722  15.433 -1.0977 -0.3491  2.4792
  824MPD2    H112125   2.225   1.493  15.111 -0.5963 -2.6798  1.9907
  824MPD2    H212126   2.011   1.795  15.318  0.9306  1.1591 -1.5609
  824MPD2    H312127   2.010   1.630  15.161  0.3787  1.4380 -0.8962
  824MPD2     N12128   2.453   1.534  15.256 -0.2823 -0.2704  0.3345
  824MPD2    H512129   2.537   1.577  15.292 -0.5273  2.0334 -1.8199
  824MPD2    N112130   2.190   1.873  15.489 -0.4859  0.6321 -0.5896
  824MPD2    H712131   2.102   1.923  15.484 -0.4085  0.7629 -0.6604
  825MPD2     C12132   3.170   1.559  14.752 -0.4357  0.3285 -0.5838
  825MPD2    C112133   3.077   1.613  14.837  0.1044  0.1492  0.9463
  825MPD2    C212134   3.083   1.743  14.865  0.2356 -0.0921  0.0236
  825MPD2    C312135   3.175   1.822  14.805  0.2058 -0.0341 -0.2788
  825MPD2    C412136   3.260   1.772  14.710  0.4063  0.6175  0.1647
  825MPD2    C512137   3.248   1.641  14.680 -0.1422  0.1869  0.8009
  825MPD2     H12138   3.014   1.786  14.936  0.2902 -0.2598  0.1773
  825MPD2    H112139   3.334   1.829  14.656 -1.6218  0.8270 -2.3673
  825MPD2    H212140   3.162   1.454  14.727  2.4707  0.8596 -3.7279
  825MPD2    H312141   3.313   1.598  14.605 -2.3426 -1.1922 -0.3205
  825MPD2     N12142   3.197   1.963  14.831 -0.5922 -0.2619  0.6524
  825MPD2    H512143   3.265   2.007  14.771  0.6749 -1.4358  1.2434
  825MPD2    N112144   2.987   1.522  14.902 -0.0234  0.2807 -0.2282
  825MPD2    H712145   2.990   1.425  14.871  2.3141  0.6582 -1.2285
  826MPD2     C12146   2.587   1.884  13.499  0.0938 -0.1606 -0.8681
  826MPD2    C112147   2.477   1.864  13.432 -0.1620  0.9611 -0.1093
  826MPD2    C212148   2.365   1.936  13.462  0.5624 -0.3220 -0.1274
  826MPD2    C312149   2.359   2.015  13.581  0.3691  1.0348 -0.2724
  826MPD2    C412150   2.473   2.015  13.663  0.8094 -0.0783  0.3909
  826MPD2    C512151   2.586   1.946  13.619  0.1293  0.0450 -0.0437
  826MPD2     H12152   2.275   1.930  13.402  1.0896 -1.2146 -0.8252
  826MPD2    H112153   2.467   2.053  13.765 -1.1880  0.0399  0.2171
  826MPD2    H212154   2.681   1.837  13.472  0.1738  0.5446 -1.8493
  826MPD2    H312155   2.677   1.945  13.679  0.9278  0.6028 -1.2453
  826MPD2     N12156   2.245   2.086  13.626 -0.5355 -0.8169  0.1645
  826MPD2    H512157   2.251   2.122  13.720  1.3003  0.4268 -0.4144
  826MPD2    N112158   2.473   1.784  13.314 -0.7736  0.5314  0.4897
  826MPD2    H712159   2.379   1.789  13.277 -0.6715 -0.9660  0.0162
  827MPD2     C12160   3.861   3.014   9.964 -0.0752  0.3746  0.3281
  827MPD2    C112161   3.753   2.952  10.023 -0.1704 -0.9115 -0.8358
  827MPD2    C212162   3.704   2.833   9.969 -0.9066 -0.4518  0.1132
  827MPD2    C312163   3.752   2.777   9.863 -0.4663  0.0131  0.0072
  827MPD2    C412164   3.859   2.833   9.804  0.5194 -0.2582  0.3047
  827MPD2    C512165   3.909   2.944   9.858  0.8779 -0.1727  0.8613
  827MPD2     H12166   3.608   2.796  10.003 -0.6337 -0.4379  0.8999
  827MPD2    H112167   3.915   2.779   9.729 -0.9787 -2.2728  0.6254
  827MPD2    H212168   3.897   3.112   9.990 -0.0656  1.2603 -2.9794
  827MPD2    H312169   4.002   2.978   9.813  0.8376 -0.3572  0.6371
  827MPD2     N12170   3.693   2.656   9.831  1.1697  0.0427  0.8208
  827MPD2    H512171   3.618   2.616   9.886  2.3538  0.4485  2.7663
  827MPD2    N112172   3.693   3.014  10.135  0.1110 -0.3208  0.6278
  827MPD2    H712173   3.730   3.105  10.159  2.0681 -1.3989  1.7245
  828MPD2     C12174   2.141   3.215  12.169 -0.7639  0.4145 -0.1233
  828MPD2    C112175   2.074   3.259  12.047 -0.2300  0.1900 -0.3449
  828MPD2    C212176   2.159   3.275  11.940 -0.4854 -0.0143  0.7250
  828MPD2    C312177   2.298   3.259  11.948 -0.6300 -0.2249 -0.5241
  828MPD2    C412178   2.357   3.232  12.069 -0.4418  0.7024 -0.3997
  828MPD2    C512179   2.273   3.207  12.178  0.0280 -0.1280  0.1083
  828MPD2     H12180   2.112   3.299  11.846 -0.9714  0.6568  1.1342
  828MPD2    H112181   2.459   3.196  12.071 -0.7354 -0.0970  0.4610
  828MPD2    H212182   2.091   3.184  12.260 -1.0154 -0.4300 -0.5493
  828MPD2    H312183   2.319   3.167  12.268 -0.0078 -1.1400 -0.3171
  828MPD2     N12184   2.381   3.275  11.837 -0.6676  0.0911  0.2688
  828MPD2    H512185   2.482   3.287  11.845 -0.5025 -0.2797 -1.1453
  828MPD2    N112186   1.938   3.259  12.031 -0.2633 -0.2993 -0.5480
  828MPD2    H712187   1.918   3.275  11.932 -3.1765  0.9337  0.2528
  829MPD2     C12188   1.555   3.028  11.319 -0.0261  0.0179  0.0561
  829MPD2    C112189   1.459   3.001  11.415 -0.0492  0.3464  0.0831
  829MPD2    C212190   1.479   3.042  11.541  1.0280 -0.3341  0.1146
  829MPD2    C312191   1.591   3.117  11.580  0.8338 -0.3218 -0.1512
  829MPD2    C412192   1.697   3.134  11.485  0.2221 -0.3316 -0.0664
  829MPD2    C512193   1.670   3.086  11.357  0.0036  0.0311  0.1968
  829MPD2     H12194   1.402   3.005  11.608  1.6751  0.0065  1.0381
  829MPD2    H112195   1.795   3.176  11.503  1.3041 -2.4974 -0.8863
  829MPD2    H212196   1.543   2.998  11.216  1.1317  0.6383 -0.2510
  829MPD2    H312197   1.738   3.106  11.276  0.7230 -1.5350  0.4292
  829MPD2     N12198   1.608   3.162  11.708  0.4112 -0.2194 -0.2395
  829MPD2    H512199   1.696   3.202  11.737  0.6976 -1.8371  1.0672
  829MPD2    N112200   1.350   2.930  11.366 -0.0621 -0.0644  0.1455
  829MPD2    H712201   1.323   2.951  11.270 -1.0314  0.6749  0.5805
  830MPD2     C12202   1.550   0.789  15.386  0.2576  0.3412 -0.3756
  830MPD2    C112203   1.491   0.890  15.310 -0.0054  0.7722 -0.8578
  830MPD2    C212204   1.488   0.874  15.170 -0.0916 -0.1497  0.3365
  830MPD2    C312205   1.540   0.760  15.109 -0.1890  0.3315 -0.4775
  830MPD2    C412206   1.588   0.657  15.187  0.3714 -0.1624  0.0367
  830MPD2    C512207   1.585   0.670  15.321 -0.1096 -0.4392 -0.9530
  830MPD2     H12208   1.460   0.956  15.104 -0.9695 -1.4072 -0.8665
  830MPD2    H112209   1.604   0.561  15.140  0.3217  0.7362 -1.8231
  830MPD2    H212210   1.539   0.790  15.494  0.7752 -0.8660 -0.3190
  830MPD2    H312211   1.624   0.589  15.381  2.0266 -0.2831 -2.1568
  830MPD2     N12212   1.546   0.765  14.969  0.4849 -0.3416 -0.3265
  830MPD2    H512213   1.511   0.850  14.925 -0.2057 -0.5704 -0.2161
  830MPD2    N112214   1.445   1.013  15.370 -0.0578  0.2473  0.7600
  830MPD2    H712215   1.479   1.027  15.464 -0.7179  1.8864  0.7495
  831MPD2     C12216   1.925   2.766  16.269 -0.4130  0.3413  0.4014
  831MPD2    C112217   1.949   2.690  16.160  0.2939  0.5681 -0.3275
  831MPD2    C212218   1.854   2.586  16.131  0.2551  1.1106  0.7288
  831MPD2    C312219   1.741   2.578  16.215  0.0990  0.7776 -0.1816
  831MPD2    C412220   1.727   2.656  16.325 -0.0403  0.3817  0.3639
  831MPD2    C512221   1.820   2.747  16.350 -0.2453  0.0363  0.2049
  831MPD2     H12222   1.864   2.512  16.052 -0.3007  0.2883  1.4245
  831MPD2    H112223   1.647   2.645  16.398 -1.0806 -1.1935 -1.0150
  831MPD2    H212224   1.997   2.842  16.298  0.7586 -0.9856  0.9771
  831MPD2    H312225   1.815   2.808  16.439 -0.3722  0.8176 -0.3447
  831MPD2     N12226   1.626   2.498  16.190  0.2111 -0.1779 -0.4365
  831MPD2    H512227   1.560   2.490  16.266  0.7655 -0.2430  0.0408
  831MPD2    N112228   2.070   2.703  16.087  0.4549 -0.0176 -0.2990
  831MPD2    H712229   2.126   2.786  16.100 -1.9257  1.5902 -0.2312
  832MPD2     C12230   0.182   3.409  16.823  0.3852  0.1771  0.2695
  832MPD2    C112231   0.166   3.534  16.772 -0.1280 -0.0587 -0.0433
  832MPD2    C212232   0.073   3.552  16.667  0.2665 -0.0290  0.6865
  832MPD2    C312233   4.719   3.445  16.634  0.0521 -0.4227 -0.3797
  832MPD2    C412234   0.026   3.312  16.677 -0.0703  0.2304  0.2107
  832MPD2    C512235   0.113   3.293  16.777  0.1487  0.5483  0.8754
  832MPD2     H12236   0.050   3.651  16.628 -0.1613 -0.1158  0.7172
  832MPD2    H112237   4.687   3.231  16.641 -0.2536  1.1051 -1.4730
  832MPD2    H212238   0.263   3.393  16.893 -1.6067 -2.2264  2.0042
  832MPD2    H312239   0.135   3.200  16.829 -1.4779 -0.2758  0.0886
  832MPD2     N12240   4.623   3.449  16.539 -0.0068  0.5406 -1.2909
  832MPD2    H512241   4.574   3.361  16.527  1.6712 -0.5279 -0.2007
  832MPD2    N112242   0.245   3.631  16.834  0.1415  0.6441 -0.4286
  832MPD2    H712243   0.306   3.600  16.909  0.9164  1.2348 -0.8195
  833MPD2     C12244   1.770   0.355  12.032 -0.7930 -0.2597  0.9038
  833MPD2    C112245   1.858   0.446  11.975 -0.0685  0.0940  0.0716
  833MPD2    C212246   1.899   0.425  11.842  0.6510  0.4768 -0.2039
  833MPD2    C312247   1.878   0.315  11.775  0.6297 -0.4106  0.4283
  833MPD2    C412248   1.802   0.221  11.840 -0.4732 -0.6628  0.0219
  833MPD2    C512249   1.740   0.245  11.958 -0.4269 -0.3002  0.6631
  833MPD2     H12250   1.945   0.509  11.791  0.4470  1.8840  1.8974
  833MPD2    H112251   1.775   0.128  11.790 -0.8147  0.0945 -1.2213
  833MPD2    H212252   1.738   0.351  12.136 -2.0037 -2.6968  0.4338
  833MPD2    H312253   1.677   0.171  12.007  0.0628 -0.9785  0.2657
  833MPD2     N12254   1.920   0.290  11.644  0.4942 -0.3667 -0.4397
  833MPD2    H512255   1.879   0.209  11.599 -0.8655  0.9338 -1.5534
  833MPD2    N112256   1.897   0.558  12.046  0.3073  0.2111  0.3126
  833MPD2    H712257   1.871   0.562  12.144  1.3976 -0.2891  0.6228
  834MPD2     C12258   1.834   0.507  10.621  0.6830  0.5474  0.2569
  834MPD2    C112259   1.966   0.475  10.641  0.1842 -0.8454 -0.3438
  834MPD2    C212260   2.008   0.442  10.770 -0.2941 -0.1998  0.5332
  834MPD2    C312261   1.925   0.440  10.878  0.0441 -0.0383  0.1761
  834MPD2    C412262   1.795   0.467  10.854 -0.1598 -0.0404  0.1912
  834MPD2    C512263   1.750   0.502  10.726 -0.3147  0.2734 -0.1936
  834MPD2     H12264   2.111   0.417  10.792  0.2978  0.3758 -1.6556
  834MPD2    H112265   1.715   0.448  10.926  0.5350 -1.1043  0.6733
  834MPD2    H212266   1.789   0.525  10.524 -1.1226 -0.9440  0.8251
  834MPD2    H312267   1.645   0.520  10.705 -0.7452 -1.0933  0.7469
  834MPD2     N12268   1.986   0.408  11.002  0.2847 -0.4179 -0.4765
  834MPD2    H512269   2.083   0.379  10.993  1.1919  1.4435  3.6226
  834MPD2    N112270   2.043   0.456  10.524 -0.7858 -0.0715  0.2537
  834MPD2    H712271   1.998   0.447  10.434  3.4905  0.4226 -1.9160
  835MPD2     C12272   2.988   3.226  11.068  0.4805 -0.3033 -0.5189
  835MPD2    C112273   2.883   3.294  11.131  0.0738  0.2151  0.2772
  835MPD2    C212274   2.917   3.374  11.233 -0.6568  0.4344 -0.0556
  835MPD2    C312275   3.043   3.371  11.291 -0.3254  0.1065 -0.1754
  835MPD2    C412276   3.142   3.289  11.234  0.1495  0.2580 -0.3288
  835MPD2    C512277   3.115   3.215  11.126 -0.2091  0.5098  0.5813
  835MPD2     H12278   2.840   3.428  11.287 -1.2596 -1.5320  1.0659
  835MPD2    H112279   3.241   3.286  11.276 -0.1282 -1.9221  0.1418
  835MPD2    H212280   2.968   3.169  10.978  1.6096 -0.4107 -0.7007
  835MPD2    H312281   3.193   3.145  11.096 -1.8728 -0.9753 -0.2905
  835MPD2     N12282   3.086   3.436  11.408  0.1267  0.3180 -0.2801
  835MPD2    H512283   3.180   3.418  11.441 -0.1155 -2.4918 -1.1325
  835MPD2    N112284   2.756   3.293  11.081 -0.2121 -0.3012  0.1320
  835MPD2    H712285   2.695   3.360  11.127 -2.3482 -1.8377 -0.4481
  836MPD2     C12286   2.692   3.988  11.802  0.9874 -0.4913 -0.3268
  836MPD2    C112287   2.720   3.863  11.853  0.2822  0.2449 -0.3207
  836MPD2    C212288   2.621   3.795  11.924  0.0987  0.3145 -0.2209
  836MPD2    C312289   2.491   3.849  11.939 -0.0079  0.3668  0.5225
  836MPD2    C412290   2.461   3.975  11.879  0.8545  0.5663 -0.6483
  836MPD2    C512291   2.566   4.041  11.824 -0.6391  0.1937  0.4247
  836MPD2     H12292   2.648   3.698  11.966  2.4651  1.2212  0.4008
  836MPD2    H112293   2.360   4.015  11.878  0.2175 -0.9995  1.5271
  836MPD2    H212294   2.762   4.057  11.757  1.2253 -1.9760 -2.2314
  836MPD2    H312295   2.551   4.140  11.783  0.8866  1.0937  2.0873
  836MPD2     N12296   2.377   3.782  11.989  0.3151 -0.5914  0.3233
  836MPD2    H512297   2.285   3.819  11.968  0.8440  0.4478 -0.1565
  836MPD2    N112298   2.847   3.807  11.823  0.0640  0.0833 -0.6089
  836MPD2    H712299   2.910   3.862  11.765 -0.9738  0.2472 -1.5768
  837MPD2     C12300   0.729   2.939  10.042 -0.1659  0.9365 -1.4772
  837MPD2    C112301   0.654   2.965   9.933  0.4248 -0.8779  0.2465
  837MPD2    C212302   0.629   3.094   9.899  0.5168 -0.8923 -0.3623
  837MPD2    C312303   0.680   3.203   9.968  1.0346 -0.0976  0.1781
  837MPD2    C412304   0.756   3.171  10.078 -0.3381 -0.4046  0.2983
  837MPD2    C512305   0.775   3.041  10.115 -0.2037 -0.6688 -0.1568
  837MPD2     H12306   0.562   3.111   9.816  0.0179  0.7934  0.3842
  837MPD2    H112307   0.793   3.248  10.144 -0.0263 -0.9847  0.8022
  837MPD2    H212308   0.762   2.840  10.071 -2.2225  0.4810 -0.6979
  837MPD2    H312309   0.853   3.022  10.189 -0.6953 -2.4388 -0.0845
  837MPD2     N12310   0.645   3.333   9.927 -0.1811  0.4350  0.3186
  837MPD2    H512311   0.591   3.338   9.841  1.0719 -1.5083 -0.5876
  837MPD2    N112312   0.586   2.872   9.851  0.2135  0.2187 -0.3203
  837MPD2    H712313   0.536   2.906   9.770  1.5886 -1.5430 -1.9192
  838MPD2     C12314   3.559   1.797  11.682 -0.0468 -0.4404 -0.1947
  838MPD2    C112315   3.528   1.659  11.700 -0.9523  0.7253 -0.2991
  838MPD2    C212316   3.410   1.626  11.764  0.1508  0.1968 -0.1571
  838MPD2    C312317   3.326   1.721  11.817 -0.6926 -0.1116 -0.8043
  838MPD2    C412318   3.365   1.854  11.803  0.4809  0.1184 -0.2617
  838MPD2    C512319   3.477   1.894  11.731 -0.1233 -0.3164  0.1785
  838MPD2     H12320   3.384   1.521  11.767 -1.2087  0.4849 -1.6188
  838MPD2    H112321   3.300   1.936  11.831 -0.8560 -1.6684  1.8519
  838MPD2    H212322   3.645   1.834  11.628  0.1754  0.3891  0.7303
  838MPD2    H312323   3.502   1.995  11.702  0.2446 -0.3851  0.2604
  838MPD2     N12324   3.203   1.672  11.866  0.2622 -0.2036 -0.5574
  838MPD2    H512325   3.192   1.572  11.851  1.5443 -0.6428  1.4098
  838MPD2    N112326   3.616   1.558  11.652 -0.0840  0.7794 -0.5544
  838MPD2    H712327   3.593   1.467  11.689  2.6146  0.6983  0.8948
  839MPD2     C12328   3.316   0.827  11.452  0.2951 -0.4459  0.5324
  839MPD2    C112329   3.423   0.808  11.368 -0.3743  0.3758  0.2000
  839MPD2    C212330   3.521   0.899  11.365  0.1464 -0.1759  0.6719
  839MPD2    C312331   3.537   0.988  11.472 -0.1468 -0.4276 -0.0684
  839MPD2    C412332   3.437   0.994  11.574 -0.5897  0.6168  0.0483
  839MPD2    C512333   3.329   0.913  11.556  0.1880  0.5452  0.0522
  839MPD2     H12334   3.591   0.894  11.281 -0.4238 -0.3056  0.2046
  839MPD2    H112335   3.445   1.056  11.663  1.2479 -0.4093  0.6109
  839MPD2    H212336   3.226   0.768  11.455 -0.9293  1.4370  1.1028
  839MPD2    H312337   3.251   0.916  11.632 -0.1325 -3.2571 -0.1015
  839MPD2     N12338   3.632   1.089  11.477  0.1697  0.1753 -0.1801
  839MPD2    H512339   3.628   1.155  11.553 -1.5403 -0.3187  0.1443
  839MPD2    N112340   3.413   0.718  11.258  0.1765 -0.0202 -0.1620
  839MPD2    H712341   3.486   0.701  11.190 -0.2570 -0.7184 -0.4531
  840MPD2     C12342   3.834   3.552  10.353 -0.1832  0.1306  0.0060
  840MPD2    C112343   3.854   3.455  10.455 -0.4467  0.0433 -0.0328
  840MPD2    C212344   3.942   3.471  10.558  0.0361 -0.1321  0.2860
  840MPD2    C312345   4.021   3.583  10.551  0.0130  0.0825 -0.0890
  840MPD2    C412346   4.021   3.668  10.442  0.6744 -0.4644  0.8522
  840MPD2    C512347   3.924   3.653  10.355  0.4967  0.1230  0.3220
  840MPD2     H12348   3.952   3.394  10.634  0.9216  0.9666  1.2832
  840MPD2    H112349   4.094   3.744  10.421  1.1581 -0.4965  2.4164
  840MPD2    H212350   3.775   3.534  10.264 -0.6680  1.1805  0.1151
  840MPD2    H312351   3.931   3.727  10.276 -1.4170  0.6940  0.6993
  840MPD2     N12352   4.113   3.603  10.646  0.7380  0.1008 -1.0595
  840MPD2    H512353   4.184   3.672  10.622  0.7615  0.7733  0.8918
  840MPD2    N112354   3.772   3.343  10.442 -0.2232 -0.1617 -0.0386
  840MPD2    H712355   3.714   3.337  10.359 -0.7714  1.7141  0.1983
  841MPD2     C12356   3.602   3.511  14.245 -0.0842  0.9589 -0.0318
  841MPD2    C112357   3.637   3.378  14.236 -0.7535  0.5363 -0.1072
  841MPD2    C212358   3.739   3.329  14.157 -0.0690  0.0303 -0.0377
  841MPD2    C312359   3.825   3.417  14.091 -0.3711 -0.7717  0.0178
  841MPD2    C412360   3.807   3.553  14.117 -0.5938  0.5554 -0.3185
  841MPD2    C512361   3.696   3.592  14.189  0.3520  0.5208 -0.0446
  841MPD2     H12362   3.749   3.221  14.149  1.1446  0.2675 -1.6619
  841MPD2    H112363   3.870   3.638  14.094 -3.4214  2.7520  0.0536
  841MPD2    H212364   3.519   3.564  14.290  0.7254  0.5847  1.8975
  841MPD2    H312365   3.692   3.696  14.222  0.1200  1.1492 -2.0596
  841MPD2     N12366   3.934   3.363  14.022  0.1493  0.1894 -0.1025
  841MPD2    H512367   3.948   3.262  14.027  3.9640  0.6927 -0.6863
  841MPD2    N112368   3.562   3.279  14.301 -0.4431 -0.4942  0.0485
  841MPD2    H712369   3.574   3.181  14.277 -0.1186 -0.5820  0.5772
  842MPD2     C12370   4.003   3.301  16.601  0.1813  0.4757 -0.6115
  842MPD2    C112371   3.895   3.384  16.638 -0.4693  0.0994  0.4752
  842MPD2    C212372   3.856   3.385  16.771 -0.1089  0.0266  0.2492
  842MPD2    C312373   3.931   3.310  16.864 -0.2247  0.4039  0.1467
  842MPD2    C412374   4.030   3.229  16.823 -1.2367 -0.3672  0.6164
  842MPD2    C512375   4.063   3.219  16.689  1.0718  0.4518  0.1161
  842MPD2     H12376   3.787   3.462  16.804  1.1052  1.1011  0.2754
  842MPD2    H112377   4.079   3.164  16.894 -1.3215 -1.7364 -0.5785
  842MPD2    H212378   4.041   3.300  16.500 -1.5725 -0.4035 -1.2640
  842MPD2    H312379   4.141   3.151  16.657 -1.9197 -2.6325 -0.5692
  842MPD2     N12380   3.911   3.332  17.006  0.4984  0.3825  0.0361
  842MPD2    H512381   3.982   3.282  17.060 -0.6759  0.3542  1.5634
  842MPD2    N112382   3.836   3.457  16.536 -0.4912 -0.1577  0.3948
  842MPD2    H712383   3.864   3.456  16.438  1.1454  1.2626  0.8412
  843MPD2     C12384   1.854   4.060  17.432  0.5464  0.2976  0.1973
  843MPD2    C112385   1.892   4.030  17.563  0.6177 -0.2910 -0.1994
  843MPD2    C212386   1.992   4.101  17.631  0.2183  0.9613  0.6305
  843MPD2    C312387   2.037   4.209  17.568  0.2703  0.0765 -0.4556
  843MPD2    C412388   1.994   4.240  17.442  0.0529  0.9493  0.3101
  843MPD2    C512389   1.906   4.165  17.365 -0.3741  0.2957  0.2677
  843MPD2     H12390   2.026   4.080   0.036  3.8913  0.5120 -0.7119
  843MPD2    H112391   2.043   4.319  17.387  0.0948 -0.8521 -2.2169
  843MPD2    H212392   1.781   3.992  17.390 -1.8321  3.6962 -1.2482
  843MPD2    H312393   1.890   4.183  17.259  1.6039  0.5998  0.0090
  843MPD2     N12394   2.123   4.302  17.627  0.1548  0.4157  0.4247
  843MPD2    H512395   2.137   4.389  17.577  0.3343 -0.6413 -1.3547
  843MPD2    N112396   1.836   3.914  17.622 -0.0808  0.1839 -0.2149
  843MPD2    H712397   1.759   3.867  17.576  0.8841 -0.5064 -1.1419
  844MPD2     C12398   4.671   3.494  15.906  0.5829  0.0753 -0.7017
  844MPD2    C112399   4.689   3.369  15.952  0.0371  0.6714 -0.5575
  844MPD2    C212400   0.040   3.347  16.069 -0.3354  0.7323  0.4845
  844MPD2    C312401   0.106   3.450  16.133 -0.2221 -0.4114 -0.5022
  844MPD2    C412402   0.087   3.575  16.079 -0.0174 -0.1289  0.0344
  844MPD2    C512403   0.004   3.598  15.971 -0.2890 -0.0898  0.6155
  844MPD2     H12404   0.055   3.248  16.111  0.6195  0.1112 -1.3132
  844MPD2    H112405   0.128   3.668  16.118 -1.2222  0.1401  0.6522
  844MPD2    H212406   4.610   3.506  15.817  0.5941  1.3845 -0.5268
  844MPD2    H312407   4.713   3.700  15.939 -4.1889 -1.4761 -1.9729
  844MPD2     N12408   0.177   3.419  16.248 -0.1824  0.2954 -0.2729
  844MPD2    H512409   0.189   3.322  16.276 -0.2939  0.4545  0.3322
  844MPD2    N112410   4.613   3.275  15.878 -0.1276  0.4873  0.0574
  844MPD2    H712411   4.570   3.302  15.790  0.2770  0.1674 -0.2400
  845MPD2     C12412   0.514   4.246  16.695  0.3498 -0.4545  0.1352
  845MPD2    C112413   0.386   4.198  16.667 -0.0448 -0.4007 -0.3073
  845MPD2    C212414   0.368   4.066  16.637  0.3516  0.4340  0.2513
  845MPD2    C312415   0.478   3.981  16.623 -0.9364 -0.7872 -0.3745
  845MPD2    C412416   0.608   4.027  16.660  0.0547  0.5077 -0.1496
  845MPD2    C512417   0.620   4.158  16.696 -0.3827  0.0943  0.2758
  845MPD2     H12418   0.265   4.031  16.634 -0.0589  1.7570 -1.3762
  845MPD2    H112419   0.700   3.973  16.643 -0.0541 -0.8548  3.5533
  845MPD2    H212420   0.540   4.346  16.727  0.5145  0.4499 -2.8079
  845MPD2    H312421   0.716   4.200  16.724  0.5196 -1.8657  0.1258
  845MPD2     N12422   0.455   3.847  16.573  0.4541  0.6019 -0.0477
  845MPD2    H512423   0.368   3.840  16.522 -1.1990  1.5265  2.6513
  845MPD2    N112424   0.274   4.280  16.694  0.9839 -0.4338 -0.4743
  845MPD2    H712425   0.296   4.379  16.701  0.2485 -0.2106 -1.2831
  846MPD2     C12426   1.370   0.319  13.314 -0.0006  0.0589  0.0468
  846MPD2    C112427   1.307   0.438  13.342  1.0768 -0.5412 -1.1746
  846MPD2    C212428   1.244   0.459  13.464 -0.5423  0.0773  0.2950
  846MPD2    C312429   1.240   0.361  13.560  0.5580 -0.1454 -0.0388
  846MPD2    C412430   1.304   0.237  13.530 -0.2859 -0.1063 -0.0168
  846MPD2    C512431   1.362   0.217  13.406  0.0999  0.1833 -0.8785
  846MPD2     H12432   1.191   0.551  13.487 -0.6735  0.2296 -0.6374
  846MPD2    H112433   1.298   0.145  13.587  0.0537  0.6161  1.1929
  846MPD2    H212434   1.410   0.298  13.215 -4.3355 -1.8479 -1.2819
  846MPD2    H312435   1.409   0.123  13.378  1.4053  0.3912  0.6382
  846MPD2     N12436   1.167   0.382  13.685  0.7491  0.1368  0.9274
  846MPD2    H512437   1.126   0.474  13.698 -1.0369 -0.9025  2.5145
  846MPD2    N112438   1.315   0.545  13.247  0.0970  0.0562  0.1681
  846MPD2    H712439   1.282   0.635  13.280 -1.9944 -1.1044  1.2293
  847MPD2     C12440   1.890   1.008  13.625  0.0126 -0.2307 -0.1079
  847MPD2    C112441   1.907   1.071  13.752 -0.5339 -0.2384 -0.1375
  847MPD2    C212442   1.980   1.019  13.856 -0.2464  0.3518  0.1063
  847MPD2    C312443   2.039   0.904  13.835 -0.5870 -0.2130 -0.1914
  847MPD2    C412444   2.019   0.829  13.719 -0.3087 -0.0083  0.1010
  847MPD2    C512445   1.946   0.890  13.613 -0.0381  0.1349 -0.3315
  847MPD2     H12446   1.972   1.069  13.953  0.0591  1.2158 -0.3108
  847MPD2    H112447   2.081   0.743  13.697 -0.6872 -0.5587  1.1806
  847MPD2    H212448   1.840   1.042  13.535  0.3794  1.2862  0.2522
  847MPD2    H312449   1.935   0.836  13.519  1.1586  1.0721 -1.0168
  847MPD2     N12450   2.115   0.854  13.939  0.4448 -0.3464 -0.6022
  847MPD2    H512451   2.133   0.923  14.012  0.1013 -1.8457  0.9095
  847MPD2    N112452   1.852   1.194  13.781  0.1841 -0.1941  0.1334
  847MPD2    H712453   1.865   1.237  13.872  0.8994 -0.2266  0.0476
  848MPD2     C12454   4.373   3.652  15.760 -1.0073  0.2063  0.0026
  848MPD2    C112455   4.384   3.727  15.875  0.0628  0.5914 -0.2160
  848MPD2    C212456   4.387   3.861  15.875 -0.3071 -0.1060 -0.1652
  848MPD2    C312457   4.373   3.932  15.760 -0.0795  0.3435 -0.1184
  848MPD2    C412458   4.367   3.860  15.642 -1.1229  0.2706  0.3482
  848MPD2    C512459   4.355   3.723  15.643 -0.5542 -0.4332 -0.0613
  848MPD2     H12460   4.396   3.914  15.969  1.0956 -0.7109  0.0337
  848MPD2    H112461   4.364   3.903  15.543  2.3379  0.1521  0.2089
  848MPD2    H212462   4.376   3.544  15.764 -4.2653  0.0765 -0.7371
  848MPD2    H312463   4.353   3.667  15.550 -1.4606  3.2837 -2.2721
  848MPD2     N12464   4.345   4.067  15.755  0.4539  0.7398  0.2777
  848MPD2    H512465   4.310   4.099  15.665  1.1442 -1.0795 -0.6338
  848MPD2    N112466   4.396   3.664  15.997 -0.0448 -0.1908  0.0842
  848MPD2    H712467   4.400   3.724  16.079 -0.2548 -1.7246  1.2151
  849MPD2     C12468   3.293   3.842  13.527 -0.4488 -0.0521 -0.1976
  849MPD2    C112469   3.351   3.923  13.433  0.9430 -0.9577 -0.3447
  849MPD2    C212470   3.484   3.906  13.404 -0.4921 -0.3362  0.0436
  849MPD2    C312471   3.558   3.810  13.474 -0.2003 -0.1579  0.3031
  849MPD2    C412472   3.499   3.724  13.568 -0.2452 -0.4155  0.4975
  849MPD2    C512473   3.364   3.733  13.576  0.6982 -0.4841  0.3436
  849MPD2     H12474   3.526   3.966  13.323  0.1430 -1.0117 -0.1253
  849MPD2    H112475   3.556   3.645  13.617 -0.5600 -1.5251 -0.9385
  849MPD2    H212476   3.187   3.849  13.549 -0.5975  0.6161 -1.1294
  849MPD2    H312477   3.309   3.659  13.634  1.5735 -1.0552  0.4443
  849MPD2     N12478   3.699   3.799  13.434  0.0584  0.0265 -0.1290
  849MPD2    H512479   3.718   3.863  13.358  0.7003 -1.6949 -1.4175
  849MPD2    N112480   3.278   4.027  13.371  0.4530 -0.1152 -0.2006
  849MPD2    H712481   3.337   4.083  13.310 -3.0970  0.2041 -3.3635
  850MPD2     C12482   2.112   1.809  14.394  0.7951  0.3760  0.3463
  850MPD2    C112483   2.048   1.866  14.503 -0.0483 -0.2220  0.2020
  850MPD2    C212484   2.115   1.872  14.619 -0.4491 -0.6423  0.0857
  850MPD2    C312485   2.243   1.812  14.629 -0.6361  0.0572  0.1512
  850MPD2    C412486   2.295   1.756  14.523  0.5884 -0.5922 -0.1279
  850MPD2    C512487   2.228   1.745  14.408  0.2630  0.4324  0.2314
  850MPD2     H12488   2.077   1.918  14.709  1.9906 -1.2291  1.4058
  850MPD2    H112489   2.390   1.703  14.522  0.5717 -0.6132 -0.3887
  850MPD2    H212490   2.070   1.797  14.294  3.4202 -0.2650 -0.6803
  850MPD2    H312491   2.281   1.703  14.323  1.0038 -1.2387  1.5141
  850MPD2     N12492   2.321   1.804  14.744  0.8962 -0.4181  0.1381
  850MPD2    H512493   2.416   1.773  14.723  0.9286 -1.3458  1.6485
  850MPD2    N112494   1.912   1.911  14.485  0.0947  0.2216  0.0550
  850MPD2    H712495   1.882   1.917  14.388  0.7805  0.5515 -0.1358
  851MPD2     C12496   2.206   1.435  14.709  0.2864 -0.1260 -0.6988
  851MPD2    C112497   2.090   1.438  14.787  0.3756 -0.3870 -0.3010
  851MPD2    C212498   2.031   1.322  14.812 -0.1722 -0.3276  0.4470
  851MPD2    C312499   2.082   1.203  14.764  0.3010 -0.1827 -0.3556
  851MPD2    C412500   2.205   1.201  14.702  0.5770  0.8146 -0.3428
  851MPD2    C512501   2.265   1.320  14.668 -0.0163 -0.0243  0.2001
  851MPD2     H12502   1.940   1.308  14.869 -0.6817  2.6822  0.3751
  851MPD2    H112503   2.249   1.113  14.655  1.5817  0.1914  1.7840
  851MPD2    H212504   2.261   1.527  14.689  2.1602 -0.6720  2.0193
  851MPD2    H312505   2.355   1.317  14.608 -0.4731  0.0637 -0.4964
  851MPD2     N12506   2.002   1.086  14.782  0.7217  0.3877  0.1521
  851MPD2    H512507   1.915   1.088  14.834  0.5993 -0.3066 -0.0238
  851MPD2    N112508   2.039   1.566  14.815 -0.0649 -0.3949 -0.4104
  851MPD2    H712509   2.083   1.654  14.790 -0.0450 -0.2614  0.0856
  852MPD2     C12510   2.901   4.182   8.982 -0.3495 -0.0119  0.5809
  852MPD2    C112511   2.793   4.256   8.946 -0.9807  0.5006 -0.1019
  852MPD2    C212512   2.805   4.384   8.913  0.2265 -0.1411  0.5594
  852MPD2    C312513   2.930   4.432   8.881 -0.9384  0.0967 -0.1075
  852MPD2    C412514   3.035   4.355   8.920 -0.1163  0.3850  0.2770
  852MPD2    C512515   3.025   4.226   8.960  0.0140  0.2299  0.8479
  852MPD2     H12516   2.715   4.437   8.884 -0.7895 -1.5723  1.1315
  852MPD2    H112517   3.135   4.392   8.902  0.1377 -0.2346  0.3844
  852MPD2    H212518   2.886   4.084   9.026  1.2235 -0.5165 -0.0139
  852MPD2    H312519   3.111   4.160   8.969  0.6016  0.9141  0.2921
  852MPD2     N12520   2.940   4.569   8.834 -0.1943 -0.2606 -0.1005
  852MPD2    H512521   2.857   4.622   8.813  0.9081  1.4667 -0.0767
  852MPD2    N112522   2.665   4.192   8.972  0.1007  0.4689  0.9890
  852MPD2    H712523   2.670   4.110   9.031  1.6247 -1.1252 -1.3760
  853MPD2     C12524   3.300   0.234  11.965  0.1767  0.2160  0.4227
  853MPD2    C112525   3.198   0.162  11.909 -0.1538 -0.2741 -0.3128
  853MPD2    C212526   3.231   0.061  11.809  0.4058 -0.2165 -0.3748
  853MPD2    C312527   3.359   0.051  11.762 -0.0021  0.4031 -0.6034
  853MPD2    C412528   3.463   0.123  11.817  0.5474  0.0001  0.1519
  853MPD2    C512529   3.426   0.206  11.921 -0.1481  0.6566  0.2658
  853MPD2     H12530   3.147   0.011  11.761  2.4063 -3.8205 -0.1223
  853MPD2    H112531   3.568   0.106  11.794  0.0766 -0.6324 -1.5778
  853MPD2    H212532   3.283   0.310  12.040  0.8994 -1.0347  1.8652
  853MPD2    H312533   3.515   0.248  11.967 -1.5208  0.8241  2.7327
  853MPD2     N12534   3.374   4.682  11.653 -0.4065 -0.5850 -0.1086
  853MPD2    H512535   3.288   4.635  11.627  0.9101 -3.2376  0.3201
  853MPD2    N112536   3.065   0.176  11.958 -0.3573 -0.0147  0.2972
  853MPD2    H712537   3.051   0.250  12.027 -0.3373  2.6474 -2.5617
  854MPD2     C12538   4.668   4.353  12.578 -0.6193  0.4362 -0.2028
  854MPD2    C112539   0.019   4.458  12.532 -0.6862  0.1019 -0.8304
  854MPD2    C212540   0.158   4.454  12.533  0.0090  0.2083 -0.4178
  854MPD2    C312541   0.220   4.340  12.581 -0.9168 -0.2895  0.4531
  854MPD2    C412542   0.143   4.234  12.637  0.4947 -0.0178  0.1679
  854MPD2    C512543   0.005   4.240  12.637 -0.2298  0.1430 -0.0063
  854MPD2     H12544   0.214   4.544  12.512  0.9277 -0.3357 -0.3175
  854MPD2    H112545   0.188   4.143  12.674 -0.8211 -0.6905  0.1120
  854MPD2    H212546   4.560   4.357  12.573 -0.8106 -0.4996  3.1623
  854MPD2    H312547   4.673   4.152  12.669  1.1503 -1.0042 -0.7926
  854MPD2     N12548   0.362   4.327  12.572 -0.7133 -0.1601 -0.4451
  854MPD2    H512549   0.400   4.244  12.616 -3.0751 -0.3042  1.3608
  854MPD2    N112550   4.675   4.585  12.498 -0.2656  0.0329  0.0024
  854MPD2    H712551   4.577   4.587  12.526 -0.3716  1.8766 -0.4940
  855MPD2     C12552   1.057   4.007  13.164  0.0607 -0.2398  0.1422
  855MPD2    C112553   0.948   4.087  13.166  0.0217 -0.1528  0.9204
  855MPD2    C212554   0.887   4.124  13.047 -0.4084 -0.1423 -0.7005
  855MPD2    C312555   0.924   4.064  12.922  0.5855 -0.0163 -0.0817
  855MPD2    C412556   1.029   3.969  12.925  0.3423 -0.3387  0.7531
  855MPD2    C512557   1.098   3.960  13.041  0.0399 -0.1901  0.2081
  855MPD2     H12558   0.806   4.196  13.055  0.6247  1.1738 -2.0300
  855MPD2    H112559   1.063   3.917  12.836  2.7205 -1.7242  2.4504
  855MPD2    H212560   1.111   3.993  13.258 -3.5280 -1.9103  1.9644
  855MPD2    H312561   1.186   3.897  13.045  1.0656  1.2893  0.7345
  855MPD2     N12562   0.856   4.093  12.797 -0.5744 -0.2074  0.4211
  855MPD2    H512563   0.893   4.047  12.715 -0.5247 -2.5747  1.7751
  855MPD2    N112564   0.894   4.138  13.292 -0.1127  0.6271  0.0391
  855MPD2    H712565   0.801   4.178  13.300 -0.5178 -0.5510  1.1377
  856MPD2     C12566   2.493   0.512  13.500  0.0378  0.1399 -0.8363
  856MPD2    C112567   2.550   0.611  13.577  0.8579  0.7672 -0.2209
  856MPD2    C212568   2.493   0.735  13.573  0.4992  0.4403  1.3106
  856MPD2    C312569   2.399   0.774  13.479  0.0855 -0.6439 -0.3287
  856MPD2    C412570   2.355   0.668  13.393  0.4680 -0.6327 -0.6604
  856MPD2    C512571   2.405   0.544  13.402 -0.1829  0.1977 -0.6760
  856MPD2     H12572   2.540   0.799  13.647  1.3554  1.4015 -0.0871
  856MPD2    H112573   2.275   0.687  13.323  1.5838  1.4652 -1.3568
  856MPD2    H212574   2.530   0.410  13.508 -0.4418  0.0539  0.4052
  856MPD2    H312575   2.359   0.470  13.339  1.4467 -0.6184 -0.9088
  856MPD2     N12576   2.349   0.908  13.464  0.5758 -0.0903  0.2322
  856MPD2    H512577   2.262   0.920  13.415  0.6611 -1.4627 -0.2566
  856MPD2    N112578   2.638   0.584  13.683  0.6668 -0.0854  0.2969
  856MPD2    H712579   2.652   0.661  13.748 -1.7061 -1.3390  2.3028
  857MPD2     C12580   4.488   2.552  13.073 -0.4257 -0.1001  0.7210
  857MPD2    C112581   4.519   2.595  12.942 -0.4257 -0.5173  0.3373
  857MPD2    C212582   4.555   2.724  12.911  0.1435 -0.2930 -0.2690
  857MPD2    C312583   4.553   2.815  13.016  0.6413  0.4476 -0.5343
  857MPD2    C412584   4.530   2.769  13.143 -0.1427 -0.4866  0.5175
  857MPD2    C512585   4.483   2.643  13.170 -0.0548 -0.3879  0.0851
  857MPD2     H12586   4.585   2.752  12.811  1.3892 -1.1966 -0.1455
  857MPD2    H112587   4.536   2.841  13.224 -0.8424 -2.0862  1.9621
  857MPD2    H212588   4.463   2.447  13.077 -0.6545 -0.0716  0.1385
  857MPD2    H312589   4.449   2.614  13.269 -2.1002  0.1737 -0.4704
  857MPD2     N12590   4.569   2.951  12.988 -0.1077  0.1552  0.0532
  857MPD2    H512591   4.607   3.011  13.060  0.4510  0.9680 -0.9184
  857MPD2    N112592   4.519   2.503  12.842 -0.0980 -0.3224  0.5455
  857MPD2    H712593   4.581   2.528  12.766 -0.5037  3.0536  1.3187
  858MPD2     C12594   0.414   1.990  16.268  0.0522  0.4494 -0.7203
  858MPD2    C112595   0.457   1.862  16.276 -0.2821 -1.0486 -1.1456
  858MPD2    C212596   0.498   1.815  16.399 -0.1567 -0.6493  0.2830
  858MPD2    C312597   0.491   1.899  16.512 -0.2870 -0.6949  0.3588
  858MPD2    C412598   0.447   2.026  16.504  0.5359  0.0683  0.0315
  858MPD2    C512599   0.399   2.062  16.382  0.2451  0.1771  0.7221
  858MPD2     H12600   0.531   1.712  16.411 -0.4340 -0.7502  0.1835
  858MPD2    H112601   0.446   2.093  16.590  0.7538  1.5154 -1.0938
  858MPD2    H212602   0.377   2.027  16.172  0.4657  1.3835 -0.5231
  858MPD2    H312603   0.356   2.160  16.366  0.5958  0.2852  0.4513
  858MPD2     N12604   0.538   1.860  16.640 -0.2228  0.3017  0.2540
  858MPD2    H512605   0.526   1.927  16.715 -1.4977  0.8073 -0.4145
  858MPD2    N112606   0.439   1.782  16.163 -0.0055  0.6481  0.8357
  858MPD2    H712607   0.418   1.832  16.078 -1.3766  0.4171  1.0324
  859MPD2     C12608   3.342   3.721  14.833 -0.1226  0.1397  0.2854
  859MPD2    C112609   3.476   3.715  14.819  0.1182 -0.4882 -0.7424
  859MPD2    C212610   3.542   3.595  14.828  0.0390  0.3058  0.4188
  859MPD2    C312611   3.474   3.480  14.867  0.3225  0.4416 -0.3920
  859MPD2    C412612   3.340   3.500  14.891  0.2083  0.6183  0.2897
  859MPD2    C512613   3.270   3.615  14.873  0.1097  0.2907 -0.1084
  859MPD2     H12614   3.646   3.586  14.801  0.2811  2.3455  0.6789
  859MPD2    H112615   3.282   3.419  14.935  1.6323 -0.5888 -0.0756
  859MPD2    H212616   3.292   3.816  14.818  0.3580  0.1534 -1.2368
  859MPD2    H312617   3.164   3.632  14.889  0.0272 -0.4766  0.1501
  859MPD2     N12618   3.531   3.355  14.895  0.9221  0.5651  1.0322
  859MPD2    H512619   3.460   3.293  14.931  0.7532 -0.6311 -1.3058
  859MPD2    N112620   3.544   3.831  14.769 -0.7658 -0.0029  0.2454
  859MPD2    H712621   3.483   3.901  14.727 -1.2034  0.1686  1.1649
  860MPD2     C12622   1.051   4.544  10.846  0.0310 -0.9806 -0.2675
  860MPD2    C112623   1.089   4.582  10.968  0.7360  0.6098 -0.1210
  860MPD2    C212624   1.014   4.555  11.081  0.2549  0.5641 -0.1594
  860MPD2    C312625   0.918   4.453  11.073  0.1373  0.2082 -0.0436
  860MPD2    C412626   0.882   4.407  10.951  0.6791 -0.9763 -0.5879
  860MPD2    C512627   0.941   4.459  10.845 -0.3847 -0.0981 -0.4419
  860MPD2     H12628   1.046   4.581  11.181  1.4096  1.0445 -0.6520
  860MPD2    H112629   0.794   4.343  10.945 -0.6618  0.9313 -1.2843
  860MPD2    H212630   1.104   4.564  10.754 -2.1213 -0.3103 -1.3622
  860MPD2    H312631   0.898   4.424  10.752 -0.9239  0.8392 -0.5450
  860MPD2     N12632   0.860   4.410  11.192 -0.5191 -0.1451 -0.6217
  860MPD2    H512633   0.883   4.458  11.279 -1.4414 -0.8085 -0.0114
  860MPD2    N112634   1.202   4.658  10.995  0.1208 -0.4770 -0.5852
  860MPD2    H712635   1.227   4.675  11.092  1.4242  0.1989 -1.0319
  861MPD2     C12636   0.241   2.700  11.056 -0.1739 -0.7672 -0.4554
  861MPD2    C112637   0.112   2.691  11.107  0.1762 -0.0599 -0.4932
  861MPD2    C212638   0.006   2.734  11.032 -0.1897  0.2588 -0.4412
  861MPD2    C312639   0.030   2.801  10.910  0.1776 -0.2296 -0.4972
  861MPD2    C412640   0.157   2.804  10.858  0.3305  0.3412  0.0657
  861MPD2    C512641   0.262   2.751  10.930 -0.5313  0.3561  0.5948
  861MPD2     H12642   4.628   2.744  11.070 -0.6938 -3.5979 -0.8156
  861MPD2    H112643   0.183   2.836  10.758  0.0660  0.9745  0.1995
  861MPD2    H212644   0.324   2.660  11.113 -0.2015 -0.4960 -0.2280
  861MPD2    H312645   0.361   2.746  10.887 -0.7585  1.8785 -0.0925
  861MPD2     N12646   4.663   2.884  10.836  0.1753  0.8580 -0.1089
  861MPD2    H512647   4.701   2.928  10.753  2.2701 -2.1124 -0.7307
  861MPD2    N112648   0.082   2.629  11.230  0.6847 -0.0742  0.7489
  861MPD2    H712649   4.710   2.625  11.265  0.6065  0.2300  0.5653
  862MPD2     C12650   4.646   3.009  10.308 -0.4191  0.0009  1.2756
  862MPD2    C112651   0.019   3.009  10.409  0.0649  0.1587  0.0390
  862MPD2    C212652   0.090   2.894  10.434 -0.5519 -0.1762  0.5941
  862MPD2    C312653   0.057   2.776  10.365  0.1342 -0.0170  0.6821
  862MPD2    C412654   4.682   2.776  10.266  0.0279 -0.2233  0.7134
  862MPD2    C512655   4.620   2.890  10.240 -0.4738 -0.7133  0.4215
  862MPD2     H12656   0.140   2.900  10.530 -2.2375 -2.4521  1.6193
  862MPD2    H112657   4.664   2.693  10.199  0.4016  0.7988 -0.6568
  862MPD2    H212658   4.590   3.098  10.282 -1.2824 -0.9238 -0.0604
  862MPD2    H312659   4.540   2.889  10.167 -1.6180 -0.7633  1.6594
  862MPD2     N12660   0.110   2.649  10.411  0.5304 -0.1979 -0.5590
  862MPD2    H512661   0.062   2.567  10.376 -1.0711  0.8564 -0.8402
  862MPD2    N112662   0.033   3.122  10.491  0.2757  0.2416  0.0165
  862MPD2    H712663   0.101   3.119  10.566  0.7370 -1.3527 -0.4624
  863MPD2     C12664   3.606   0.418  16.096 -0.3289 -0.4324 -0.0662
  863MPD2    C112665   3.589   0.503  16.195  0.4493 -0.1447 -0.1475
  863MPD2    C212666   3.695   0.517  16.287  0.5416 -0.3794 -0.0059
  863MPD2    C312667   3.792   0.418  16.292  0.0485 -0.3102 -0.2651
  863MPD2    C412668   3.802   0.326  16.187 -0.3664  0.4843 -1.0549
  863MPD2    C512669   3.714   0.339  16.086  0.1010  0.1278  0.3928
  863MPD2     H12670   3.670   0.592  16.361 -0.8663 -0.8225 -0.0463
  863MPD2    H112671   3.881   0.252  16.175 -0.0087  0.6346  0.3449
  863MPD2    H212672   3.535   0.417  16.014  0.3399  1.2713 -0.6730
  863MPD2    H312673   3.730   0.284  15.994 -0.1854  2.4956 -1.0595
  863MPD2     N12674   3.879   0.418  16.400 -0.5866  0.2447 -0.5236
  863MPD2    H512675   3.945   0.341  16.399 -1.0813 -0.1810 -0.3912
  863MPD2    N112676   3.472   0.585  16.201  0.6738 -0.2633  0.1970
  863MPD2    H712677   3.410   0.566  16.123 -0.1730  1.9782  0.3213
  864MPD2     C12678   3.827   1.550  17.083  0.2515 -0.1368 -0.8154
  864MPD2    C112679   3.897   1.522  16.972  0.1684  0.2584  0.4489
  864MPD2    C212680   3.948   1.622  16.892  0.0296 -0.4902 -0.5482
  864MPD2    C312681   3.909   1.757  16.917  0.5405 -0.5877  0.1520
  864MPD2    C412682   3.826   1.787  17.027 -0.4289 -0.1095 -0.1450
  864MPD2    C512683   3.797   1.681  17.113 -0.1432  0.8279 -0.4004
  864MPD2     H12684   4.005   1.603  16.802  2.2308 -2.4198  1.2560
  864MPD2    H112685   3.793   1.886  17.057  1.3895  0.2136  0.7526
  864MPD2    H212686   3.784   1.468  17.140  0.9995  0.4953  0.6720
  864MPD2    H312687   3.747   1.702  17.207 -0.2685 -0.6507 -0.1456
  864MPD2     N12688   3.955   1.864  16.837  0.1062  0.0480  0.6750
  864MPD2    H512689   3.912   1.956  16.840 -0.1110 -0.0230 -0.4351
  864MPD2    N112690   3.914   1.378  16.954  0.2174 -0.0459  0.1762
  864MPD2    H712691   3.841   1.317  16.990  0.5271 -0.6849 -0.2705
  865MPD2     C12692   3.988   2.194  15.914 -0.2705 -0.0858  0.0844
  865MPD2    C112693   4.004   2.081  15.985  0.6294  0.1455  0.3400
  865MPD2    C212694   3.989   2.091  16.126  0.2605 -0.3325  0.5042
  865MPD2    C312695   3.954   2.210  16.190 -0.5264  0.3877  0.4303
  865MPD2    C412696   3.942   2.318  16.114 -0.7685  0.7510 -0.6114
  865MPD2    C512697   3.957   2.308  15.974  0.5193 -0.2930  0.0790
  865MPD2     H12698   4.005   2.004  16.189  1.5913 -2.4743 -2.7689
  865MPD2    H112699   3.930   2.414  16.161  0.0534 -0.7601  2.6869
  865MPD2    H212700   4.001   2.196  15.806  1.0522  2.3383  0.2866
  865MPD2    H312701   3.947   2.395  15.910 -0.7347 -0.1174  0.5097
  865MPD2     N12702   3.927   2.215  16.327  0.0444  0.3274 -0.2684
  865MPD2    H512703   3.904   2.306  16.367 -0.1268  0.0319  0.3004
  865MPD2    N112704   4.032   1.963  15.907 -0.7177 -0.3462 -0.3596
  865MPD2    H712705   4.048   1.988  15.810 -1.3530 -0.1118 -0.4076
  866MPD2     C12706   0.771   2.526  11.304 -0.7102 -0.1687  0.0999
  866MPD2    C112707   0.821   2.597  11.194  0.0142  0.0317 -0.2053
  866MPD2    C212708   0.752   2.708  11.146 -1.1141 -0.0013  0.4063
  866MPD2    C312709   0.625   2.736  11.199  0.0623 -0.8472 -0.4484
  866MPD2    C412710   0.568   2.657  11.295  0.3760 -0.0622 -0.2302
  866MPD2    C512711   0.642   2.550  11.348  0.0085 -0.6960  1.3705
  866MPD2     H12712   0.796   2.771  11.069 -1.9217 -0.3091 -0.3142
  866MPD2    H112713   0.472   2.674  11.341  0.4950  2.2651 -0.8209
  866MPD2    H212714   0.834   2.448  11.346  0.1461  0.7639  0.5378
  866MPD2    H312715   0.603   2.494  11.432 -0.6610 -0.2434  1.3597
  866MPD2     N12716   0.548   2.848  11.161 -0.2117 -0.8265 -0.3089
  866MPD2    H512717   0.472   2.871  11.224  0.1711 -2.8188  0.8436
  866MPD2    N112718   0.955   2.574  11.156  0.4423 -0.8579  0.7420
  866MPD2    H712719   1.011   2.508  11.210 -3.0413 -2.6565  2.1501
  867MPD2     C12720   2.892   1.466  15.928  0.0058 -0.0120  0.3499
  867MPD2    C112721   2.987   1.496  16.026 -0.0853  0.0168 -0.2229
  867MPD2    C212722   2.977   1.617  16.101  0.2842  0.2784 -0.3964
  867MPD2    C312723   2.867   1.703  16.082 -0.0518 -0.0321 -0.4062
  867MPD2    C412724   2.763   1.661  15.998  0.6198 -0.4666  0.7601
  867MPD2    C512725   2.775   1.540  15.932  0.6356  0.4057 -0.2511
  867MPD2     H12726   3.055   1.649  16.169 -0.8368  0.3218  0.8490
  867MPD2    H112727   2.669   1.716  15.994 -0.7349 -2.9551 -1.8397
  867MPD2    H212728   2.898   1.380  15.863  2.9980  1.5758 -1.4707
  867MPD2    H312729   2.693   1.521  15.864 -0.5866 -1.8332  1.8347
  867MPD2     N12730   2.851   1.826  16.157  0.0993 -0.7774  0.0133
  867MPD2    H512731   2.767   1.876  16.132 -0.0052 -0.6500  0.6079
  867MPD2    N112732   3.094   1.402  16.029 -0.6627  0.4199 -0.0048
  867MPD2    H712733   3.081   1.313  15.983  1.4103 -0.8501  1.8323
  868MPD2     C12734   0.104   1.516  12.837  0.1955  0.0887  0.7773
  868MPD2    C112735   0.016   1.421  12.879 -0.6099  0.2376 -0.4610
  868MPD2    C212736   4.633   1.457  12.965 -0.3857 -0.0399 -0.1625
  868MPD2    C312737   4.631   1.589  13.019  0.3951 -0.1493 -0.1331
  868MPD2    C412738   0.006   1.682  12.969 -0.1324  0.1793 -0.3764
  868MPD2    C512739   0.098   1.639  12.882  0.1300 -0.0406 -0.3683
  868MPD2     H12740   4.560   1.388  13.007 -1.3685  1.5045  0.6486
  868MPD2    H112741   4.723   1.785  13.001  0.7285  0.9422 -2.6800
  868MPD2    H212742   0.179   1.494  12.763 -0.2246  0.7035  0.1736
  868MPD2    H312743   0.165   1.705  12.829 -2.4205  2.5918 -0.3576
  868MPD2     N12744   4.542   1.630  13.118  0.2625 -0.3057 -0.0512
  868MPD2    H512745   4.482   1.556  13.154 -0.6299  0.1966 -0.4995
  868MPD2    N112746   0.043   1.289  12.836 -0.1110 -0.1725  0.1843
  868MPD2    H712747   0.108   1.277  12.759 -1.9404 -4.0006 -0.7232
  869MPD2     C12748   2.004   2.594   1.298  0.3236  0.1915 -0.7884
  869MPD2    C112749   1.874   2.581   1.316 -0.4649 -0.2816  0.3787
  869MPD2    C212750   1.789   2.679   1.268  0.8464  0.3021  0.3186
  869MPD2    C312751   1.836   2.791   1.198  0.0232 -0.3023  0.2808
  869MPD2    C412752   1.972   2.797   1.177  0.0145  0.4437  0.4333
  869MPD2    C512753   2.054   2.698   1.229 -0.6300  0.3837 -0.0908
  869MPD2     H12754   1.680   2.677   1.268  0.8409  0.5880  0.4056
  869MPD2    H112755   2.017   2.887   1.136  1.8837 -0.0727  1.3370
  869MPD2    H212756   2.076   2.519   1.330 -0.3992 -1.1947 -2.3662
  869MPD2    H312757   2.160   2.716   1.219 -0.5434  0.1948  0.4321
  869MPD2     N12758   1.753   2.898   1.152 -0.4568 -0.1807 -0.3401
  869MPD2    H512759   1.802   2.968   1.097 -1.1113  0.4723 -0.0949
  869MPD2    N112760   1.837   2.470   1.390  0.4309  0.2105 -1.1062
  869MPD2    H712761   1.906   2.402   1.420  0.6114  0.3085 -1.2972
  870MPD2     C12762   4.654   2.526   1.467  0.0013 -0.0409 -0.3893
  870MPD2    C112763   0.051   2.480   1.428 -0.2882 -1.1008  0.0686
  870MPD2    C212764   0.150   2.564   1.384  0.1020 -0.1057  0.1163
  870MPD2    C312765   0.131   2.698   1.376  0.0029 -0.2764  0.3814
  870MPD2    C412766   0.014   2.745   1.418  0.4867  0.0311 -0.2154
  870MPD2    C512767   4.640   2.656   1.457 -0.6206  0.0107  0.0219
  870MPD2     H12768   0.245   2.519   1.356  1.5464  2.3666  1.0377
  870MPD2    H112769   4.716   2.851   1.418 -1.4081 -0.3703  2.5711
  870MPD2    H212770   4.576   2.465   1.509 -0.4723  0.3303 -0.7308
  870MPD2    H312771   4.547   2.688   1.503 -0.0787 -0.7520  1.6686
  870MPD2     N12772   0.225   2.788   1.328 -0.1233 -0.2172  0.0673
  870MPD2    H512773   0.193   2.884   1.335  0.7267  0.0098  0.7650
  870MPD2    N112774   0.063   2.339   1.445  0.0861 -0.2302 -0.0538
  870MPD2    H712775   4.696   2.301   1.467  0.1812 -0.9903 -1.0078
  871MPD2     C12776   1.782   2.155  16.145 -0.0334  0.0959  0.1665
  871MPD2    C112777   1.745   2.063  16.243 -0.4108 -0.6409  0.6362
  871MPD2    C212778   1.780   1.932  16.229  0.1863  0.2547 -0.1153
  871MPD2    C312779   1.844   1.897  16.118 -0.7125  0.4622  0.4322
  871MPD2    C412780   1.871   1.986  16.015 -0.2720 -0.5952  1.1329
  871MPD2    C512781   1.846   2.118  16.030  0.6252  0.3977  0.2930
  871MPD2     H12782   1.769   1.857  16.307  3.4329  0.5260  0.5847
  871MPD2    H112783   1.933   1.952  15.932 -0.1325 -0.9165  1.3686
  871MPD2    H212784   1.768   2.263  16.152 -1.2906 -0.0040 -0.9349
  871MPD2    H312785   1.878   2.188  15.954  2.8379  0.8405  1.6347
  871MPD2     N12786   1.875   1.761  16.095 -0.2208 -0.1326  0.0078
  871MPD2    H512787   1.837   1.695  16.162 -0.7417  1.4255  1.2319
  871MPD2    N112788   1.668   2.107  16.350  0.1748 -0.2407 -0.4986
  871MPD2    H712789   1.639   2.205  16.349  0.1636 -0.2308  0.1726
  872MPD2     C12790   2.649   4.399  13.795  0.7301  0.0555  0.3420
  872MPD2    C112791   2.589   4.500  13.729  0.3383 -0.1259 -0.1830
  872MPD2    C212792   2.452   4.493  13.738  0.0017  0.3939  1.0018
  872MPD2    C312793   2.378   4.396  13.805  0.2106  0.5799  0.1655
  872MPD2    C412794   2.453   4.305  13.878 -0.1153  0.3327 -0.7234
  872MPD2    C512795   2.586   4.298  13.858 -0.3151  0.0234 -0.5127
  872MPD2     H12796   2.399   4.576  13.692 -0.4063 -1.1002 -1.2540
  872MPD2    H112797   2.403   4.218  13.919 -1.7354  0.7171 -1.9035
  872MPD2    H212798   2.758   4.391  13.798  0.7215  0.6970  2.6730
  872MPD2    H312799   2.641   4.220  13.910  1.1061 -0.3103 -2.5334
  872MPD2     N12800   2.234   4.401  13.816 -0.4723  0.5092  0.3643
  872MPD2    H512801   2.196   4.332  13.880  1.9020 -0.8691  0.3060
  872MPD2    N112802   2.652   4.605  13.662  0.2043 -0.3685 -0.1404
  872MPD2    H712803   2.598   4.683  13.626  1.4373  0.2406 -0.6525
  873MPD2     C12804   4.580   3.701   0.640 -0.8751 -0.4270  0.5184
  873MPD2    C112805   4.565   3.689   0.772  0.0535  0.0619 -0.0633
  873MPD2    C212806   4.543   3.560   0.821  0.1958 -0.3205 -0.9155
  873MPD2    C312807   4.532   3.451   0.735  0.1356  0.2133  0.1517
  873MPD2    C412808   4.537   3.474   0.598 -0.2150 -0.0891 -0.2530
  873MPD2    C512809   4.565   3.596   0.553 -0.5234 -0.5145 -1.0687
  873MPD2     H12810   4.531   3.540   0.927 -3.1187  0.0415 -1.2432
  873MPD2    H112811   4.538   3.394   0.524  0.5004  0.8105 -1.2225
  873MPD2    H212812   4.600   3.795   0.590  0.7207 -0.6798  0.6636
  873MPD2    H312813   4.579   3.618   0.448  2.5265 -1.6330 -0.9082
  873MPD2     N12814   4.496   3.320   0.783 -0.7695  0.2495  0.0660
  873MPD2    H512815   4.497   3.243   0.717  0.2878  0.2245  0.1154
  873MPD2    N112816   4.579   3.801   0.858 -0.0225 -0.1445 -0.1783
  873MPD2    H712817   4.569   3.889   0.808  3.0033 -1.6950 -3.4666
  874MPD2     C12818   3.544   4.119  16.046  0.2059 -0.0393 -0.5257
  874MPD2    C112819   3.649   4.035  16.072 -0.2866  0.5462  0.8096
  874MPD2    C212820   3.776   4.080  16.030  0.8814  0.6539  0.1463
  874MPD2    C312821   3.783   4.194  15.954  0.8390  0.4188 -0.4365
  874MPD2    C412822   3.674   4.269  15.929 -0.2373  0.2603  0.4954
  874MPD2    C512823   3.547   4.234  15.975 -0.6796  0.8705  0.0727
  874MPD2     H12824   3.865   4.024  16.051  0.5482  0.4566  1.0091
  874MPD2    H112825   3.668   4.359  15.869  1.0446 -0.5252 -0.8031
  874MPD2    H212826   3.442   4.092  16.069 -0.0340  1.0229 -0.3270
  874MPD2    H312827   3.455   4.290  15.964 -1.1880  0.0828  0.2875
  874MPD2     N12828   3.914   4.233  15.925 -0.3083 -0.3243  0.2807
  874MPD2    H512829   3.995   4.172  15.930 -0.4690 -0.5946 -0.3911
  874MPD2    N112830   3.621   3.915  16.139 -0.2246 -0.3657 -0.1752
  874MPD2    H712831   3.526   3.903  16.172  0.0468  0.4182  0.8840
  875MPD2     C12832   0.187   2.648  14.610  0.6297 -0.3164  0.1045
  875MPD2    C112833   0.207   2.779  14.567 -0.5768 -0.2148  0.2552
  875MPD2    C212834   0.263   2.869  14.660 -0.0715 -0.0048 -0.1903
  875MPD2    C312835   0.282   2.829  14.794  0.0825  0.0727 -0.4277
  875MPD2    C412836   0.244   2.702  14.830  0.7011 -0.3673  0.1417
  875MPD2    C512837   0.213   2.609  14.737 -0.1073  0.1631  0.9218
  875MPD2     H12838   0.277   2.973  14.632  0.5844  0.2801  1.1775
  875MPD2    H112839   0.274   2.666  14.927 -1.0834 -1.3018  0.3329
  875MPD2    H212840   0.136   2.575  14.547 -0.9440 -1.7143  2.9858
  875MPD2    H312841   0.179   2.510  14.765 -0.3664  0.1500  0.5595
  875MPD2     N12842   0.320   2.913  14.905  0.2275 -0.1613  0.1446
  875MPD2    H512843   0.331   2.865  14.993 -1.0511 -1.2011 -0.2570
  875MPD2    N112844   0.162   2.820  14.436 -0.5326  0.6651  0.2050
  875MPD2    H712845   0.147   2.919  14.420 -0.9580  0.3279 -1.5229
  876MPD2     C12846   3.934   4.224  15.439  0.2548 -0.6574  0.3699
  876MPD2    C112847   4.004   4.129  15.367 -0.5279 -0.3785 -0.4463
  876MPD2    C212848   4.005   3.997  15.417  0.1158  0.5009  0.0533
  876MPD2    C312849   3.961   3.967  15.545 -0.3247 -0.1615  0.2677
  876MPD2    C412850   3.904   4.075  15.617 -0.4349  0.4246  0.5777
  876MPD2    C512851   3.883   4.200  15.563  0.2233 -0.1918  0.0389
  876MPD2     H12852   4.039   3.917  15.353  2.2141  1.2554  0.2082
  876MPD2    H112853   3.865   4.061  15.717 -1.3000  1.0857  0.3315
  876MPD2    H212854   3.938   4.327  15.404 -0.4853 -0.3606  1.1564
  876MPD2    H312855   3.837   4.276  15.625  1.5547  0.2954  0.4228
  876MPD2     N12856   3.987   3.838  15.597  0.1158  0.2164  0.2926
  876MPD2    H512857   4.029   3.774  15.530  1.1104  0.2011  0.9290
  876MPD2    N112858   4.060   4.176  15.246 -0.0896 -0.0978  0.3361
  876MPD2    H712859   4.032   4.267  15.212 -1.8939  0.3526  3.1135
  877MPD2     C12860   3.952   4.689  14.693 -0.1387  0.5712  0.4685
  877MPD2    C112861   4.073   4.622  14.670  0.3410 -0.0200  0.0460
  877MPD2    C212862   4.126   4.637  14.547 -0.2444 -0.4378 -0.7719
  877MPD2    C312863   4.068   4.713  14.446 -0.4669  0.3242 -0.2658
  877MPD2    C412864   3.959   0.059  14.475 -0.7609  0.3070 -0.2290
  877MPD2    C512865   3.899   0.052  14.598 -0.1990  0.5096 -0.0610
  877MPD2     H12866   4.208   4.573  14.518  1.5730  0.3645  2.5916
  877MPD2    H112867   3.923   0.137  14.409  2.3118  2.9190  1.1602
  877MPD2    H212868   3.893   4.672  14.783 -2.5530 -0.7260 -1.3349
  877MPD2    H312869   3.807   0.108  14.616 -0.5927 -0.3586  0.5964
  877MPD2     N12870   4.115   4.714  14.314  0.1377 -0.4618 -0.5245
  877MPD2    H512871   4.049   0.023  14.244 -2.3830 -1.0802  1.5310
  877MPD2    N112872   4.133   4.531  14.761 -0.1272 -0.7028 -0.1284
  877MPD2    H712873   4.222   4.495  14.728 -1.3465 -2.3965 -1.5052
  878MPD2     C12874   2.746   4.532  12.644 -0.3281  0.1179  0.8895
  878MPD2    C112875   2.866   4.479  12.595 -0.7361 -0.1372  0.1954
  878MPD2    C212876   2.942   4.400  12.683  0.1758  0.1330 -1.0408
  878MPD2    C312877   2.900   4.373  12.808  0.3426 -0.9322  0.1509
  878MPD2    C412878   2.774   4.412  12.849  0.4140 -0.0896 -0.1683
  878MPD2    C512879   2.701   4.495  12.767 -0.4703  0.3995  0.8358
  878MPD2     H12880   3.032   4.352  12.647  1.1650  1.1836  0.0248
  878MPD2    H112881   2.740   4.385  12.949 -2.1015  2.5664 -0.2982
  878MPD2    H212882   2.688   4.608  12.594  1.0246  0.5787  0.0159
  878MPD2    H312883   2.604   4.530  12.801 -1.3079 -1.0646 -0.0535
  878MPD2     N12884   2.992   4.300  12.884  0.7280 -0.1494  0.4852
  878MPD2    H512885   3.085   4.287  12.844 -0.7402 -1.8722 -2.4495
  878MPD2    N112886   2.905   4.514  12.471  0.6421 -0.5272 -0.8585
  878MPD2    H712887   2.863   4.600  12.438  1.9216 -0.6394 -2.7904
  879MPD2     C12888   4.349   0.358  16.625  0.0664  0.8867 -1.0438
  879MPD2    C112889   4.350   0.332  16.762 -0.3800 -0.4573  0.4673
  879MPD2    C212890   4.313   0.204  16.796 -0.4070 -0.3462 -0.1226
  879MPD2    C312891   4.267   0.103  16.708  0.4743 -0.8346 -0.2600
  879MPD2    C412892   4.268   0.134  16.575 -0.5132  0.1660  0.7018
  879MPD2    C512893   4.311   0.257  16.536  0.4762  0.2152 -0.3180
  879MPD2     H12894   4.317   0.186  16.902  0.4250 -1.0167 -0.2638
  879MPD2    H112895   4.234   0.054  16.510  0.4739  0.7168 -0.4705
  879MPD2    H212896   4.371   0.451  16.572  1.6664 -0.3859 -2.6285
  879MPD2    H312897   4.325   0.264  16.428  0.5458  0.7473 -0.2710
  879MPD2     N12898   4.221   4.708  16.758  0.1021 -0.7313  0.4551
  879MPD2    H512899   4.171   4.648  16.693  0.3300  1.6549 -1.9493
  879MPD2    N112900   4.393   0.436  16.847  0.4046  0.1606 -0.0771
  879MPD2    H712901   4.445   0.510  16.802  0.3183  2.0949  2.9557
  880MPD2     C12902   0.656   2.089  17.539  0.8431  0.0458 -0.4625
  880MPD2    C112903   0.712   2.128  17.656  0.1788  0.2169  0.8471
  880MPD2    C212904   0.752   2.026   0.053 -1.1572 -0.1604  0.0303
  880MPD2    C312905   0.736   1.899   0.016  0.4932  0.5009  0.0217
  880MPD2    C412906   0.685   1.866  17.588  0.3704  0.3917  0.0433
  880MPD2    C512907   0.647   1.961  17.498  0.4898 -0.4642 -0.2327
  880MPD2     H12908   0.796   2.049   0.150  1.0595 -1.4425 -0.6662
  880MPD2    H112909   0.670   1.763  17.556  1.1396  0.1017  0.6106
  880MPD2    H212910   0.623   2.171  17.475 -3.2226 -0.3310  1.1067
  880MPD2    H312911   0.602   1.939  17.402  2.4537 -0.4493 -1.1708
  880MPD2     N12912   0.779   1.798   0.106  0.2713  0.5691  0.0928
  880MPD2    H512913   0.806   1.836   0.196  2.9848  0.7538 -0.8204
  880MPD2    N112914   0.709   2.268  17.689 -0.0106  0.6327  0.3050
  880MPD2    H712915   0.653   2.321  17.623 -0.6830  0.0746  0.4199
  881MPD2     C12916   0.650   3.150  17.229  0.8444 -0.0780 -0.3477
  881MPD2    C112917   0.628   3.013  17.207 -0.0181  0.3389  0.2021
  881MPD2    C212918   0.655   2.924  17.313  0.2869  0.4877  0.2811
  881MPD2    C312919   0.677   2.967  17.444  0.0375 -0.0199 -0.4264
  881MPD2    C412920   0.679   3.103  17.467 -0.6957  0.4904  0.0588
  881MPD2    C512921   0.661   3.192  17.360  0.4265  0.1898 -0.1679
  881MPD2     H12922   0.645   2.819  17.291 -3.0136  0.9156 -0.2472
  881MPD2    H112923   0.712   3.141  17.563  1.5258 -0.2524 -0.4102
  881MPD2    H212924   0.629   3.218  17.148  1.1927  1.7847  1.1088
  881MPD2    H312925   0.655   3.299  17.379 -0.0141  0.3528 -1.2322
  881MPD2     N12926   0.698   2.879  17.557  0.5710 -0.0024 -0.4207
  881MPD2    H512927   0.696   2.913  17.652 -2.8808 -2.5485  0.4396
  881MPD2    N112928   0.627   2.967  17.073  0.0996 -0.3804  0.6052
  881MPD2    H712929   0.650   3.039  17.005 -0.0841 -1.0999 -0.2140
  882MPD2     C12930   4.035   0.009  13.456 -0.4864 -0.0632 -0.6533
  882MPD2    C112931   4.004   0.019  13.588 -0.0502  0.4414 -0.4706
  882MPD2    C212932   3.877   0.061  13.615  0.3031  0.3611  0.1376
  882MPD2    C312933   3.773   0.079  13.523 -0.0916 -0.0028 -0.4780
  882MPD2    C412934   3.805   0.051  13.394  0.1140 -0.5130 -0.0091
  882MPD2    C512935   3.934   0.014  13.364  0.1740  0.0685  0.3699
  882MPD2     H12936   3.853   0.068  13.721 -0.2791 -0.6880  0.0751
  882MPD2    H112937   3.732   0.048  13.314  1.2072 -2.8890 -0.9290
  882MPD2    H212938   4.131   4.698  13.419 -0.0750 -0.5869  0.9051
  882MPD2    H312939   3.957   4.681  13.274 -3.4243 -1.3878  0.3741
  882MPD2     N12940   3.637   0.098  13.546 -0.0842 -0.0781 -0.0434
  882MPD2    H512941   3.571   0.086  13.470 -0.3413  2.8843 -0.2783
  882MPD2    N112942   4.105   4.716  13.690  0.1067  0.0982 -0.2282
  882MPD2    H712943   4.199   4.706  13.654  0.3300 -0.6556  0.5572
  883MPD2     C12944   1.591   4.686  16.504 -0.4714 -0.6012 -0.4466
  883MPD2    C112945   1.652   0.073  16.450 -0.6621 -0.2403 -0.2111
  883MPD2    C212946   1.773   0.114  16.506 -0.3846  0.4480 -0.4645
  883MPD2    C312947   1.842   0.036  16.600 -0.3940  0.3481  0.0093
  883MPD2    C412948   1.776   4.648  16.655  0.0838 -0.5604  0.4092
  883MPD2    C512949   1.650   4.621  16.610  0.1365  0.0687  0.2696
  883MPD2     H12950   1.833   0.198  16.474 -0.8911  0.6363 -0.9164
  883MPD2    H112951   1.813   4.590  16.739  2.7634 -1.5363 -1.4555
  883MPD2    H212952   1.500   4.645  16.463 -0.7904 -0.1936 -0.1404
  883MPD2    H312953   1.599   4.536  16.654 -2.6308  1.5724 -0.0271
  883MPD2     N12954   1.981   0.070  16.639 -0.5562 -0.2291  0.5113
  883MPD2    H512955   2.029   0.137  16.579 -0.9111  0.9858  1.5884
  883MPD2    N112956   1.595   0.145  16.337 -0.2497  0.3195  0.0691
  883MPD2    H712957   1.641   0.227  16.299  0.6672 -1.1949 -2.0728
  884MPD2     C12958   3.086   0.280  15.306 -0.0895 -0.4704  0.1188
  884MPD2    C112959   3.120   0.401  15.243 -0.2034 -0.3510  0.2844
  884MPD2    C212960   3.016   0.461  15.174 -0.1907 -0.1494  0.4987
  884MPD2    C312961   2.885   0.408  15.164  0.2058 -0.0959  0.1573
  884MPD2    C412962   2.852   0.296  15.231  0.3479 -0.2124 -0.6318
  884MPD2    C512963   2.957   0.236  15.296  0.1630 -0.2048  0.1293
  884MPD2     H12964   3.040   0.553  15.123  0.7861 -0.7384 -0.1124
  884MPD2    H112965   2.754   0.250  15.231  0.2442 -0.0012  1.9992
  884MPD2    H212966   3.148   0.217  15.368 -1.1191 -0.3436  1.2736
  884MPD2    H312967   2.920   0.141  15.334 -1.2442  0.3898  0.2496
  884MPD2     N12968   2.793   0.478  15.079 -0.4090 -0.1337  0.3671
  884MPD2    H512969   2.834   0.562  15.039 -1.2905 -1.1200 -2.6237
  884MPD2    N112970   3.252   0.456  15.234 -0.4692  0.0888  0.2974
  884MPD2    H712971   3.265   0.542  15.182  1.0020  0.5276  1.3951
  885MPD2     C12972   1.530   0.236  17.378 -0.5989  0.1454  0.4442
  885MPD2    C112973   1.611   0.329  17.321 -0.2785 -0.0534  0.0442
  885MPD2    C212974   1.557   0.405  17.220  0.5599  0.4635  0.1128
  885MPD2    C312975   1.427   0.385  17.169  0.4493  0.0859  0.4509
  885MPD2    C412976   1.350   0.286  17.221 -0.0327  0.1304  0.0285
  885MPD2    C512977   1.404   0.215  17.327  0.4219 -0.1562 -0.7478
  885MPD2     H12978   1.616   0.483  17.173 -1.5276  3.1585  1.9447
  885MPD2    H112979   1.252   0.267  17.180 -0.6165 -0.2301  1.5915
  885MPD2    H212980   1.545   0.183  17.471 -0.6085 -2.8004 -1.2205
  885MPD2    H312981   1.347   0.133  17.369 -0.9458  2.0652  1.7202
  885MPD2     N12982   1.387   0.452  17.049 -0.6359 -0.0468 -0.5253
  885MPD2    H512983   1.456   0.517  17.014  0.1729 -1.1073 -0.8950
  885MPD2    N112984   1.743   0.341  17.372 -0.0690 -0.2430 -0.4942
  885MPD2    H712985   1.768   0.275  17.445 -0.4173 -0.3565 -0.4747
  886MPD2     C12986   2.223   3.783  14.903  0.6965  0.5222 -0.0299
  886MPD2    C112987   2.363   3.764  14.904  0.1713  0.1431 -0.5549
  886MPD2    C212988   2.441   3.851  14.829 -0.3212  0.1479 -0.1754
  886MPD2    C312989   2.393   3.950  14.755 -0.4966  0.2734 -0.0424
  886MPD2    C412990   2.256   3.961  14.745 -0.3041 -0.1589  0.5598
  886MPD2    C512991   2.171   3.885  14.825 -0.3590  0.5223 -0.0457
  886MPD2     H12992   2.548   3.836  14.838 -0.7340 -1.1764  2.4676
  886MPD2    H112993   2.213   4.029  14.672 -2.5580  0.2128  2.2616
  886MPD2    H212994   2.154   3.715  14.951 -1.2187  1.7757 -1.0542
  886MPD2    H312995   2.064   3.893  14.808 -0.2467 -0.7452 -1.3176
  886MPD2     N12996   2.466   4.051  14.696  0.1401 -0.6780  0.5213
  886MPD2    H512997   2.410   4.116  14.642  1.3356  0.6250  0.8436
  886MPD2    N112998   2.435   3.657  14.969  0.1963 -0.0448  0.4158
  886MPD2    H712999   2.536   3.657  14.963  0.0272  0.9271 -2.0831
  887MPD2     C13000   3.118   3.547  15.192 -0.2909  1.3031 -0.1845
  887MPD2    C113001   3.001   3.621  15.185 -0.2148  1.1367  0.8479
  887MPD2    C213002   3.002   3.756  15.213 -0.3755 -0.5244  0.0977
  887MPD2    C313003   3.119   3.817  15.236  0.0268 -0.0081 -0.1382
  887MPD2    C413004   3.240   3.743  15.248 -0.4984 -0.3142  0.0924
  887MPD2    C513005   3.236   3.606  15.224  0.1460  0.4264 -0.0336
  887MPD2     H13006   2.911   3.813  15.227  0.0761 -0.1550  1.5574
  887MPD2    H113007   3.336   3.787  15.269 -1.2394  2.0073 -1.4976
  887MPD2    H213008   3.112   3.440  15.174 -0.3122  0.8358  2.5413
  887MPD2    H313009   3.328   3.553  15.202 -1.0731 -0.9253 -1.9642
  887MPD2     N13010   3.128   3.956  15.265  0.1641 -0.0754  0.4516
  887MPD2    H513011   3.043   4.009  15.280  0.4886 -0.1957  2.7781
  887MPD2    N113012   2.872   3.567  15.157  0.4838  0.2774 -0.1154
  887MPD2    H713013   2.790   3.627  15.154 -0.2726 -0.7327  0.0982
  888MPD2     C13014   0.457   3.913  14.864 -0.2005 -0.1953 -0.6005
  888MPD2    C113015   0.367   3.988  14.937  0.8573 -0.3809 -0.9623
  888MPD2    C213016   0.368   4.121  14.923  0.5752  0.3320 -0.5520
  888MPD2    C313017   0.462   4.188  14.845  0.1644 -0.0276  0.3565
  888MPD2    C413018   0.553   4.110  14.781 -0.1994  0.7502  0.2545
  888MPD2    C513019   0.557   3.979  14.804  0.2363  0.7143 -0.0425
  888MPD2     H13020   0.288   4.177  14.971  1.4011  2.4010 -1.5661
  888MPD2    H113021   0.628   4.152  14.714 -2.7492  0.7450 -2.6192
  888MPD2    H213022   0.471   3.806  14.878 -0.0943 -0.4745 -2.9566
  888MPD2    H313023   0.635   3.927  14.750 -2.0839 -3.5720  0.7561
  888MPD2     N13024   0.457   4.327  14.829  0.3720 -0.0302  0.3257
  888MPD2    H513025   0.373   4.373  14.865  0.4974 -0.6495  1.4225
  888MPD2    N113026   0.292   3.926  15.041  0.1288 -0.3090  0.2816
  888MPD2    H713027   0.266   3.983  15.122 -1.2327 -0.9140  0.2771
  889MPD2     C13028   4.111   3.406  12.555  0.8097 -0.5830  0.1683
  889MPD2    C113029   4.221   3.478  12.602  0.1586 -0.2727  0.7575
  889MPD2    C213030   4.199   3.613  12.622  0.6754 -0.1435 -0.0206
  889MPD2    C313031   4.097   3.683  12.557 -0.0188 -0.6077 -0.5005
  889MPD2    C413032   4.001   3.610  12.489 -0.4919 -0.3229  0.0581
  889MPD2    C513033   4.008   3.471  12.500 -0.3523  0.8854  0.6907
  889MPD2     H13034   4.267   3.679  12.674 -1.3436  1.0278  1.1111
  889MPD2    H113035   3.934   3.657  12.418  0.1097  0.8546  0.2844
  889MPD2    H213036   4.098   3.299  12.562  0.7380 -0.5562  0.4520
  889MPD2    H313037   3.936   3.419  12.437  1.5333 -0.7766 -0.0702
  889MPD2     N13038   4.102   3.827  12.567 -0.0636 -0.1820 -0.0681
  889MPD2    H513039   4.195   3.864  12.582 -0.3277 -0.2186  1.6313
  889MPD2    N113040   4.321   3.399  12.676  0.5275 -0.4057 -0.5673
  889MPD2    H713041   4.333   3.298  12.679  1.7338 -0.1916  1.9138
  890MPD2     C13042   4.266   0.439  14.430 -0.0298 -0.1084  0.3102
  890MPD2    C113043   4.232   0.527  14.530  0.1662 -0.2858  0.6373
  890MPD2    C213044   4.221   0.473  14.658  0.5417 -0.0696 -0.3019
  890MPD2    C313045   4.235   0.337  14.681 -0.1030  0.2520  0.1323
  890MPD2    C413046   4.259   0.252  14.571  0.5341 -0.3416 -0.6958
  890MPD2    C513047   4.279   0.302  14.447  0.6580  0.1552 -0.8738
  890MPD2     H13048   4.202   0.529  14.749  0.3956  0.9687 -0.9831
  890MPD2    H113049   4.266   0.144  14.580 -2.3209 -0.3517  1.3464
  890MPD2    H213050   4.281   0.480  14.331  0.6168  1.0914  0.9013
  890MPD2    H313051   4.308   0.232  14.369  0.9505  0.0098 -0.6355
  890MPD2     N13052   4.211   0.287  14.812  0.4351  0.5141 -0.2268
  890MPD2    H513053   4.159   0.349  14.874  0.6578 -1.0298  1.4930
  890MPD2    N113054   4.221   0.665  14.501 -1.1356 -0.2903 -0.3911
  890MPD2    H713055   4.244   0.685  14.404  0.8320  2.5530  0.6551
  891MPD2     C13056   1.960   3.991  16.245 -0.0286 -1.3873  0.0724
  891MPD2    C113057   1.927   4.058  16.364 -1.1796  0.5353  0.5685
  891MPD2    C213058   2.015   4.048  16.476  0.3254  0.1714 -0.5381
  891MPD2    C313059   2.135   3.979  16.465 -1.1044 -0.1098  0.4786
  891MPD2    C413060   2.158   3.914  16.346  0.4818 -0.3620 -0.1302
  891MPD2    C513061   2.072   3.915  16.241  0.3476  0.6662 -0.1672
  891MPD2     H13062   1.989   4.089  16.573 -2.0489  0.0094 -1.1004
  891MPD2    H113063   2.257   3.872  16.337  0.0347 -1.5609  0.6543
  891MPD2    H213064   1.901   4.006  16.155 -1.2480  0.9963  1.2850
  891MPD2    H313065   2.110   3.883  16.144 -0.6753  0.5445 -0.5294
  891MPD2     N13066   2.220   3.964  16.577  0.4935 -0.4308 -0.5615
  891MPD2    H513067   2.198   4.028  16.653 -1.2836 -1.1637 -0.4432
  891MPD2    N113068   1.811   4.141  16.353 -0.1172  0.0411 -0.4098
  891MPD2    H713069   1.774   4.147  16.259 -3.2673  1.0083  0.9032
  892MPD2     C13070   3.104   4.696  14.432 -0.8308  0.2051  0.8958
  892MPD2    C113071   3.015   0.004  14.327  0.1778 -0.6806  0.5489
  892MPD2    C213072   3.076   0.017  14.207  0.5435  0.6179 -0.5491
  892MPD2    C313073   3.214   0.009  14.184  0.3152 -0.7597 -0.6475
  892MPD2    C413074   3.295   0.001  14.291 -0.2916 -0.2812 -0.2731
  892MPD2    C513075   3.244   4.708  14.414 -0.5174 -0.0721  0.4545
  892MPD2     H13076   3.015   0.045  14.122  0.3743  0.1167 -0.5951
  892MPD2    H113077   3.401   4.723  14.271  0.2937  0.6801  2.7461
  892MPD2    H213078   3.078   4.671  14.534  2.2822  1.0141  1.8906
  892MPD2    H313079   3.301   4.686  14.504 -0.7665 -0.3613  0.5424
  892MPD2     N13080   3.270   0.006  14.054 -0.9502  0.0267  0.0843
  892MPD2    H513081   3.371   4.723  14.049 -0.9646 -1.4417  1.5050
  892MPD2    N113082   2.878   0.017  14.350  0.0814 -0.7978  0.2524
  892MPD2    H713083   2.814   0.051  14.278 -0.9435 -1.2285  0.9593
  893MPD2     C13084   0.298   2.305   1.756  0.7976 -0.5696 -0.4535
  893MPD2    C113085   0.288   2.439   1.744  0.4701 -0.0831 -0.1485
  893MPD2    C213086   0.165   2.502   1.774 -0.2790  0.1284 -0.2100
  893MPD2    C313087   0.059   2.423   1.822  0.1141 -0.3491 -0.4749
  893MPD2    C413088   0.069   2.283   1.825 -0.2182 -0.3208 -0.3855
  893MPD2    C513089   0.194   2.228   1.805 -0.3618  0.3004 -0.0487
  893MPD2     H13090   0.164   2.610   1.783 -0.5003  0.1383 -0.3508
  893MPD2    H113091   4.723   2.214   1.870  0.8502 -1.7571 -0.9418
  893MPD2    H213092   0.394   2.261   1.732  1.6122 -0.1980  2.1097
  893MPD2    H313093   0.207   2.126   1.839 -0.3752  0.1375 -0.5197
  893MPD2     N13094   4.656   2.470   1.856  0.1505  0.5525  0.5377
  893MPD2    H513095   4.581   2.403   1.870  1.3242 -0.7396  0.5776
  893MPD2    N113096   0.399   2.510   1.699  0.3849  0.1042 -0.1004
  893MPD2    H713097   0.476   2.457   1.659 -0.0467 -1.4611  1.1343
  894MPD2     C13098   2.656   1.131   0.766 -0.2187  0.2394 -0.7910
  894MPD2    C113099   2.736   1.135   0.879  0.7079  0.3756 -0.0889
  894MPD2    C213100   2.843   1.219   0.869 -0.1094 -0.0746  0.0122
  894MPD2    C313101   2.891   1.269   0.751  1.0555 -0.4435 -0.4221
  894MPD2    C413102   2.818   1.247   0.632 -0.4381  0.4914  0.0078
  894MPD2    C513103   2.699   1.187   0.643  0.3106  0.0282  0.3312
  894MPD2     H13104   2.887   1.252   0.962 -0.4433 -0.1070  0.1812
  894MPD2    H113105   2.842   1.271   0.529 -0.2679  1.9644  0.3802
  894MPD2    H213106   2.563   1.076   0.761 -0.8106  1.2384 -0.7121
  894MPD2    H313107   2.639   1.164   0.556  0.9824 -0.9592  0.1293
  894MPD2     N13108   3.005   1.353   0.755 -0.4611 -0.5208 -0.5195
  894MPD2    H513109   3.051   1.359   0.846 -0.5548  1.5563 -0.5973
  894MPD2    N113110   2.705   1.079   1.005  0.4547 -0.4414  0.4849
  894MPD2    H713111   2.776   1.096   1.075  1.0389  1.4506 -0.5673
  895MPD2     C13112   1.824   4.391  12.951 -0.7506  0.6698 -0.7759
  895MPD2    C113113   1.761   4.277  12.910  0.3473 -0.6501  0.5525
  895MPD2    C213114   1.835   4.164  12.905 -0.4710 -0.3085 -0.7263
  895MPD2    C313115   1.970   4.160  12.930 -0.0469 -0.0894  1.1348
  895MPD2    C413116   2.035   4.276  12.964 -0.0247  0.1087 -0.1024
  895MPD2    C513117   1.958   4.390  12.974 -0.0390 -0.1056 -0.0900
  895MPD2     H13118   1.784   4.077  12.865 -2.4013  0.2523  0.5172
  895MPD2    H113119   2.143   4.274  12.977 -0.2700  2.2654  2.1910
  895MPD2    H213120   1.779   4.488  12.967 -0.8668  0.4043  0.5168
  895MPD2    H313121   2.000   4.481  13.016  1.2699  1.5613 -4.9975
  895MPD2     N13122   2.029   4.037  12.901  0.0425 -0.0547  0.0906
  895MPD2    H513123   1.967   3.967  12.862  0.6614  0.9183 -2.6332
  895MPD2    N113124   1.627   4.269  12.883  0.3316  0.5435  0.3865
  895MPD2    H713125   1.594   4.176  12.861  0.2833  0.0905  2.3843
  896MPD2     C13126   4.190   0.584   1.264  0.2861 -0.1854  0.0725
  896MPD2    C113127   4.197   0.723   1.254  0.6452  0.8452  0.3911
  896MPD2    C213128   4.087   0.792   1.200  0.7391 -0.5216 -0.1256
  896MPD2    C313129   3.980   0.723   1.148  0.0134  0.1820  0.2822
  896MPD2    C413130   3.979   0.586   1.151 -0.6516 -0.3800 -0.6091
  896MPD2    C513131   4.085   0.517   1.211 -0.2405  0.0884 -0.3515
  896MPD2     H13132   4.090   0.900   1.189  1.2519 -0.4168  0.9898
  896MPD2    H113133   3.889   0.536   1.119 -0.2692 -1.4176 -0.0814
  896MPD2    H213134   4.265   0.534   1.323  0.1386 -1.1035 -0.5117
  896MPD2    H313135   4.079   0.409   1.213 -1.2378  0.1809  1.8901
  896MPD2     N13136   3.878   0.803   1.084 -0.3411  0.0382  0.5504
  896MPD2    H513137   3.881   0.902   1.103  2.4199  0.2602 -1.1514
  896MPD2    N113138   4.309   0.784   1.309  0.0811  0.1712  0.2509
  896MPD2    H713139   4.375   0.722   1.355  3.4825  3.0596 -0.6866
  897MPD2     C13140   1.048   4.008  10.232  0.0598  0.2849 -0.0704
  897MPD2    C113141   0.923   3.961  10.187  0.4767  0.0658 -0.0754
  897MPD2    C213142   0.854   3.875  10.265  0.0361  0.7443 -0.0004
  897MPD2    C313143   0.895   3.837  10.388  0.3041  0.2883 -0.3241
  897MPD2    C413144   1.021   3.873  10.429 -0.3254  0.1467  0.1840
  897MPD2    C513145   1.095   3.958  10.347  0.1485  0.0809  0.0360
  897MPD2     H13146   0.752   3.847  10.242 -0.2392  1.3221  0.5342
  897MPD2    H113147   1.053   3.862  10.532  0.5891 -1.7932 -0.2928
  897MPD2    H213148   1.116   4.066  10.170 -0.6347  0.0334 -1.0744
  897MPD2    H313149   1.194   3.978  10.385  0.4421 -1.3894  0.0525
  897MPD2     N13150   0.808   3.766  10.475  0.3924 -0.6272 -0.0702
  897MPD2    H513151   0.719   3.737  10.436 -0.5530  3.7382 -1.0428
  897MPD2    N113152   0.872   4.035  10.075 -0.6576  0.3209  0.3239
  897MPD2    H713153   0.934   4.100  10.026 -1.1005 -0.0160 -0.6757
  898MPD2     C13154   2.993   4.186   0.161  0.0312 -0.3447 -0.3913
  898MPD2    C113155   3.022   4.184   0.034  0.0209 -0.0601 -0.3675
  898MPD2    C213156   2.955   4.267  17.642  0.0776 -0.5158 -0.4863
  898MPD2    C313157   2.860   4.360  17.684 -0.6757 -0.2157  0.7275
  898MPD2    C413158   2.821   4.350   0.123 -0.0177 -0.1504  0.0922
  898MPD2    C513159   2.884   4.256   0.206 -0.3176 -0.4940 -0.0798
  898MPD2     H13160   2.991   4.279  17.540 -0.1230  1.8091 -0.2823
  898MPD2    H113161   2.743   4.406   0.173  0.0642 -0.7372  0.8699
  898MPD2    H213162   3.044   4.127   0.237  0.8635 -0.6613 -1.1998
  898MPD2    H313163   2.850   4.250   0.308 -1.4221 -1.4749 -0.5127
  898MPD2     N13164   2.792   4.439  17.588 -0.0583 -0.1285 -0.7581
  898MPD2    H513165   2.812   4.418  17.491  0.6572  2.6320 -1.1976
  898MPD2    N113166   3.125   4.102  17.673  0.4264  0.3420  0.2600
  898MPD2    H713167   3.142   4.108  17.573  3.2107  0.3591  0.7354
  899MPD2     C13168   4.117   0.135  17.220  0.2860 -0.0606  0.3764
  899MPD2    C113169   4.033   0.141  17.112 -0.0818 -0.5697 -0.1744
  899MPD2    C213170   3.919   0.056  17.112  0.5943 -0.1820 -0.1989
  899MPD2    C313171   3.904   4.675  17.198  0.1991  1.4642  0.0055
  899MPD2    C413172   3.987   4.670  17.309  0.0317 -0.4347 -0.1204
  899MPD2    C513173   4.096   0.034  17.314 -0.6804 -0.3261  0.1470
  899MPD2     H13174   3.838   0.065  17.040  0.7533 -2.5465 -0.6894
  899MPD2    H113175   3.967   4.602  17.391  3.3709 -2.1186 -0.6968
  899MPD2    H213176   4.205   0.198  17.226  0.7266 -0.4671 -1.9251
  899MPD2    H313177   4.165   0.034  17.398 -2.1621 -0.7227  1.3510
  899MPD2     N13178   3.784   4.591  17.200  0.0683  0.1325  0.1996
  899MPD2    H513179   3.789   4.506  17.255 -1.7863 -0.0581  0.0839
  899MPD2    N113180   4.051   0.240  17.014 -0.2819  0.7206  0.1288
  899MPD2    H713181   4.128   0.305  17.026  1.1876 -0.7470 -1.2915
  900MPD2     C13182   3.295   2.463  12.305  0.6882  0.0478  0.1313
  900MPD2    C113183   3.274   2.372  12.208  1.0294 -0.7068 -0.1751
  900MPD2    C213184   3.205   2.415  12.096  0.2462 -0.0281  0.4372
  900MPD2    C313185   3.157   2.546  12.078  0.1207 -0.5968  0.1430
  900MPD2    C413186   3.180   2.634  12.182  0.2901 -0.2813 -0.3451
  900MPD2    C513187   3.242   2.586  12.294  0.2200 -0.2742 -0.1750
  900MPD2     H13188   3.188   2.354  12.008  0.3140  0.4887  0.0654
  900MPD2    H113189   3.154   2.739  12.178  0.4271 -0.3050 -1.8623
  900MPD2    H213190   3.355   2.445  12.394 -0.9664 -0.1676  1.2037
  900MPD2    H313191   3.231   2.647  12.383  0.1873  0.8732 -0.9670
  900MPD2     N13192   3.092   2.584  11.961 -0.2254  0.2506 -0.0789
  900MPD2    H513193   3.071   2.511  11.893  0.5923 -1.0134  1.0351
  900MPD2    N113194   3.327   2.242  12.215  0.3417  0.0866  0.0728
  900MPD2    H713195   3.378   2.210  12.296  0.8798  0.4479 -0.1254
  901MPD2     C13196   3.232   1.180  12.339 -0.6910  0.0115 -0.7606
  901MPD2    C113197   3.331   1.193  12.254 -0.1806 -0.0248  0.1179
  901MPD2    C213198   3.356   1.321  12.207  0.4915  0.2838  0.4896
  901MPD2    C313199   3.283   1.432  12.241 -0.1191  0.1383 -0.1168
  901MPD2    C413200   3.172   1.407  12.321  0.0403  0.7985 -0.1805
  901MPD2    C513201   3.152   1.285  12.375 -1.0938 -0.4152  0.6397
  901MPD2     H13202   3.437   1.336  12.136  1.5227 -2.4705  1.0706
  901MPD2    H113203   3.102   1.483  12.355  1.0126  1.7738 -0.3814
  901MPD2    H213204   3.212   1.078  12.369 -1.2373  0.4954  0.4959
  901MPD2    H313205   3.071   1.270  12.445 -1.3839 -0.3821  0.3133
  901MPD2     N13206   3.320   1.554  12.188 -0.5712 -0.5835 -0.8264
  901MPD2    H513207   3.400   1.553  12.125 -1.4604  1.6590 -1.9979
  901MPD2    N113208   3.415   1.075  12.231 -0.4656 -0.7764 -0.7135
  901MPD2    H713209   3.405   1.005  12.303  1.8763 -0.6136 -0.2555
  902MPD2     C13210   1.891   4.505  12.559  0.1032  0.2078 -0.2785
  902MPD2    C113211   1.856   4.607  12.475 -0.0681  1.1363  0.5099
  902MPD2    C213212   1.890   4.593  12.344 -0.4758 -0.1224  0.3345
  902MPD2    C313213   1.959   4.486  12.302 -0.3820  0.1745  0.4343
  902MPD2    C413214   1.994   4.384  12.383  0.6236 -0.2992  0.4887
  902MPD2    C513215   1.964   4.392  12.518 -0.4506  0.0278 -1.0100
  902MPD2     H13216   1.852   4.669  12.277  1.5598  1.0814  0.5240
  902MPD2    H113217   2.053   4.299  12.349 -0.8587 -2.4008  3.2037
  902MPD2    H213218   1.878   4.525  12.665 -1.4227  1.5078 -0.6967
  902MPD2    H313219   2.003   4.316  12.584  0.6267 -0.2898 -2.0143
  902MPD2     N13220   1.997   4.474  12.162  0.1320 -0.1248 -0.2959
  902MPD2    H513221   2.044   4.390  12.129  1.0565 -0.2730  1.3963
  902MPD2    N113222   1.782   4.720  12.517  0.3619  0.2912  0.1952
  902MPD2    H713223   1.760   0.065  12.445  0.5310  2.0759  1.8598
  903MPD2     C13224   2.151   4.721  11.274  0.1777  0.5255 -0.2105
  903MPD2    C113225   2.043   4.715  11.357 -0.1510 -0.8027 -0.0888
  903MPD2    C213226   1.912   0.013  11.320  0.7400 -0.4769  1.2018
  903MPD2    C313227   1.885   0.044  11.191 -0.1951  0.4995  1.1689
  903MPD2    C413228   1.993   0.047  11.101  0.2465 -0.2921 -0.0768
  903MPD2    C513229   2.121   0.017  11.144 -0.2859 -0.0058 -0.4638
  903MPD2     H13230   1.834   4.707  11.389  0.5882  0.1312  1.2811
  903MPD2    H113231   1.980   0.062  10.994  1.0612  2.2632  0.1819
  903MPD2    H213232   2.254   4.700  11.298  0.1296  0.5233 -0.0078
  903MPD2    H313233   2.201   0.022  11.071 -0.6083  1.2140 -0.7340
  903MPD2     N13234   1.751   0.081  11.155 -0.2888 -0.0703  0.0877
  903MPD2    H513235   1.684   0.077  11.231 -0.4880 -0.8605 -0.1318
  903MPD2    N113236   2.074   4.687  11.492  0.6950  0.0065 -0.1545
  903MPD2    H713237   2.170   4.657  11.509  1.1307  3.0129  2.6258
  904MPD2     C13238   1.751   3.823  13.280 -0.0074  0.1622  0.6855
  904MPD2    C113239   1.750   3.779  13.411  0.6219 -0.0330 -0.3024
  904MPD2    C213240   1.872   3.755  13.471 -0.2575  0.0452 -0.5089
  904MPD2    C313241   1.990   3.779  13.401  0.0072  0.6790 -0.6975
  904MPD2    C413242   1.988   3.820  13.271  0.1732  0.3854  0.2557
  904MPD2    C513243   1.867   3.850  13.213  0.0297 -0.3009 -0.2394
  904MPD2     H13244   1.865   3.723  13.575 -2.1079 -0.3137 -0.7475
  904MPD2    H113245   2.082   3.841  13.220 -0.3755  1.0742 -0.4707
  904MPD2    H213246   1.661   3.836  13.220 -1.3660 -0.1762  2.6527
  904MPD2    H313247   1.859   3.882  13.110  1.4042  1.4012  0.1897
  904MPD2     N13248   2.102   3.752  13.480  0.5239  0.0635 -0.3154
  904MPD2    H513249   2.093   3.707  13.571 -1.0308 -0.2675 -0.6463
  904MPD2    N113250   1.639   3.755  13.491  0.1212  0.0921  0.1409
  904MPD2    H713251   1.654   3.693  13.569 -3.9673 -0.9382  0.1155
  905MPD2     C13252   1.444   3.584  12.976  0.0504 -0.5066  0.0325
  905MPD2    C113253   1.495   3.713  12.962  0.8764  0.2322 -0.3342
  905MPD2    C213254   1.614   3.738  12.899 -0.2205  1.1599  0.2919
  905MPD2    C313255   1.682   3.634  12.833 -0.0414 -0.1494  0.1329
  905MPD2    C413256   1.624   3.508  12.835 -0.4847  0.8310 -0.0095
  905MPD2    C513257   1.510   3.484  12.908  0.4843 -0.5786  0.7411
  905MPD2     H13258   1.658   3.837  12.895 -1.4577  1.7184  0.6266
  905MPD2    H113259   1.676   3.428  12.784 -0.5951  3.0813 -3.6491
  905MPD2    H213260   1.352   3.563  13.029  0.3942 -1.0288  0.4280
  905MPD2    H313261   1.484   3.380  12.924 -1.1216 -0.2767  0.0570
  905MPD2     N13262   1.812   3.636  12.779 -0.5841 -0.0560 -0.8560
  905MPD2    H513263   1.838   3.545  12.742 -0.6492  1.2008 -4.0351
  905MPD2    N113264   1.428   3.812  13.047  0.1537 -0.4426  0.0167
  905MPD2    H713265   1.371   3.777  13.123 -0.4238  1.6146  0.5311
  906MPD2     C13266   4.208   3.622  11.488 -0.2327  0.3371  0.2184
  906MPD2    C113267   4.148   3.562  11.380 -0.2335 -0.4602  0.0074
  906MPD2    C213268   4.044   3.484  11.409 -0.5879 -0.6906 -0.0936
  906MPD2    C313269   3.989   3.460  11.535 -0.2872  0.6455 -0.5424
  906MPD2    C413270   4.058   3.509  11.642 -0.0520  0.3475  0.5645
  906MPD2    C513271   4.168   3.584  11.612 -0.7199 -0.4283  0.7640
  906MPD2     H13272   3.984   3.434  11.334 -1.1231 -0.4346  0.1661
  906MPD2    H113273   4.021   3.491  11.742  0.5469 -0.5802  0.6237
  906MPD2    H213274   4.304   3.672  11.478  0.6673 -1.7220 -1.4075
  906MPD2    H313275   4.232   3.615  11.694 -0.4449  2.5419 -0.6023
  906MPD2     N13276   3.879   3.376  11.556  0.4668 -0.2038 -0.2073
  906MPD2    H513277   3.873   3.339  11.651  1.0904 -3.0313 -1.2676
  906MPD2    N113278   4.194   3.575  11.238 -0.2886 -0.1536  0.3147
  906MPD2    H713279   4.135   3.536  11.165 -1.0694 -2.4488  2.1934
  907MPD2     C13280   3.293   2.652  15.333  0.4197  0.0222  0.1525
  907MPD2    C113281   3.264   2.524  15.348  0.1944  0.0792  0.3827
  907MPD2    C213282   3.289   2.466  15.471 -0.6746  0.3541  0.1645
  907MPD2    C313283   3.338   2.537  15.581  0.5004 -0.2238 -0.2599
  907MPD2    C413284   3.360   2.671  15.561 -0.2151 -1.1643 -0.2097
  907MPD2    C513285   3.339   2.727  15.436 -0.1328  0.3794  0.5622
  907MPD2     H13286   3.292   2.357  15.469 -2.6303  0.3471 -2.3154
  907MPD2    H113287   3.406   2.733  15.638  0.7786 -2.5528  0.3137
  907MPD2    H213288   3.276   2.708  15.242  2.2674  0.6555  0.2016
  907MPD2    H313289   3.377   2.827  15.421  1.3524 -0.5938 -2.2580
  907MPD2     N13290   3.361   2.468  15.697 -0.4305  0.1651 -0.8035
  907MPD2    H513291   3.348   2.368  15.682  0.4592 -0.0956  0.1987
  907MPD2    N113292   3.233   2.437  15.236 -0.4065  1.1717 -0.4073
  907MPD2    H713293   3.223   2.337  15.247 -0.6373  1.4390  1.6563
  908MPD2     C13294   0.237   3.738   9.358 -0.3117  0.2440 -0.2281
  908MPD2    C113295   0.351   3.690   9.408 -0.8999  0.1163 -0.2801
  908MPD2    C213296   0.435   3.757   9.497  0.7893 -0.0677 -0.0034
  908MPD2    C313297   0.394   3.888   9.524  0.6285  0.1105  0.0762
  908MPD2    C413298   0.282   3.942   9.467  0.4026 -0.0022  0.0248
  908MPD2    C513299   0.206   3.869   9.378  0.3332 -0.4286 -0.5261
  908MPD2     H13300   0.527   3.720   9.541 -0.9396 -0.0062  3.6833
  908MPD2    H113301   0.252   4.044   9.484 -2.2783 -0.7343 -0.3242
  908MPD2    H213302   0.173   3.682   9.291 -0.7109  1.0303 -0.5092
  908MPD2    H313303   0.116   3.901   9.327 -1.9082 -5.6305  0.1727
  908MPD2     N13304   0.482   3.957   9.609 -0.3099 -0.0229 -0.0379
  908MPD2    H513305   0.569   3.915   9.639 -1.1954 -2.0099 -0.2104
  908MPD2    N113306   0.386   3.556   9.368 -0.4985 -0.3165  0.1607
  908MPD2    H713307   0.312   3.511   9.315  1.8539 -3.8333 -0.1445
  909MPD2     C13308   1.297   1.277  11.440  0.6633 -0.4330 -0.1215
  909MPD2    C113309   1.337   1.407  11.433  0.0366  0.1771 -0.6550
  909MPD2    C213310   1.288   1.503  11.520 -0.6735  0.2680  0.0016
  909MPD2    C313311   1.196   1.464  11.619 -0.0617  0.4967  0.0881
  909MPD2    C413312   1.141   1.337  11.618  0.4219 -0.5086 -0.0342
  909MPD2    C513313   1.198   1.247  11.530 -0.2491 -0.1219 -0.8643
  909MPD2     H13314   1.333   1.602  11.520  0.5129 -0.2720 -1.3766
  909MPD2    H113315   1.065   1.305  11.688  2.1070 -2.1247  1.0735
  909MPD2    H213316   1.332   1.199  11.373 -0.9189 -0.3936 -0.9890
  909MPD2    H313317   1.152   1.149  11.525 -1.4312  0.5046 -2.2835
  909MPD2     N13318   1.150   1.564  11.705 -0.3123  1.0582 -0.0318
  909MPD2    H513319   1.183   1.659  11.691 -1.2103  1.6573  1.9151
  909MPD2    N113320   1.436   1.448  11.346 -0.9131 -0.0669 -0.2135
  909MPD2    H713321   1.473   1.540  11.368 -0.6564  0.5141 -3.0422
  910MPD2     C13322   2.456   3.135  15.155 -0.2618  0.5359 -0.1125
  910MPD2    C113323   2.577   3.120  15.093 -1.4503 -0.6062 -0.3739
  910MPD2    C213324   2.594   3.174  14.963  0.2972 -0.4400 -0.0894
  910MPD2    C313325   2.481   3.241  14.915  0.4861  1.2089 -1.0319
  910MPD2    C413326   2.354   3.247  14.970  0.3112 -0.0460  0.0138
  910MPD2    C513327   2.348   3.201  15.101  0.1768  0.5467 -0.4232
  910MPD2     H13328   2.691   3.172  14.916 -0.1352 -0.2933 -0.9854
  910MPD2    H113329   2.272   3.291  14.914  1.9702  3.9134  0.6996
  910MPD2    H213330   2.438   3.091  15.252 -0.7478 -0.4967 -0.6681
  910MPD2    H313331   2.254   3.197  15.156  2.2772  0.2098  3.1318
  910MPD2     N13332   2.473   3.290  14.784  0.5334 -0.0449 -0.0935
  910MPD2    H513333   2.383   3.328  14.754  1.2848  1.7921  0.0006
  910MPD2    N113334   2.694   3.060  15.150  0.0831 -0.1917 -0.2097
  910MPD2    H713335   2.780   3.058  15.096 -0.3070  0.5507 -0.8338
  911MPD2     C13336   0.455   3.475  15.928  0.3543  0.5257  0.1483
  911MPD2    C113337   0.482   3.604  15.957  0.0487 -0.3033 -0.8826
  911MPD2    C213338   0.415   3.710  15.889  0.2040  0.2313 -0.0089
  911MPD2    C313339   0.307   3.669  15.811 -0.9289 -0.4247  0.2956
  911MPD2    C413340   0.275   3.535  15.799  0.3228  0.1763  0.0061
  911MPD2    C513341   0.349   3.434  15.854  0.6989 -0.0068 -0.2192
  911MPD2     H13342   0.439   3.814  15.905 -2.8231  0.6773  1.5590
  911MPD2    H113343   0.183   3.511  15.748  0.8925 -1.0168 -0.4722
  911MPD2    H213344   0.511   3.398  15.981  0.2380 -1.1120 -2.0664
  911MPD2    H313345   0.317   3.331  15.850  1.0763 -0.0999 -0.8371
  911MPD2     N13346   0.220   3.765  15.747 -0.1525 -0.0376  0.0042
  911MPD2    H513347   0.146   3.726  15.691  0.4667 -3.4120  1.5565
  911MPD2    N113348   0.588   3.623  16.042 -0.3692 -0.2670  0.1049
  911MPD2    H713349   0.635   3.538  16.072  1.7040  0.8667  0.0732
  912MPD2     C13350   4.513   3.584  15.232 -0.0447 -0.5056 -0.7694
  912MPD2    C113351   4.564   3.592  15.359 -0.0132 -0.4380 -0.2103
  912MPD2    C213352   4.585   3.475  15.429 -0.0558  1.3647  0.4604
  912MPD2    C313353   4.535   3.357  15.380  0.1446 -0.4465  0.7064
  912MPD2    C413354   4.486   3.343  15.249  0.0928  0.3317 -0.4036
  912MPD2    C513355   4.485   3.459  15.178  0.6460  0.2887 -0.5696
  912MPD2     H13356   4.645   3.470  15.519 -0.0237  0.0841  0.3663
  912MPD2    H113357   4.466   3.245  15.207 -0.7704  1.6298 -2.9989
  912MPD2    H213358   4.492   3.676  15.178  0.3251  0.2770  0.4247
  912MPD2    H313359   4.447   3.450  15.077  1.8417  2.3716 -1.2232
  912MPD2     N13360   4.553   3.243  15.463 -0.5926  0.8932  0.5848
  912MPD2    H513361   4.608   3.259  15.547 -0.0380 -0.8162  0.5417
  912MPD2    N113362   4.593   3.719  15.401 -0.7386  0.1025  0.4124
  912MPD2    H713363   4.555   3.797  15.348 -2.2053 -0.8360  0.0963
  913MPD2     C13364   4.687   0.101   9.938  0.7834  0.4505  0.3230
  913MPD2    C113365   0.021   0.196  10.018 -0.2127 -0.2176 -0.1554
  913MPD2    C213366   0.079   0.309   9.964  1.1955  0.4766 -1.1708
  913MPD2    C313367   0.062   0.339   9.831 -0.0299 -0.0712 -1.3995
  913MPD2    C413368   4.711   0.258   9.753  0.4044  0.7478 -0.1598
  913MPD2    C513369   4.659   0.139   9.807 -0.7321 -0.0007 -0.4358
  913MPD2     H13370   0.126   0.386  10.025  0.3618 -1.2901  1.6906
  913MPD2    H113371   4.677   0.288   9.654  0.9214 -0.5003 -0.7287
  913MPD2    H213372   4.652   0.002   9.963 -0.9890  1.2209  0.8261
  913MPD2    H313373   4.591   0.077   9.749  1.2241 -1.4263 -1.1895
  913MPD2     N13374   0.105   0.458   9.769  0.6517 -0.2159 -0.1977
  913MPD2    H513375   0.072   0.476   9.675  1.4411 -0.4391 -0.5165
  913MPD2    N113376   0.030   0.160  10.154 -0.2210  0.0745  0.1552
  913MPD2    H713377   4.708   0.074  10.181 -1.4103 -0.1403 -2.5113
  914MPD2     C13378   2.887   0.975  11.841  0.0791  0.0845 -0.0603
  914MPD2    C113379   2.973   1.075  11.890  0.1802 -0.2699 -0.5965
  914MPD2    C213380   3.106   1.043  11.920 -0.0682  0.1514  0.4040
  914MPD2    C313381   3.152   0.916  11.889 -0.4233 -0.2434 -0.1645
  914MPD2    C413382   3.065   0.819  11.844 -0.3835  0.2270 -0.6217
  914MPD2    C513383   2.936   0.848  11.820  1.1721  0.9940 -0.1810
  914MPD2     H13384   3.172   1.110  11.972 -0.3042 -0.9433  2.0950
  914MPD2    H113385   3.101   0.718  11.828 -1.4307 -0.3480  0.5591
  914MPD2    H213386   2.788   0.999  11.805  0.2037  1.5635  0.5970
  914MPD2    H313387   2.871   0.769  11.784  0.5913  0.4734  2.0274
  914MPD2     N13388   3.287   0.891  11.933  0.0352 -0.2472  0.6352
  914MPD2    H513389   3.344   0.965  11.973 -0.8882  1.2200 -0.7484
  914MPD2    N113390   2.924   1.211  11.895  0.1646 -0.0001 -0.1975
  914MPD2    H713391   2.824   1.223  11.879 -0.1900 -2.1243  0.3916
  915MPD2     C13392   1.160   0.291  14.989 -1.0092  0.7593  0.1327
  915MPD2    C113393   1.075   0.396  14.994  0.7717 -0.3284 -0.3172
  915MPD2    C213394   1.081   0.478  15.103  0.8285  0.0161  0.2336
  915MPD2    C313395   1.183   0.461  15.189 -0.4354 -0.0679 -0.0692
  915MPD2    C413396   1.289   0.373  15.166 -0.3303  0.0897 -0.5847
  915MPD2    C513397   1.268   0.283  15.068 -0.5262  0.4428 -0.1383
  915MPD2     H13398   1.004   0.553  15.122  1.9586  1.4380 -0.8299
  915MPD2    H113399   1.365   0.352  15.241 -1.3611 -1.5805 -0.0090
  915MPD2    H213400   1.164   0.210  14.917 -1.1142  0.5022  0.4161
  915MPD2    H313401   1.344   0.207  15.054  0.7216  1.4565  1.1024
  915MPD2     N13402   1.180   0.544  15.305  0.6464 -0.1100 -0.5339
  915MPD2    H513403   1.103   0.609  15.305  0.4468 -0.3433 -0.7130
  915MPD2    N113404   0.970   0.411  14.900 -0.3326 -0.0913  0.3834
  915MPD2    H713405   0.902   0.484  14.918 -1.3234 -0.8262 -0.3601
  916MPD2     C13406   4.006   3.365  15.215  0.0567 -0.3794 -0.4617
  916MPD2    C113407   4.091   3.318  15.317 -1.0302  0.1230 -0.3318
  916MPD2    C213408   4.174   3.206  15.298 -0.5035  0.1857  0.7610
  916MPD2    C313409   4.184   3.141  15.173  0.3498 -0.0967 -0.3303
  916MPD2    C413410   4.106   3.195  15.073  0.2413  0.0113 -1.0396
  916MPD2    C513411   4.022   3.300  15.097  0.1787  0.0782 -0.7359
  916MPD2     H13412   4.238   3.159  15.372  0.0739  0.7080  0.5931
  916MPD2    H113413   4.097   3.154  14.973  2.3903 -0.5727 -0.9952
  916MPD2    H213414   3.946   3.455  15.217 -0.3476 -0.6312 -1.1851
  916MPD2    H313415   3.966   3.334  15.011  2.3636  2.5539 -1.1845
  916MPD2     N13416   4.267   3.031  15.158 -0.1324  0.4738 -0.0649
  916MPD2    H513417   4.324   3.005  15.237  1.5273 -0.1719 -1.4627
  916MPD2    N113418   4.079   3.390  15.438 -0.5997  0.6825  0.2917
  916MPD2    H713419   4.014   3.467  15.427 -1.3668  0.4665  3.2503
  917MPD2     C13420   4.609   1.271  10.728  0.1512  0.6381  0.3137
  917MPD2    C113421   4.681   1.274  10.844 -0.1872  0.1426  0.2033
  917MPD2    C213422   0.093   1.304  10.843 -0.4489  0.3080 -0.3195
  917MPD2    C313423   0.162   1.336  10.723  0.0456  0.0997 -0.2992
  917MPD2    C413424   0.083   1.330  10.611 -0.2844 -0.9324 -0.5992
  917MPD2    C513425   4.675   1.297  10.613  0.1718  0.2540 -0.0971
  917MPD2     H13426   0.150   1.298  10.935 -0.3046 -1.8459 -0.5364
  917MPD2    H113427   0.116   1.356  10.511 -1.9089  1.9342 -0.3852
  917MPD2    H213428   4.504   1.249  10.714 -0.2750  0.8480  3.2367
  917MPD2    H313429   4.613   1.294  10.524  0.4238  0.0993 -0.2688
  917MPD2     N13430   0.292   1.380  10.714 -0.2200 -0.8112 -0.0009
  917MPD2    H513431   0.321   1.426  10.628  0.6518 -3.0895 -0.9238
  917MPD2    N113432   4.609   1.256  10.964 -0.5559  0.2632  0.1278
  917MPD2    H713433   4.523   1.202  10.956 -1.1158  1.2913 -0.7532
  918MPD2     C13434   0.022   1.626  11.904  0.1423 -0.4277  0.9534
  918MPD2    C113435   0.115   1.560  11.831  0.2447 -0.0910  0.1521
  918MPD2    C213436   0.079   1.504  11.711  0.0709  0.0019  0.0567
  918MPD2    C313437   4.671   1.494  11.671  0.0419  0.3438 -0.1126
  918MPD2    C413438   4.576   1.565  11.751  0.0854 -0.0305 -0.8509
  918MPD2    C513439   4.620   1.630  11.864 -0.2682  0.4035 -0.2149
  918MPD2     H13440   0.154   1.457  11.648 -0.0395 -0.7079  0.4530
  918MPD2    H113441   4.475   1.589  11.720 -0.4287 -0.7349  0.2597
  918MPD2    H213442   0.055   1.677  11.993 -3.0516 -1.1188  2.5397
  918MPD2    H313443   4.554   1.686  11.929  0.0873  0.2197  0.3039
  918MPD2     N13444   4.631   1.433  11.554  0.1317 -0.4154  0.5327
  918MPD2    H513445   4.696   1.419  11.477  0.2368  1.8900  0.2265
  918MPD2    N113446   0.254   1.555  11.868 -0.2167 -0.4371  0.3584
  918MPD2    H713447   0.317   1.519  11.797 -1.3053 -1.5906 -0.0338
  919MPD2     C13448   0.250   0.622  11.423 -0.2597  0.7316 -0.0335
  919MPD2    C113449   0.205   0.503  11.381  0.1199  0.2776 -0.0784
  919MPD2    C213450   0.195   0.484  11.243  0.2303  0.4450  0.6882
  919MPD2    C313451   0.208   0.590  11.154  0.2549  0.2846  0.4588
  919MPD2    C413452   0.258   0.710  11.203 -0.1211  0.2823 -0.7497
  919MPD2    C513453   0.269   0.724  11.341 -0.0171  0.1204  0.2857
  919MPD2     H13454   0.167   0.383  11.213 -0.9464  0.6049  1.2502
  919MPD2    H113455   0.288   0.797  11.146 -0.3932  1.1340  0.4113
  919MPD2    H213456   0.262   0.640  11.529  1.3029  0.4813 -0.1644
  919MPD2    H313457   0.306   0.818  11.379  0.3065 -1.4492  3.8268
  919MPD2     N13458   0.187   0.579  11.019 -0.4941  0.2302 -0.1711
  919MPD2    H513459   0.226   0.652  10.959 -0.9542 -0.2131 -1.0072
  919MPD2    N113460   0.190   0.387  11.469 -0.2560  0.0447 -0.0257
  919MPD2    H713461   0.153   0.308  11.417 -1.3549 -0.2645  1.2031
  920MPD2     C13462   0.394   0.903  10.118 -0.1034 -0.1058  0.3193
  920MPD2    C113463   0.268   0.865  10.098  0.6794 -0.6378  0.3132
  920MPD2    C213464   0.217   0.778  10.197 -0.7159 -0.2005  0.0815
  920MPD2    C313465   0.282   0.742  10.315  0.2468  0.9051  0.1501
  920MPD2    C413466   0.415   0.777  10.323  1.1051 -0.3319 -0.5785
  920MPD2    C513467   0.468   0.857  10.222 -0.4446  0.5491 -0.0649
  920MPD2     H13468   0.111   0.759  10.196 -0.4559 -1.6091 -0.1845
  920MPD2    H113469   0.472   0.742  10.408  1.9156 -0.7415 -1.2832
  920MPD2    H213470   0.453   0.974  10.060  3.6548 -0.8170  3.2443
  920MPD2    H313471   0.568   0.895  10.235 -0.3680  1.5222 -3.5134
  920MPD2     N13472   0.218   0.666  10.418  0.0966 -0.2016 -0.3069
  920MPD2    H513473   0.120   0.654  10.397 -0.1537  0.5397  0.4209
  920MPD2    N113474   0.191   0.900   9.983 -0.3906 -0.7667  0.5200
  920MPD2    H713475   0.097   0.863   9.978 -1.6680  2.5848 -0.3179
  921MPD2     C13476   0.936   4.439  16.484 -0.4395 -0.2394  0.1386
  921MPD2    C113477   1.036   4.337  16.468 -0.1545 -0.2307  0.1852
  921MPD2    C213478   1.002   4.207  16.459 -0.3922  0.6084 -0.1156
  921MPD2    C313479   0.876   4.169  16.436  0.6086 -0.3523 -0.1905
  921MPD2    C413480   0.777   4.265  16.435  0.1193  0.5746 -0.3881
  921MPD2    C513481   0.809   4.395  16.459  0.7794 -0.3776 -0.0807
  921MPD2     H13482   1.071   4.124  16.453 -0.8716  0.1599  0.6139
  921MPD2    H113483   0.674   4.238  16.416  0.2195  0.2066 -0.4219
  921MPD2    H213484   0.955   4.543  16.510 -0.5501  0.1554 -1.3724
  921MPD2    H313485   0.727   4.466  16.456  1.0696  0.0358  1.4397
  921MPD2     N13486   0.830   4.031  16.415 -0.3705  0.7468 -0.3179
  921MPD2    H513487   0.743   4.025  16.364 -1.7611  3.6887  1.6949
  921MPD2    N113488   1.171   4.377  16.471  0.4844  0.7567 -0.3084
  921MPD2    H713489   1.182   4.478  16.462  1.1953  0.8896  1.9013
  922MPD2     C13490   2.018   0.991  17.226 -0.2566  0.8338  0.7717
  922MPD2    C113491   2.047   1.046  17.104  0.3482  0.2896  0.8299
  922MPD2    C213492   1.945   1.074  17.017  0.0020  0.5939 -0.1270
  922MPD2    C313493   1.813   1.059  17.053 -0.7628 -0.1726  0.1175
  922MPD2    C413494   1.781   1.005  17.174 -0.1841  0.3540  0.6064
  922MPD2    C513495   1.889   0.966  17.256  0.2032  0.2772  0.3293
  922MPD2     H13496   1.962   1.127  16.923 -0.6206  1.2668  0.1384
  922MPD2    H113497   1.681   0.972  17.202 -0.3545  0.5749  0.2731
  922MPD2    H213498   2.095   0.960  17.296  0.4685  1.8136  0.4071
  922MPD2    H313499   1.869   0.921  17.352  0.0916 -0.3918 -0.0105
  922MPD2     N13500   1.712   1.090  16.960 -0.0486  0.4280  0.2954
  922MPD2    H513501   1.741   1.126  16.870  0.1236 -0.5887 -0.0596
  922MPD2    N113502   2.178   1.067  17.061  0.4199  0.1239 -0.0133
  922MPD2    H713503   2.197   1.081  16.962 -1.2159  0.3203 -0.2968
  923MPD2     C13504   3.896   2.999   9.114  0.8601  0.5014  0.1297
  923MPD2    C113505   3.813   3.103   9.150 -0.2940  0.3955  0.3034
  923MPD2    C213506   3.840   3.185   9.267 -0.5103 -0.0844  0.0854
  923MPD2    C313507   3.944   3.146   9.353 -1.2609  0.2785 -0.1902
  923MPD2    C413508   4.007   3.027   9.328 -0.6033 -0.1757  0.1521
  923MPD2    C513509   3.987   2.958   9.207  0.3130 -0.0072  0.6376
  923MPD2     H13510   3.796   3.284   9.278 -0.6684 -0.3907  2.2290
  923MPD2    H113511   4.076   2.983   9.399 -0.7040 -0.6320 -0.0324
  923MPD2    H213512   3.886   2.935   9.027 -1.5031 -1.4724  1.8547
  923MPD2    H313513   4.041   2.865   9.191  0.3505 -0.0445  0.9897
  923MPD2     N13514   3.979   3.210   9.474  0.1068  0.1910 -0.2866
  923MPD2    H513515   4.061   3.181   9.525  0.3276  1.9677  0.3576
  923MPD2    N113516   3.711   3.139   9.062 -0.0263 -0.4501  0.2614
  923MPD2    H713517   3.701   3.078   8.981 -2.1790  0.3077 -0.0353
  924MPD2     C13518   3.435   1.747  15.554  0.4339  0.3370  0.0556
  924MPD2    C113519   3.422   1.746  15.693 -0.4908  0.3763 -0.3140
  924MPD2    C213520   3.477   1.857  15.762  0.1022 -0.2505  0.2344
  924MPD2    C313521   3.546   1.954  15.692  0.3104  0.4056  0.8548
  924MPD2    C413522   3.555   1.952  15.554 -0.0964 -0.1848  0.0879
  924MPD2    C513523   3.499   1.848  15.488  0.3602  0.2919  0.2769
  924MPD2     H13524   3.470   1.869  15.870 -0.4113  2.4384 -0.0940
  924MPD2    H113525   3.617   2.020  15.498  0.4764  0.6459  1.7365
  924MPD2    H213526   3.390   1.674  15.487  2.7409 -1.5048  0.5212
  924MPD2    H313527   3.512   1.836  15.381  1.5621  1.1329  0.3271
  924MPD2     N13528   3.604   2.065  15.755 -0.5549  0.1207  0.4257
  924MPD2    H513529   3.622   2.142  15.692  0.2363  0.5202  1.1360
  924MPD2    N113530   3.348   1.646  15.755  0.2334 -0.2373  0.1772
  924MPD2    H713531   3.306   1.575  15.696 -0.5424  0.7509 -0.4538
  925MPD2     C13532   2.019   0.048  14.414  0.1176 -0.4694 -0.0994
  925MPD2    C113533   1.900   4.716  14.384 -0.2407  0.3415  0.4020
  925MPD2    C213534   1.797   4.711  14.482  0.2634 -0.1169 -0.1636
  925MPD2    C313535   1.824   0.062  14.596  0.2907 -0.3676 -0.8656
  925MPD2    C413536   1.933   0.138  14.620 -0.4051 -0.8426 -0.1355
  925MPD2    C513537   2.033   0.119  14.530 -0.4353 -0.4815 -0.2007
  925MPD2     H13538   1.708   4.652  14.465  0.2180 -0.1859  0.3035
  925MPD2    H113539   1.958   0.201  14.705 -0.3670  0.7459 -1.3298
  925MPD2    H213540   2.114   0.029  14.366  0.7375  2.9469 -0.2022
  925MPD2    H313541   2.129   0.164  14.556 -0.7692 -0.0143  0.2225
  925MPD2     N13542   1.730   0.061  14.699 -0.6869  0.2002  0.1125
  925MPD2    H513543   1.652   4.720  14.689  0.3732 -1.3080  1.4962
  925MPD2    N113544   1.886   4.631  14.268 -0.0501  0.6763 -0.1985
  925MPD2    H713545   1.809   4.565  14.270  0.2928  0.3364  1.8319
  926MPD2     C13546   1.069   3.187  13.223  0.0157 -0.2152 -0.6882
  926MPD2    C113547   0.958   3.256  13.175  0.7584  0.6708 -0.3670
  926MPD2    C213548   0.987   3.352  13.076 -0.4740 -0.0338 -0.0442
  926MPD2    C313549   1.114   3.380  13.029 -0.3262  0.3526 -0.4463
  926MPD2    C413550   1.217   3.312  13.084 -0.0503 -0.1574 -0.3283
  926MPD2    C513551   1.195   3.208  13.173  0.0627  0.7208  0.6354
  926MPD2     H13552   0.904   3.406  13.032  0.1536 -0.1172 -1.3292
  926MPD2    H113553   1.321   3.335  13.061  0.2082 -0.3343  0.6733
  926MPD2    H213554   1.066   3.115  13.304  0.7596  0.0318 -0.4374
  926MPD2    H313555   1.279   3.148  13.207 -0.5622  0.3462  1.4994
  926MPD2     N13556   1.138   3.461  12.918  0.1455 -0.0581  0.0110
  926MPD2    H513557   1.230   3.494  12.893  0.3290 -1.3481 -1.0087
  926MPD2    N113558   0.830   3.241  13.224 -0.3986  0.3734 -0.3279
  926MPD2    H713559   0.768   3.317  13.199 -2.5565 -1.1192  0.4741
  927MPD2     C13560   1.472   4.049   0.236  0.3168 -0.2205 -0.1154
  927MPD2    C113561   1.480   4.180   0.198 -0.0269 -0.1045  0.2762
  927MPD2    C213562   1.497   4.218   0.064 -0.2251 -0.2635  0.0463
  927MPD2    C313563   1.503   4.121  17.661 -0.7630 -0.5032  0.7828
  927MPD2    C413564   1.478   3.988  17.693  0.0582 -0.6175  0.3787
  927MPD2    C513565   1.472   3.955   0.133  1.0436 -0.4876 -0.9545
  927MPD2     H13566   1.498   4.324   0.043  0.2830  0.0395  1.6010
  927MPD2    H113567   1.467   3.911  17.617 -1.3684 -0.3379  0.3002
  927MPD2    H213568   1.480   4.006   0.335  2.0330  1.4057  0.4532
  927MPD2    H313569   1.470   3.851   0.163 -0.5888 -0.4893 -1.0355
  927MPD2     N13570   1.515   4.166  17.525  0.2905  0.3526  0.5409
  927MPD2    H513571   1.521   4.268  17.519  1.3501  0.1612 -1.5767
  927MPD2    N113572   1.467   4.280   0.301 -0.0755 -0.4459  0.2826
  927MPD2    H713573   1.457   4.240   0.394  0.9111  1.5107  1.2466
  928MPD2     C13574   3.989   3.099   1.308  0.1618  0.7916  0.3989
  928MPD2    C113575   3.943   3.224   1.301  0.1216 -1.0670 -0.6301
  928MPD2    C213576   3.962   3.296   1.181  0.3716  0.1520  0.1092
  928MPD2    C313577   4.027   3.244   1.070  0.0308 -0.1391 -0.7356
  928MPD2    C413578   4.068   3.109   1.078  0.0854  0.6465  0.2395
  928MPD2    C513579   4.053   3.046   1.198  0.3301 -0.4617  0.0778
  928MPD2     H13580   3.931   3.400   1.174  1.0851  0.3161 -0.5562
  928MPD2    H113581   4.117   3.053   0.999 -1.9645  1.5813 -1.6933
  928MPD2    H213582   3.976   3.041   1.399 -1.0779  1.0319  0.3729
  928MPD2    H313583   4.080   2.941   1.196 -0.5020 -0.5897 -4.4421
  928MPD2     N13584   4.043   3.329   0.957  0.6155 -0.3835  0.6993
  928MPD2    H513585   4.005   3.423   0.967 -1.3274 -1.4165  3.0198
  928MPD2    N113586   3.885   3.282   1.419 -0.3340  0.5995 -0.3992
  928MPD2    H713587   3.920   3.242   1.506 -2.6206  2.8870  1.5522
  929MPD2     C13588   3.697   3.672   9.298  0.1377 -0.3154  0.0316
  929MPD2    C113589   3.638   3.712   9.416  0.1096  0.8215  0.4947
  929MPD2    C213590   3.576   3.837   9.425  0.2833  0.2778 -0.7835
  929MPD2    C313591   3.556   3.906   9.311 -0.6224  0.0139 -0.4616
  929MPD2    C413592   3.621   3.874   9.194  0.6055 -0.8944  0.5948
  929MPD2    C513593   3.700   3.762   9.195 -0.2104  0.7563 -0.3392
  929MPD2     H13594   3.523   3.858   9.517  1.8108 -1.2891  0.4519
  929MPD2    H113595   3.620   3.925   9.098  1.0999 -0.8120  0.6316
  929MPD2    H213596   3.758   3.582   9.292 -1.4824 -1.4496  0.5691
  929MPD2    H313597   3.757   3.730   9.108  2.2513  1.5447  0.9757
  929MPD2     N13598   3.467   4.015   9.323 -0.8181 -0.3128  0.4200
  929MPD2    H513599   3.414   4.029   9.408 -0.7102 -0.1311  0.4570
  929MPD2    N113600   3.639   3.616   9.517  0.1990  0.1983 -0.4242
  929MPD2    H713601   3.678   3.525   9.494 -1.4881 -0.2006 -1.6887
  930MPD2     C13602   0.740   1.257  13.664 -0.3124 -0.1429  0.2678
  930MPD2    C113603   0.639   1.328  13.602  0.0549 -0.2903  0.0081
  930MPD2    C213604   0.529   1.269  13.544 -0.1420 -0.0318  0.9012
  930MPD2    C313605   0.516   1.130  13.544  0.4369  0.1900  0.5278
  930MPD2    C413606   0.607   1.058  13.615  0.6768 -0.2027 -0.2626
  930MPD2    C513607   0.729   1.121  13.650  0.1863  0.5431 -0.1190
  930MPD2     H13608   0.444   1.322  13.503  0.2450  0.3000  0.5338
  930MPD2    H113609   0.593   0.952  13.632  1.3213 -0.3581 -0.6887
  930MPD2    H213610   0.835   1.299  13.695 -1.4076  2.3037  0.3229
  930MPD2    H313611   0.799   1.052  13.696  0.0873 -0.9452 -2.1977
  930MPD2     N13612   0.414   1.056  13.482 -0.1500 -0.0713 -1.1746
  930MPD2    H513613   0.415   0.955  13.496 -3.8466  0.2086  1.0686
  930MPD2    N113614   0.657   1.471  13.595 -0.2493  0.3206  0.3810
  930MPD2    H713615   0.751   1.502  13.618 -0.1667  0.7898 -0.6096
  931MPD2     C13616   1.602   4.218   0.916  0.4118 -0.0849  0.9277
  931MPD2    C113617   1.473   4.246   0.903  0.1496 -0.5879  0.0896
  931MPD2    C213618   1.378   4.222   0.997 -0.0558  0.2946  0.1898
  931MPD2    C313619   1.420   4.149   1.109 -0.1799 -0.6010  0.1963
  931MPD2    C413620   1.548   4.122   1.124  0.0405  0.4500 -0.1130
  931MPD2    C513621   1.642   4.165   1.029 -0.0556 -0.1991 -0.3686
  931MPD2     H13622   1.273   4.231   0.973 -0.1640  0.7404  0.8331
  931MPD2    H113623   1.575   4.078   1.219  2.7908  1.7900 -0.2473
  931MPD2    H213624   1.673   4.226   0.834 -2.5306 -1.1082 -1.7259
  931MPD2    H313625   1.749   4.157   1.042  0.0088  0.5906 -0.4440
  931MPD2     N13626   1.329   4.110   1.213 -0.0691 -0.6821  0.8875
  931MPD2    H513627   1.364   4.052   1.289  1.4183  1.5791  1.9042
  931MPD2    N113628   1.443   4.293   0.782 -0.0791 -0.1674  0.6728
  931MPD2    H713629   1.501   4.269   0.702 -2.0082  0.4344 -0.9066
  932MPD2     C13630   2.075   4.513  10.173 -0.1027  0.4726  0.6274
  932MPD2    C113631   2.099   4.577  10.289  0.3201 -0.2717 -0.8104
  932MPD2    C213632   2.105   4.507  10.410  0.2829  0.0677 -0.6927
  932MPD2    C313633   2.097   4.366  10.409  0.2584 -0.0926  1.1529
  932MPD2    C413634   2.077   4.304  10.286  0.0221 -0.0808  0.4834
  932MPD2    C513635   2.054   4.376  10.174 -0.9241 -0.2955  0.4659
  932MPD2     H13636   2.125   4.568  10.498 -0.0976 -2.1356  0.9120
  932MPD2    H113637   2.066   4.198  10.270  1.8042  0.2000 -2.5020
  932MPD2    H213638   2.080   4.561  10.076 -0.1389 -1.1246 -0.1573
  932MPD2    H313639   2.027   4.328  10.080 -0.4980 -1.9420  1.1887
  932MPD2     N13640   2.109   4.284  10.522  0.4288  0.7104 -0.1979
  932MPD2    H513641   2.086   4.186  10.508 -0.3747  0.8337  0.2416
  932MPD2    N113642   2.126   4.721  10.295 -0.5095  0.2092  0.2799
  932MPD2    H713643   2.140   0.033  10.390 -0.6625  0.9032  0.0452
  933MPD2     C13644   3.513   3.974   1.919 -0.5865  0.0197  0.5876
  933MPD2    C113645   3.509   3.939   1.782  0.2475  0.4193  0.6877
  933MPD2    C213646   3.417   4.008   1.706  0.1425  0.1449 -0.8501
  933MPD2    C313647   3.345   4.116   1.754 -0.0074 -0.5937 -0.8012
  933MPD2    C413648   3.363   4.151   1.881  0.2301 -0.1381  0.7155
  933MPD2    C513649   3.444   4.083   1.961  0.0047  0.1522 -0.0511
  933MPD2     H13650   3.401   3.980   1.603 -1.5059 -0.2959 -0.4755
  933MPD2    H113651   3.315   4.239   1.922  0.9457  2.0316 -3.1155
  933MPD2    H213652   3.581   3.923   1.986 -0.9052 -1.6943 -0.3863
  933MPD2    H313653   3.452   4.126   2.061  1.0626 -0.4209  0.1078
  933MPD2     N13654   3.269   4.187   1.667  0.0705 -0.3915 -0.6399
  933MPD2    H513655   3.273   4.145   1.575 -1.7212 -1.5497 -0.1751
  933MPD2    N113656   3.594   3.837   1.749 -0.1404 -0.1581 -0.3638
  933MPD2    H713657   3.650   3.798   1.824  2.0300 -0.7599 -2.2993
  934MPD2     C13658   4.139   1.176   1.729  0.1430  0.5623 -0.0648
  934MPD2    C113659   4.139   1.043   1.686 -0.0719  0.0122  0.6693
  934MPD2    C213660   4.035   0.989   1.603  0.1214 -0.0990  0.2899
  934MPD2    C313661   3.923   1.066   1.571  0.1219  0.7929  0.3892
  934MPD2    C413662   3.933   1.201   1.601  0.5451  0.1436  0.4702
  934MPD2    C513663   4.038   1.250   1.681 -0.0813 -0.1492 -0.2763
  934MPD2     H13664   4.033   0.887   1.566  1.9230 -0.5071  1.3358
  934MPD2    H113665   3.851   1.269   1.582 -0.0350 -1.5250 -2.9533
  934MPD2    H213666   4.214   1.226   1.790 -0.2474  2.5389 -1.2069
  934MPD2    H313667   4.037   1.355   1.711  0.4254 -0.2167 -0.0139
  934MPD2     N13668   3.807   1.020   1.495 -0.8121  0.3836 -0.0291
  934MPD2    H513669   3.733   1.082   1.463  1.8407  3.1668 -0.7159
  934MPD2    N113670   4.230   0.945   1.729  0.8469 -0.1103  0.0079
  934MPD2    H713671   4.215   0.847   1.706  0.1429 -0.3851  1.6493
  935MPD2     C13672   3.587   0.142   1.025 -0.2007 -0.1957 -0.0834
  935MPD2    C113673   3.534   0.257   0.971 -0.2011  0.2732 -0.0779
  935MPD2    C213674   3.514   0.370   1.040 -0.1730 -0.4648  0.4500
  935MPD2    C313675   3.535   0.379   1.182 -1.1055  0.1925  0.1349
  935MPD2    C413676   3.586   0.260   1.242 -0.1058 -0.8179 -0.3338
  935MPD2    C513677   3.609   0.141   1.164  0.2013  0.5328  0.2483
  935MPD2     H13678   3.476   0.447   0.974  0.2612 -1.0781 -0.5276
  935MPD2    H113679   3.611   0.268   1.348  0.0667  1.6712 -0.5616
  935MPD2    H213680   3.615   0.055   0.965 -0.6815  0.5010 -1.3263
  935MPD2    H313681   3.661   0.057   1.208  0.6023  0.4952 -0.2925
  935MPD2     N13682   3.537   0.501   1.253  0.4619 -0.5383 -0.0251
  935MPD2    H513683   3.580   0.512   1.344  3.2497 -0.2890 -1.3557
  935MPD2    N113684   3.494   0.267   0.837 -0.9893 -0.0960  0.0859
  935MPD2    H713685   3.469   0.359   0.804  3.4764  0.4076 -1.8514
  936MPD2     C13686   2.796   2.727  12.518 -0.0927 -0.6921  0.3281
  936MPD2    C113687   2.766   2.761  12.651 -0.5405  0.0600  0.6708
  936MPD2    C213688   2.822   2.870  12.714 -0.0886 -0.2478 -0.0197
  936MPD2    C313689   2.904   2.945  12.636  0.2391  0.2701 -0.1726
  936MPD2    C413690   2.930   2.913  12.501 -0.2509 -0.0339  0.1057
  936MPD2    C513691   2.883   2.798  12.445 -0.5580  0.4695 -0.0619
  936MPD2     H13692   2.803   2.879  12.820  1.9734  0.6838  0.2549
  936MPD2    H113693   2.995   2.967  12.434  0.1051  1.0448  1.3265
  936MPD2    H213694   2.751   2.645  12.462 -1.0870  0.6222 -0.8007
  936MPD2    H313695   2.904   2.768  12.343  0.3951  0.5096  0.1205
  936MPD2     N13696   2.981   3.041  12.708 -0.4484  0.1056 -0.1377
  936MPD2    H513697   2.963   3.049  12.807  2.3326  2.0068  0.1942
  936MPD2    N113698   2.686   2.672  12.730 -0.0588 -0.8897 -0.4618
  936MPD2    H713699   2.679   2.676  12.832  0.1204  0.6817 -0.5154
  937MPD2     C13700   0.322   4.454  11.310 -0.7743  0.0408 -0.3111
  937MPD2    C113701   0.354   4.585  11.336  0.0470  0.3055  0.3692
  937MPD2    C213702   0.450   4.640  11.254  0.0811 -0.4346 -0.4124
  937MPD2    C313703   0.493   4.589  11.133  0.1857  0.6591 -0.0029
  937MPD2    C413704   0.450   4.465  11.109 -0.2125 -0.1284 -0.6065
  937MPD2    C513705   0.369   4.396  11.198  0.0940  0.1653  0.3984
  937MPD2     H13706   0.470   0.019  11.283 -1.1326 -0.4144  0.3441
  937MPD2    H113707   0.490   4.412  11.023 -0.3897 -0.1180 -0.6959
  937MPD2    H213708   0.247   4.405  11.371 -1.7374  1.0380 -0.6943
  937MPD2    H313709   0.333   4.303  11.157 -1.4233  0.4734  1.0236
  937MPD2     N13710   0.581   4.654  11.046 -0.0010  0.0160  0.1635
  937MPD2    H513711   0.634   0.009  11.084 -0.8586  0.5449  0.2594
  937MPD2    N113712   0.317   4.658  11.449  0.3271  0.7339 -0.5669
  937MPD2    H713713   0.364   0.022  11.467  1.0461 -0.0655  1.3072
  938MPD2     C13714   3.478   4.324   1.229 -0.2539 -0.4637 -0.0709
  938MPD2    C113715   3.434   4.450   1.263  0.1742  0.2332  0.4672
  938MPD2    C213716   3.452   4.492   1.397  0.3933  0.2498 -0.2085
  938MPD2    C313717   3.509   4.407   1.495 -0.2228  0.7740  0.2175
  938MPD2    C413718   3.556   4.284   1.455 -0.1721 -0.5777  0.7389
  938MPD2    C513719   3.542   4.243   1.326  0.6903  0.2583  0.4816
  938MPD2     H13720   3.418   4.592   1.421  0.3758  0.0975  0.4070
  938MPD2    H113721   3.609   4.220   1.524  0.5073 -0.7128  0.0912
  938MPD2    H213722   3.488   4.298   1.124 -0.7328  0.0603 -0.2423
  938MPD2    H313723   3.597   4.153   1.300 -0.2877 -0.2512  0.1715
  938MPD2     N13724   3.512   4.444   1.630  0.0254 -0.0344 -0.1115
  938MPD2    H513725   3.570   4.395   1.696 -0.4696  1.5981  1.5446
  938MPD2    N113726   3.367   4.534   1.168  0.0346  0.0780 -0.6268
  938MPD2    H713727   3.333   4.623   1.203 -0.5932 -0.6390  0.6065
  939MPD2     C13728   0.177   0.816   0.855  0.3437  0.5024 -0.4644
  939MPD2    C113729   0.078   0.908   0.826 -0.2346 -0.0558 -0.0587
  939MPD2    C213730   0.062   0.956   0.698  0.3158  0.5384  0.1884
  939MPD2    C313731   0.148   0.913   0.603  0.0394  0.3222 -0.2822
  939MPD2    C413732   0.249   0.823   0.630  0.0974  0.2662 -0.1057
  939MPD2    C513733   0.261   0.779   0.760 -0.0339 -0.0953  0.0961
  939MPD2     H13734   4.707   1.017   0.656 -0.3659 -1.7998 -1.9779
  939MPD2    H113735   0.325   0.794   0.558  0.2715  0.9053 -0.1800
  939MPD2    H213736   0.191   0.766   0.950 -0.4021  1.6883  0.2679
  939MPD2    H313737   0.337   0.707   0.789 -0.6967  0.0358  2.1382
  939MPD2     N13738   0.136   0.978   0.476  0.1119 -0.1223  0.2984
  939MPD2    H513739   0.063   1.047   0.467  1.9840  1.6221 -1.4034
  939MPD2    N113740   0.012   0.960   0.935  0.2808 -0.3955  0.1981
  939MPD2    H713741   0.037   0.922   1.025  0.1659 -3.7984 -1.2316
  940MPD2     C13742   3.495   2.974  13.240 -0.8866 -0.4900  0.3520
  940MPD2    C113743   3.541   2.846  13.243  0.5122  0.3066  0.8180
  940MPD2    C213744   3.642   2.811  13.153 -0.5590 -0.2456  0.2251
  940MPD2    C313745   3.699   2.906  13.066 -0.0812 -0.3072 -0.3148
  940MPD2    C413746   3.653   3.038  13.077 -0.0131  0.0352 -0.2692
  940MPD2    C513747   3.547   3.068  13.157  0.0334  0.4448  0.3030
  940MPD2     H13748   3.678   2.709  13.145  4.3102  1.4129  1.3077
  940MPD2    H113749   3.692   3.118  13.015 -1.3389  0.4257 -0.6097
  940MPD2    H213750   3.408   3.009  13.295 -0.4414 -1.2287  1.5321
  940MPD2    H313751   3.509   3.169  13.148  0.8602  0.8580  1.4275
  940MPD2     N13752   3.791   2.871  12.966 -0.8948 -0.5247 -0.8020
  940MPD2    H513753   3.844   2.943  12.917  0.6217 -0.8345  0.3988
  940MPD2    N113754   3.524   2.742  13.332  0.3557 -0.4970 -0.5620
  940MPD2    H713755   3.581   2.659  13.324  1.6014  0.4977 -2.0754
  941MPD2     C13756   3.040   0.906   8.939  0.1189  0.2441  0.2066
  941MPD2    C113757   3.003   0.989   9.045  0.2205  0.2277  0.0863
  941MPD2    C213758   2.912   0.939   9.139 -0.5240  0.4471  0.1390
  941MPD2    C313759   2.837   0.821   9.112  0.1806 -0.0306 -0.1341
  941MPD2    C413760   2.875   0.744   9.006 -0.7194  0.8570  0.6027
  941MPD2    C513761   2.977   0.783   8.924  0.3216  0.5462  0.0572
  941MPD2     H13762   2.882   1.015   9.210 -0.0877  0.6246  0.1336
  941MPD2    H113763   2.817   0.654   8.991 -0.5155  1.1491 -1.9099
  941MPD2    H213764   3.120   0.934   8.871 -0.4478  1.2074 -0.0547
  941MPD2    H313765   3.008   0.719   8.843 -0.4936  1.2849 -0.8370
  941MPD2     N13766   2.717   0.790   9.182 -0.3488  0.4698 -0.1150
  941MPD2    H513767   2.673   0.707   9.144  0.4519  0.4279 -0.9459
  941MPD2    N113768   3.056   1.121   9.070  0.1131 -0.7488 -0.3249
  941MPD2    H713769   3.052   1.160   9.163  1.1127 -0.4323 -0.4123
  942MPD2     C13770   3.144   3.088   9.181 -0.0879 -0.3940  0.0370
  942MPD2    C113771   3.041   3.008   9.125 -0.6075 -0.5739  0.0533
  942MPD2    C213772   3.079   2.913   9.024  0.0987  0.2991  0.1184
  942MPD2    C313773   3.211   2.891   8.988  0.1705 -0.0989  0.0078
  942MPD2    C413774   3.303   2.964   9.046  0.3507  0.0858 -0.0972
  942MPD2    C513775   3.271   3.059   9.146 -0.0175 -0.5315  0.4305
  942MPD2     H13776   2.999   2.863   8.969  1.3363  0.0629 -1.4627
  942MPD2    H113777   3.407   2.952   9.017  1.4457  0.6781  3.6396
  942MPD2    H213778   3.120   3.177   9.238  0.2680  0.4685 -1.1616
  942MPD2    H313779   3.361   3.110   9.178  0.6432 -0.7118 -1.1354
  942MPD2     N13780   3.244   2.796   8.894  0.9756  0.0532 -0.1480
  942MPD2    H513781   3.342   2.784   8.873  1.4840  1.4471  1.3819
  942MPD2    N113782   2.906   3.023   9.145  0.2518 -0.1780  0.2518
  942MPD2    H713783   2.837   2.962   9.100 -0.1193  1.5395 -1.5236
  943MPD2     C13784   1.086   1.081   8.966 -0.3775 -0.6532 -0.4607
  943MPD2    C113785   1.092   1.207   9.021  0.6489 -0.1675 -0.5622
  943MPD2    C213786   1.064   1.317   8.933  0.0084  0.9310 -0.4371
  943MPD2    C313787   1.030   1.301   8.800 -0.3674  0.1002  0.5853
  943MPD2    C413788   1.031   1.173   8.748 -0.5084 -0.4108  0.1608
  943MPD2    C513789   1.061   1.063   8.829 -0.4333  0.8069  0.4613
  943MPD2     H13790   1.075   1.418   8.970 -0.2693  0.7002  0.2694
  943MPD2    H113791   1.021   1.144   8.644 -0.7875  0.0398  0.0611
  943MPD2    H213792   1.109   0.993   9.025 -0.6675 -2.1634 -2.5868
  943MPD2    H313793   1.071   0.961   8.792  1.1800  1.3419 -0.5457
  943MPD2     N13794   0.996   1.411   8.718 -0.0490  0.0464  0.1902
  943MPD2    H513795   0.971   1.386   8.622 -2.1235 -1.9117  1.2448
  943MPD2    N113796   1.134   1.218   9.155 -0.1222 -0.1207 -0.2918
  943MPD2    H713797   1.141   1.133   9.210  2.9483 -0.4894 -1.2293
  944MPD2     C13798   0.967   0.625  10.661  0.4176 -0.0374  0.4002
  944MPD2    C113799   0.999   0.740  10.592 -0.1444 -0.5357 -0.5376
  944MPD2    C213800   1.043   0.855  10.655  0.1997 -0.4618 -1.1317
  944MPD2    C313801   1.055   0.855  10.789  1.2067  1.0743  0.5564
  944MPD2    C413802   1.025   0.733  10.856  0.5553  0.9161 -0.1232
  944MPD2    C513803   0.981   0.621  10.793 -0.2436 -0.0350 -0.0927
  944MPD2     H13804   1.074   0.948  10.610 -0.8074  0.1602 -0.5601
  944MPD2    H113805   1.045   0.722  10.962 -0.6871 -0.5432 -0.0327
  944MPD2    H213806   0.932   0.537  10.606  1.1782 -0.8998  1.3084
  944MPD2    H313807   0.951   0.536  10.853 -0.2147  1.4760  2.0779
  944MPD2     N13808   1.096   0.976  10.862  0.8378  0.2070  0.2206
  944MPD2    H513809   1.124   1.050  10.799  0.6758  2.1757  2.4515
  944MPD2    N113810   0.996   0.721  10.448  0.4222  0.4249 -0.0275
  944MPD2    H713811   0.969   0.630  10.411  0.4115  0.3336  0.2087
    1TCq1    O113812   3.512   1.455  14.830  0.1993 -0.3324  1.0255
    1TCq1    C113813   3.571   1.403  14.722 -0.8422 -0.4840  0.3574
    1TCq1    O213814   3.540   1.292  14.677 -0.3318  0.5868  0.2075
    1TCq1    C213815   3.638   1.499  14.636 -0.3397 -0.2631  0.5807
    1TCq1    C313816   3.595   1.496  14.502  0.1701 -0.2243  0.5284
    1TCq1    C413817   3.593   1.613  14.420  0.1310 -0.2791  0.8530
    1TCq1    C513818   3.654   1.724  14.463 -0.1916  0.9002 -0.2832
    1TCq1    C613819   3.683   1.723  14.598 -0.4006 -0.6316 -0.3689
    1TCq1    C713820   3.666   1.623  14.692 -0.0205  0.8976 -0.3855
    1TCq1    C813821   3.733   1.846  14.661 -0.2215 -0.7019  0.2667
    1TCq1    O413822   3.763   1.842  14.780  0.5507  0.2518  0.2438
    1TCq1    C913823   3.542   1.596  14.288  0.5328 -0.6305  0.3469
    1TCq1    O513824   3.484   1.489  14.264 -0.0150 -0.5488  0.2764
    1TCq1    O613825   3.546   1.695  14.209 -0.5442 -0.1848  0.0065
    1TCq1    H113826   3.511   1.553  14.834 -1.2253 -0.4095  2.9342
    1TCq1    H213827   3.565   1.401  14.460 -0.4333 -0.5082  1.6069
    1TCq1    H313828   3.679   1.799  14.390 -0.8919  0.1137 -1.3453
    1TCq1    H413829   3.692   1.635  14.796  3.0937 -0.5445 -0.9887
    2MPD2     C13830   3.856   2.346  14.660 -0.8170 -0.1542 -0.0522
    2MPD2    C113831   3.804   2.317  14.540 -0.0097 -0.4131  0.1346
    2MPD2    C213832   3.765   2.190  14.513 -0.5469 -0.2682  0.4274
    2MPD2    C313833   3.771   2.090  14.612 -0.0239 -0.2056 -0.1753
    2MPD2    C413834   3.840   2.122  14.732 -0.8044  0.0928 -0.0140
    2MPD2    C513835   3.877   2.249  14.757  0.0945 -0.1011  0.2811
    2MPD2     H13836   3.734   2.167  14.413  3.3297  1.1471 -1.1273
    2MPD2    H113837   3.854   2.048  14.810 -2.2092  0.2572  0.3806
    2MPD2    H213838   3.889   2.446  14.687 -0.3575  0.0366 -1.3307
    2MPD2    H313839   3.933   2.260  14.849  0.4313  0.4263  0.0169
    2MPD2     N13840   3.723   1.959  14.584 -0.4390 -0.3269 -0.5033
    2MPD2    H513841   3.678   1.957  14.492 -0.7577 -1.7264 -0.3135
    2MPD2    N113842   3.801   2.423  14.452  0.7510  0.0373 -0.2492
    2MPD2    H713843   3.821   2.514  14.495 -0.6874 -0.1414  0.8002
    3TMC2    C113844   3.779   2.544  14.254  0.4624 -0.4234  0.0022
    3TMC2    C213845   3.720   2.658  14.309 -0.2953  0.3147  0.2632
    3TMC2    C313846   3.723   2.776  14.238  0.3625 -0.6565 -0.0901
    3TMC2    C413847   3.835   2.557  14.129  0.1254 -0.1350 -0.3469
    3TMC2    C513848   3.804   2.672  14.057 -0.3804  0.2567 -0.5942
    3TMC2    C613849   3.758   2.788  14.115 -0.1758  0.1610 -0.2128
    3TMC2     C13850   3.785   2.418  14.313  0.4307 -0.8528 -0.0602
    3TMC2     O13851   3.793   2.326  14.234 -0.4072  0.3425 -0.7805
    3TMC2     H13852   3.675   2.651  14.407  0.5046 -0.4366  0.5851
    3TMC2    H113853   3.882   2.473  14.079  0.7567  0.0862 -0.1333
    3TMC2    H213854   3.755   2.886  14.067 -0.6769  0.3451  0.2030
    3TMC2    C713855   3.826   2.677  13.905  0.5248 -0.0657 -0.0416
    3TMC2    C813856   3.684   2.900  14.306  0.5835 -0.5942 -0.4591
    3TMC2    O113857   3.875   2.574  13.859 -0.4936 -0.2323  0.0535
    3TMC2    O213858   3.652   3.004  14.244 -0.0936  0.4217  0.1092
    3TMC2    O513859   3.740   2.899  14.431  0.2005 -0.1210  0.1961
    3TMC2    H513860   3.785   2.817  14.459  2.5191  0.0890 -2.9010
    4MPD2     C13861   2.876   3.392  13.013 -1.3031 -0.5305 -0.4308
    4MPD2    C113862   2.990   3.435  12.936 -0.4031  0.0339  0.0512
    4MPD2    C213863   3.116   3.432  12.991 -0.9722  0.1737 -0.1708
    4MPD2    C313864   3.141   3.408  13.128 -0.1596 -0.2803 -0.8249
    4MPD2    C413865   3.027   3.376  13.205  0.7288  0.1821  0.4994
    4MPD2    C513866   2.901   3.358  13.147  0.5069 -0.3777 -0.0947
    4MPD2     H13867   3.193   3.472  12.927 -0.3490  0.3323  0.6768
    4MPD2    H113868   3.038   3.342  13.308  0.5245  0.4491  0.6091
    4MPD2    H213869   2.776   3.400  12.972 -0.2112  1.0155 -2.7925
    4MPD2    H313870   2.818   3.333  13.213  1.2916  0.2681  1.1496
    4MPD2     N13871   3.270   3.412  13.183 -0.5218  0.3821  0.2749
    4MPD2    H513872   3.346   3.416  13.117  0.2631  1.7953  1.2783
    4MPD2    N113873   2.958   3.479  12.803 -0.2138  0.5135  0.1517
    4MPD2    H713874   2.858   3.493  12.790 -0.4770 -1.2569  0.2125
    5TCq2    C113875   3.289   3.413  13.321 -0.6802  0.3567  0.3993
    5TCq2    O213876   3.222   3.375  13.415  0.2411 -0.0382 -0.0917
    5TCq2    C213877   3.427   3.415  13.338 -0.1959 -1.0882  0.0472
    5TCq2    C313878   3.516   3.463  13.243  0.5235 -0.3054 -0.3660
    5TCq2    C413879   3.647   3.413  13.236 -0.3799  0.0876  0.2308
    5TCq2    C513880   3.691   3.331  13.331  0.1704 -0.2153  0.3239
    5TCq2    C613881   3.604   3.288  13.427  0.0678 -0.6332 -0.3453
    5TCq2    C713882   3.474   3.332  13.434 -0.6556  0.1977 -0.3575
    5TCq2    C813883   3.650   3.190  13.516 -0.2823 -0.8148  0.3107
    5TCq2    O413884   3.600   3.192  13.630  0.6818  0.7623  0.4089
    5TCq2    C913885   3.746   3.482  13.152  0.5174 -0.6357  0.5553
    5TCq2    O513886   3.870   3.464  13.169 -0.5490  0.3302  0.5033
    5TCq2    O613887   3.698   3.546  13.056  0.2591 -0.5733 -0.0527
    5TCq2    H213888   3.483   3.534  13.168 -0.2561 -1.7770 -1.4018
    5TCq2    H313889   3.796   3.307  13.318 -0.4334 -1.1709 -2.9457
    5TCq2    H413890   3.402   3.291  13.504  0.9116  0.1299  1.2220
    6MPD1     C13891   2.354   0.353  11.778 -0.6204 -0.4343 -0.3089
    6MPD1    C113892   2.274   0.294  11.874 -0.0375 -0.1649  0.0793
    6MPD1    C213893   2.303   0.164  11.907 -0.1019  0.7351  0.6934
    6MPD1    C313894   2.399   0.090  11.831  0.3059  0.2091  0.3670
    6MPD1    C413895   2.475   0.149  11.740 -0.9505 -0.3398  0.7583
    6MPD1    C513896   2.448   0.277  11.707 -0.1925 -0.0769 -0.1590
    6MPD1     H13897   2.246   0.116  11.985  0.2924 -1.8232 -0.5808
    6MPD1    H113898   2.559   0.100  11.693 -2.0009 -1.4630  0.0453
    6MPD1    H213899   2.342   0.460  11.766 -0.8856 -0.3617  0.5779
    6MPD1    H313900   2.517   0.331  11.643 -1.8001 -0.8178 -2.5191
    6MPD1     N13901   2.432   4.681  11.869  0.4840 -0.1569  0.0630
    6MPD1    H513902   2.479   4.624  11.800 -0.6770 -0.7101 -0.2636
    6MPD1    N113903   2.190   0.379  11.947 -0.5224 -0.0731 -0.3091
    6MPD1    H613904   2.110   0.337  11.994 -0.0418 -0.3832  0.2281
    6MPD1    H713905   2.142   0.437  11.878 -0.7217  0.1771  0.0358
    7MPD2     C13906   2.247   3.957  12.371 -0.0545  0.6328 -0.1934
    7MPD2    C113907   2.371   3.998  12.345 -0.3353 -0.4611  0.3214
    7MPD2    C213908   2.476   3.925  12.387  0.2333  0.2076 -0.8163
    7MPD2    C313909   2.461   3.810  12.454  0.2199 -0.1473 -0.2647
    7MPD2    C413910   2.339   3.779  12.509 -0.2826  0.0051 -0.2020
    7MPD2    C513911   2.228   3.846  12.447  0.3067  0.2022 -0.9628
    7MPD2     H13912   2.571   3.964  12.351  0.3453  0.7960  0.1439
    7MPD2    H113913   2.327   3.686  12.563  0.3678 -0.9164 -1.6595
    7MPD2    H213914   2.163   4.008  12.325  0.4192  1.6092  0.0233
    7MPD2    H313915   2.127   3.814  12.470  0.8334 -0.4933  0.3826
    7MPD2     N13916   2.565   3.715  12.478 -0.2756  0.0553 -0.1648
    7MPD2    H513917   2.541   3.629  12.527 -0.7870 -0.6316 -1.6160
    7MPD2    N113918   2.409   4.113  12.278  0.7356 -0.4808 -0.0805
    7MPD2    H713919   2.505   4.147  12.271 -0.1239  1.8652 -0.6123
    8TMC3    C113920   2.780   3.609  12.445  0.6963  0.0561  0.2526
    8TMC3    C213921   2.834   3.573  12.573  0.0029  0.6682  0.3532
    8TMC3    C313922   2.973   3.559  12.579 -0.7445  1.5357 -0.1990
    8TMC3    C413923   2.868   3.609  12.342  0.3967  0.4319 -0.1663
    8TMC3    C513924   3.002   3.595  12.346 -0.8022 -0.0474 -0.3434
    8TMC3    C613925   3.058   3.575  12.471  0.6147 -0.3788  0.2745
    8TMC3     C13926   2.696   3.724  12.432 -0.3956 -0.4435 -0.1597
    8TMC3     O13927   2.748   3.809  12.367 -0.1483  0.2283  0.3532
    8TMC3     H13928   2.776   3.582  12.664 -0.2920 -0.6820  0.3040
    8TMC3    H113929   2.821   3.629  12.246  0.4540 -0.8132 -0.4515
    8TMC3    H213930   3.160   3.605  12.492 -0.0934  1.3107  1.3400
    8TMC3    C713931   3.072   3.690  12.259  0.0445  0.1168  0.2148
    8TMC3    C813932   3.042   3.512  12.701 -0.5285 -0.2306  0.4239
    8TMC3    O113933   3.192   3.687  12.250 -0.6360 -0.5061 -0.3289
    8TMC3    O213934   3.155   3.473  12.693 -0.4488 -0.0209  0.4369
    9TMC3    C113935   2.428   4.476  11.991 -0.3200 -0.2402 -0.0848
    9TMC3    C213936   2.561   4.452  11.982 -0.0403 -0.9657 -0.4222
    9TMC3    C313937   2.616   4.335  12.033  0.2835  0.6365 -0.1993
    9TMC3    C413938   2.350   4.391  12.065 -0.3477  0.1778  0.3346
    9TMC3    C513939   2.413   4.289  12.120 -0.2374  0.4533 -0.2101
    9TMC3    C613940   2.540   4.241  12.100 -0.5259  0.2269  0.2024
    9TMC3     C13941   2.372   4.614  11.982  0.1932 -0.2959 -0.5405
    9TMC3     O13942   2.293   4.651  12.065  0.2703 -0.4220  0.3171
    9TMC3     H13943   2.621   4.527  11.932  0.9510  0.0643  2.2827
    9TMC3    H113944   2.251   4.426  12.094  0.8785  3.3335  0.7996
    9TMC3    H213945   2.581   4.143  12.118  1.7359  1.1294 -0.0494
    9TMC3    C713946   2.330   4.202  12.202  0.1609 -0.5419  0.4496
    9TMC3    C813947   2.763   4.304  12.012 -0.2962 -0.4622  0.2723
    9TMC3    O113948   2.206   4.220  12.204 -0.0184 -0.0533  0.0745
    9TMC3    O213949   2.818   4.361  11.918 -0.5494  0.2057 -0.0993
   10MPD2     C13950   3.114   3.920  12.055  0.0435  0.0597 -0.1429
   10MPD2    C113951   3.006   3.901  12.143  0.0679  0.7563  0.6694
   10MPD2    C213952   2.909   3.992  12.133 -0.6913  0.3930  1.0415
   10MPD2    C313953   2.912   4.106  12.057  0.2353 -0.0376  0.4090
   10MPD2    C413954   3.014   4.127  11.970  0.4132 -0.7182  0.0973
   10MPD2    C513955   3.112   4.028  11.970  0.2282  0.4552  0.3526
   10MPD2     H13956   2.817   3.980  12.188 -0.5655  0.7013  1.3143
   10MPD2    H113957   3.011   4.206  11.896 -0.2735 -0.6641  0.1891
   10MPD2    H213958   3.182   3.837  12.039 -0.4004 -0.1945 -0.6692
   10MPD2    H313959   3.183   4.033  11.889  0.0275  0.6312  0.1891
   10MPD2     N13960   2.810   4.195  12.090 -0.3141 -0.4052 -0.1861
   10MPD2    H513961   2.749   4.161  12.164 -2.6033  2.1680 -0.8919
   10MPD2    N113962   2.985   3.791  12.224  0.2288 -0.2072 -0.5273
   10MPD2    H713963   2.898   3.787  12.277  1.1658  0.6654  1.0765
   11MPD2     C13964   3.892   2.744  13.619 -0.2524 -0.4079  0.7898
   11MPD2    C113965   3.812   2.818  13.705  0.6305  0.2877 -0.1745
   11MPD2    C213966   3.770   2.938  13.647  0.4725 -0.7964  0.6712
   11MPD2    C313967   3.784   2.979  13.519  0.4846  0.2085 -0.2454
   11MPD2    C413968   3.857   2.897  13.439  0.2942  0.1418 -0.6529
   11MPD2    C513969   3.916   2.785  13.491 -0.2193 -0.2509  0.1520
   11MPD2     H13970   3.715   3.003  13.714  1.0988  0.2309  0.1794
   11MPD2    H113971   3.858   2.914  13.332  1.0503  0.0709 -0.6586
   11MPD2    H213972   3.938   2.649  13.646 -0.2776 -0.8290 -0.6879
   11MPD2    H313973   3.967   2.716  13.424 -0.4710 -0.1339 -0.1618
   11MPD2     N13974   3.724   3.094  13.455 -0.0759 -0.0431 -0.2465
   11MPD2    H513975   3.742   3.110  13.356 -0.4903  0.6182 -0.2101
   11MPD2    N113976   3.805   2.798  13.843  0.4851  0.1212  0.2356
   11MPD2    H713977   3.771   2.876  13.897 -1.4278  0.3947 -1.3577
    1MPD1     C13978   1.033   3.223  17.270  0.0204 -0.4492  0.7538
    1MPD1    C113979   1.127   3.169  17.188 -0.0492  0.3392 -0.0244
    1MPD1    C213980   1.259   3.204  17.202 -0.6203 -0.2192 -0.3071
    1MPD1    C313981   1.307   3.283  17.302 -0.9083 -0.2153  0.0932
    1MPD1    C413982   1.213   3.339  17.390  0.4028 -0.1306 -0.1602
    1MPD1    C513983   1.079   3.303  17.371  0.2258  0.1780 -0.2916
    1MPD1     H13984   1.322   3.177  17.119 -0.6931  2.6748 -1.3139
    1MPD1    H113985   1.232   3.410  17.470 -1.8199  0.2141  0.0583
    1MPD1    H213986   0.928   3.202  17.255 -0.5092  1.0035  2.3916
    1MPD1    H313987   1.003   3.360  17.424  0.6999 -0.0214  0.6008
    1MPD1     N13988   1.446   3.318  17.312 -0.0165  0.0904  0.3830
    1MPD1    H513989   1.467   3.382  17.388  1.1610  0.6603 -0.4213
    1MPD1    N113990   1.095   3.100  17.073  0.2422 -0.0655 -0.2730
    1MPD1    H613991   1.174   3.052  17.030  1.6789  0.3243  1.9353
    1MPD1    H713992   1.012   3.043  17.081  1.4387 -1.7245  0.2387
    2MPD1     C13993   1.949   3.222   0.320  0.2037  0.3843  0.2813
    2MPD1    C113994   1.866   3.127   0.274  0.3182  0.3019  0.1344
    2MPD1    C213995   1.824   3.145   0.141 -0.2716 -0.6453 -0.2967
    2MPD1    C313996   1.870   3.247   0.060 -0.7953  0.3147 -0.5185
    2MPD1    C413997   1.951   3.337   0.119  0.5688 -0.3625 -0.4623
    2MPD1    C513998   1.984   3.324   0.249  0.0466  0.1305  0.0547
    2MPD1     H13999   1.760   3.073   0.093 -0.2014 -1.3978  0.7248
    2MPD1    H114000   1.994   3.421   0.065  0.9682  0.3926  1.0123
    2MPD1    H214001   1.990   3.217   0.420  1.2417  1.6315 -0.0662
    2MPD1    H314002   2.025   3.410   0.301 -0.8401  0.9386 -0.5760
    2MPD1     N14003   1.830   3.245  17.618 -0.3044  0.5284 -0.0657
    2MPD1    H514004   1.748   3.197  17.584 -0.7521  2.1148 -1.2328
    2MPD1    N114005   1.812   3.027   0.365 -0.4185  0.7019  0.7139
    2MPD1    H614006   1.878   2.992   0.434  0.2517 -1.6801 -1.1036
    2MPD1    H714007   1.785   2.943   0.313 -0.9332 -0.3147  2.6073
    3TMC3    C114008   1.848   3.316  17.400  0.0004 -0.1118  0.7622
    3TMC3    C214009   1.935   3.343  17.300  0.2828 -0.4583 -0.0356
    3TMC3    C314010   1.891   3.368  17.172  0.3345 -0.4718 -0.3721
    3TMC3    C414011   1.714   3.321  17.377 -0.0676  0.2456 -0.6028
    3TMC3    C514012   1.667   3.342  17.247  0.1655  0.0039  0.3324
    3TMC3    C614013   1.759   3.363  17.145  0.7298 -0.0164 -0.1626
    3TMC3     C14014   1.899   3.326  17.529  0.1512  0.6790  0.0023
    3TMC3     O14015   2.001   3.393  17.537 -0.4844 -0.3248  0.6757
    3TMC3     H14016   2.041   3.328  17.317  0.1930 -0.9748  0.0691
    3TMC3    H114017   1.649   3.299  17.460 -1.1454  1.3729 -1.1479
    3TMC3    H214018   1.723   3.401  17.049 -0.6107 -0.6722  0.0790
    3TMC3    C714019   1.537   3.304  17.205  0.1296  0.0596  0.0336
    3TMC3    C814020   1.982   3.389  17.070 -1.0919 -0.1169 -0.0519
    3TMC3    O114021   1.515   3.279  17.086 -0.3782  0.8282  0.3524
    3TMC3    O214022   1.947   3.368  16.956  0.5302 -0.1995 -0.1789
    4MPD1     C14023   2.476   3.491  16.941 -0.9917 -0.3527  0.0541
    4MPD1    C114024   2.448   3.540  17.069 -0.6508  0.7306 -0.0600
    4MPD1    C214025   2.325   3.512  17.126 -0.0708 -0.2518 -0.1609
    4MPD1    C314026   2.227   3.456  17.050  0.1145 -0.0818 -0.4542
    4MPD1    C414027   2.257   3.425  16.917  0.3603  0.8749  0.1824
    4MPD1    C514028   2.383   3.437  16.859  0.4829 -0.8623 -0.4590
    4MPD1     H14029   2.312   3.541  17.230 -0.3462 -1.2256  0.0724
    4MPD1    H114030   2.169   3.388  16.866  0.1791  0.1048  1.0402
    4MPD1    H214031   2.577   3.510  16.907 -0.3783 -0.5937  1.7544
    4MPD1    H314032   2.409   3.413  16.757  2.5210 -0.7485  0.0259
    4MPD1     N14033   2.105   3.445  17.125  0.5530 -0.2438  0.5068
    4MPD1    H514034   2.100   3.481  17.219 -1.8861 -0.7049  0.5637
    4MPD1    N114035   2.555   3.580  17.152 -0.2766 -0.0930 -0.4480
    4MPD1    H614036   2.525   3.648  17.222  0.0257 -0.1576 -0.2568
    4MPD1    H714037   2.614   3.634  17.089 -0.1443 -1.0735 -1.1460
    1TCq1    O114038   2.470   4.494  10.843  0.3637 -0.2153  0.0827
    1TCq1    C114039   2.583   4.434  10.808 -0.8197  0.1783  0.2841
    1TCq1    O214040   2.606   4.348  10.722 -0.3812 -0.6767 -0.6588
    1TCq1    C214041   2.697   4.505  10.870  0.2014 -0.0251 -0.0623
    1TCq1    C314042   2.690   4.640  10.877  0.2206  0.1205 -0.3174
    1TCq1    C414043   2.779   4.702  10.967  0.0942 -0.1113  0.2867
    1TCq1    C514044   2.857   4.618  11.049  0.5905 -0.6243  0.1660
    1TCq1    C614045   2.863   4.481  11.033 -0.3295 -0.9824 -0.6876
    1TCq1    C714046   2.779   4.428  10.946 -0.0301  1.1125  0.4100
    1TCq1    C814047   2.922   4.391  11.142 -0.5039  0.6139  0.8025
    1TCq1    O414048   2.919   4.269  11.123  0.8563 -0.0171 -0.0531
    1TCq1    C914049   2.744   0.111  11.015  0.5977 -0.6269 -0.4761
    1TCq1    O514050   2.796   0.158  11.121  0.4336  0.2430  0.1328
    1TCq1    O614051   2.648   0.172  10.964 -0.1815  0.3490 -0.3796
    1TCq1    H114052   2.477   4.547  10.925  1.2186 -1.0221  0.5342
    1TCq1    H214053   2.609   4.690  10.825 -0.0293  0.9249  0.8661
    1TCq1    H314054   2.931   4.667  11.111 -0.1890  1.6874 -0.7639
    1TCq1    H414055   2.773   4.320  10.937 -1.2005  1.3873 -2.1106
    2MPD1     C14056   3.193   4.311  11.567  0.4221  0.7867  0.0278
    2MPD1    C114057   3.114   4.422  11.590  0.8756 -0.3843 -0.2529
    2MPD1    C214058   3.030   4.465  11.493 -0.2212 -0.5795 -0.9151
    2MPD1    C314059   3.031   4.409  11.364  0.0631  0.1191 -0.6181
    2MPD1    C414060   3.112   4.292  11.342  0.0914 -0.6219 -0.3366
    2MPD1    C514061   3.196   4.249  11.444 -0.6844 -0.3790 -0.2504
    2MPD1     H14062   2.968   4.554  11.501  0.7620  0.0076  0.2146
    2MPD1    H114063   3.119   4.252  11.241 -0.5240 -3.5251  0.7840
    2MPD1    H214064   3.267   4.286  11.643  2.5271  2.3098 -1.5195
    2MPD1    H314065   3.274   4.173  11.439 -1.1010 -0.7162 -1.5903
    2MPD1     N14066   2.950   4.458  11.258  0.0584  0.1122  0.4745
    2MPD1    H514067   2.903   4.547  11.273 -0.4940 -0.0604 -0.2318
    2MPD1    N114068   3.124   4.491  11.713  0.2009 -0.2846 -0.0676
    2MPD1    H614069   3.055   4.557  11.747 -0.7475 -3.0387  3.2778
    2MPD1    H714070   3.189   4.463  11.787 -0.3203 -1.1076  0.0789
    1TCq1    O114071   4.052   1.147  17.404  0.3232 -0.4615 -0.7078
    1TCq1    C114072   4.014   1.146  17.536  0.1819  0.0768  0.0241
    1TCq1    O214073   3.931   1.076  17.585  0.5517 -0.3307 -0.3110
    1TCq1    C214074   4.083   1.256  17.609  0.5738  0.8268  0.6696
    1TCq1    C314075   4.205   1.288  17.577  0.3316 -0.5287  0.7390
    1TCq1    C414076   4.267   1.382  17.651  0.0001 -0.7918 -0.6518
    1TCq1    C514077   4.214   1.436   0.072 -0.5746  0.3072  0.7225
    1TCq1    C614078   4.079   1.404   0.104  0.1128 -0.5470 -0.4040
    1TCq1    C714079   4.021   1.308   0.027  0.9266 -0.2130  0.3232
    1TCq1    C814080   4.002   1.471   0.210 -0.7689 -0.5871  0.6642
    1TCq1    O414081   3.906   1.410   0.250  0.3391  0.4672 -1.3133
    1TCq1    C914082   4.410   1.374  17.646 -0.1767 -0.1537 -0.7610
    1TCq1    O514083   4.465   1.301  17.559  0.6543 -0.1168  0.2284
    1TCq1    O614084   4.475   1.428   0.044  0.0628 -0.5168  0.1863
    1TCq1    H114085   4.105   1.226  17.379  1.5619 -0.1151  3.0780
    1TCq1    H214086   4.258   1.224  17.507  2.0882  0.5785  1.0689
    1TCq1    H314087   4.274   1.505   0.130 -0.4209 -2.1806  3.4583
    1TCq1    H414088   3.919   1.283   0.051  1.1582 -0.3135  1.1970
    2MPD1     C14089   4.034   1.788   0.605 -0.6720 -0.3725 -0.4529
    2MPD1    C114090   4.092   1.852   0.496 -0.2431  0.2060 -0.1419
    2MPD1    C214091   4.099   1.784   0.379 -0.0602  0.2057 -0.0416
    2MPD1    C314092   4.041   1.659   0.364 -0.2758  0.4602  0.3199
    2MPD1    C414093   3.962   1.610   0.465  1.0009 -0.0148  0.3869
    2MPD1    C514094   3.975   1.664   0.592 -0.4129 -0.0980 -0.3772
    2MPD1     H14095   4.143   1.829   0.291 -1.5962  1.0713 -0.3646
    2MPD1    H114096   3.920   1.510   0.461 -1.0593  0.8812 -0.2010
    2MPD1    H214097   4.041   1.824   0.707 -1.9096  1.1700 -0.9291
    2MPD1    H314098   3.931   1.609   0.674  0.8185 -1.9594 -0.9677
    2MPD1     N14099   4.057   1.592   0.243 -0.0272 -0.2921  0.2399
    2MPD1    H514100   4.130   1.634   0.185 -1.9225  1.3600 -0.9318
    2MPD1    N114101   4.165   1.975   0.509 -1.0037  0.2640  0.8629
    2MPD1    H614102   4.138   2.035   0.587 -0.2101  1.6995  0.0275
    2MPD1    H714103   4.164   2.030   0.424 -1.3653  0.2204  0.8353
    1MPD1     C14104   4.376   3.140  12.371  0.3377  0.0674 -0.1941
    1MPD1    C114105   4.495   3.210  12.388 -0.2176  0.6245 -0.4428
    1MPD1    C214106   4.506   3.348  12.365 -0.3986 -0.3646 -0.0931
    1MPD1    C314107   4.400   3.414  12.304  0.7370  0.1376 -0.0969
    1MPD1    C414108   4.280   3.343  12.293  0.5943 -0.2307 -0.1862
    1MPD1    C514109   4.266   3.213  12.334  0.5320 -0.4729 -0.0258
    1MPD1     H14110   4.602   3.395  12.379 -1.7742  2.3517  0.1835
    1MPD1    H114111   4.184   3.392  12.283  0.1026 -1.0646  0.4160
    1MPD1    H214112   4.369   3.032  12.381  0.3355  0.2088  1.3691
    1MPD1    H314113   4.168   3.168  12.330 -0.4337  1.7038 -1.0184
    1MPD1     N14114   4.411   3.555  12.288  0.4679  0.8335  0.2164
    1MPD1    H514115   4.504   3.590  12.305  1.3094 -0.6551 -1.2768
    1MPD1    N114116   4.619   3.137  12.423 -0.4914  0.0631 -0.2914
    1MPD1    H614117   4.609   3.044  12.463 -0.0425  0.9576  1.9256
    1MPD1    H714118   4.689   3.198  12.465 -0.6652  1.2641 -1.7255
    2MPD1     C14119   3.456   4.559  10.754 -0.4133 -0.4108 -0.7622
    2MPD1    C114120   3.409   4.470  10.655  0.3976  0.2330  0.0129
    2MPD1    C214121   3.473   4.348  10.647  0.3690  0.8205 -0.2322
    2MPD1    C314122   3.578   4.312  10.735 -0.0225  0.0560 -0.1058
    2MPD1    C414123   3.617   4.405  10.831 -0.5737  1.0780 -0.9903
    2MPD1    C514124   3.553   4.523  10.842 -0.6984  0.1005  0.5870
    2MPD1     H14125   3.461   4.289  10.557  0.4688  1.0866 -0.4218
    2MPD1    H114126   3.700   4.389  10.899 -2.8548 -0.8059  1.3566
    2MPD1    H214127   3.417   4.661  10.757  2.8840  0.8335  0.4377
    2MPD1    H314128   3.594   4.599  10.907 -2.5149  0.3589  1.4394
    2MPD1     N14129   3.642   4.185  10.735 -0.3893  0.0427 -0.0385
    2MPD1    H514130   3.718   4.178  10.802 -0.8838  0.8195  0.6105
    2MPD1    N114131   3.318   4.520  10.560 -0.8970 -0.5191 -0.1803
    2MPD1    H614132   3.245   4.565  10.615 -0.1717  1.0264 -0.4825
    2MPD1    H714133   3.274   4.438  10.518 -0.2095  0.5403 -2.9734
    3MPD1     C14134   3.293   3.296  10.767  0.3670 -0.0686 -0.2748
    3MPD1    C114135   3.299   3.361  10.648  0.5107 -0.0464  0.3863
    3MPD1    C214136   3.399   3.456  10.626  0.1365  0.0850 -0.2584
    3MPD1    C314137   3.499   3.475  10.717 -0.7815  0.1697 -0.2364
    3MPD1    C414138   3.486   3.405  10.836  0.2363  0.0491 -0.2743
    3MPD1    C514139   3.391   3.310  10.858 -0.5672 -0.7154  0.0453
    3MPD1     H14140   3.397   3.510  10.532 -2.8905 -0.0046 -0.2580
    3MPD1    H114141   3.558   3.422  10.915 -0.0709 -1.2218  0.2744
    3MPD1    H214142   3.210   3.231  10.791  0.9177 -0.7024 -0.0805
    3MPD1    H314143   3.374   3.265  10.954 -2.4196  0.1807  0.1467
    3MPD1     N14144   3.592   3.580  10.695 -0.5501 -0.3829  0.8212
    3MPD1    H514145   3.582   3.630  10.607  1.1738 -0.8616  0.3509
    3MPD1    N114146   3.203   3.331  10.546  0.3075  0.0814 -0.0006
    3MPD1    H614147   3.114   3.300  10.584  0.5986 -0.9914 -0.1984
    3MPD1    H714148   3.186   3.405  10.478 -0.5183  1.7978  2.0997
    4MPD2     C14149   4.090   4.327  12.093 -0.2871  0.4969 -0.3903
    4MPD2    C114150   4.218   4.287  12.077  0.5311  0.4407 -0.0034
    4MPD2    C214151   4.289   4.337  11.973 -0.2439  0.0189 -0.7122
    4MPD2    C314152   4.252   4.447  11.904 -0.7446  0.5366 -0.3482
    4MPD2    C414153   4.131   4.495  11.932 -0.3602  0.2366 -0.4329
    4MPD2    C514154   4.047   4.435  12.019 -1.0217 -0.1154  0.3880
    4MPD2     H14155   4.391   4.298  11.966 -0.5132 -0.7621 -0.3531
    4MPD2    H114156   4.104   4.588  11.884 -0.7045  0.4890  0.2454
    4MPD2    H214157   4.023   4.291  12.170  2.0380  1.3855  2.0782
    4MPD2    H314158   3.953   4.483  12.042 -0.9181  0.1895  0.1652
    4MPD2     N14159   4.327   4.493  11.793  0.4533  0.0319 -0.1407
    4MPD2    H514160   4.286   4.568  11.739 -0.7618  0.6062  1.5640
    4MPD2    N114161   4.272   4.178  12.147 -0.3592 -0.8356 -0.0333
    4MPD2    H714162   4.368   4.157  12.121 -0.6982 -1.2833 -0.8814
    5TMC3    C114163   4.314   3.997  12.275  0.5400  0.2083  0.3858
    5TMC3    C214164   4.268   3.868  12.255 -0.2111 -0.2284  0.0234
    5TMC3    C314165   4.360   3.778  12.233  0.5380  0.5211 -0.8357
    5TMC3    C414166   4.443   4.032  12.261  0.5552  0.0725  0.5465
    5TMC3    C514167   4.526   3.939  12.201  0.3370 -0.1532 -0.4546
    5TMC3    C614168   4.482   3.808  12.187  0.8597  0.0592 -0.5793
    5TMC3     C14169   4.216   4.100  12.244 -0.1542  0.5786 -0.1996
    5TMC3     O14170   4.099   4.092  12.285 -0.5572 -0.3365  0.4419
    5TMC3     H14171   4.165   3.843  12.277 -0.6870  0.7207 -1.1525
    5TMC3    H114172   4.480   4.129  12.290 -1.4090  0.8123  0.5692
    5TMC3    H214173   4.536   3.733  12.130  2.5050 -0.2324  1.3973
    5TMC3    C714174   4.608   4.001  12.100  0.7455  0.3190 -0.5570
    5TMC3    C814175   4.313   3.641  12.237  0.1363 -0.5674 -0.4445
    5TMC3    O114176   4.567   4.111  12.073  0.0622 -0.1696 -0.4722
    5TMC3    O214177   4.195   3.618  12.202 -0.0067 -0.7520 -0.0752
    6TMC3    C114178   3.720   3.968  10.676 -0.0959  0.2869  0.1447
    6TMC3    C214179   3.676   3.834  10.673 -0.2341  0.4201  0.0371
    6TMC3    C314180   3.746   3.748  10.754 -0.3984 -0.2340 -0.5977
    6TMC3    C414181   3.840   4.001  10.728 -0.5037 -0.2701 -0.2082
    6TMC3    C514182   3.918   3.905  10.794  0.4113  0.1387 -0.5333
    6TMC3    C614183   3.865   3.785  10.815 -0.1874  0.1014  0.2893
    6TMC3     C14184   3.612   4.068  10.670  0.9639  0.0887  0.3648
    6TMC3     O14185   3.505   4.035  10.614  0.2111 -0.4426  0.0755
    6TMC3     H14186   3.570   3.824  10.652 -0.2900  0.4546  0.3020
    6TMC3    H114187   3.871   4.105  10.728 -0.1148 -0.3894 -0.2888
    6TMC3    H214188   3.921   3.714  10.874 -0.5037 -0.5807 -0.2227
    6TMC3    C714189   4.018   3.954  10.888 -0.6364  0.0663 -0.6407
    6TMC3    C814190   3.691   3.620  10.786  0.0520 -0.2440  0.0340
    6TMC3    O114191   4.098   4.037  10.845  0.1249 -0.3033  0.0301
    6TMC3    O214192   3.741   3.552  10.875  0.1448 -0.3968  0.5804
    7MPD2     C14193   0.071   3.970  11.628  0.2910 -0.1493  0.2391
    7MPD2    C114194   0.001   4.074  11.689  0.2554  0.3296  0.6292
    7MPD2    C214195   4.689   4.053  11.817  0.0102 -0.8903 -0.1943
    7MPD2    C314196   4.722   3.939  11.888  0.3809  0.0188  0.7183
    7MPD2    C414197   0.060   3.835  11.821  0.4106 -0.1180 -0.7216
    7MPD2    C514198   0.104   3.858  11.695 -0.4627 -0.5300 -0.0439
    7MPD2     H14199   4.632   4.133  11.861 -1.7738 -1.2883 -1.7632
    7MPD2    H114200   0.100   3.749  11.874  1.3053  1.0796  0.5391
    7MPD2    H214201   0.098   3.985  11.524 -1.8400 -0.8186 -0.4065
    7MPD2    H314202   0.174   3.793  11.643 -0.4089 -1.2579  0.9379
    7MPD2     N14203   4.682   3.913  12.022 -0.3478 -0.0515  0.8782
    7MPD2    H514204   4.696   3.820  12.060  0.8532 -0.0604  0.4076
    7MPD2    N114205   4.685   4.200  11.633  0.4108 -0.0550 -0.2693
    7MPD2    H714206   4.640   4.264  11.698  2.3027  0.2358  0.7624
    8TMC3    C114207   4.607   4.348  11.464  0.1453 -0.8077 -0.2673
    8TMC3    C214208   4.498   4.333  11.386  0.0751  0.6439  0.5763
    8TMC3    C314209   4.379   4.375  11.428  0.7549  0.1082  0.9555
    8TMC3    C414210   4.588   4.433  11.576  0.2306 -0.7354 -0.5985
    8TMC3    C514211   4.464   4.482  11.612  0.5846  0.1835  0.1858
    8TMC3    C614212   4.359   4.460  11.539 -0.5890  0.5502  0.0938
    8TMC3     C14213   4.678   4.230  11.499  0.1906  0.5408  0.8018
    8TMC3     O14214   4.701   4.156  11.406  0.1895 -0.2875 -0.4449
    8TMC3     H14215   4.509   4.260  11.306 -2.1213 -0.1605  0.9945
    8TMC3    H114216   4.666   4.448  11.650 -0.1025  0.3780 -0.4735
    8TMC3    H214217   4.258   4.482  11.572 -0.5280  0.6052  0.2402
    8TMC3    C714218   4.440   4.437  11.744 -0.2257  0.4114  0.1068
    8TMC3    C814219   4.269   4.284  11.416  0.0592  0.1216 -1.0122
    8TMC3    O114220   4.507   4.346  11.786  0.1977  0.2595 -0.4733
    8TMC3    O214221   4.197   4.264  11.514  0.1303 -0.2828 -0.0308
    9MPD2     C14222   4.174   4.022  11.389 -0.1763 -0.5007 -0.1126
    9MPD2    C114223   4.202   4.098  11.276  0.1752  0.8489  0.2472
    9MPD2    C214224   4.152   4.065  11.144  0.5767  0.1367 -0.0101
    9MPD2    C314225   4.064   3.959  11.135 -0.3448 -0.3051 -0.5578
    9MPD2    C414226   4.033   3.890  11.255  0.3030  0.4446 -0.1670
    9MPD2    C514227   4.096   3.908  11.378 -0.8188  0.2645  0.2034
    9MPD2     H14228   4.168   4.135  11.063 -1.2474  2.2861  1.4482
    9MPD2    H114229   3.976   3.799  11.250  0.3039  0.3454  1.4136
    9MPD2    H214230   4.203   4.047  11.490 -0.4556 -1.3676  0.1831
    9MPD2    H314231   4.064   3.851  11.465  1.5939 -0.8989  0.3260
    9MPD2     N14232   3.998   3.914  11.018  0.2376 -0.2396  0.2437
    9MPD2    H514233   3.928   3.842  11.033  0.3318 -0.4325 -0.2420
    9MPD2    N114234   4.273   4.215  11.298  0.4876  0.7273  0.1119
    9MPD2    H714235   4.315   4.264  11.220  0.7653  1.9164  0.9964
    1MPD1     C14236   0.031   2.851  17.211  0.1913 -0.7074 -0.3949
    1MPD1    C114237   0.019   2.943  17.315 -0.8818 -0.0445  0.4296
    1MPD1    C214238   4.720   3.077  17.277  0.9596 -0.4022  0.7755
    1MPD1    C314239   4.695   3.106  17.144  0.6406  0.8292  0.0191
    1MPD1    C414240   4.678   3.007  17.053  0.1849  0.3590  0.5943
    1MPD1    C514241   4.718   2.884  17.088 -1.1293 -0.3547  0.2901
    1MPD1     H14242   4.700   3.155  17.349  1.2230 -1.3632  1.8819
    1MPD1    H114243   4.643   3.022  16.952  0.0569  1.8405  0.8563
    1MPD1    H214244   0.073   2.752  17.224 -1.8199 -1.3065  1.5172
    1MPD1    H314245   0.003   2.801  17.018 -1.0395  0.7471 -1.0158
    1MPD1     N14246   4.672   3.236  17.094 -0.2667  0.9925  0.7426
    1MPD1    H514247   4.642   3.232  16.997 -1.8059  0.4809  1.2320
    1MPD1    N114248   0.038   2.901  17.450 -0.2351 -0.0590 -1.1979
    1MPD1    H614249   0.024   2.800  17.454 -1.1261  0.0664 -1.1430
    1MPD1    H714250   4.701   2.951  17.515  0.0054  0.8357 -1.6652
    2MPD1     C14251   4.078   3.782  16.542  0.5894 -0.1194 -0.4383
    2MPD1    C114252   4.196   3.863  16.545  0.0490  0.6253  0.4491
    2MPD1    C214253   4.307   3.822  16.614 -0.5355  0.7992 -0.7313
    2MPD1    C314254   4.309   3.704  16.683  0.9730  0.2203  0.1822
    2MPD1    C414255   4.202   3.625  16.676  0.1506 -0.3625  0.4168
    2MPD1    C514256   4.087   3.667  16.611  0.5361  0.0248 -0.4860
    2MPD1     H14257   4.403   3.873  16.616 -0.7479  1.1355  2.0075
    2MPD1    H114258   4.197   3.528  16.725 -0.6853 -0.2571  0.5500
    2MPD1    H214259   3.981   3.806  16.500  1.3482 -0.9533 -2.6743
    2MPD1    H314260   3.998   3.606  16.619 -0.4045  1.3882 -0.6056
    2MPD1     N14261   4.423   3.675  16.756  0.2923 -0.8513 -1.0378
    2MPD1    H514262   4.498   3.744  16.748 -0.1796 -0.2159  0.0478
    2MPD1    N114263   4.208   3.975  16.468 -0.7275 -0.1334  0.6759
    2MPD1    H614264   4.123   4.011  16.426 -0.6303 -2.1940 -1.3020
    2MPD1    H714265   4.249   4.044  16.530 -1.1171 -1.1309  2.0272
    3TCq2    C114266   4.440   3.557  16.823  0.3101  0.1723  0.5606
    3TCq2    O214267   4.373   3.460  16.842 -0.2886 -0.4102  0.5365
    3TCq2    C214268   4.540   3.574  16.925 -0.3168  0.1089  0.4924
    3TCq2    C314269   4.523   3.693  17.006  0.6551  0.2583 -0.5600
    3TCq2    C414270   4.596   3.700  17.123  0.1543  0.7311  0.7625
    3TCq2    C514271   4.665   3.585  17.171  0.0939 -1.1240  0.3145
    3TCq2    C614272   4.679   3.473  17.088  0.3015 -0.1353  0.6728
    3TCq2    C714273   4.611   3.466  16.966  0.6274  0.0797  0.0843
    3TCq2    C814274   4.713   3.353  17.164  0.1318  0.0636  0.6031
    3TCq2    O414275   0.047   3.369  17.272  0.4012 -0.1020 -0.0253
    3TCq2    C914276   4.578   3.814  17.208 -0.4545  0.3917 -0.0860
    3TCq2    O514277   4.491   3.894  17.170 -0.3688  0.0874 -0.1950
    3TCq2    O614278   4.603   3.783  17.331  0.1238  0.3162  0.5208
    3TCq2    H214279   4.479   3.783  16.966  2.8704  1.2376 -0.7792
    3TCq2    H314280   4.697   3.584  17.275  1.1462  2.4432  0.0533
    3TCq2    H414281   4.594   3.374  16.911  2.1556  0.9877 -1.8707
    1TCq1    O114282   1.873   2.234  12.917  0.0393  0.2378 -0.2880
    1TCq1    C114283   1.995   2.222  12.973 -0.3416  0.6472 -0.1599
    1TCq1    O214284   2.024   2.170  13.078 -0.1325  0.2073 -0.4591
    1TCq1    C214285   2.089   2.225  12.860  1.0191  0.6434 -0.0368
    1TCq1    C314286   2.079   2.327  12.776  0.2451 -0.4866 -0.4446
    1TCq1    C414287   2.171   2.340  12.682 -0.4287  0.8349  0.2253
    1TCq1    C514288   2.292   2.275  12.691 -0.4128 -0.0346 -0.4532
    1TCq1    C614289   2.306   2.186  12.792 -0.4059 -0.1730 -0.1737
    1TCq1    C714290   2.204   2.157  12.874 -0.3730  0.2045  0.2344
    1TCq1    C814291   2.440   2.130  12.817  0.2522 -0.4438 -0.4092
    1TCq1    O414292   2.510   2.101  12.723  0.4116 -0.0931  0.5634
    1TCq1    C914293   2.149   2.439  12.585  0.2010 -0.0955 -0.4292
    1TCq1    O514294   2.031   2.477  12.562  0.0232  0.2239  0.3435
    1TCq1    O614295   2.245   2.469  12.511  0.0767  0.5051 -0.0416
    1TCq1    H114296   1.864   2.263  12.823 -0.3080  0.1314 -0.2853
    1TCq1    H214297   1.984   2.379  12.766 -0.9707 -2.2304  2.0885
    1TCq1    H314298   2.369   2.293  12.616 -0.1276  0.8679  0.0599
    1TCq1    H414299   2.209   2.075  12.945  2.7882 -0.4862 -0.8031
    2MPD2     C14300   2.665   1.965  12.944 -0.6509  0.3073  0.4287
    2MPD2    C114301   2.584   2.061  13.008  0.8699  0.3511 -0.6681
    2MPD2    C214302   2.623   2.093  13.140  0.0881  0.1367  0.2341
    2MPD2    C314303   2.745   2.050  13.196 -0.6915  0.3845  0.1063
    2MPD2    C414304   2.825   1.972  13.121 -0.3621  0.2787 -0.5053
    2MPD2    C514305   2.786   1.922  13.002  0.7916  0.1517 -0.3295
    2MPD2     H14306   2.553   2.151  13.199  1.4458  1.4249  0.5681
    2MPD2    H114307   2.927   1.946  13.147 -0.9177 -2.8342 -1.4634
    2MPD2    H214308   2.645   1.928  12.844 -0.8867 -0.1386  0.6385
    2MPD2    H314309   2.853   1.854  12.951  0.7770 -1.1905  1.4591
    2MPD2     N14310   2.771   2.092  13.326 -0.3959 -0.1826 -0.3035
    2MPD2    H514311   2.702   2.148  13.374  0.8659  0.6888  0.4978
    2MPD2    N114312   2.464   2.113  12.952 -0.5283 -0.2317  0.2254
    2MPD2    H714313   2.396   2.149  13.018 -0.6530 -1.6895  0.8919
    3TCq1    O114314   2.717   2.438  13.774  0.1628  0.1309 -0.4254
    3TCq1    C114315   2.755   2.445  13.645 -0.4861 -0.2006 -0.4230
    3TCq1    O214316   2.674   2.482  13.562  0.2461 -0.2798 -0.0272
    3TCq1    C214317   2.862   2.351  13.622 -0.0522  0.4458 -0.9542
    3TCq1    C314318   2.945   2.308  13.724 -0.2182  0.6360  0.1252
    3TCq1    C414319   3.018   2.192  13.705 -0.0719 -0.0060 -0.2444
    3TCq1    C514320   2.995   2.115  13.600 -0.6954 -0.7941 -0.6558
    3TCq1    C614321   2.908   2.154  13.502  0.8583  0.5445  0.2005
    3TCq1    C714322   2.832   2.271  13.512 -0.5227 -0.7856 -0.3636
    3TCq1    C814323   2.890   2.073  13.387  0.0831 -0.1396 -0.2285
    3TCq1    O414324   2.988   2.001  13.363 -0.2634 -0.2981  0.3938
    3TCq1    C914325   3.094   2.132  13.808 -0.2232 -0.8535 -0.1157
    3TCq1    O514326   3.109   2.201  13.913 -0.0384 -0.3073  0.4660
    3TCq1    O614327   3.118   2.006  13.804  0.5191 -0.4370  0.0529
    3TCq1    H114328   2.775   2.376  13.824 -0.4608  0.7504  1.0721
    3TCq1    H214329   2.960   2.359  13.818 -1.1713 -0.1428  0.7018
    3TCq1    H314330   3.055   2.025  13.585 -1.2750 -1.4849  1.2462
    3TCq1    H414331   2.774   2.309  13.428  1.1205  1.3914 -0.5106
    1MPD2     C14332   2.213   2.974  14.831  1.0446  0.7186  0.7006
    1MPD2    C114333   2.132   2.898  14.917 -0.5174  0.2724 -0.8127
    1MPD2    C214334   2.184   2.791  14.991 -0.1616  0.6559 -0.0212
    1MPD2    C314335   2.324   2.769  14.978 -0.2158  0.3969  0.2695
    1MPD2    C414336   2.405   2.845  14.901 -0.0353 -0.4833 -0.2788
    1MPD2    C514337   2.348   2.955  14.840 -0.1464 -0.3635  0.1176
    1MPD2     H14338   2.121   2.726  15.051  1.5666  0.8461  2.0189
    1MPD2    H114339   2.512   2.830  14.904 -0.1849 -1.4058  0.3123
    1MPD2    H214340   2.182   3.063  14.778 -0.8516  0.0774  0.7512
    1MPD2    H314341   2.419   3.012  14.781  0.8301  1.1198  2.7537
    1MPD2     N14342   2.388   2.655  15.026 -0.5895 -0.3134 -0.0119
    1MPD2    H514343   2.475   2.628  14.982  0.0342 -1.1919  1.7978
    1MPD2    N114344   1.996   2.927  14.911 -0.9240 -0.6957  0.3962
    1MPD2    H714345   1.973   2.979  14.828  1.2841 -0.7585 -0.2749
    2TMC3    C114346   1.767   2.876  14.920  0.2790  0.3272  0.0923
    2TMC3    C214347   1.708   2.756  14.935  0.4905  0.0086 -0.4828
    2TMC3    C314348   1.613   2.707  14.850 -0.9874 -0.1304 -0.5886
    2TMC3    C414349   1.729   2.964  14.821  0.2910  1.0161 -0.5186
    2TMC3    C514350   1.627   2.911  14.741 -0.0122  1.0303  0.2881
    2TMC3    C614351   1.576   2.784  14.746  0.1463  0.3095  0.6469
    2TMC3     C14352   1.897   2.881  14.991 -0.2457 -0.3393  0.2182
    2TMC3     O14353   1.903   2.823  15.096 -0.1464 -0.0917 -0.6490
    2TMC3     H14354   1.721   2.703  15.029 -2.7338 -1.4174 -0.8267
    2TMC3    H114355   1.766   3.065  14.815 -2.2809  1.9152 -1.0264
    2TMC3    H214356   1.520   2.749  14.660 -1.7257  1.3651  1.4509
    2TMC3    C714357   1.585   2.989  14.635 -0.4633  0.8328 -0.2448
    2TMC3    C814358   1.662   2.580  14.793 -0.2514  0.2417 -0.2228
    2TMC3    O114359   1.475   2.972  14.589  0.4998 -0.2921 -0.2072
    2TMC3    O214360   1.590   2.528  14.706  0.3592  0.3415  0.4806
    3TCq1    O114361   2.404   3.636  14.545 -0.1681  0.5055 -0.1506
    3TCq1    C114362   2.275   3.611  14.581 -0.1800  0.0139  0.0007
    3TCq1    O214363   2.252   3.508  14.639  0.1515 -0.4239  0.0207
    3TCq1    C214364   2.176   3.674  14.491  0.1853  0.4902  0.0887
    3TCq1    C314365   2.215   3.781  14.414  0.1474  0.0449 -0.7804
    3TCq1    C414366   2.155   3.807  14.293  0.1071  0.2255 -0.2585
    3TCq1    C514367   2.052   3.726  14.256 -0.2894  0.8227  0.2952
    3TCq1    C614368   2.026   3.621  14.333 -0.4827 -0.0071  0.1472
    3TCq1    C714369   2.090   3.584  14.446  0.1363 -0.2580 -0.0461
    3TCq1    C814370   1.916   3.539  14.282  0.0816  0.2069  0.3412
    3TCq1    O414371   1.849   3.590  14.193 -0.3589 -0.8050  0.1444
    3TCq1    C914372   2.188   3.924  14.223  0.1928  0.2663  0.2210
    3TCq1    O514373   2.131   3.943  14.112  0.1827  0.4338 -0.4881
    3TCq1    O614374   2.284   3.991  14.260 -0.3043 -0.1697 -0.1887
    3TCq1    H114375   2.412   3.706  14.477 -1.4803 -1.9561 -2.8496
    3TCq1    H214376   2.275   3.861  14.456  0.6189 -0.4740 -0.4635
    3TCq1    H314377   1.992   3.748  14.169  0.4244 -1.7338 -0.8498
    3TCq1    H414378   2.044   3.517  14.518  0.3387 -0.7187 -0.3487
    4MPD2     C14379   1.651   3.390  14.319  0.1192  0.2217  0.2885
    4MPD2    C114380   1.772   3.348  14.368 -0.7144 -0.6785 -0.3932
    4MPD2    C214381   1.777   3.235  14.450  0.0433 -0.0160 -0.3051
    4MPD2    C314382   1.666   3.169  14.498 -0.9596  0.2638  0.7973
    4MPD2    C414383   1.542   3.220  14.456  0.7347 -0.7904 -0.0622
    4MPD2    C514384   1.541   3.326  14.367 -0.5164  0.4245 -0.3833
    4MPD2     H14385   1.874   3.204  14.488  0.0837  2.6540  1.7832
    4MPD2    H114386   1.447   3.181  14.492  1.7195 -0.9634  2.3692
    4MPD2    H214387   1.646   3.479  14.257 -0.0975  0.6118  0.8636
    4MPD2    H314388   1.448   3.345  14.316 -0.3411 -2.6383 -1.8185
    4MPD2     N14389   1.683   3.073  14.598  0.3736 -0.3989  0.1198
    4MPD2    H514390   1.777   3.060  14.632  0.4305 -1.2594 -0.3534
    4MPD2    N114391   1.888   3.423  14.357 -0.0435 -0.2349  0.2541
    4MPD2    H714392   1.965   3.380  14.408 -0.0276 -1.3112 -0.6913
    5TMC2    C114393   2.401   2.283  14.975  0.5645 -0.2055 -0.3193
    5TMC2    C214394   2.522   2.305  14.910  0.4784 -0.0241  0.2239
    5TMC2    C314395   2.599   2.399  14.968  0.3974  1.0125  0.1022
    5TMC2    C414396   2.363   2.349  15.095  0.5517 -0.0794 -0.3924
    5TMC2    C514397   2.427   2.460  15.130  0.3067 -0.0965  0.1935
    5TMC2    C614398   2.546   2.486  15.065  0.4568 -0.0675 -0.5780
    5TMC2     C14399   2.296   2.238  14.881  0.1026  0.2412 -0.2642
    5TMC2     O14400   2.332   2.188  14.776 -0.1606 -0.7287  0.2558
    5TMC2     H14401   2.554   2.268  14.813  0.5717  1.9174 -0.4863
    5TMC2    H114402   2.273   2.318  15.148  1.9709 -2.7784  0.4552
    5TMC2    H214403   2.610   2.568  15.097 -3.8073  2.0163  2.7540
    5TMC2    C714404   2.341   2.572  15.126 -0.3986  0.0399 -0.7833
    5TMC2    C814405   2.682   2.468  14.874  0.0746 -0.1111 -0.0658
    5TMC2    O114406   2.237   2.573  15.191  0.3420  0.1070  0.1725
    5TMC2    O214407   2.687   2.591  14.877 -0.2191 -0.4655  0.0771
    5TMC2    O514408   2.772   2.383  14.833  0.3165  0.2481  0.1240
    5TMC2    H514409   2.770   2.293  14.871  0.1965  0.2194  0.0481
    6MPD2     C14410   1.844   2.366  14.688 -0.2855 -0.6550 -0.4958
    6MPD2    C114411   1.871   2.449  14.803  0.3585 -0.1222  0.3797
    6MPD2    C214412   1.984   2.419  14.876  0.0715  0.5192 -0.0191
    6MPD2    C314413   2.061   2.310  14.837  0.7218  0.7829 -0.0601
    6MPD2    C414414   2.027   2.227  14.734 -0.3557 -0.0298  0.0687
    6MPD2    C514415   1.926   2.263  14.656 -0.1331  0.4670 -0.2580
    6MPD2     H14416   2.001   2.469  14.971 -0.4318 -1.7393  1.2712
    6MPD2    H114417   2.097   2.150  14.704 -1.4687 -0.1942 -2.0868
    6MPD2    H214418   1.759   2.392  14.626  0.0824  0.8252 -0.3815
    6MPD2    H314419   1.902   2.224  14.558  2.3057 -0.1394 -0.6059
    6MPD2     N14420   2.181   2.309  14.915  0.1690  0.2589 -0.1186
    6MPD2    H514421   2.181   2.356  15.004 -1.1348  1.4980 -0.7924
    6MPD2    N114422   1.786   2.553  14.848 -0.4135 -0.1913  0.2325
    6MPD2    H714423   1.812   2.596  14.936 -1.5272 -0.5412  0.7426
  945NH4     N114424   0.003   0.006  17.566 -0.1335 -0.1282 -0.4061
  945NH4     H214425   4.628   4.697  17.580 -0.3048  1.2087  1.5897
  945NH4     H314426   0.076   4.657  17.554 -0.2331 -0.0837 -1.3146
  945NH4     H414427   0.026   0.076  17.639  1.1804 -1.5457  0.5216
  945NH4     H514428   0.008   0.063  17.479  0.3770 -0.3063 -0.4904
  946SOD     NA14429   3.364   2.720  17.612  0.2958  0.5371  0.4729
  947SOD     NA14430   3.076   3.209  14.008 -0.1860 -0.5132  0.2953
  948SOD     NA14431   2.502   0.785   9.966  0.0881  0.2298 -0.4009
  949SOD     NA14432   3.664   1.056  15.071  0.1221  0.1336 -0.0228
  950SOD     NA14433   1.257   0.180   1.673  0.3139 -0.0584  0.2977
  951SOD     NA14434   1.432   0.257   7.364  0.2101  0.1903  0.2074
  952SOD     NA14435   2.914   4.671  15.016 -0.2012 -0.4941  0.0501
  953SOD     NA14436   2.943   2.595  10.492 -0.5681 -0.8118 -0.3881
  954SOD     NA14437   4.440   4.035   8.320 -0.0622  0.2465  0.0347
  955SOD     NA14438   2.519   2.925   0.200  0.2012  0.1992 -0.0999
  956SOD     NA14439   0.611   4.628  13.653 -0.2900 -0.3295 -0.3756
  957SOD     NA14440   2.771   2.756  11.289  0.6930  0.6904 -0.2148
  958SOD     NA14441   1.803   3.626  16.564  0.3088 -0.3560 -0.4075
  959SOD     NA14442   0.558   2.626  13.471  0.8525 -0.0808 -0.4064
  960SOD     NA14443   0.252   1.532  13.421  0.9624 -0.5070  0.3841
  961SOD     NA14444   4.312   1.824   0.631  0.3952 -0.5276  0.0202
  962SOD     NA14445   3.077   2.094  11.840 -0.0337  0.2763 -0.0907
  963SOD     NA14446   0.337   4.412   0.518 -0.5403  0.1324  0.2167
  964SOD     NA14447   1.708   1.879  10.323 -0.0596  0.0211 -0.1888
  965SOD     NA14448   0.966   4.548   0.294 -0.0755 -0.2460  0.1965
  966SOD     NA14449   4.400   1.631   6.656 -0.1234 -0.4379 -0.1155
  967SOD     NA14450   4.373   0.735  13.062 -0.4236  0.5774 -0.3411
  968SOD     NA14451   1.123   3.135  10.765 -0.2307  0.0710  0.0293
  969SOD     NA14452   3.273   1.630  13.765  0.0509  0.4226  0.3321
  970SOD     NA14453   1.345   1.638   9.927 -0.1413 -0.0376 -0.0516
  971SOD     NA14454   4.482   0.752  10.185  0.3644 -0.3493  0.0664
  972SOD     NA14455   3.763   0.031  13.945  0.0806  0.1133 -0.1784
  973SOD     NA14456   0.940   1.022   1.532  0.2144  0.7884  0.5040
  974SOD     NA14457   0.559   1.445   9.873 -0.6323  0.2669  0.1357
  975SOD     NA14458   0.626   4.448   9.418 -0.2659 -0.0620  0.1594
  976SOD     NA14459   3.606   3.603  16.892  0.0579 -0.2770  0.0980
  977SOD     NA14460   3.172   2.056  13.230 -0.3694 -0.4320  0.0871
  978SOD     NA14461   0.452   0.528  11.729  0.0167  0.4955 -0.2929
  979SOD     NA14462   3.692   0.345   3.393 -0.6117 -0.3412 -0.1502
  980SOD     NA14463   3.164   1.356  11.196  0.2276  0.6913 -0.2215
  981SOD     NA14464   0.687   1.372   0.982 -0.1489 -0.8464 -0.3325
  982SOD     NA14465   0.353   3.095   2.971  0.0792 -0.2698  0.2319
  983SOD     NA14466   1.608   1.602  10.093 -0.5232 -0.4335  0.2711
  984SOD     NA14467   1.735   1.961   9.978  0.6789 -0.0857 -0.5130
  985SOD     NA14468   1.414   3.244  17.680  0.3490  0.3288 -0.1544
  986SOD     NA14469   1.778   2.792  10.868  0.0753  0.3542 -0.3816
  987SOD     NA14470   2.888   1.554   9.529  0.0510  0.2839  0.2816
  988SOD     NA14471   1.797   1.811   1.393 -0.1630 -0.0874  0.6203
  989SOD     NA14472   4.485   2.752   3.547  0.4740 -0.2210  0.0931
  990SOD     NA14473   3.187   2.485  11.370 -0.1722 -0.2579 -0.2705
  991SOD     NA14474   2.544   4.459  10.298 -0.3184  0.0664 -0.2788
  992SOD     NA14475   1.142   0.926  14.864 -0.7202 -0.1734 -0.1312
  993SOD     NA14476   2.775   2.745  16.991  0.5436 -0.1555  0.5832
  994SOD     NA14477   1.458   2.377  14.626  0.3382 -0.2667 -0.0416
  995SOD     NA14478   0.130   3.861   2.275  0.4504 -0.1661 -0.2514
  996SOD     NA14479   1.898   2.324  12.489  0.4471 -0.0128  0.3037
  997SOD     NA14480   2.020   2.140   9.179  0.0634  0.2386  0.2879
  998SOD     NA14481   3.366   3.511  12.648 -0.5506 -0.3775 -0.2192
  999SOD     NA14482   2.613   0.260  11.166  0.5428  0.1131 -0.1825
 1000SOD     NA14483   4.583   1.527   0.205  0.5723  0.1187  0.6066
 1001SOD     NA14484   1.483   1.400  11.733 -0.3651 -0.1239 -0.0874
 1002SOD     NA14485   2.177   3.235  14.065 -0.1247  0.6071  0.2189
 1003SOD     NA14486   0.704   4.220  15.712  0.2383 -0.0261 -0.4097
 1004SOD     NA14487   3.507   1.525  14.037  0.0077 -0.1095  0.4304
 1005SOD     NA14488   3.278   2.805  14.991 -0.3524 -0.0852 -0.2769
 1006SOD     NA14489   2.426   2.505  12.395 -0.1879  0.7186 -0.2945
 1007SOD     NA14490   2.650   0.907   6.172 -0.1840  0.2095 -0.1569
 1008SOD     NA14491   0.138   0.257   7.066 -0.1790  0.0276  0.0333
 1009SOD     NA14492   3.840   3.326  10.868  0.1885 -0.3755 -0.4099
 1010SOD     NA14493   0.289   4.593   1.876  0.0683 -0.1600 -0.3290
 1011SOL     OW14494   3.568   1.559  12.978 -0.7624 -0.1303 -0.5493
 1011SOL    HW114495   3.522   1.484  13.017 -0.3242 -0.0885  0.0513
 1011SOL    HW214496   3.494   1.616  12.958  0.2384  1.1762 -0.4853
 1012SOL     OW14497   0.369   0.687   1.914  0.0624  0.8034  0.3511
 1012SOL    HW114498   0.416   0.638   1.982  0.5903  0.1705 -0.4721
 1012SOL    HW214499   0.280   0.666   1.942  0.7937 -2.1089  0.5779
 1013SOL     OW14500   3.815   4.432  15.174  0.0852  0.1513  0.2027
 1013SOL    HW114501   3.792   4.465  15.261 -0.2744 -0.7730  0.4585
 1013SOL    HW214502   3.898   4.479  15.168 -0.1945  0.4508 -1.2300
 1014SOL     OW14503   0.826   3.847   4.805 -0.6150  0.0529 -0.3552
 1014SOL    HW114504   0.871   3.840   4.889 -0.3247 -1.9271 -0.6883
 1014SOL    HW214505   0.804   3.755   4.793  1.1238 -0.2680 -1.0804
 1015SOL     OW14506   1.925   4.165  12.113 -0.0266  0.2267 -0.3224
 1015SOL    HW114507   1.886   4.224  12.177 -0.9027 -0.3804 -0.2989
 1015SOL    HW214508   1.859   4.168  12.045 -0.1270 -0.5089 -0.2670
 1016SOL     OW14509   0.715   4.560   4.050 -0.0120 -0.5583 -0.3542
 1016SOL    HW114510   0.791   4.548   4.107 -0.1310  3.7533  0.7034
 1016SOL    HW214511   0.731   4.651   4.023 -1.7921  0.5444  2.3085
 1017SOL     OW14512   1.319   2.191   7.981 -0.0416  0.0051  0.1967
 1017SOL    HW114513   1.341   2.275   7.942  2.7379 -1.1802 -0.8014
 1017SOL    HW214514   1.224   2.199   7.985 -0.0316 -1.0979  2.7673
 1018SOL     OW14515   3.735   1.927   8.860  0.1926 -0.1178  0.4135
 1018SOL    HW114516   3.667   1.905   8.798  0.8387 -0.1796 -0.2720
 1018SOL    HW214517   3.697   1.893   8.941 -0.2307 -2.1438 -0.6361
 1019SOL     OW14518   2.645   3.801   4.146  0.5461 -0.0147  0.1471
 1019SOL    HW114519   2.690   3.720   4.170  0.0900  0.3431  2.1726
 1019SOL    HW214520   2.713   3.867   4.159  0.3195  0.0428  0.9940
 1020SOL     OW14521   2.661   0.290   6.875  0.0275  0.0458  0.1310
 1020SOL    HW114522   2.691   0.329   6.794  1.6651 -1.2638  0.1170
 1020SOL    HW214523   2.592   0.231   6.844  0.7522 -1.2528  0.9747
 1021SOL     OW14524   4.721   1.355   2.490 -0.1895 -0.2381  0.5219
 1021SOL    HW114525   0.078   1.354   2.438 -1.4401  1.1360 -1.4161
 1021SOL    HW214526   0.022   1.421   2.555  0.0625  0.9000 -0.7244
 1022SOL     OW14527   0.198   1.780   8.572 -0.4846 -0.5229  0.6649
 1022SOL    HW114528   0.234   1.691   8.578 -1.6607 -1.0482 -0.1643
 1022SOL    HW214529   0.259   1.829   8.627 -1.7339 -1.2722  2.7356
 1023SOL     OW14530   0.106   1.590   5.471  0.4838  0.1287  0.1582
 1023SOL    HW114531   0.145   1.567   5.386 -2.2004 -0.8698 -0.8181
 1023SOL    HW214532   0.059   1.511   5.496  2.5111 -1.1153 -0.0111
 1024SOL     OW14533   4.430   4.080   0.337  0.0566 -0.2522  0.3806
 1024SOL    HW114534   4.464   4.166   0.316  1.3406 -0.3181  2.2167
 1024SOL    HW214535   4.336   4.099   0.332 -0.2994 -1.9251  0.4417
 1025SOL     OW14536   0.245   2.678   2.360  0.4059  0.2778  0.0813
 1025SOL    HW114537   0.184   2.751   2.355  0.0616  0.1786  2.3918
 1025SOL    HW214538   0.251   2.648   2.270 -2.1623  0.2000 -0.0734
 1026SOL     OW14539   1.981   3.268   7.647 -0.0135 -0.4878  0.0664
 1026SOL    HW114540   2.011   3.223   7.725  0.6479 -0.6636 -0.2920
 1026SOL    HW214541   2.059   3.322   7.634  0.4791 -1.6347 -1.7992
 1027SOL     OW14542   0.471   3.091   3.525  0.3581  0.3273 -0.3216
 1027SOL    HW114543   0.417   3.163   3.558  0.8760  0.7204 -0.3269
 1027SOL    HW214544   0.393   3.035   3.526  0.4417  0.2478  1.4712
 1028SOL     OW14545   1.729   4.159   6.409 -0.4234  0.4148 -0.0891
 1028SOL    HW114546   1.734   4.222   6.338 -0.4000  0.0423 -0.4203
 1028SOL    HW214547   1.681   4.206   6.477 -1.6445 -0.2838 -0.4556
 1029SOL     OW14548   0.154   4.656   3.365 -0.1220 -0.0160 -0.3566
 1029SOL    HW114549   0.197   4.716   3.304  1.2913 -0.9552 -0.2784
 1029SOL    HW214550   0.126   4.584   3.308 -1.0628 -0.4149  0.6054
 1030SOL     OW14551   3.572   2.603   6.036 -0.7823 -0.1198 -0.5464
 1030SOL    HW114552   3.549   2.598   5.943  3.9599 -0.8949 -1.6385
 1030SOL    HW214553   3.526   2.683   6.060 -1.6839  0.0271 -2.6926
 1031SOL     OW14554   2.623   4.683   6.235  0.2287  0.4577  0.9218
 1031SOL    HW114555   2.645   0.042   6.278  2.6120 -0.6299  1.7801
 1031SOL    HW214556   2.570   0.001   6.167  4.0058  0.4264 -2.0369
 1032SOL     OW14557   0.441   2.229   3.342  0.5809  0.3593 -0.0532
 1032SOL    HW114558   0.478   2.196   3.260 -0.2210  0.0131 -0.2770
 1032SOL    HW214559   0.512   2.244   3.403 -0.1644 -2.1713  1.4107
 1033SOL     OW14560   4.189   2.443  11.982 -0.4831 -0.2156 -0.0571
 1033SOL    HW114561   4.179   2.450  12.076 -0.3658 -0.9140  0.0094
 1033SOL    HW214562   4.204   2.348  11.978  1.1456  0.1021 -1.2381
 1034SOL     OW14563   2.496   3.837  14.353  0.0177 -0.1893  0.6211
 1034SOL    HW114564   2.587   3.858  14.374 -0.4137 -1.5496  3.8613
 1034SOL    HW214565   2.460   3.910  14.302  2.5215  0.3547 -0.3818
 1035SOL     OW14566   3.878   2.054   5.833 -0.1760  0.1472 -0.1409
 1035SOL    HW114567   3.921   1.998   5.768  1.1297  2.3199 -1.1297
 1035SOL    HW214568   3.830   2.117   5.779  3.5081  1.9525 -1.2646
 1036SOL     OW14569   0.858   4.357   8.185  0.5290  0.0488 -0.3812
 1036SOL    HW114570   0.763   4.361   8.199  0.8050  2.9087  0.7140
 1036SOL    HW214571   0.884   4.411   8.259 -2.0446 -0.8169  1.1712
 1037SOL     OW14572   0.408   4.395   6.433  0.1731 -0.4857 -0.8593
 1037SOL    HW114573   0.395   4.440   6.350 -0.2222  0.8052 -0.0913
 1037SOL    HW214574   0.374   4.306   6.418  1.1605 -1.1375  0.7919
 1038SOL     OW14575   1.593   1.391   8.918  0.3164  0.0161 -0.7727
 1038SOL    HW114576   1.586   1.453   8.990 -0.0040 -1.6637  0.6536
 1038SOL    HW214577   1.507   1.349   8.920  0.7479 -0.9583 -3.2184
 1039SOL     OW14578   0.072   4.214   9.224  0.1886 -0.6336 -0.0520
 1039SOL    HW114579   0.105   4.227   9.313 -0.3834 -0.2570  0.1059
 1039SOL    HW214580   0.042   4.304   9.204  0.6816 -0.6743 -0.9843
 1040SOL     OW14581   0.627   0.561  11.227  0.1637 -0.2615 -0.2993
 1040SOL    HW114582   0.718   0.591  11.223 -0.1602  0.7208 -0.2553
 1040SOL    HW214583   0.587   0.643  11.198  3.5716  1.0684 -1.2970
 1041SOL     OW14584   2.974   4.099  13.815  0.0555  0.5799 -0.2882
 1041SOL    HW114585   2.989   4.038  13.743 -0.3719  1.2512 -0.9406
 1041SOL    HW214586   2.928   4.168  13.767  0.2233  1.9603  1.5397
 1042SOL     OW14587   3.975   2.966   3.860  0.2316 -0.0332 -0.9053
 1042SOL    HW114588   3.917   3.017   3.916  0.8984  0.4879 -0.6911
 1042SOL    HW214589   3.916   2.891   3.849 -1.4774  1.2783 -0.6759
 1043SOL     OW14590   3.282   3.278   1.781 -0.4822  0.1108  0.2304
 1043SOL    HW114591   3.240   3.195   1.804 -2.6415  1.3521  0.7772
 1043SOL    HW214592   3.241   3.303   1.699  1.3559 -2.0725 -1.3709
 1044SOL     OW14593   1.384   3.864   2.359  0.5269  0.6990 -0.4953
 1044SOL    HW114594   1.410   3.946   2.402 -0.9576  0.4509  0.8681
 1044SOL    HW214595   1.354   3.821   2.439  1.8763 -2.0120 -1.4692
 1045SOL     OW14596   0.181   1.946   4.294  0.0537 -0.2206  0.0433
 1045SOL    HW114597   0.171   2.041   4.287  0.6513 -0.2704 -1.5157
 1045SOL    HW214598   0.225   1.935   4.378  0.8739 -0.6794 -0.4436
 1046SOL     OW14599   0.732   2.983   7.692 -0.2612 -0.1467  0.5976
 1046SOL    HW114600   0.798   2.949   7.752  0.2980  1.9677  1.1924
 1046SOL    HW214601   0.793   3.044   7.651 -1.4136  0.0363 -0.8353
 1047SOL     OW14602   3.644   3.276   5.570  0.2908 -0.0017  0.0718
 1047SOL    HW114603   3.628   3.285   5.664 -0.3208 -1.9910  0.1709
 1047SOL    HW214604   3.569   3.325   5.537 -0.5494 -1.1980  0.2036
 1048SOL     OW14605   3.215   1.969   6.075  0.0501  0.4543 -0.0265
 1048SOL    HW114606   3.256   2.047   6.112  3.8702 -1.4964 -0.2173
 1048SOL    HW214607   3.204   1.911   6.150  1.1297  0.0635 -0.1733
 1049SOL     OW14608   4.463   2.694   8.358  0.3019  0.2439 -0.2497
 1049SOL    HW114609   4.497   2.605   8.352  0.4991  0.3171 -0.2192
 1049SOL    HW214610   4.500   2.727   8.440 -2.1594  0.0218  0.9410
 1050SOL     OW14611   3.048   0.992  13.657 -0.0718 -0.0153 -0.2144
 1050SOL    HW114612   3.142   0.985  13.670 -0.1539  0.7709  0.7628
 1050SOL    HW214613   3.030   0.926  13.724  2.7160  0.0498  0.6080
 1051SOL     OW14614   3.188   3.028  10.366  0.2118 -0.2827  1.2551
 1051SOL    HW114615   3.158   3.055  10.279  1.7317  1.8485  1.4011
 1051SOL    HW214616   3.210   3.113  10.403 -0.1165  0.5237 -0.3761
 1052SOL     OW14617   3.936   2.302   5.390 -0.4293 -0.2413  0.5091
 1052SOL    HW114618   3.892   2.266   5.467  1.1138 -0.7109  1.1730
 1052SOL    HW214619   3.906   2.392   5.380 -1.0672 -0.4989  0.0750
 1053SOL     OW14620   0.098   3.091   5.202 -0.1045 -0.0150 -0.2185
 1053SOL    HW114621   0.084   3.079   5.108  0.8613 -0.2906 -0.3229
 1053SOL    HW214622   0.003   3.088   5.216 -0.1285  3.4717  0.3493
 1054SOL     OW14623   2.845   2.880   4.824  0.0411 -0.3061 -0.7253
 1054SOL    HW114624   2.775   2.933   4.864  1.1996  1.7750 -1.4201
 1054SOL    HW214625   2.835   2.892   4.730  0.5705 -0.5567 -0.8102
 1055SOL     OW14626   2.199   2.468  11.236 -0.1913 -0.3644 -0.4749
 1055SOL    HW114627   2.281   2.510  11.208 -1.1656  1.1062 -1.1517
 1055SOL    HW214628   2.189   2.505  11.324  0.6039  0.3928 -0.6988
 1056SOL     OW14629   2.844   1.141  10.880 -0.1347 -0.0458  0.6630
 1056SOL    HW114630   2.809   1.137  10.969 -1.0999 -1.8858  0.2118
 1056SOL    HW214631   2.765   1.106  10.838 -0.3499 -0.0656  1.0925
 1057SOL     OW14632   4.410   4.713   5.544  0.6731 -0.1198 -0.4107
 1057SOL    HW114633   4.470   4.639   5.555 -1.5585 -1.9480 -0.4980
 1057SOL    HW214634   4.381   0.007   5.634  0.1681 -2.5401 -0.1029
 1058SOL     OW14635   1.777   2.501   1.762  0.4008  0.0548  0.4015
 1058SOL    HW114636   1.797   2.545   1.680  0.8288 -1.7641 -0.4818
 1058SOL    HW214637   1.799   2.562   1.833 -1.7805  0.9470  0.3123
 1059SOL     OW14638   2.420   3.550   8.339  0.2123  0.4170 -0.1477
 1059SOL    HW114639   2.460   3.468   8.368 -0.4660 -0.0030 -0.4155
 1059SOL    HW214640   2.484   3.620   8.325 -1.3688  2.1024  1.1120
 1060SOL     OW14641   2.832   2.180   2.252 -0.3953  0.1565  0.3781
 1060SOL    HW114642   2.891   2.120   2.296 -0.9068 -3.0031 -3.2120
 1060SOL    HW214643   2.877   2.264   2.267  1.5933 -1.0562  1.2483
 1061SOL     OW14644   0.648   4.445  10.524  0.4479 -0.1148  0.1288
 1061SOL    HW114645   0.599   4.387  10.582 -0.5074 -1.1289 -1.7047
 1061SOL    HW214646   0.638   4.393  10.444  1.1888 -0.0320 -0.0134
 1062SOL     OW14647   1.112   2.686   1.317 -0.0744  0.5052 -0.1616
 1062SOL    HW114648   1.031   2.668   1.269  1.0436 -0.1826 -1.7662
 1062SOL    HW214649   1.096   2.621   1.385  0.7612  0.7385  0.2636
 1063SOL     OW14650   2.408   2.833   6.330  0.2698  0.0576 -0.1562
 1063SOL    HW114651   2.483   2.792   6.286  0.2052  1.8000 -1.9269
 1063SOL    HW214652   2.444   2.856   6.415 -1.1787  1.0426  0.1748
 1064SOL     OW14653   4.044   3.382   5.840  0.2501  0.2861 -0.6501
 1064SOL    HW114654   3.983   3.451   5.815 -0.3285 -0.3587 -0.9973
 1064SOL    HW214655   4.032   3.384   5.934 -2.2284  3.0172 -1.0484
 1065SOL     OW14656   2.250   3.953   8.213 -0.3544  0.1823 -0.1931
 1065SOL    HW114657   2.213   3.896   8.146 -2.1956  0.9146  0.2055
 1065SOL    HW214658   2.335   3.909   8.216 -0.5950 -0.2402  0.3401
 1066SOL     OW14659   4.467   1.978   5.112  0.6513 -0.1819 -0.5033
 1066SOL    HW114660   4.549   1.959   5.157  0.8335  0.1888 -0.6749
 1066SOL    HW214661   4.441   2.058   5.158 -1.5083  0.1206 -2.2220
 1067SOL     OW14662   3.372   2.934   7.740  0.1499 -0.2777  0.1401
 1067SOL    HW114663   3.403   2.936   7.830  1.3187  0.7157 -0.2847
 1067SOL    HW214664   3.282   2.958   7.764  0.4049 -0.2874  1.1004
 1068SOL     OW14665   1.213   3.962   3.528  0.7082 -0.2685  0.3206
 1068SOL    HW114666   1.192   4.038   3.583  1.8809 -0.1779  0.6458
 1068SOL    HW214667   1.144   3.968   3.462 -0.0362 -2.1474  0.9142
 1069SOL     OW14668   1.674   3.340   5.377 -0.0511  0.2373  0.3888
 1069SOL    HW114669   1.693   3.249   5.401 -0.4716 -0.0433 -0.3526
 1069SOL    HW214670   1.682   3.327   5.283  0.4590  1.4445  0.2649
 1070SOL     OW14671   0.482   1.591  11.194 -0.3008  0.1386  0.5206
 1070SOL    HW114672   0.412   1.543  11.150  1.0557  0.9381 -2.4845
 1070SOL    HW214673   0.551   1.526  11.211 -0.0476  0.4781  0.8039
 1071SOL     OW14674   2.267   4.465  15.723  0.2348  0.1670 -0.3342
 1071SOL    HW114675   2.214   4.423  15.792  1.5659  1.1382  1.2845
 1071SOL    HW214676   2.261   4.554  15.758 -2.2395  0.3247 -1.1822
 1072SOL     OW14677   0.314   2.969  11.998  0.2440  0.6033 -0.1648
 1072SOL    HW114678   0.229   2.948  11.961  0.6039 -0.8985 -0.1252
 1072SOL    HW214679   0.289   3.045  12.051  1.2967 -0.4746  1.8739
 1073SOL     OW14680   1.117   0.166  12.302  0.0699  0.0580  0.2278
 1073SOL    HW114681   1.211   0.184  12.298 -0.4464  2.4002 -1.4613
 1073SOL    HW214682   1.111   0.072  12.286 -1.3783  0.3143 -0.7228
 1074SOL     OW14683   3.204   0.685   5.537  0.0392 -0.5319 -0.1457
 1074SOL    HW114684   3.261   0.686   5.615 -0.1708  3.1144 -0.0127
 1074SOL    HW214685   3.199   0.593   5.511 -0.4902 -0.2696 -0.9639
 1075SOL     OW14686   3.338   2.293   4.470  0.2351  0.0329 -0.3400
 1075SOL    HW114687   3.349   2.273   4.376 -1.6650  1.3734 -0.8418
 1075SOL    HW214688   3.369   2.383   4.466  2.4196 -0.6789  0.4405
 1076SOL     OW14689   4.361   0.624  15.775  0.6597  0.0776  0.3093
 1076SOL    HW114690   4.381   0.715  15.750  0.5448  0.1817  0.5940
 1076SOL    HW214691   4.448   0.592  15.801  0.7855  0.2185  0.0676
 1077SOL     OW14692   2.301   2.177   1.503  0.3942 -0.0514 -0.3228
 1077SOL    HW114693   2.383   2.133   1.482  0.9848  1.3079 -0.8719
 1077SOL    HW214694   2.302   2.192   1.598  1.6657  0.1110 -0.3698
 1078SOL     OW14695   0.689   3.794   8.994  0.4566 -0.4776  0.1368
 1078SOL    HW114696   0.677   3.817   8.903 -2.2301 -3.3801 -0.2418
 1078SOL    HW214697   0.708   3.881   9.030 -1.2880  0.7948 -2.0997
 1079SOL     OW14698   1.031   2.646   7.632 -1.0649  0.2517 -0.2988
 1079SOL    HW114699   1.038   2.723   7.688 -1.2728 -0.7377  1.0861
 1079SOL    HW214700   1.119   2.610   7.623 -0.9144  1.0285 -1.9690
 1080SOL     OW14701   3.171   1.518   7.055 -0.4018  0.0655 -0.2678
 1080SOL    HW114702   3.190   1.500   7.147 -2.3231 -0.1314  0.0969
 1080SOL    HW214703   3.090   1.566   7.073  0.7516  1.9941 -0.2350
 1081SOL     OW14704   0.957   4.061  16.733  0.2867  0.1511 -0.6547
 1081SOL    HW114705   0.967   3.969  16.757 -2.2790 -0.0009 -0.2174
 1081SOL    HW214706   0.937   4.046  16.641  0.6058  0.8454 -0.8353
 1082SOL     OW14707   0.413   4.022   3.659  0.6080  0.0994  0.1145
 1082SOL    HW114708   0.491   4.068   3.690  0.5260 -0.1543  0.7059
 1082SOL    HW214709   0.351   4.029   3.732  1.6084  0.5564  0.9269
 1083SOL     OW14710   4.282   3.464   8.458 -0.4704 -0.9893  0.0494
 1083SOL    HW114711   4.323   3.536   8.410 -1.2100 -1.6685 -1.6095
 1083SOL    HW214712   4.311   3.382   8.418  0.5245 -0.0711 -1.1085
 1084SOL     OW14713   0.612   2.133  16.807 -0.4811 -0.0893  0.0521
 1084SOL    HW114714   0.595   2.205  16.745 -0.0993 -0.7552 -0.8317
 1084SOL    HW214715   0.581   2.172  16.888 -1.5829  0.2081 -0.5034
 1085SOL     OW14716   1.529   3.582   8.055  0.2971  0.0239  0.3047
 1085SOL    HW114717   1.461   3.649   8.055  0.9992  0.7278  1.1393
 1085SOL    HW214718   1.578   3.602   7.975  0.8499 -0.4534  0.5262
 1086SOL     OW14719   0.709   4.475  17.107  0.2776 -0.1514 -0.1764
 1086SOL    HW114720   0.767   4.502  17.178 -1.5614  0.5642  1.0459
 1086SOL    HW214721   0.632   4.449  17.157  0.6497  0.4005  0.6685
 1087SOL     OW14722   4.013   2.270   2.102  0.5710 -0.0859 -0.4687
 1087SOL    HW114723   4.049   2.357   2.084  0.7357 -0.5338 -2.3011
 1087SOL    HW214724   3.989   2.249   2.012 -2.0468  3.1880 -0.5612
 1088SOL     OW14725   4.347   1.256   2.804 -0.3411 -0.0051 -0.5992
 1088SOL    HW114726   4.428   1.307   2.797  0.5016 -1.2653  0.0602
 1088SOL    HW214727   4.293   1.318   2.854 -1.1253 -1.3322  0.1836
 1089SOL     OW14728   1.323   3.900   9.858  0.0889 -0.0403 -0.3482
 1089SOL    HW114729   1.357   3.907   9.768  0.1661 -1.2687 -0.4164
 1089SOL    HW214730   1.392   3.939   9.913  0.0143  0.9032 -0.9250
 1090SOL     OW14731   3.228   4.294   7.921  0.3907  0.9053  0.5048
 1090SOL    HW114732   3.239   4.316   8.013  0.7204 -0.2579  0.7465
 1090SOL    HW214733   3.230   4.198   7.918 -0.7184  0.9166 -1.1585
 1091SOL     OW14734   1.964   3.201   3.763 -0.1444 -0.4781  0.1963
 1091SOL    HW114735   1.943   3.109   3.750 -3.9375  0.5061 -0.6870
 1091SOL    HW214736   2.035   3.204   3.698  1.0806  2.1121  1.6326
 1092SOL     OW14737   4.499   4.650  14.719 -0.1132 -0.0361 -0.3647
 1092SOL    HW114738   4.421   4.700  14.741 -1.2884 -2.0794  0.0892
 1092SOL    HW214739   4.510   4.659  14.624 -1.2192  2.3670 -0.2654
 1093SOL     OW14740   1.833   1.300   6.594 -0.2237  0.5586 -0.4445
 1093SOL    HW114741   1.868   1.315   6.506 -1.0753  0.0973 -0.8593
 1093SOL    HW214742   1.745   1.337   6.591  0.3140  1.9789  1.1206
 1094SOL     OW14743   1.877   0.293   2.650  0.5280 -0.2001  0.1364
 1094SOL    HW114744   1.837   0.379   2.666  0.9654 -0.5481  3.2504
 1094SOL    HW214745   1.958   0.312   2.604  1.1260 -0.5482  1.0367
 1095SOL     OW14746   3.740   2.865   7.770  0.3901 -0.0216  0.1511
 1095SOL    HW114747   3.773   2.806   7.837 -0.6001  0.0726  0.7225
 1095SOL    HW214748   3.673   2.906   7.825  0.6001 -0.5028  0.7646
 1096SOL     OW14749   3.123   3.223  13.773 -0.4338  0.4649 -0.8453
 1096SOL    HW114750   3.078   3.247  13.692  0.5103  1.7938 -0.9771
 1096SOL    HW214751   3.186   3.159  13.739  2.5027  1.9437  1.8645
 1097SOL     OW14752   2.479   2.866   7.830  0.0466  0.1748 -0.2959
 1097SOL    HW114753   2.536   2.789   7.835 -1.8924 -1.2128  0.1879
 1097SOL    HW214754   2.430   2.872   7.912 -0.2947 -2.2668 -0.3411
 1098SOL     OW14755   2.936   4.063   3.966 -0.3853  0.9293 -0.3179
 1098SOL    HW114756   2.982   4.134   3.921 -1.2748  1.0314 -1.0640
 1098SOL    HW214757   2.915   3.999   3.898 -0.3174 -0.1788  0.7011
 1099SOL     OW14758   1.327   4.674   3.037  0.0016 -0.5276 -0.9164
 1099SOL    HW114759   1.388   4.648   2.968  1.2218 -0.2923  0.0858
 1099SOL    HW214760   1.359   4.626   3.113 -1.1857  0.8170  0.4271
 1100SOL     OW14761   2.895   4.165   7.049 -0.2967 -0.2150 -1.0802
 1100SOL    HW114762   2.991   4.162   7.055 -0.4525 -2.7124  0.4287
 1100SOL    HW214763   2.881   4.147   6.956  1.1964  0.8749 -1.5157
 1101SOL     OW14764   2.231   1.724   0.673 -0.6662 -0.2506  0.0995
 1101SOL    HW114765   2.182   1.804   0.657 -3.7707 -1.8004  1.6894
 1101SOL    HW214766   2.288   1.733   0.597 -0.9533  1.3405  0.0888
 1102SOL     OW14767   1.474   3.552   5.414  0.2787 -0.0468  0.3604
 1102SOL    HW114768   1.524   3.471   5.405 -0.8710 -0.6967 -0.1818
 1102SOL    HW214769   1.544   3.617   5.418  0.4327 -0.2689  1.1841
 1103SOL     OW14770   0.560   4.160   5.944  0.2377  0.2245  0.1516
 1103SOL    HW114771   0.649   4.188   5.928 -0.4716  0.3521 -3.5720
 1103SOL    HW214772   0.588   4.087   5.999 -1.8603  0.0865  1.0707
 1104SOL     OW14773   4.663   2.648  16.065  0.0313 -0.0332 -0.5659
 1104SOL    HW114774   4.626   2.735  16.046 -0.8952 -0.7008 -1.8245
 1104SOL    HW214775   4.663   2.650  16.161  1.9128 -1.8906 -0.5443
 1105SOL     OW14776   3.059   1.513  11.068  0.5406 -0.4077  0.2793
 1105SOL    HW114777   3.113   1.575  11.019  0.7025  0.0129  0.9866
 1105SOL    HW214778   2.979   1.564  11.078  0.5154 -0.2987 -0.5044
 1106SOL     OW14779   3.806   0.592   0.011 -0.4413 -0.3604  0.2993
 1106SOL    HW114780   3.822   0.649  17.631  1.2666 -1.3498 -0.0805
 1106SOL    HW214781   3.894   0.568   0.040 -0.0287  0.3101 -0.3868
 1107SOL     OW14782   1.862   2.602   8.935 -0.1321  0.7207 -0.0859
 1107SOL    HW114783   1.825   2.622   8.849 -0.4493  0.3247 -0.0417
 1107SOL    HW214784   1.925   2.670   8.958 -0.2789 -0.8867  4.9800
 1108SOL     OW14785   0.792   3.926   2.836 -0.1054  0.0728  0.2886
 1108SOL    HW114786   0.715   3.974   2.804 -2.1016 -2.3039  1.5822
 1108SOL    HW214787   0.852   4.001   2.841 -3.0533  2.4463  0.5534
 1109SOL     OW14788   0.003   3.286  12.150  0.2356 -0.4071 -0.9564
 1109SOL    HW114789   0.097   3.279  12.136  0.8150  0.3964  2.5803
 1109SOL    HW214790   4.713   3.234  12.229 -1.4451 -0.3898 -1.2246
 1110SOL     OW14791   3.030   0.704   6.048  0.8798 -0.2490  0.3849
 1110SOL    HW114792   2.961   0.646   6.081  0.4574  0.6587  1.1144
 1110SOL    HW214793   2.997   0.793   6.060  0.9308 -0.1969  0.1321
 1111SOL     OW14794   1.998   2.987   7.592 -0.0653 -0.1145  0.2336
 1111SOL    HW114795   2.081   2.988   7.639 -0.7392 -0.0930  1.4249
 1111SOL    HW214796   1.969   3.077   7.610  1.8262  0.3842  0.8103
 1112SOL     OW14797   0.072   3.821   8.429 -0.1237 -0.3285  0.0239
 1112SOL    HW114798   0.094   3.731   8.450 -1.1297 -0.7956 -0.9038
 1112SOL    HW214799   0.132   3.834   8.356 -0.4730 -0.8431 -0.3568
 1113SOL     OW14800   3.789   2.411   5.029 -0.3333 -0.3691 -0.2297
 1113SOL    HW114801   3.727   2.399   4.957 -0.7090  1.5825 -0.2198
 1113SOL    HW214802   3.814   2.503   5.029 -0.1195 -0.4312 -1.3266
 1114SOL     OW14803   1.096   1.815   8.055 -0.4394  0.4069 -0.7522
 1114SOL    HW114804   1.177   1.847   8.016  0.7230 -2.9308 -1.1449
 1114SOL    HW214805   1.084   1.873   8.130 -0.4816 -2.3226  1.3415
 1115SOL     OW14806   1.679   2.380   7.544  0.5353 -0.0652  0.4232
 1115SOL    HW114807   1.732   2.459   7.557  2.6790 -1.0043 -2.5540
 1115SOL    HW214808   1.617   2.404   7.476 -2.5265 -2.7697  2.3101
 1116SOL     OW14809   0.060   3.130   6.052  0.4077  0.3147 -0.1204
 1116SOL    HW114810   0.060   3.073   5.975 -2.4371  1.7010 -1.1588
 1116SOL    HW214811   0.143   3.112   6.095 -0.0586  0.3562  0.8162
 1117SOL     OW14812   1.140   3.858   4.849 -0.5040  0.5280  0.1856
 1117SOL    HW114813   1.209   3.878   4.912 -0.6512  1.1321  0.1560
 1117SOL    HW214814   1.071   3.840   4.912  0.8806 -0.6885  1.3650
 1118SOL     OW14815   4.493   1.408   0.382 -0.4260 -0.2735  0.6549
 1118SOL    HW114816   4.412   1.358   0.393  0.7288 -2.0865  1.0006
 1118SOL    HW214817   4.532   1.385   0.467  2.2005 -0.5471 -0.6229
 1119SOL     OW14818   1.945   3.842   0.686  0.8817  0.1059 -0.6445
 1119SOL    HW114819   1.931   3.936   0.698  0.9452  0.1272 -0.7385
 1119SOL    HW214820   1.888   3.815   0.758 -0.6121 -1.2425 -2.3521
 1120SOL     OW14821   0.645   3.301   4.037 -0.8541 -0.0257  0.2326
 1120SOL    HW114822   0.658   3.317   4.130  1.3479  0.6597 -0.1942
 1120SOL    HW214823   0.666   3.207   4.039 -2.3144 -0.3448  0.5209
 1121SOL     OW14824   4.069   0.497  14.985  0.2253  0.6173  0.6160
 1121SOL    HW114825   4.080   0.581  14.942  0.2003  0.8179  1.0015
 1121SOL    HW214826   4.085   0.508  15.079 -1.0847 -2.1603  1.1771
 1122SOL     OW14827   2.305   0.288   2.276  0.0686 -0.5803 -0.1397
 1122SOL    HW114828   2.281   0.204   2.236 -0.1931 -0.0793 -1.0317
 1122SOL    HW214829   2.394   0.309   2.249 -0.6422  1.5504 -0.8545
 1123SOL     OW14830   0.153   1.690   1.337 -0.5800  0.6140  0.1285
 1123SOL    HW114831   0.173   1.599   1.316 -2.4276  0.6965 -2.0619
 1123SOL    HW214832   0.193   1.728   1.258 -3.4066 -0.9325 -2.0531
 1124SOL     OW14833   3.299   3.795   6.333 -0.0273 -0.4299 -0.0094
 1124SOL    HW114834   3.218   3.760   6.370 -0.2183 -0.6549 -0.6377
 1124SOL    HW214835   3.265   3.820   6.247  0.9565 -0.7813 -0.4916
 1125SOL     OW14836   2.224   2.763  10.012  0.0944  0.3392  0.0480
 1125SOL    HW114837   2.182   2.819   9.946  1.6999  1.7413  0.2156
 1125SOL    HW214838   2.306   2.747   9.965 -0.4587  1.2893 -1.2475
 1126SOL     OW14839   4.308   1.557   8.517  0.3076  0.8287 -0.1759
 1126SOL    HW114840   4.386   1.522   8.474  0.4931  1.9634 -0.7572
 1126SOL    HW214841   4.349   1.638   8.545 -1.0593  1.2038  0.7333
 1127SOL     OW14842   1.835   3.270  10.845  0.5851 -0.2790  0.2384
 1127SOL    HW114843   1.762   3.232  10.798  2.5512 -2.9541 -0.6437
 1127SOL    HW214844   1.892   3.299  10.774  2.2549 -0.5280  1.4598
 1128SOL     OW14845   4.352   4.563   0.440  0.0896 -0.9390  0.5802
 1128SOL    HW114846   4.442   4.540   0.462  1.0010  1.9364 -0.1699
 1128SOL    HW214847   4.362   4.562   0.345 -0.0074  2.3346  0.5243
 1129SOL     OW14848   0.620   3.737   2.038 -0.2629  0.0495 -0.2313
 1129SOL    HW114849   0.544   3.682   2.019 -0.8144  1.0072 -0.8266
 1129SOL    HW214850   0.665   3.718   1.956 -0.7817 -1.5879 -0.1300
 1130SOL     OW14851   0.043   0.647  14.275 -0.6773 -0.1990  0.6670
 1130SOL    HW114852   0.021   0.554  14.284  0.7196 -0.3863  2.3900
 1130SOL    HW214853   0.102   0.649  14.351  1.4328 -1.0244 -0.9549
 1131SOL     OW14854   0.361   4.033  13.005  0.3320  0.1189  0.5368
 1131SOL    HW114855   0.422   3.965  13.035 -0.5146 -0.9313 -0.1315
 1131SOL    HW214856   0.275   3.993  12.992 -1.0692  3.3527 -0.2822
 1132SOL     OW14857   4.415   0.019   2.584  0.2663  0.0359  0.2197
 1132SOL    HW114858   4.424   4.654   2.619  0.1808 -0.8853 -2.0936
 1132SOL    HW214859   4.502   0.035   2.547 -0.6788  0.9253 -1.6264
 1133SOL     OW14860   4.707   0.729   5.608 -0.5952 -0.2210 -0.2599
 1133SOL    HW114861   0.022   0.711   5.694  1.0543 -3.8908 -1.7639
 1133SOL    HW214862   4.713   0.642   5.570 -0.7351 -0.0259 -0.7329
 1134SOL     OW14863   1.871   3.576  15.384  0.1533  0.7018 -0.5930
 1134SOL    HW114864   1.948   3.519  15.380  0.7809  1.4717  0.5468
 1134SOL    HW214865   1.893   3.663  15.351  0.5216 -0.0226 -2.2491
 1135SOL     OW14866   1.199   1.342   8.497  0.2472 -0.2654  0.1042
 1135SOL    HW114867   1.284   1.371   8.464  0.8343 -2.4114 -0.2874
 1135SOL    HW214868   1.202   1.398   8.574 -1.4253 -0.1267  0.0696
 1136SOL     OW14869   4.077   4.575   3.316 -0.0366  0.2544 -0.3204
 1136SOL    HW114870   4.102   4.490   3.351 -1.4340  0.0225  0.1020
 1136SOL    HW214871   4.050   4.558   3.226  1.3324 -1.0068 -0.4966
 1137SOL     OW14872   0.442   0.530   2.650 -0.3198 -0.1910  0.3052
 1137SOL    HW114873   0.477   0.585   2.580 -0.3600 -0.5642 -0.0112
 1137SOL    HW214874   0.502   0.456   2.652  0.7265  0.7126  2.1107
 1138SOL     OW14875   1.669   2.718   8.722  0.3128 -0.6488  0.3579
 1138SOL    HW114876   1.687   2.789   8.782  0.7659  0.1334 -0.7038
 1138SOL    HW214877   1.620   2.772   8.660  2.6866  1.5877  0.4107
 1139SOL     OW14878   4.164   3.936  14.361  0.1409 -0.3341  0.0935
 1139SOL    HW114879   4.167   3.898  14.449 -1.5720  0.0147  0.2961
 1139SOL    HW214880   4.090   3.888  14.326  0.1510 -0.6755  0.5460
 1140SOL     OW14881   3.463   1.455  15.344  0.1321  0.7367 -0.2759
 1140SOL    HW114882   3.437   1.516  15.275 -0.1672  1.1169  0.1733
 1140SOL    HW214883   3.529   1.408  15.293 -1.0000 -1.0995 -0.0491
 1141SOL     OW14884   1.235   2.670   6.561 -0.1220 -0.4729  0.7572
 1141SOL    HW114885   1.313   2.660   6.615  1.0974  0.8751 -0.7560
 1141SOL    HW214886   1.177   2.699   6.633 -2.4051  0.4716 -1.4526
 1142SOL     OW14887   1.921   0.732   2.868 -0.0017 -0.0207  0.0979
 1142SOL    HW114888   1.835   0.772   2.883 -0.2528  1.0705 -4.5315
 1142SOL    HW214889   1.909   0.699   2.779  2.0958  1.2576 -0.6377
 1143SOL     OW14890   2.774   1.033   4.859  0.2732  0.0273  0.6459
 1143SOL    HW114891   2.737   0.981   4.931  0.5554  0.9672  1.4686
 1143SOL    HW214892   2.859   0.991   4.848  0.1806  0.3038 -1.0955
 1144SOL     OW14893   4.552   2.727   2.337  0.2448 -0.1314  0.2252
 1144SOL    HW114894   4.460   2.714   2.362  0.7181 -1.1096  1.5265
 1144SOL    HW214895   4.592   2.699   2.420 -2.2584  2.1911  2.2547
 1145SOL     OW14896   4.472   0.593   7.542 -0.4841  0.1972  0.0849
 1145SOL    HW114897   4.454   0.681   7.574  3.6488  1.0757 -0.0288
 1145SOL    HW214898   4.406   0.541   7.589  0.7364 -1.3099  0.1230
 1146SOL     OW14899   4.519   1.116   8.780 -0.5301 -0.2381 -0.0297
 1146SOL    HW114900   4.495   1.087   8.868 -0.4974  0.5356  0.2347
 1146SOL    HW214901   4.468   1.193   8.755 -0.5873 -0.5482 -0.8953
 1147SOL     OW14902   0.015   3.110   0.571 -0.1930  0.3185  0.0501
 1147SOL    HW114903   4.709   3.160   0.494 -0.7033 -0.1807 -0.0812
 1147SOL    HW214904   0.107   3.103   0.546 -0.0676  1.1782  0.2574
 1148SOL     OW14905   1.737   1.690   2.026  0.0196  0.3494  0.5693
 1148SOL    HW114906   1.673   1.647   1.968 -1.1480  1.3201  1.1375
 1148SOL    HW214907   1.680   1.719   2.097 -1.2917 -1.8095  0.4318
 1149SOL     OW14908   0.397   2.617   7.959 -0.7590 -0.1464  0.0140
 1149SOL    HW114909   0.321   2.659   7.920  0.9339  0.7742 -2.3536
 1149SOL    HW214910   0.392   2.654   8.047 -1.6423 -0.0088 -0.1003
 1150SOL     OW14911   3.533   2.748  14.599  0.1747  0.1079 -0.5324
 1150SOL    HW114912   3.613   2.738  14.650  0.3400 -0.6874 -0.9419
 1150SOL    HW214913   3.471   2.776  14.667 -0.5509 -1.2223 -0.6509
 1151SOL     OW14914   0.864   3.769   8.070 -0.1904 -0.0788  0.0503
 1151SOL    HW114915   0.852   3.747   8.162  3.1585  0.2239  0.5368
 1151SOL    HW214916   0.814   3.696   8.032  3.0408 -0.9737 -2.5099
 1152SOL     OW14917   1.985   1.025   8.452 -0.0550 -0.8759 -0.1037
 1152SOL    HW114918   1.941   1.059   8.530  1.4005 -0.5546  0.5732
 1152SOL    HW214919   1.908   1.026   8.395  0.6324  1.1439 -1.0098
 1153SOL     OW14920   3.377   0.326   8.474 -0.0182 -1.0899  0.2142
 1153SOL    HW114921   3.344   0.340   8.563  0.6807 -0.8399  0.4315
 1153SOL    HW214922   3.323   0.252   8.446 -1.6136 -0.0899  0.6353
 1154SOL     OW14923   2.384   3.344   7.000 -0.4148 -0.0286  0.3413
 1154SOL    HW114924   2.326   3.402   7.048  0.3629  1.3456 -0.3938
 1154SOL    HW214925   2.433   3.407   6.948  1.0584 -1.8054 -0.4278
 1155SOL     OW14926   1.866   1.439   5.835 -0.1166  0.3278  0.1531
 1155SOL    HW114927   1.787   1.386   5.830 -0.3756  0.6473  0.8296
 1155SOL    HW214928   1.872   1.464   5.743  2.8566 -0.3868  0.1618
 1156SOL     OW14929   2.516   2.739   0.354 -0.9452 -0.1056 -0.3130
 1156SOL    HW114930   2.442   2.688   0.388 -0.8967 -0.0367 -0.1038
 1156SOL    HW214931   2.582   2.672   0.342 -2.3169 -1.4503 -0.4338
 1157SOL     OW14932   3.259   1.440   5.424  0.2776  0.8004 -0.7415
 1157SOL    HW114933   3.344   1.397   5.413 -0.9894 -1.5281 -1.4373
 1157SOL    HW214934   3.250   1.441   5.520 -0.6326  0.8148 -0.8237
 1158SOL     OW14935   3.298   0.945   7.894 -0.1557  0.3090 -0.6582
 1158SOL    HW114936   3.380   0.956   7.942 -0.1091 -0.2783 -0.6008
 1158SOL    HW214937   3.276   0.852   7.898 -0.7619  0.4268 -1.3552
 1159SOL     OW14938   1.940   4.302   7.820 -0.0938  0.2120  0.1994
 1159SOL    HW114939   1.972   4.364   7.754  0.9950 -0.2315  0.2988
 1159SOL    HW214940   1.900   4.237   7.762 -0.0839  0.9625 -0.6533
 1160SOL     OW14941   2.086   0.702   3.068  0.2369 -0.6143  0.2341
 1160SOL    HW114942   2.032   0.714   2.990 -0.4065  1.6708  1.0099
 1160SOL    HW214943   2.125   0.787   3.090  0.3795 -0.3115 -1.1954
 1161SOL     OW14944   2.500   1.922   3.289 -0.0545 -0.9189 -0.2777
 1161SOL    HW114945   2.409   1.943   3.306  0.0134  0.6684 -1.9228
 1161SOL    HW214946   2.496   1.865   3.212 -3.3974  0.1199 -0.8476
 1162SOL     OW14947   3.124   3.437   7.411 -0.2848 -0.2785 -0.0624
 1162SOL    HW114948   3.032   3.460   7.400 -0.1403  0.6193  0.6715
 1162SOL    HW214949   3.142   3.465   7.501  0.4569  2.6590 -1.1499
 1163SOL     OW14950   0.665   3.527   2.262 -0.0130 -0.8208 -0.3246
 1163SOL    HW114951   0.713   3.609   2.274  1.1259 -1.4365 -0.7155
 1163SOL    HW214952   0.657   3.507   2.355 -0.1078  1.7846  0.2255
 1164SOL     OW14953   3.317   3.403   3.020 -0.3025  0.5624 -0.1421
 1164SOL    HW114954   3.272   3.375   2.940  0.2280  1.3552 -0.7134
 1164SOL    HW214955   3.307   3.333   3.085  3.1139 -0.8966 -1.1889
 1165SOL     OW14956   4.411   0.894   0.963  0.1603 -0.6699  0.1789
 1165SOL    HW114957   4.338   0.852   0.918 -2.1005  2.9501  0.4942
 1165SOL    HW214958   4.485   0.839   0.935 -0.0284 -0.3684 -0.9019
 1166SOL     OW14959   3.141   0.181   7.276  0.4028  0.1744  0.0047
 1166SOL    HW114960   3.103   0.203   7.361 -1.1730 -0.5163 -0.5361
 1166SOL    HW214961   3.172   0.264   7.240 -0.5476  1.6070  2.4891
 1167SOL     OW14962   1.490   3.262   8.671  0.3323  0.5050 -0.3140
 1167SOL    HW114963   1.435   3.315   8.728  0.8188  1.0202 -0.3098
 1167SOL    HW214964   1.577   3.303   8.669 -1.0659  3.3991 -1.4833
 1168SOL     OW14965   1.601   2.278  14.481  0.5856  0.4652 -0.8093
 1168SOL    HW114966   1.609   2.303  14.389 -0.5664 -0.6513 -1.2199
 1168SOL    HW214967   1.661   2.204  14.495  0.1356  0.1214 -0.6850
 1169SOL     OW14968   2.482   2.883   6.582  0.0784  0.1390  0.0042
 1169SOL    HW114969   2.467   2.975   6.605 -1.7191 -0.2817  0.4940
 1169SOL    HW214970   2.549   2.877   6.650 -0.4563  1.6780  0.6667
 1170SOL     OW14971   1.978   1.592   5.333  0.2253  0.4428  0.1240
 1170SOL    HW114972   2.033   1.624   5.404 -2.0651  0.4065  1.9213
 1170SOL    HW214973   2.049   1.554   5.282  0.1298 -0.3817  0.6050
 1171SOL     OW14974   0.181   1.710   0.107  0.3014 -0.0173  0.3618
 1171SOL    HW114975   0.275   1.720   0.089  0.1610 -1.5696 -1.1812
 1171SOL    HW214976   0.160   1.618   0.095  0.2153  0.2287 -1.3984
 1172SOL     OW14977   3.944   4.442  14.409 -0.0289 -0.2705 -0.2283
 1172SOL    HW114978   4.003   4.495  14.462 -1.6528  1.4665 -0.1410
 1172SOL    HW214979   3.983   4.441  14.322 -3.9987  1.7954 -2.0231
 1173SOL     OW14980   1.343   2.554   1.464  0.0262  0.4602 -0.0118
 1173SOL    HW114981   1.278   2.500   1.420 -0.4366  0.3112  0.8717
 1173SOL    HW214982   1.413   2.561   1.398 -1.9692 -0.7741 -2.2656
 1174SOL     OW14983   3.379   2.007   1.592  0.0255 -0.2028  0.1524
 1174SOL    HW114984   3.424   2.070   1.648 -0.1559 -1.1515  1.3537
 1174SOL    HW214985   3.336   2.065   1.528  1.4372  0.4230 -0.2252
 1175SOL     OW14986   4.576   2.119   2.482  0.1255  0.5646  0.1826
 1175SOL    HW114987   4.495   2.104   2.530 -0.1367 -0.0568 -0.4540
 1175SOL    HW214988   4.550   2.093   2.393  3.1457  0.1420 -0.5841
 1176SOL     OW14989   0.570   0.499   1.637 -0.6195 -0.3875  0.0670
 1176SOL    HW114990   0.647   0.538   1.598  0.6196 -0.8350  2.0702
 1176SOL    HW214991   0.613   0.467   1.716 -0.0211 -1.9857 -0.9202
 1177SOL     OW14992   2.331   4.427   8.298  0.0551  0.0076  0.8536
 1177SOL    HW114993   2.370   4.369   8.233 -2.3177  0.0922 -0.6464
 1177SOL    HW214994   2.366   4.513   8.275 -2.5928  1.1401  1.0132
 1178SOL     OW14995   1.301   3.175   3.951  0.6554 -0.7885  0.5916
 1178SOL    HW114996   1.326   3.084   3.968 -0.5424 -1.7019 -2.4108
 1178SOL    HW214997   1.361   3.200   3.881  0.5626  0.1939  0.8684
 1179SOL     OW14998   0.536   2.429   2.388  0.0850  0.0604  0.1726
 1179SOL    HW114999   0.522   2.477   2.306  0.0079 -1.5221 -0.7271
 1179SOL    HW215000   0.566   2.344   2.355 -2.3687 -0.5882 -0.3493
 1180SOL     OW15001   0.835   4.208   5.907 -0.3474 -0.4215 -0.0835
 1180SOL    HW115002   0.853   4.181   5.817  0.1707  1.6288 -0.6073
 1180SOL    HW215003   0.896   4.144   5.943  1.2218  0.5897 -0.9498
 1181SOL     OW15004   4.303   2.220  10.266  0.3086 -0.3345  0.6707
 1181SOL    HW115005   4.362   2.283  10.224 -1.4001  1.4429  0.9726
 1181SOL    HW215006   4.331   2.193  10.354  2.0290  0.4251  0.3576
 1182SOL     OW15007   2.868   1.139   8.041 -0.3805  0.2250  0.2652
 1182SOL    HW115008   2.798   1.188   7.998  0.3856 -0.0878 -1.3504
 1182SOL    HW215009   2.863   1.169   8.132 -0.1493 -0.8226  0.6341
 1183SOL     OW15010   1.993   2.386   7.299  0.2512  0.2600  0.0475
 1183SOL    HW115011   1.942   2.463   7.325  0.9231  0.3051  1.1845
 1183SOL    HW215012   2.075   2.419   7.261  1.1178 -0.1033  1.6076
 1184SOL     OW15013   1.850   1.378   4.569 -0.5454  0.7089 -0.1086
 1184SOL    HW115014   1.943   1.356   4.580 -0.7575 -0.2161 -0.1596
 1184SOL    HW215015   1.812   1.299   4.530 -0.1851  0.5713 -0.1875
 1185SOL     OW15016   2.528   3.927   8.116  0.2799  0.5550  0.6297
 1185SOL    HW115017   2.601   3.960   8.169  0.9673 -0.7962  0.5131
 1185SOL    HW215018   2.539   3.833   8.130  1.3631  0.8932  2.1038
 1186SOL     OW15019   0.832   2.348   3.305  0.1436 -0.2578 -0.5021
 1186SOL    HW115020   0.808   2.389   3.222 -1.0122 -1.1198 -0.5873
 1186SOL    HW215021   0.780   2.404   3.362  0.2630  0.3443 -0.9868
 1187SOL     OW15022   4.459   4.639   3.777 -0.1067  0.2721  0.4666
 1187SOL    HW115023   4.476   4.546   3.789  1.0271  0.4060 -0.1431
 1187SOL    HW215024   4.365   4.647   3.762  0.1545 -0.8932 -1.6957
 1188SOL     OW15025   0.681   3.896   0.749  0.0704  0.0249  0.1419
 1188SOL    HW115026   0.661   3.914   0.841 -0.2133 -0.1027  0.1066
 1188SOL    HW215027   0.759   3.947   0.731  1.2265 -1.4475  1.0316
 1189SOL     OW15028   0.575   2.153   8.732  0.0603  0.1572  0.0032
 1189SOL    HW115029   0.659   2.124   8.695 -0.3053  0.1382 -0.8121
 1189SOL    HW215030   0.521   2.085   8.691 -1.2334  0.9096  0.4792
 1190SOL     OW15031   4.142   1.975   3.452 -0.3539 -0.8701 -0.5094
 1190SOL    HW115032   4.109   2.036   3.517  1.0371 -0.7537  0.0883
 1190SOL    HW215033   4.062   1.924   3.437 -1.0975  0.8089 -2.2940
 1191SOL     OW15034   0.251   4.476   6.642 -0.6950 -0.3312 -0.0419
 1191SOL    HW115035   0.193   4.399   6.636  0.5023 -1.2765  0.4555
 1191SOL    HW215036   0.303   4.458   6.564 -1.2709 -0.8586 -0.3139
 1192SOL     OW15037   4.398   2.891   6.409 -0.0941 -0.3997 -0.3330
 1192SOL    HW115038   4.461   2.820   6.404  1.5899  1.1698 -1.1825
 1192SOL    HW215039   4.448   2.962   6.370  0.6338 -1.5955 -1.5295
 1193SOL     OW15040   1.084   2.785  17.306  0.6276 -0.4059  0.2749
 1193SOL    HW115041   1.016   2.768  17.240 -0.4503  1.3458  0.9313
 1193SOL    HW215042   1.083   2.881  17.312  0.4098 -0.3152 -1.2855
 1194SOL     OW15043   2.590   1.842  16.324  0.5426  0.0444 -0.1879
 1194SOL    HW115044   2.532   1.767  16.312  2.1182 -1.1495 -0.3198
 1194SOL    HW215045   2.661   1.797  16.368 -2.2305 -1.6971  2.4866
 1195SOL     OW15046   1.570   0.460   3.494 -0.0269  0.3061 -0.4061
 1195SOL    HW115047   1.500   0.406   3.530 -0.9363 -0.1384 -2.8370
 1195SOL    HW215048   1.635   0.431   3.558 -0.7171 -0.1045  0.1091
 1196SOL     OW15049   3.757   2.107  15.306  0.2572  0.0714  0.0625
 1196SOL    HW115050   3.763   2.190  15.258  0.8085 -0.2552 -0.4378
 1196SOL    HW215051   3.723   2.125  15.394  1.8589  1.8206  0.3187
 1197SOL     OW15052   1.938   2.043  15.384  0.2401  0.1071 -0.6084
 1197SOL    HW115053   1.953   2.130  15.346 -0.3638  1.0234  1.2546
 1197SOL    HW215054   1.899   2.006  15.305 -1.2030  0.3414 -0.0165
 1198SOL     OW15055   0.336   1.768   1.149  0.4307 -0.0863  0.4424
 1198SOL    HW115056   0.408   1.794   1.207  0.3474  0.1450  0.4459
 1198SOL    HW215057   0.372   1.792   1.064 -2.3329 -3.0626 -1.5069
 1199SOL     OW15058   0.435   3.735   7.200 -0.1945 -0.5057 -0.1107
 1199SOL    HW115059   0.496   3.721   7.272 -0.1863 -1.5838 -0.3360
 1199SOL    HW215060   0.497   3.750   7.128 -1.6083 -0.3639 -1.3102
 1200SOL     OW15061   1.463   1.565  12.753 -0.2438  0.2493  0.6422
 1200SOL    HW115062   1.439   1.478  12.722 -0.9455  0.1051  1.6013
 1200SOL    HW215063   1.556   1.588  12.758 -0.3910  0.8652  0.6407
 1201SOL     OW15064   1.603   1.519  15.860  0.1763  0.3434  0.2195
 1201SOL    HW115065   1.652   1.569  15.795  1.6535  0.6954  1.6002
 1201SOL    HW215066   1.526   1.573  15.876 -0.0649 -0.5220  1.9872
 1202SOL     OW15067   1.127   1.841   8.550 -0.0084  0.0179  0.5251
 1202SOL    HW115068   1.089   1.911   8.602 -0.9411 -0.9392  1.1326
 1202SOL    HW215069   1.202   1.815   8.603 -0.5012  0.8907  1.6387
 1203SOL     OW15070   0.220   1.902   2.319  0.3979  0.1932 -0.4320
 1203SOL    HW115071   0.194   1.976   2.373 -1.0019  0.3582 -1.3300
 1203SOL    HW215072   0.172   1.920   2.238 -2.5073  0.6603  1.4219
 1204SOL     OW15073   1.080   0.114   0.130  0.1085 -0.5165  0.0746
 1204SOL    HW115074   1.081   0.082   0.220 -0.4554 -0.3236  0.1508
 1204SOL    HW215075   1.004   0.064   0.099 -0.0928 -0.4895  0.5160
 1205SOL     OW15076   0.963   4.408   6.231  0.3902 -0.1125 -0.2243
 1205SOL    HW115077   0.932   4.483   6.282 -1.0010  0.2262 -1.5652
 1205SOL    HW215078   0.932   4.440   6.146  1.0016  2.2378  0.4501
 1206SOL     OW15079   3.841   2.506   3.470 -0.0814  0.0188  0.0140
 1206SOL    HW115080   3.880   2.589   3.444  1.5261 -1.1504 -1.3195
 1206SOL    HW215081   3.805   2.520   3.558  2.3286  0.8638  0.8584
 1207SOL     OW15082   3.862   2.539  15.037  0.2429  0.7446 -0.2099
 1207SOL    HW115083   3.947   2.556  14.996  0.4397 -1.1151 -0.5810
 1207SOL    HW215084   3.866   2.622  15.084  1.3676  1.7270 -2.0145
 1208SOL     OW15085   1.680   1.242   3.227 -0.0322 -0.0956  0.1608
 1208SOL    HW115086   1.689   1.327   3.271 -0.2327 -0.1327  0.2750
 1208SOL    HW215087   1.609   1.207   3.281 -0.2009 -1.2314 -0.8016
 1209SOL     OW15088   1.632   0.748   6.230  0.1084 -0.1690  0.1513
 1209SOL    HW115089   1.626   0.824   6.288  0.4411  1.1369 -1.5080
 1209SOL    HW215090   1.702   0.779   6.173 -0.5202 -0.9817 -1.0664
 1210SOL     OW15091   0.956   1.214  16.177  0.0088 -0.3349 -0.3413
 1210SOL    HW115092   0.861   1.208  16.178 -0.1575  1.5952 -2.6867
 1210SOL    HW215093   0.973   1.306  16.199 -0.1436 -0.7398  1.4856
 1211SOL     OW15094   4.519   1.842   6.309 -0.3826 -0.1449  0.0490
 1211SOL    HW115095   4.559   1.755   6.309  1.0508  0.5450  3.1946
 1211SOL    HW215096   4.465   1.838   6.229 -0.1830 -0.6057 -0.0649
 1212SOL     OW15097   4.610   1.659   5.988  0.3819  0.0972 -0.3522
 1212SOL    HW115098   4.702   1.633   5.994 -0.3255 -2.1306  0.9056
 1212SOL    HW215099   4.578   1.628   5.903 -0.6113 -0.5620  0.2627
 1213SOL     OW15100   3.827   2.205   1.498  0.6799  0.2080  0.2070
 1213SOL    HW115101   3.875   2.287   1.509 -0.3375  0.9406 -0.9053
 1213SOL    HW215102   3.840   2.161   1.582 -0.4722  0.6035  0.5840
 1214SOL     OW15103   4.504   3.145   8.770 -0.0281  0.1706 -0.1115
 1214SOL    HW115104   4.463   3.232   8.770  2.1615  1.2015  0.9505
 1214SOL    HW215105   4.493   3.119   8.861  0.6439  3.0553  0.8164
 1215SOL     OW15106   0.709   3.516  17.506  0.1054 -0.1992  0.1404
 1215SOL    HW115107   0.726   3.600  17.548 -0.6051  0.8732 -1.7087
 1215SOL    HW215108   0.740   3.518  17.415 -1.0323  0.9181 -0.2110
 1216SOL     OW15109   4.279   2.879   3.460  0.3876  0.1101 -0.2848
 1216SOL    HW115110   4.200   2.898   3.510  1.3622 -1.6962  1.9317
 1216SOL    HW215111   4.268   2.942   3.389 -0.2132  0.3816  0.0523
 1217SOL     OW15112   1.333   3.284   6.234 -0.0953  0.4404 -0.7928
 1217SOL    HW115113   1.356   3.335   6.156  1.8266 -1.0832 -1.2332
 1217SOL    HW215114   1.240   3.303   6.240 -0.1624 -0.5976  1.5778
 1218SOL     OW15115   4.153   2.161   6.890 -0.3605  0.1243  0.6494
 1218SOL    HW115116   4.137   2.194   6.979  0.2896 -0.8213  1.1148
 1218SOL    HW215117   4.161   2.246   6.846  3.5055 -1.3473 -1.4730
 1219SOL     OW15118   3.075   0.563  13.117  0.3658  0.2076  0.1830
 1219SOL    HW115119   3.148   0.503  13.134 -0.2873 -0.2870  1.1975
 1219SOL    HW215120   3.110   0.647  13.148  2.2933 -0.2975 -0.6098
 1220SOL     OW15121   1.229   3.167  15.732  0.1930  0.1391 -0.0662
 1220SOL    HW115122   1.274   3.083  15.744 -0.2223 -0.2253 -1.0611
 1220SOL    HW215123   1.147   3.131  15.698 -1.2220  1.5887  1.8540
 1221SOL     OW15124   0.889   0.074   5.540 -0.1815  0.5804 -0.6545
 1221SOL    HW115125   0.981   0.070   5.515 -0.4032 -2.8317 -0.9025
 1221SOL    HW215126   0.890   0.149   5.600  2.2622 -1.3263  1.6863
 1222SOL     OW15127   0.556   0.554   3.968 -0.1019  0.1576  0.0265
 1222SOL    HW115128   0.593   0.542   3.881  0.8638 -1.6679  0.6974
 1222SOL    HW215129   0.627   0.520   4.024  0.5980  0.0515 -0.9323
 1223SOL     OW15130   3.311   2.327   5.790  0.1311 -0.0035  0.4953
 1223SOL    HW115131   3.341   2.390   5.724 -0.4444 -0.8219 -0.5423
 1223SOL    HW215132   3.277   2.372   5.867  0.1880  0.2744  0.3581
 1224SOL     OW15133   4.145   2.189  14.553  0.1843  0.2470  0.1888
 1224SOL    HW115134   4.159   2.245  14.476 -1.6027  1.2253  0.5932
 1224SOL    HW215135   4.052   2.192  14.577  0.0825 -1.2885  0.0113
 1225SOL     OW15136   4.465   4.274   4.935  0.2711  0.0826  0.2293
 1225SOL    HW115137   4.488   4.193   4.889  0.1849  0.4477 -0.4595
 1225SOL    HW215138   4.524   4.339   4.897  0.4320 -1.8020 -2.7820
 1226SOL     OW15139   1.105   4.032  11.684  0.5207 -0.0928  0.3869
 1226SOL    HW115140   1.110   3.989  11.770  0.9243 -2.8087 -1.0046
 1226SOL    HW215141   1.120   4.119  11.721  2.8202  0.1259 -1.0408
 1227SOL     OW15142   4.076   2.612   8.085  0.6679 -0.3362  0.2253
 1227SOL    HW115143   4.013   2.630   8.014  2.5001 -3.1386 -2.1068
 1227SOL    HW215144   4.145   2.570   8.033  0.0564 -0.2792 -0.6498
 1228SOL     OW15145   2.295   2.951   4.001 -0.4130  0.3207  0.2408
 1228SOL    HW115146   2.339   3.017   3.947 -1.3824 -0.4428 -1.4665
 1228SOL    HW215147   2.207   2.989   4.007 -1.1372 -1.6298  1.6954
 1229SOL     OW15148   2.853   0.851   6.252 -0.7966  0.0862 -0.5627
 1229SOL    HW115149   2.911   0.922   6.222  1.2061 -1.9420 -1.4766
 1229SOL    HW215150   2.914   0.797   6.303 -1.0362 -0.6069 -1.0203
 1230SOL     OW15151   2.640   2.219   7.927 -0.4418  0.4084  0.2083
 1230SOL    HW115152   2.593   2.171   7.996  0.6250 -2.0025 -0.7327
 1230SOL    HW215153   2.598   2.305   7.930 -1.7546 -0.3096  2.8605
 1231SOL     OW15154   2.021   4.420   8.475  0.0269 -0.1437 -0.0035
 1231SOL    HW115155   2.039   4.326   8.475 -0.5806 -0.2725 -1.9484
 1231SOL    HW215156   2.029   4.439   8.381  1.6412 -0.0521  0.1561
 1232SOL     OW15157   3.334   0.273   3.438  0.0693  0.4876 -0.5536
 1232SOL    HW115158   3.358   0.227   3.357 -1.0459 -2.9016  1.0324
 1232SOL    HW215159   3.397   0.345   3.441 -0.1122  0.6820 -1.4749
 1233SOL     OW15160   3.465   3.688   3.352  0.0524  0.3698  0.0013
 1233SOL    HW115161   3.380   3.723   3.379 -0.2664  0.4802 -1.1700
 1233SOL    HW215162   3.527   3.726   3.415 -0.3117  2.0347 -0.6574
 1234SOL     OW15163   4.139   0.898   4.362  0.3072 -0.5572 -0.2969
 1234SOL    HW115164   4.138   0.860   4.450  1.8924  0.2631  0.0577
 1234SOL    HW215165   4.229   0.928   4.355  0.5922 -1.3771 -0.1561
 1235SOL     OW15166   0.988   1.952   8.841 -0.0208 -0.3429 -0.5434
 1235SOL    HW115167   0.932   1.974   8.915  0.0241  0.9714 -0.8865
 1235SOL    HW215168   1.066   1.917   8.883 -0.0289 -0.8061 -0.9086
 1236SOL     OW15169   4.602   2.895   2.964 -0.3426  0.4461 -0.0234
 1236SOL    HW115170   4.525   2.895   3.020 -0.9637  0.2177 -0.8777
 1236SOL    HW215171   4.648   2.814   2.988 -2.1454 -0.9819 -1.3512
 1237SOL     OW15172   2.677   0.467   4.135  0.0643  0.3544 -0.0006
 1237SOL    HW115173   2.673   0.467   4.039  1.3449 -2.3069 -0.0608
 1237SOL    HW215174   2.591   0.430   4.157  1.0272 -1.1184  1.3614
 1238SOL     OW15175   0.858   3.088   2.970 -0.1150  0.5055  0.5184
 1238SOL    HW115176   0.839   3.159   2.909  2.1189  0.4357 -0.2837
 1238SOL    HW215177   0.823   3.112   3.055  0.8489 -5.3786  2.6256
 1239SOL     OW15178   0.200   2.340   3.397 -0.1025  0.7466 -0.3513
 1239SOL    HW115179   0.289   2.313   3.374 -0.8813 -1.3538 -0.8419
 1239SOL    HW215180   0.168   2.250   3.397  0.3322  0.5923 -0.5519
 1240SOL     OW15181   3.634   1.713   2.754 -0.1420  0.4191 -0.5360
 1240SOL    HW115182   3.671   1.722   2.841  1.0668 -0.7826 -0.9287
 1240SOL    HW215183   3.615   1.804   2.732 -0.2240  0.8556  1.3311
 1241SOL     OW15184   3.349   0.185   4.060 -0.0075  0.0193  0.1927
 1241SOL    HW115185   3.277   0.172   4.121  0.4894  0.3824  0.8489
 1241SOL    HW215186   3.346   0.099   4.018 -1.4049  1.5840 -2.9313
 1242SOL     OW15187   2.184   0.815   2.111 -0.2320 -0.6786  0.0142
 1242SOL    HW115188   2.090   0.798   2.113 -0.6176  1.3239 -0.4910
 1242SOL    HW215189   2.223   0.731   2.132 -1.4055 -1.2015  0.0730
 1243SOL     OW15190   0.446   4.619   0.503  0.2540  0.1012 -0.4706
 1243SOL    HW115191   0.404   4.683   0.560 -3.0398 -2.5193  0.0451
 1243SOL    HW215192   0.530   4.660   0.481  0.8660 -1.9795 -2.0086
 1244SOL     OW15193   1.403   4.378   7.987 -0.8001  0.0273 -0.3400
 1244SOL    HW115194   1.418   4.455   7.933 -0.3685 -1.3685 -2.2158
 1244SOL    HW215195   1.309   4.373   8.001 -0.3648 -1.6325  2.1073
 1245SOL     OW15196   3.018   0.474   2.881 -0.5352 -0.9624  0.1133
 1245SOL    HW115197   2.957   0.542   2.852  1.7364  0.7678 -0.5837
 1245SOL    HW215198   3.101   0.521   2.890 -1.2869  0.2091  0.9257
 1246SOL     OW15199   4.661   4.468   6.796  1.1550  0.2260 -0.3952
 1246SOL    HW115200   0.011   4.494   6.740 -0.3900  0.1858 -2.4235
 1246SOL    HW215201   4.586   4.488   6.740  1.2181 -1.7139 -1.1627
 1247SOL     OW15202   4.086   2.421   2.598  0.4157  0.0351  0.3485
 1247SOL    HW115203   4.061   2.344   2.546 -0.5775 -0.3612  1.4139
 1247SOL    HW215204   4.120   2.460   2.518 -0.0378 -0.2094  0.0337
 1248SOL     OW15205   1.720   3.065   5.424 -0.4703  0.7418 -0.0564
 1248SOL    HW115206   1.733   2.998   5.357 -0.5425  0.0721  0.5941
 1248SOL    HW215207   1.751   3.025   5.506  0.7882 -0.9223 -1.3504
 1249SOL     OW15208   2.489   1.076   4.866 -0.0353  0.1993 -0.3822
 1249SOL    HW115209   2.500   0.983   4.881 -1.8858 -0.1698 -1.2829
 1249SOL    HW215210   2.579   1.110   4.868  0.0609 -0.0553 -0.4561
 1250SOL     OW15211   2.266   4.644   4.478 -0.1222 -0.1352 -0.2968
 1250SOL    HW115212   2.291   0.012   4.486  0.0830 -0.0977 -1.3499
 1250SOL    HW215213   2.348   4.594   4.489  0.8374  1.3704 -0.6752
 1251SOL     OW15214   2.382   0.399   9.252  0.4982 -0.0496  0.1361
 1251SOL    HW115215   2.460   0.455   9.253 -0.3656  1.1552  0.8660
 1251SOL    HW215216   2.411   0.312   9.224 -0.1577  0.2964 -1.6243
 1252SOL     OW15217   3.852   1.330   5.782 -0.0845  0.2900 -0.2337
 1252SOL    HW115218   3.880   1.243   5.811 -0.3004  0.5206  0.6501
 1252SOL    HW215219   3.764   1.324   5.744 -0.7259 -1.0870  1.5011
 1253SOL     OW15220   2.770   0.953   4.218 -0.1927  0.5466 -0.2181
 1253SOL    HW115221   2.756   0.881   4.280  1.5044 -0.1024 -0.5933
 1253SOL    HW215222   2.686   0.949   4.172 -1.3215 -3.4972  2.2247
 1254SOL     OW15223   2.659   2.087  17.463 -0.0499 -0.2056  0.6893
 1254SOL    HW115224   2.598   2.042  17.406 -1.6822  3.2474 -0.2848
 1254SOL    HW215225   2.610   2.168  17.472 -1.8771 -1.2555  0.1394
 1255SOL     OW15226   1.725   4.129  11.170 -0.7260 -0.3722  0.1742
 1255SOL    HW115227   1.646   4.094  11.129 -0.3674 -1.7186  0.6293
 1255SOL    HW215228   1.759   4.184  11.099 -1.0028 -0.2715  0.1205
 1256SOL     OW15229   2.352   3.628  11.161  0.0671 -0.1284  0.2580
 1256SOL    HW115230   2.287   3.609  11.093 -1.1283  1.1677  1.0552
 1256SOL    HW215231   2.297   3.616  11.238 -2.1692  1.0960 -1.1291
 1257SOL     OW15232   3.247   0.858   5.329  0.1886  0.0686  0.1745
 1257SOL    HW115233   3.286   0.809   5.256 -0.9532 -0.6046  0.0021
 1257SOL    HW215234   3.237   0.786   5.392 -0.2325 -0.9852 -1.0959
 1258SOL     OW15235   4.570   4.603   8.681  0.0973 -0.0368 -0.2743
 1258SOL    HW115236   4.488   4.640   8.648  0.5754 -1.3387 -2.9270
 1258SOL    HW215237   4.531   4.560   8.758  0.6803 -1.3980 -0.7462
 1259SOL     OW15238   1.855   3.440   7.837  0.0038  0.2400  0.6705
 1259SOL    HW115239   1.853   3.355   7.881 -0.1617  0.9608  2.0830
 1259SOL    HW215240   1.831   3.409   7.750 -1.5220  0.7495  0.9133
 1260SOL     OW15241   3.927   2.830   5.596  0.0283 -0.1294 -0.3673
 1260SOL    HW115242   3.860   2.830   5.527 -1.0256  0.3593  0.6622
 1260SOL    HW215243   3.891   2.896   5.654  1.1853 -1.2255  1.5763
 1261SOL     OW15244   1.545   4.069   5.756  0.7367  0.1414 -0.3957
 1261SOL    HW115245   1.520   3.976   5.753 -0.8943  0.5293  1.1286
 1261SOL    HW215246   1.591   4.075   5.673  0.5438  1.7290 -0.3886
 1262SOL     OW15247   0.047   4.189   4.645 -0.0995 -0.2561  0.1528
 1262SOL    HW115248   0.085   4.177   4.733 -0.6535  0.1671  0.4532
 1262SOL    HW215249   4.697   4.244   4.673  1.1294  0.7607  1.4043
 1263SOL     OW15250   3.703   2.469   1.301 -0.1565 -0.5410 -0.5605
 1263SOL    HW115251   3.641   2.487   1.372 -0.2780  1.1108 -1.0948
 1263SOL    HW215252   3.782   2.458   1.354 -0.2181 -0.9045 -0.5459
 1264SOL     OW15253   0.937   2.782   9.754  0.0380  0.5662 -0.3066
 1264SOL    HW115254   0.961   2.874   9.756 -1.0988  0.8601 -0.0271
 1264SOL    HW215255   0.922   2.763   9.846 -1.0729  2.5844 -0.0932
 1265SOL     OW15256   2.963   1.878   5.747  0.1285 -0.2833 -0.9413
 1265SOL    HW115257   2.980   1.909   5.658  1.1107 -1.5601 -1.1978
 1265SOL    HW215258   2.878   1.834   5.742 -0.8770  1.2018  3.0824
 1266SOL     OW15259   2.510   0.103   3.006 -0.0304  0.2680 -0.1294
 1266SOL    HW115260   2.600   0.132   3.020  1.0762 -0.9800 -4.6402
 1266SOL    HW215261   2.455   0.181   2.995  1.6376  1.3526 -0.6975
 1267SOL     OW15262   0.192   1.237  16.317 -0.2819  0.1892  0.3167
 1267SOL    HW115263   0.237   1.157  16.290  1.8096  1.6686 -0.5592
 1267SOL    HW215264   0.198   1.232  16.412  2.1879  0.3973  0.1576
 1268SOL     OW15265   3.410   2.550   4.380 -0.2538 -0.0108  0.3163
 1268SOL    HW115266   3.486   2.558   4.322  0.0628 -0.7076  0.6434
 1268SOL    HW215267   3.374   2.639   4.376  3.6443  1.4792 -1.4024
 1269SOL     OW15268   0.253   0.915   7.712 -0.0277  0.1046  0.1974
 1269SOL    HW115269   0.189   0.849   7.686  0.9042 -0.4521 -0.6772
 1269SOL    HW215270   0.280   0.877   7.795 -0.3345 -2.2992 -0.8079
 1270SOL     OW15271   1.352   3.085  10.837 -0.3100  0.4369 -0.1285
 1270SOL    HW115272   1.421   3.140  10.874  1.8877 -2.1509 -0.3820
 1270SOL    HW215273   1.385   3.001  10.867  0.4811  0.1758 -1.7437
 1271SOL     OW15274   0.548   0.354   5.833 -0.4549 -1.0684  0.8582
 1271SOL    HW115275   0.520   0.435   5.876 -0.6174 -0.9081  0.4527
 1271SOL    HW215276   0.503   0.289   5.887  1.9140 -1.2356  2.6024
 1272SOL     OW15277   0.102   0.545   8.114  0.2180  0.1247 -0.5287
 1272SOL    HW115278   0.158   0.586   8.180  1.7192 -0.6544 -1.3161
 1272SOL    HW215279   0.117   0.607   8.042 -1.7897  0.9447 -0.2238
 1273SOL     OW15280   3.221   3.972   2.525 -0.4108  0.0308 -0.0295
 1273SOL    HW115281   3.251   4.042   2.466 -2.0480  0.3555 -0.4738
 1273SOL    HW215282   3.251   3.891   2.483 -2.4499 -1.0532  0.6290
 1274SOL     OW15283   0.544   4.115  13.233  0.4948 -0.1029  0.1916
 1274SOL    HW115284   0.459   4.126  13.191 -0.1394  0.6484  1.6452
 1274SOL    HW215285   0.581   4.042  13.184  4.4248  0.1008  2.8283
 1275SOL     OW15286   3.588   0.014  12.752 -0.5961 -0.2391  0.2671
 1275SOL    HW115287   3.499   0.048  12.761 -0.3966  0.3596 -0.0561
 1275SOL    HW215288   3.564   4.672  12.686 -2.1574 -0.3029  0.9106
 1276SOL     OW15289   3.497   1.223  15.020 -0.3690  0.1987  0.2499
 1276SOL    HW115290   3.407   1.203  15.046 -0.0667 -0.4281  0.8308
 1276SOL    HW215291   3.491   1.308  14.975 -0.1026  0.6368  1.0452
 1277SOL     OW15292   1.970   0.409  12.608  0.2883 -0.0105  0.4724
 1277SOL    HW115293   1.977   0.480  12.544 -2.9769 -1.0131 -1.0075
 1277SOL    HW215294   2.009   0.438  12.690  0.1501  0.1971  0.4655
 1278SOL     OW15295   2.317   1.782   7.236  0.1599  0.0101 -0.0347
 1278SOL    HW115296   2.274   1.868   7.243 -1.9245 -1.0587  0.2375
 1278SOL    HW215297   2.379   1.787   7.309  1.2696  0.7520 -1.0314
 1279SOL     OW15298   1.908   1.800   9.415 -0.4523 -0.5685 -0.1574
 1279SOL    HW115299   1.830   1.833   9.460 -0.1226 -0.2613  0.1911
 1279SOL    HW215300   1.880   1.710   9.399 -0.0648 -0.9370  1.2744
 1280SOL     OW15301   0.433   2.329   8.123  0.1892 -0.4219  0.5677
 1280SOL    HW115302   0.401   2.381   8.197  1.2264  1.6224 -0.4096
 1280SOL    HW215303   0.493   2.386   8.075  2.1263 -2.6195  0.3831
 1281SOL     OW15304   1.776   4.402  14.358  0.0931 -0.0130  0.1480
 1281SOL    HW115305   1.699   4.389  14.303 -0.0825 -1.8551  0.8394
 1281SOL    HW215306   1.840   4.337  14.329 -0.5668  0.6871 -2.8763
 1282SOL     OW15307   3.787   0.433   4.280 -0.0684 -0.0585 -0.5816
 1282SOL    HW115308   3.799   0.368   4.349  1.1921 -0.4043 -1.1456
 1282SOL    HW215309   3.702   0.464   4.313  0.4058  1.4423 -0.7819
 1283SOL     OW15310   1.116   0.747   9.292 -0.2502 -0.1289 -0.1918
 1283SOL    HW115311   1.076   0.661   9.304  0.8536 -0.9154 -2.1576
 1283SOL    HW215312   1.047   0.789   9.343  0.4875  1.3505 -0.4036
 1284SOL     OW15313   2.399   3.608  11.675  0.1013  0.0751 -0.4905
 1284SOL    HW115314   2.402   3.596  11.580  0.6030  1.4300 -0.6454
 1284SOL    HW215315   2.485   3.648  11.681 -0.7958  1.3298  3.7659
 1285SOL     OW15316   4.042   0.351   7.161  0.2167 -0.2629 -0.3323
 1285SOL    HW115317   4.061   0.264   7.197  0.7654 -0.7056 -1.6930
 1285SOL    HW215318   3.989   0.335   7.083 -0.2473 -0.2963 -0.0118
 1286SOL     OW15319   0.163   2.357   6.032  0.1908 -0.3075  0.1243
 1286SOL    HW115320   0.121   2.327   6.113 -1.6183 -1.0782 -1.1220
 1286SOL    HW215321   0.194   2.272   6.000  0.5109  0.2673 -1.0779
 1287SOL     OW15322   2.790   0.874   5.547  0.5053  0.1750  0.4708
 1287SOL    HW115323   2.860   0.938   5.559  1.3309 -0.5701 -0.3470
 1287SOL    HW215324   2.714   0.917   5.585  0.1769  0.9916 -1.1195
 1288SOL     OW15325   2.306   2.234   6.447  0.1572 -0.4252 -0.3521
 1288SOL    HW115326   2.380   2.286   6.481  0.8474 -1.1098 -0.8132
 1288SOL    HW215327   2.356   2.153   6.443 -0.0221 -0.7435  3.4082
 1289SOL     OW15328   0.108   4.451   0.599  0.1167 -0.1316  0.1348
 1289SOL    HW115329   0.075   4.492   0.679 -1.1124 -0.1786 -0.3575
 1289SOL    HW215330   0.043   4.478   0.534  0.2572 -0.1464 -0.0121
 1290SOL     OW15331   3.199   1.454  13.286 -0.1602 -0.7778  0.5358
 1290SOL    HW115332   3.107   1.440  13.267 -0.5453 -0.5428  2.2560
 1290SOL    HW215333   3.245   1.439  13.204  0.9029  1.8021  0.6679
 1291SOL     OW15334   2.861   4.319  14.199  0.0728  0.3522 -0.3166
 1291SOL    HW115335   2.886   4.325  14.106 -2.0673 -0.6446 -0.9602
 1291SOL    HW215336   2.826   4.230  14.198 -0.2990  0.5140 -2.9932
 1292SOL     OW15337   4.265   4.448   5.181  0.0335 -0.4111 -0.3447
 1292SOL    HW115338   4.324   4.418   5.250  0.0321 -1.4908 -0.8023
 1292SOL    HW215339   4.310   4.530   5.159  2.6895 -2.1113 -1.2605
 1293SOL     OW15340   2.087   1.719   5.529  0.3622 -0.5320 -0.1660
 1293SOL    HW115341   2.011   1.762   5.568  0.1666  0.0240 -1.1565
 1293SOL    HW215342   2.159   1.733   5.590 -1.7385 -1.9576  2.6459
 1294SOL     OW15343   4.175   4.713   7.674 -0.1349  0.0001 -0.1505
 1294SOL    HW115344   4.131   0.002   7.590 -1.6487  1.4472  0.8510
 1294SOL    HW215345   4.106   4.690   7.737  0.3843  0.3451  0.5489
 1295SOL     OW15346   1.869   4.561  10.868  0.0318 -0.5532 -0.3583
 1295SOL    HW115347   1.955   4.544  10.830 -1.1310 -1.9964 -2.2895
 1295SOL    HW215348   1.868   4.655  10.887 -1.1317 -0.9373  1.5630
 1296SOL     OW15349   3.761   2.962   4.427  0.0869 -0.1777 -0.7073
 1296SOL    HW115350   3.832   2.898   4.424 -0.7296 -1.1464  0.9230
 1296SOL    HW215351   3.682   2.914   4.451 -0.4980  0.3097 -1.6359
 1297SOL     OW15352   1.572   3.561   5.894 -0.9365 -0.5141  0.1077
 1297SOL    HW115353   1.648   3.511   5.862 -1.5000 -1.4218  0.1728
 1297SOL    HW215354   1.524   3.563   5.811 -0.6967  2.0311  0.0294
 1298SOL     OW15355   2.112   2.439   6.535 -0.5358  0.1436  0.1274
 1298SOL    HW115356   2.153   2.360   6.501  1.1684 -0.2753  3.1578
 1298SOL    HW215357   2.070   2.473   6.456 -0.7363  1.1733  0.6770
 1299SOL     OW15358   2.551   2.038   0.488 -0.1523  0.2662  0.4446
 1299SOL    HW115359   2.541   1.988   0.569 -3.8944  0.7391  0.3002
 1299SOL    HW215360   2.577   2.122   0.526 -1.2168 -0.2194  2.2805
 1300SOL     OW15361   2.974   2.060   5.964  0.3422  0.4539  0.0669
 1300SOL    HW115362   3.051   2.034   6.014 -0.1523  1.8898  1.6259
 1300SOL    HW215363   2.962   1.991   5.899 -0.1415 -0.7390  1.3954
 1301SOL     OW15364   3.789   2.201   7.995  0.1766  0.0987  0.5405
 1301SOL    HW115365   3.846   2.262   8.042 -0.3096  1.4143 -0.5672
 1301SOL    HW215366   3.855   2.173   7.932  0.8718  0.1333  1.2491
 1302SOL     OW15367   1.192   1.842   3.473 -0.0229 -0.3000  0.0097
 1302SOL    HW115368   1.205   1.794   3.391  1.9000  0.5942 -0.2135
 1302SOL    HW215369   1.146   1.919   3.438 -0.0896 -0.9522 -1.3397
 1303SOL     OW15370   0.689   3.025   4.883 -0.5920  0.2458  0.5199
 1303SOL    HW115371   0.762   3.047   4.824 -0.3070  1.5056  1.3292
 1303SOL    HW215372   0.738   2.977   4.950  1.1979  1.2135 -0.0821
 1304SOL     OW15373   4.684   3.650   5.722  0.0948  0.2024 -0.0898
 1304SOL    HW115374   4.653   3.703   5.796  0.7913  0.2916  0.1360
 1304SOL    HW215375   0.051   3.678   5.713 -0.5225  1.9027 -1.1251
 1305SOL     OW15376   1.866   2.267  10.567  0.2383 -0.0338 -0.2654
 1305SOL    HW115377   1.845   2.361  10.563  1.0919  0.1797  0.4547
 1305SOL    HW215378   1.900   2.251  10.655  0.1216  2.5502  0.2574
 1306SOL     OW15379   2.509   1.631   9.226  0.2689  0.0145 -0.2734
 1306SOL    HW115380   2.516   1.604   9.134 -0.5750  1.4020 -0.7420
 1306SOL    HW215381   2.574   1.699   9.243  0.2129 -0.0049  0.0067
 1307SOL     OW15382   0.923   1.385   7.114  0.3012  0.0813 -0.2261
 1307SOL    HW115383   0.915   1.477   7.088  1.3399  0.4535  0.7960
 1307SOL    HW215384   1.003   1.386   7.167 -0.6204  0.5197  1.1590
 1308SOL     OW15385   0.286   0.455   4.778 -0.5340  0.2305 -0.0922
 1308SOL    HW115386   0.235   0.516   4.725 -2.1226 -0.0611  1.1056
 1308SOL    HW215387   0.221   0.387   4.793 -0.4315 -0.2588 -1.9408
 1309SOL     OW15388   3.085   2.621   7.476 -0.0247  0.0394  0.8074
 1309SOL    HW115389   3.021   2.601   7.407  1.4455  0.0202 -0.5699
 1309SOL    HW215390   3.143   2.674   7.421  1.3874 -0.6799  1.6124
 1310SOL     OW15391   0.816   0.085   8.941  0.1691  0.2236 -0.1211
 1310SOL    HW115392   0.754   0.078   9.014 -0.7148 -1.5557 -1.0395
 1310SOL    HW215393   0.882   0.147   8.971  1.4944 -0.0410 -2.4436
 1311SOL     OW15394   1.248   3.147   2.322 -0.2512 -1.2497 -0.1940
 1311SOL    HW115395   1.255   3.056   2.352 -0.2541 -1.3520 -0.5097
 1311SOL    HW215396   1.293   3.198   2.389 -2.0248 -0.7463  0.6295
 1312SOL     OW15397   2.153   1.166   3.326 -0.3634 -0.0031  0.8290
 1312SOL    HW115398   2.090   1.117   3.273 -0.1251 -0.5222  1.0311
 1312SOL    HW215399   2.195   1.096   3.375  1.0694  0.6548  0.5489
 1313SOL     OW15400   4.071   3.651  17.678 -0.7959 -0.3215  0.0382
 1313SOL    HW115401   4.166   3.654  17.677 -0.7224 -2.7353 -0.6643
 1313SOL    HW215402   4.052   3.663   0.076  1.5069  0.4033  0.4052
 1314SOL     OW15403   1.163   2.100  15.406  0.0105  0.0226  0.4491
 1314SOL    HW115404   1.155   2.192  15.431 -2.3298 -0.3811  1.2004
 1314SOL    HW215405   1.169   2.112  15.311 -0.6907 -2.2481  0.1166
 1315SOL     OW15406   3.838   4.311   2.595 -0.1491  0.6894 -0.2672
 1315SOL    HW115407   3.841   4.264   2.512  1.3913 -1.8348  1.2216
 1315SOL    HW215408   3.771   4.377   2.577  0.8181  1.3591 -1.4587
 1316SOL     OW15409   2.282   1.499   0.239  0.1211  0.0541  0.4576
 1316SOL    HW115410   2.314   1.496   0.149 -0.2436 -0.0325  0.3340
 1316SOL    HW215411   2.288   1.594   0.249 -2.3131  0.4082 -1.6718
 1317SOL     OW15412   2.331   1.246   8.555  0.3582  0.0447 -0.1305
 1317SOL    HW115413   2.380   1.252   8.637  0.7128 -2.1849 -0.1796
 1317SOL    HW215414   2.392   1.291   8.497 -0.5383  0.1778 -0.9721
 1318SOL     OW15415   1.726   1.600  16.291 -0.2616  0.0531 -1.2389
 1318SOL    HW115416   1.725   1.628  16.383 -0.2119 -2.7287 -0.3786
 1318SOL    HW215417   1.659   1.533  16.281  1.2479 -1.6040 -0.2086
 1319SOL     OW15418   0.386   0.918   6.834 -0.7086  0.0354  0.0461
 1319SOL    HW115419   0.323   0.846   6.831 -0.5907 -0.1108  1.3710
 1319SOL    HW215420   0.355   0.965   6.757 -2.4627 -3.6040 -1.4711
 1320SOL     OW15421   4.179   1.575   6.624  0.3234  0.1995  0.5300
 1320SOL    HW115422   4.138   1.602   6.542 -2.5747 -2.5273  1.0807
 1320SOL    HW215423   4.104   1.584   6.683 -0.4302  1.8293 -0.6526
 1321SOL     OW15424   3.070   2.499   2.007  0.2531  0.4918 -0.4785
 1321SOL    HW115425   2.990   2.447   1.994 -0.9848  2.0466  0.8977
 1321SOL    HW215426   3.090   2.532   1.920  0.4040 -0.2466 -0.7239
 1322SOL     OW15427   4.623   1.928  15.722  0.1208 -0.4089  0.4147
 1322SOL    HW115428   4.649   2.002  15.776  3.2201 -0.6967 -0.6502
 1322SOL    HW215429   4.670   1.949  15.641 -1.8823 -0.4973 -0.7566
 1323SOL     OW15430   1.355   3.294   7.535  0.0761  0.2957 -0.3882
 1323SOL    HW115431   1.340   3.219   7.477 -1.0738  1.5954 -1.7536
 1323SOL    HW215432   1.327   3.247   7.614  0.0017 -2.1199 -1.8524
 1324SOL     OW15433   1.470   2.375  11.865  0.5794  0.2037  0.0002
 1324SOL    HW115434   1.445   2.294  11.819  1.0819  1.7512 -2.9991
 1324SOL    HW215435   1.386   2.413  11.889 -0.1291 -1.4470  0.1791
 1325SOL     OW15436   1.790   3.510   3.409  0.0623  0.1210  0.5213
 1325SOL    HW115437   1.850   3.440   3.382 -1.7466 -1.7124  1.2614
 1325SOL    HW215438   1.788   3.549   3.322 -0.1001 -1.5514 -0.2299
 1326SOL     OW15439   0.900   4.081   0.696  0.4292  0.2953  0.2172
 1326SOL    HW115440   0.982   4.033   0.683  0.7678  0.5839  1.2606
 1326SOL    HW215441   0.925   4.130   0.774 -0.9024 -0.5617  1.1875
 1327SOL     OW15442   2.462   0.767   3.047  0.1335 -0.0022  0.4496
 1327SOL    HW115443   2.419   0.804   3.124  1.0919  2.9637 -0.4497
 1327SOL    HW215444   2.454   0.672   3.052 -2.4198  0.0873 -2.5734
 1328SOL     OW15445   0.589   1.755   7.945  0.5861 -0.7299  0.1645
 1328SOL    HW115446   0.670   1.792   7.908 -0.8666  1.9166 -0.3388
 1328SOL    HW215447   0.601   1.794   8.031  0.8241 -1.9922  0.6975
 1329SOL     OW15448   2.538   3.413  16.154  0.2021 -0.3344  0.6386
 1329SOL    HW115449   2.465   3.420  16.093  0.5364  1.4324  0.4416
 1329SOL    HW215450   2.600   3.478  16.121  1.1208 -1.1567  0.7223
 1330SOL     OW15451   0.234   4.101   8.220 -0.3080  0.1727  0.1470
 1330SOL    HW115452   0.317   4.082   8.176 -0.1052  0.7658  0.2766
 1330SOL    HW215453   0.273   4.091   8.307 -0.3048 -0.1268  0.1110
 1331SOL     OW15454   3.899   1.318  12.533  0.5317 -0.3817  0.1095
 1331SOL    HW115455   3.928   1.360  12.452  0.4435  0.2862  0.4311
 1331SOL    HW215456   3.819   1.279  12.497 -1.3189  1.1621  2.5981
 1332SOL     OW15457   1.648   1.276   6.344 -0.0531  0.8180 -0.1922
 1332SOL    HW115458   1.561   1.276   6.304 -0.0570  1.3558 -0.1737
 1332SOL    HW215459   1.634   1.342   6.411 -0.7350 -0.4594  0.9343
 1333SOL     OW15460   0.353   4.705   3.872  0.8701 -0.7748  0.1359
 1333SOL    HW115461   0.381   0.018   3.956 -0.1696 -1.6832  0.8829
 1333SOL    HW215462   0.416   0.029   3.819  0.9873 -3.0820 -1.8127
 1334SOL     OW15463   2.980   3.411   4.321 -0.0041  0.0745 -0.1530
 1334SOL    HW115464   3.074   3.400   4.308 -0.0222 -0.1810 -0.0529
 1334SOL    HW215465   2.974   3.433   4.414 -0.0894 -0.0293 -0.1346
 1335SOL     OW15466   3.690   1.908   4.823  0.0491 -0.0911  0.3519
 1335SOL    HW115467   3.642   1.991   4.817 -1.8819 -1.3078 -0.6922
 1335SOL    HW215468   3.636   1.860   4.761  0.0307 -0.0499  0.3359
 1336SOL     OW15469   2.237   1.354   3.152  0.0850 -0.0689 -0.7217
 1336SOL    HW115470   2.175   1.302   3.204 -1.8007  1.2451 -1.6352
 1336SOL    HW215471   2.278   1.281   3.105  0.4647 -1.6969  2.1669
 1337SOL     OW15472   2.394   4.349  16.890 -0.2156  0.0655  0.4257
 1337SOL    HW115473   2.469   4.344  16.950  0.3962 -0.0779 -0.3365
 1337SOL    HW215474   2.429   4.401  16.818 -1.8838  1.7136  0.8296
 1338SOL     OW15475   4.104   0.863   0.608  0.2389  0.5520  0.4353
 1338SOL    HW115476   4.054   0.937   0.643  0.2699  0.1853  1.2585
 1338SOL    HW215477   4.030   0.810   0.579  0.1850  0.2157  1.1811
 1339SOL     OW15478   2.889   2.797   0.831 -0.0575 -0.1599 -0.1680
 1339SOL    HW115479   2.840   2.822   0.909  0.6574 -0.2755  0.3150
 1339SOL    HW215480   2.825   2.740   0.789 -0.1734  1.5483 -2.3219
 1340SOL     OW15481   2.484   4.137  15.811  0.4881 -0.2417  0.2380
 1340SOL    HW115482   2.419   4.183  15.864 -1.8700 -2.3639 -0.8184
 1340SOL    HW215483   2.476   4.183  15.727 -0.0206 -0.9091 -0.0752
 1341SOL     OW15484   4.536   0.045  15.658  0.0789 -0.3168 -0.3133
 1341SOL    HW115485   4.586   0.107  15.606 -0.8877  0.1993 -0.6365
 1341SOL    HW215486   4.446   0.074  15.643  0.6652  1.9747  0.6249
 1342SOL     OW15487   2.325   1.106   9.330  0.0912  0.2195  0.6179
 1342SOL    HW115488   2.375   1.039   9.376 -0.9301 -1.2121 -0.3690
 1342SOL    HW215489   2.244   1.100   9.381 -1.0704  0.7305 -1.1576
 1343SOL     OW15490   3.114   0.945   0.028  0.1138  0.2768  0.3405
 1343SOL    HW115491   3.069   1.016   0.071  0.8792  0.6952  0.4527
 1343SOL    HW215492   3.132   0.878   0.094  1.6360 -0.8162 -1.1662
 1344SOL     OW15493   0.424   0.675   7.119  0.5084 -0.0863  0.2211
 1344SOL    HW115494   0.332   0.695   7.137  0.2450 -0.8211 -0.2984
 1344SOL    HW215495   0.455   0.637   7.200 -0.9524  0.9846  1.2920
 1345SOL     OW15496   2.889   0.797   7.404  0.4656 -0.0811 -0.1397
 1345SOL    HW115497   2.811   0.796   7.460  1.7018  0.6326  1.5730
 1345SOL    HW215498   2.955   0.791   7.473  0.3764  0.3414 -0.0183
 1346SOL     OW15499   0.531   4.269  10.178 -0.1737 -0.6846  0.0324
 1346SOL    HW115500   0.467   4.236  10.241 -0.1373 -1.8012 -0.5229
 1346SOL    HW215501   0.478   4.275  10.099  0.6557  1.2393 -0.3794
 1347SOL     OW15502   3.274   1.527  10.713  0.0123  0.0696 -0.5040
 1347SOL    HW115503   3.232   1.455  10.760 -0.4487 -0.2582 -1.4223
 1347SOL    HW215504   3.237   1.604  10.756  1.9084  0.2968  0.7211
 1348SOL     OW15505   1.630   1.144  10.017  0.0419  0.0447  0.4666
 1348SOL    HW115506   1.627   1.153  10.112 -0.7785 -0.2697  0.4723
 1348SOL    HW215507   1.635   1.237   9.995  2.6568 -0.2648 -0.2411
 1349SOL     OW15508   3.623   3.559   1.979  0.1187 -0.0826 -0.2603
 1349SOL    HW115509   3.631   3.479   1.927  0.5953 -1.3398  1.7532
 1349SOL    HW215510   3.528   3.569   1.987  0.1559 -0.6362  0.8213
 1350SOL     OW15511   0.276   1.570  17.536  0.1958 -0.9911  0.3286
 1350SOL    HW115512   0.232   1.561  17.451  0.1265  0.3369  0.2164
 1350SOL    HW215513   0.217   1.523  17.595  0.2877  1.3228  2.2739
 1351SOL     OW15514   4.651   2.817   5.532  0.0852  0.3507 -0.6078
 1351SOL    HW115515   4.626   2.884   5.469 -1.3165  1.0275  0.6653
 1351SOL    HW215516   0.009   2.856   5.563 -0.3570  0.6497  0.1801
 1352SOL     OW15517   3.464   0.855   2.105 -0.5078 -0.5326 -0.0851
 1352SOL    HW115518   3.550   0.886   2.134 -1.4699  0.7736  1.3790
 1352SOL    HW215519   3.419   0.937   2.083 -1.3338 -0.4605  1.8097
 1353SOL     OW15520   1.502   2.927   6.480  0.0199  0.4612  0.2095
 1353SOL    HW115521   1.592   2.903   6.501 -0.6740 -1.0147  1.4801
 1353SOL    HW215522   1.514   2.979   6.400  1.3066 -0.3807 -0.1369
 1354SOL     OW15523   1.187   1.338   0.868 -0.2083 -0.1015 -0.6281
 1354SOL    HW115524   1.231   1.421   0.851  0.9181  0.1731  3.6567
 1354SOL    HW215525   1.221   1.309   0.953 -2.3799 -1.9870 -0.3741
 1355SOL     OW15526   0.100   0.216   3.260  0.1644  0.0694  0.0517
 1355SOL    HW115527   0.105   0.203   3.355 -0.5264 -0.1646  0.0550
 1355SOL    HW215528   0.013   0.178   3.255  1.0442 -1.6437 -1.9733
 1356SOL     OW15529   2.670   4.645   6.693  0.6330  0.0193  0.1487
 1356SOL    HW115530   2.712   4.665   6.776  2.1456 -1.3738 -0.2886
 1356SOL    HW215531   2.701   4.721   6.644  0.6018 -0.3162 -0.3978
 1357SOL     OW15532   0.863   4.331  15.854 -0.0938  0.3935 -0.2507
 1357SOL    HW115533   0.813   4.388  15.912 -1.8125 -0.1682 -1.1690
 1357SOL    HW215534   0.954   4.343  15.881  0.4919  1.3259 -2.6534
 1358SOL     OW15535   2.272   2.489   2.374 -0.3023  0.3928 -0.5219
 1358SOL    HW115536   2.302   2.408   2.332 -0.7005 -0.1229  0.1899
 1358SOL    HW215537   2.184   2.495   2.337 -0.8492  0.8640  0.8237
 1359SOL     OW15538   4.526   2.858  12.487 -0.1925  0.0625  0.1815
 1359SOL    HW115539   4.515   2.878  12.579  0.6053  0.9490  0.0788
 1359SOL    HW215540   4.460   2.790  12.471  0.9890 -0.8942 -0.6999
 1360SOL     OW15541   1.273   4.305   2.172  0.7389  0.5107 -0.3704
 1360SOL    HW115542   1.229   4.390   2.164 -3.7817 -1.9094 -1.2953
 1360SOL    HW215543   1.238   4.286   2.260  1.6735  0.7029  0.0357
 1361SOL     OW15544   2.754   3.593   4.264  0.2114 -0.1370  0.6164
 1361SOL    HW115545   2.703   3.550   4.332 -1.4860  0.0571 -0.5291
 1361SOL    HW215546   2.832   3.537   4.261 -0.5701 -1.1370 -1.6195
 1362SOL     OW15547   3.725   1.893   7.194  0.8450 -0.2440  0.2444
 1362SOL    HW115548   3.684   1.905   7.109 -0.3266 -0.9878  0.7081
 1362SOL    HW215549   3.730   1.798   7.204 -0.0702 -0.3307 -0.1455
 1363SOL     OW15550   3.181   3.109  13.245  0.2126 -0.0489 -0.1823
 1363SOL    HW115551   3.115   3.083  13.308 -1.3191 -1.6021 -2.4186
 1363SOL    HW215552   3.194   3.203  13.258  0.7644 -0.1878  0.2550
 1364SOL     OW15553   0.934   4.506   5.600  0.0955  0.6257  0.3242
 1364SOL    HW115554   0.965   4.550   5.521 -1.6449  1.4277  0.0840
 1364SOL    HW215555   0.929   4.585   5.655 -1.9218  0.3782  0.4809
 1365SOL     OW15556   3.239   1.464   4.105 -0.2483 -0.1610 -0.2289
 1365SOL    HW115557   3.179   1.503   4.042 -1.2898 -1.9827 -0.3550
 1365SOL    HW215558   3.194   1.450   4.188 -0.2486  0.3386 -0.1476
 1366SOL     OW15559   2.416   2.368   6.721 -0.8114  0.5023  0.0982
 1366SOL    HW115560   2.432   2.352   6.814 -1.6447  0.5481  0.2489
 1366SOL    HW215561   2.460   2.453   6.710  0.7464 -0.2966  0.1968
 1367SOL     OW15562   2.577   0.543   5.442  0.4527  0.8037 -0.3147
 1367SOL    HW115563   2.555   0.467   5.389  2.2324 -0.8117  1.2665
 1367SOL    HW215564   2.667   0.522   5.465  0.0674 -0.8738 -0.3594
 1368SOL     OW15565   3.446   0.775  14.660 -0.2120 -0.0755  0.5594
 1368SOL    HW115566   3.521   0.835  14.659  0.4553 -0.9000  1.1373
 1368SOL    HW215567   3.469   0.725  14.739  1.4537 -0.5253 -0.2218
 1369SOL     OW15568   4.197   2.074   2.189  0.6266 -0.6440 -0.0982
 1369SOL    HW115569   4.184   1.990   2.144  2.7909 -0.3426 -1.2787
 1369SOL    HW215570   4.121   2.125   2.161  0.3287  0.0109  1.8939
 1370SOL     OW15571   3.697   0.549   3.069 -0.3534 -0.4079  0.4817
 1370SOL    HW115572   3.781   0.518   3.037 -0.6146 -0.1968 -0.4204
 1370SOL    HW215573   3.662   0.602   2.997  1.4837 -2.1419 -1.6700
 1371SOL     OW15574   3.410   0.393   5.049 -0.4395  0.5745  0.5130
 1371SOL    HW115575   3.411   0.479   5.008 -3.0885 -0.1411 -1.0473
 1371SOL    HW215576   3.316   0.379   5.045 -0.1814 -0.4305 -2.4972
 1372SOL     OW15577   1.340   0.672  14.474 -0.6261 -0.2649  0.3506
 1372SOL    HW115578   1.349   0.763  14.446  0.0940  0.0149  1.5212
 1372SOL    HW215579   1.372   0.634  14.392  0.3050 -0.8160  0.9657
 1373SOL     OW15580   3.121   3.186  15.334  0.0797 -0.1423 -0.1899
 1373SOL    HW115581   3.183   3.135  15.282  0.7332 -1.2775  1.6700
 1373SOL    HW215582   3.059   3.222  15.272  0.2665  1.3163  0.4871
 1374SOL     OW15583   4.090   2.306   4.335  0.5123  0.0965 -0.3080
 1374SOL    HW115584   4.086   2.273   4.246 -1.3939  0.0622 -0.2111
 1374SOL    HW215585   3.997   2.304   4.356  0.5606  0.9151  0.0010
 1375SOL     OW15586   1.569   1.924   6.740 -0.6106 -0.6935 -0.0498
 1375SOL    HW115587   1.614   1.950   6.659 -0.0439 -2.1443 -0.1937
 1375SOL    HW215588   1.640   1.945   6.801  0.4231  0.9126 -1.7930
 1376SOL     OW15589   2.133   0.919   8.069  1.0509 -0.0044  0.3812
 1376SOL    HW115590   2.210   0.865   8.049 -0.9555 -2.9410  0.5714
 1376SOL    HW215591   2.099   0.869   8.143 -1.2549  0.7044 -0.1920
 1377SOL     OW15592   1.323   3.039  17.579  0.4338  0.4391  0.3126
 1377SOL    HW115593   1.354   2.948  17.578 -0.3230  0.1895 -1.7169
 1377SOL    HW215594   1.228   3.031  17.568  0.4722  0.1918  0.1642
 1378SOL     OW15595   4.470   0.878  12.597  0.2192 -0.6254 -0.0055
 1378SOL    HW115596   4.412   0.831  12.537  0.5630 -1.6459  0.4739
 1378SOL    HW215597   4.505   0.944  12.537 -1.0205  1.6360  1.7199
 1379SOL     OW15598   3.193   3.018   2.975  0.2535  0.0372  0.0630
 1379SOL    HW115599   3.114   3.001   2.924 -0.4407  1.3988  0.6642
 1379SOL    HW215600   3.225   2.930   2.991  0.9133  0.4086  0.7634
 1380SOL     OW15601   0.694   0.458   4.185 -0.0008 -0.4269 -0.0542
 1380SOL    HW115602   0.752   0.532   4.168  0.4402 -1.3468 -2.5761
 1380SOL    HW215603   0.637   0.505   4.245 -0.6833  0.0423 -1.0619
 1381SOL     OW15604   4.424   0.228   5.724  0.1333 -0.3761 -0.0758
 1381SOL    HW115605   4.358   0.166   5.755 -2.2871  2.4697  0.5098
 1381SOL    HW215606   4.367   0.293   5.683 -0.1774  0.0806  1.0658
 1382SOL     OW15607   0.211   2.597   5.250 -0.8484 -0.2084 -0.4897
 1382SOL    HW115608   0.151   2.631   5.183 -0.4243  2.4973  0.5171
 1382SOL    HW215609   0.210   2.679   5.299  1.5441 -0.5339  0.0581
 1383SOL     OW15610   0.695   2.697   4.713 -0.1895 -0.3752 -0.0315
 1383SOL    HW115611   0.787   2.708   4.688 -0.2241 -0.6731 -0.2870
 1383SOL    HW215612   0.676   2.604   4.707 -1.1060 -0.2412  0.8291
 1384SOL     OW15613   1.635   3.760  14.297 -0.6016  0.0555 -0.0193
 1384SOL    HW115614   1.680   3.691  14.248 -1.9362 -1.4362  0.8692
 1384SOL    HW215615   1.714   3.810  14.318  0.3930 -0.0401 -3.4155
 1385SOL     OW15616   3.037   0.488  17.120  0.2408  0.0076 -0.2015
 1385SOL    HW115617   3.025   0.559  17.183 -0.1420  3.0609 -3.7331
 1385SOL    HW215618   3.099   0.434  17.170  1.8136 -0.6674 -2.8634
 1386SOL     OW15619   1.348   2.762  15.500 -0.1964 -0.2292 -0.2906
 1386SOL    HW115620   1.339   2.704  15.576  1.7515 -0.9552 -0.6241
 1386SOL    HW215621   1.398   2.837  15.531  0.3498 -1.2834  1.3737
 1387SOL     OW15622   2.831   1.016   3.466  0.4352  0.2353 -0.0698
 1387SOL    HW115623   2.852   0.964   3.544  0.4339  1.6564  0.8823
 1387SOL    HW215624   2.824   1.101   3.510  0.2736  0.4864 -0.5896
 1388SOL     OW15625   0.924   1.624  16.048 -0.9187  0.2048 -0.2819
 1388SOL    HW115626   0.961   1.609  16.134 -0.6018 -1.9396 -0.8021
 1388SOL    HW215627   0.851   1.563  16.041 -0.7590 -0.0281  0.0848
 1389SOL     OW15628   2.857   3.246   2.710 -0.3055 -0.2804 -0.1368
 1389SOL    HW115629   2.861   3.342   2.710  1.0067 -0.3519 -1.4622
 1389SOL    HW215630   2.884   3.223   2.799 -0.0379 -0.4307 -0.2577
 1390SOL     OW15631   0.840   1.128   2.440 -0.3034  0.4547  0.0733
 1390SOL    HW115632   0.861   1.069   2.512 -0.9857 -1.8079 -1.5684
 1390SOL    HW215633   0.776   1.082   2.386 -0.3896 -1.0470  1.4794
 1391SOL     OW15634   0.023   3.862   4.201 -0.3136 -0.1197 -0.5557
 1391SOL    HW115635   0.003   3.885   4.291  1.4013 -0.3862 -0.1185
 1391SOL    HW215636   4.660   3.827   4.175 -0.5522  0.0083  0.0715
 1392SOL     OW15637   1.193   2.501  16.913  0.1546 -0.1926 -0.3232
 1392SOL    HW115638   1.122   2.464  16.965  0.1902  1.0439  0.5914
 1392SOL    HW215639   1.264   2.479  16.973  0.4972 -0.2036 -0.7320
 1393SOL     OW15640   1.630   3.250   8.187  0.1751  0.5734  0.2622
 1393SOL    HW115641   1.574   3.230   8.262  0.2618 -0.5377  0.0237
 1393SOL    HW215642   1.575   3.231   8.111  0.7759  0.2617 -0.0945
 1394SOL     OW15643   1.527   0.732   8.570 -0.4181 -0.2219  0.5068
 1394SOL    HW115644   1.619   0.746   8.592 -0.3284  2.2686 -1.4107
 1394SOL    HW215645   1.538   0.637   8.571 -0.4554 -0.2411 -1.2925
 1395SOL     OW15646   4.327   0.287   6.679 -1.0215 -0.0308 -0.0939
 1395SOL    HW115647   4.290   0.307   6.765 -1.2421 -1.6134  0.1822
 1395SOL    HW215648   4.419   0.303   6.699 -0.8260 -1.1798 -0.0641
 1396SOL     OW15649   2.806   2.279   5.231 -0.2301  0.2843  0.9279
 1396SOL    HW115650   2.838   2.366   5.207 -2.4707  0.0825 -2.8827
 1396SOL    HW215651   2.851   2.282   5.315 -0.8582  1.2269  1.2305
 1397SOL     OW15652   4.678   3.432   8.869 -0.6906  0.0298  0.3091
 1397SOL    HW115653   4.587   3.452   8.851 -0.5653 -0.9608 -1.5365
 1397SOL    HW215654   4.710   3.521   8.881 -2.4588  0.5950  0.6926
 1398SOL     OW15655   1.814   0.404  15.079  0.9798 -0.1494 -0.3199
 1398SOL    HW115656   1.881   0.347  15.043 -0.9278 -2.9871  0.6714
 1398SOL    HW215657   1.799   0.471  15.012 -0.9364 -0.9262 -0.6633
 1399SOL     OW15658   2.209   0.550   2.169 -0.2080  0.2889  0.0279
 1399SOL    HW115659   2.180   0.563   2.260 -1.7258  0.7266 -0.5080
 1399SOL    HW215660   2.248   0.463   2.176  1.9962  1.3037  0.1368
 1400SOL     OW15661   3.010   3.185   5.093  0.0377 -1.0109  0.6125
 1400SOL    HW115662   3.075   3.135   5.044  0.8170  2.3368 -1.8309
 1400SOL    HW215663   3.004   3.134   5.174  1.3342 -1.5681  0.3580
 1401SOL     OW15664   3.108   0.138   1.931  0.4814 -0.1625  0.0993
 1401SOL    HW115665   3.055   0.168   2.005  0.8804 -0.6667  0.5954
 1401SOL    HW215666   3.051   0.084   1.877  2.6294 -2.1381 -0.2084
 1402SOL     OW15667   2.231   2.133   4.156  0.5717 -0.0353  0.0783
 1402SOL    HW115668   2.194   2.077   4.224 -1.0127  0.4620 -0.3750
 1402SOL    HW215669   2.264   2.073   4.089 -0.3196 -0.4045 -0.0256
 1403SOL     OW15670   4.535   3.836   8.740  0.3568 -0.1367 -0.0577
 1403SOL    HW115671   4.447   3.872   8.741  0.4779  0.2118 -1.1500
 1403SOL    HW215672   4.587   3.916   8.741 -0.2128  0.2185  0.9643
 1404SOL     OW15673   3.352   2.643  11.401 -0.2109 -0.0154  0.5268
 1404SOL    HW115674   3.431   2.638  11.346 -0.7402  2.6930 -0.4691
 1404SOL    HW215675   3.380   2.687  11.481 -0.8608  1.4148 -0.0371
 1405SOL     OW15676   3.394   1.282   0.675 -0.1120 -0.5457 -0.2953
 1405SOL    HW115677   3.443   1.203   0.652  1.9407  0.2372  1.3279
 1405SOL    HW215678   3.359   1.312   0.591  0.2659 -0.6376 -0.4861
 1406SOL     OW15679   4.345   3.602   3.132  0.3081 -0.0609 -0.0840
 1406SOL    HW115680   4.372   3.580   3.043  0.1748 -0.7450  0.0405
 1406SOL    HW215681   4.269   3.544   3.142  1.5257 -1.3676  1.6996
 1407SOL     OW15682   2.948   1.803  13.831  0.0294  0.3629  0.9349
 1407SOL    HW115683   2.999   1.727  13.858 -0.1084  0.6448  1.9746
 1407SOL    HW215684   3.013   1.869  13.808 -1.2203  0.8006 -1.2939
 1408SOL     OW15685   3.206   2.479   0.887  0.1280  0.3448 -0.6325
 1408SOL    HW115686   3.207   2.568   0.851 -0.8157  1.0231  0.9823
 1408SOL    HW215687   3.136   2.493   0.951 -1.2141 -1.2763 -1.7254
 1409SOL     OW15688   1.389   2.605   5.889  0.5098 -0.0902 -0.0362
 1409SOL    HW115689   1.381   2.687   5.840 -0.9748 -0.7084 -0.8355
 1409SOL    HW215690   1.398   2.635   5.979  1.6636 -0.5630  0.0109
 1410SOL     OW15691   2.433   4.354   5.944 -0.1434 -0.0105  0.0936
 1410SOL    HW115692   2.390   4.290   6.001  2.7977 -0.1460  2.1522
 1410SOL    HW215693   2.361   4.416   5.932  0.7540  1.3079  1.5372
 1411SOL     OW15694   1.212   0.256   6.289  0.0285 -1.1080  0.3770
 1411SOL    HW115695   1.190   0.165   6.309 -0.3231 -0.9078  0.8863
 1411SOL    HW215696   1.124   0.291   6.275 -0.4503 -2.6209 -0.3525
 1412SOL     OW15697   1.935   2.107   1.205  0.1262 -0.3326  0.5787
 1412SOL    HW115698   1.994   2.172   1.243  1.9461 -1.2699 -0.6178
 1412SOL    HW215699   1.909   2.061   1.285 -1.4222  1.3808  1.0610
 1413SOL     OW15700   1.140   2.629   4.996 -0.2827  0.2852  0.2095
 1413SOL    HW115701   1.077   2.566   5.032 -2.1985  1.6870 -0.6410
 1413SOL    HW215702   1.219   2.617   5.048  0.0694  0.5519 -0.2654
 1414SOL     OW15703   0.729   2.979   8.127  0.4944  0.7443  0.4662
 1414SOL    HW115704   0.696   2.889   8.122  1.2771  0.4919 -0.2068
 1414SOL    HW215705   0.650   3.032   8.125 -0.3503 -0.4850  0.9799
 1415SOL     OW15706   2.096   2.042   1.915  0.0450 -0.0039 -0.0160
 1415SOL    HW115707   2.030   1.977   1.892 -0.4744  0.3299  0.5352
 1415SOL    HW215708   2.156   1.991   1.969 -0.0919  0.1622  0.2900
 1416SOL     OW15709   2.492   1.589  14.821 -0.0214 -0.1334 -0.0153
 1416SOL    HW115710   2.472   1.495  14.815 -1.9748  0.2507  0.6270
 1416SOL    HW215711   2.556   1.611  14.753 -1.9910 -0.4905 -1.9947
 1417SOL     OW15712   2.218   0.065   3.144  0.2377  0.1924  0.1025
 1417SOL    HW115713   2.173   0.132   3.091 -0.2499  0.9344  1.4491
 1417SOL    HW215714   2.230   0.118   3.223  0.3855 -1.0900  0.9242
 1418SOL     OW15715   3.635   4.152  16.379 -0.1192 -0.1545 -0.5762
 1418SOL    HW115716   3.696   4.211  16.335 -0.4544 -0.6992 -1.7686
 1418SOL    HW215717   3.550   4.185  16.349  0.5703  0.6889 -1.5950
 1419SOL     OW15718   2.670   3.079   1.901 -0.2337 -0.1231  0.2429
 1419SOL    HW115719   2.722   3.160   1.905 -1.3506  0.6369 -0.5985
 1419SOL    HW215720   2.607   3.098   1.831  0.2745  1.3272  0.1711
 1420SOL     OW15721   3.729   3.313  11.087 -0.2610 -0.2794  0.0586
 1420SOL    HW115722   3.639   3.291  11.108  0.4609 -0.3589  3.0978
 1420SOL    HW215723   3.762   3.352  11.168 -0.3544 -1.1896  0.5240
 1421SOL     OW15724   3.214   2.250   2.957 -0.1508 -0.0649  0.0839
 1421SOL    HW115725   3.236   2.218   2.870 -1.8705 -0.6431 -0.1317
 1421SOL    HW215726   3.126   2.217   2.978  0.1270 -0.5420  0.5212
 1422SOL     OW15727   3.965   0.990   2.853 -0.1607 -0.1619  0.1244
 1422SOL    HW115728   3.946   1.083   2.863 -0.6061 -0.4615  1.9790
 1422SOL    HW215729   4.011   0.996   2.769 -0.4436  3.1798  0.2001
 1423SOL     OW15730   3.164   1.062   5.637  0.3802  0.1641 -0.3206
 1423SOL    HW115731   3.258   1.057   5.621  0.6210  1.3914  0.7061
 1423SOL    HW215732   3.128   1.092   5.553 -1.0717  0.1102  0.2945
 1424SOL     OW15733   3.769   1.322   6.982  0.1214 -0.1183 -0.1919
 1424SOL    HW115734   3.774   1.227   6.995  0.7416  0.0964  1.1427
 1424SOL    HW215735   3.768   1.314   6.887 -1.5686 -0.1615 -0.1677
 1425SOL     OW15736   1.183   3.013   9.562 -0.0035 -0.4663 -0.1863
 1425SOL    HW115737   1.223   3.028   9.477 -2.4283 -0.6976 -1.3785
 1425SOL    HW215738   1.248   3.046   9.624 -0.9789  1.8199 -0.3624
 1426SOL     OW15739   1.912   1.755   6.280  0.1654  1.1170  0.0651
 1426SOL    HW115740   1.829   1.799   6.263 -0.0695  0.0096 -1.6098
 1426SOL    HW215741   1.922   1.760   6.375  1.5688  1.0137 -0.0702
 1427SOL     OW15742   3.475   4.688   4.737 -0.2594  0.6629 -0.0183
 1427SOL    HW115743   3.478   4.628   4.812 -0.4178  2.8535  1.7448
 1427SOL    HW215744   3.536   4.644   4.678 -3.0943 -1.0502 -1.6657
 1428SOL     OW15745   4.449   2.658   8.780 -0.4927 -0.2319 -0.1653
 1428SOL    HW115746   4.424   2.637   8.870 -1.5267  1.7058  0.0173
 1428SOL    HW215747   4.418   2.574   8.748  1.2584 -0.9659  0.0999
 1429SOL     OW15748   0.561   1.209   9.933 -0.9625 -0.1541 -0.4396
 1429SOL    HW115749   0.517   1.127   9.910 -1.9284  0.3298 -0.3014
 1429SOL    HW215750   0.631   1.186   9.994 -1.0220 -1.1497 -0.7450
 1430SOL     OW15751   0.148   3.854  12.954 -0.3296  0.0569 -1.0578
 1430SOL    HW115752   0.141   3.867  12.859 -1.4868 -0.1544 -1.0116
 1430SOL    HW215753   0.075   3.792  12.962 -0.2137  0.0165 -0.3196
 1431SOL     OW15754   0.623   0.770   6.039  0.8280  0.3206  0.1797
 1431SOL    HW115755   0.565   0.711   5.993 -0.6838  0.9420  1.2933
 1431SOL    HW215756   0.646   0.722   6.118  2.1549  0.0169 -0.3920
 1432SOL     OW15757   0.728   2.205   7.624  0.1997  0.3620  0.8593
 1432SOL    HW115758   0.657   2.206   7.688  1.7156  1.2809  2.5428
 1432SOL    HW215759   0.689   2.249   7.549  1.3359  0.9221  0.5987
 1433SOL     OW15760   4.087   2.728   8.598  0.5278  0.1486 -0.7346
 1433SOL    HW115761   4.105   2.768   8.682 -2.5853 -2.7838  1.3319
 1433SOL    HW215762   4.064   2.810   8.553  0.6635  0.5965  0.0253
 1434SOL     OW15763   3.096   0.464  16.246  0.0494 -0.1479 -0.2000
 1434SOL    HW115764   3.130   0.444  16.334  0.9844  0.2691 -0.4601
 1434SOL    HW215765   3.010   0.426  16.260 -0.5314  1.6464  1.1103
 1435SOL     OW15766   4.700   4.388  15.938 -0.1241 -0.1158 -0.2461
 1435SOL    HW115767   0.066   4.368  15.965  0.2261  0.1793 -1.1809
 1435SOL    HW215768   4.658   4.325  15.997 -0.9884  0.7461  0.0607
 1436SOL     OW15769   4.510   3.378  11.430 -0.3652  0.1137 -0.1697
 1436SOL    HW115770   4.422   3.371  11.394  0.3036 -1.4968 -1.4737
 1436SOL    HW215771   4.518   3.284  11.448  2.7955  0.1458 -1.4316
 1437SOL     OW15772   4.394   2.752  10.608 -0.4664  0.3177  0.0849
 1437SOL    HW115773   4.320   2.768  10.666 -0.5173 -0.1409  0.1446
 1437SOL    HW215774   4.354   2.695  10.542  2.1926  0.1572 -1.4025
 1438SOL     OW15775   1.157   1.683   5.358 -0.4827  0.7360 -0.1750
 1438SOL    HW115776   1.205   1.763   5.337 -0.3653  0.4691 -0.9093
 1438SOL    HW215777   1.075   1.723   5.387  1.0197  1.6531  2.7877
 1439SOL     OW15778   1.112   2.595   3.405  0.1800  0.3627 -0.1785
 1439SOL    HW115779   1.144   2.685   3.417 -1.3178  0.9307 -0.4028
 1439SOL    HW215780   1.138   2.591   3.312 -0.0106 -1.7361 -0.1417
 1440SOL     OW15781   4.218   4.363   8.541 -0.6266 -0.5387  0.1606
 1440SOL    HW115782   4.144   4.342   8.599 -0.1055  0.5172  1.2053
 1440SOL    HW215783   4.253   4.440   8.586  2.3295 -0.6533 -1.9740
 1441SOL     OW15784   0.365   2.315  11.068 -0.4071  0.0019 -0.3408
 1441SOL    HW115785   0.320   2.386  11.112 -0.9797  0.1496 -1.1652
 1441SOL    HW215786   0.454   2.344  11.048 -0.5153 -0.3273 -1.3243
 1442SOL     OW15787   0.167   3.752   2.636 -0.1458  0.5341 -0.2234
 1442SOL    HW115788   0.104   3.765   2.707 -1.7701 -0.8323 -1.4117
 1442SOL    HW215789   0.112   3.776   2.561  0.4732  0.8985 -0.5692
 1443SOL     OW15790   3.684   2.719  15.843  0.5362  0.2156  0.2990
 1443SOL    HW115791   3.614   2.722  15.777  2.1548 -0.3441 -1.4514
 1443SOL    HW215792   3.754   2.698  15.781  1.1627 -1.4511  1.5702
 1444SOL     OW15793   0.773   4.128   6.578 -0.0626  0.3154 -0.5098
 1444SOL    HW115794   0.816   4.155   6.497  0.0196  0.0188 -0.5646
 1444SOL    HW215795   0.719   4.207   6.586  1.5629  1.4330 -0.3518
 1445SOL     OW15796   4.437   0.954  13.074  0.3885 -0.5277  0.0034
 1445SOL    HW115797   4.442   1.009  13.151  2.4192 -1.0552  0.2371
 1445SOL    HW215798   4.504   0.995  13.019 -0.1467  0.4054  0.0516
 1446SOL     OW15799   4.473   4.313  11.054  0.1469 -0.8540  0.7235
 1446SOL    HW115800   4.557   4.337  11.016 -0.1511 -1.9773 -0.6460
 1446SOL    HW215801   4.418   4.368  10.998  0.0815 -0.1102  1.5123
 1447SOL     OW15802   1.536   3.267   9.911  0.1813 -0.2273  0.2665
 1447SOL    HW115803   1.523   3.350   9.865 -0.3915  0.8552  2.3698
 1447SOL    HW215804   1.625   3.291   9.935 -0.5575  3.4506 -0.7250
 1448SOL     OW15805   0.694   4.354   5.633 -0.0614  0.0647  0.2900
 1448SOL    HW115806   0.769   4.413   5.632  0.1377 -0.1765  1.2593
 1448SOL    HW215807   0.720   4.277   5.581 -2.2727 -0.0120 -0.6899
 1449SOL     OW15808   2.857   3.196   2.438  0.1391 -0.1703 -0.1144
 1449SOL    HW115809   2.839   3.216   2.530  0.3731 -0.4737 -0.0035
 1449SOL    HW215810   2.784   3.235   2.389 -1.6171 -2.2796  0.8474
 1450SOL     OW15811   4.125   0.888   6.382 -0.8353  0.1478 -0.0873
 1450SOL    HW115812   4.049   0.911   6.436 -0.3640 -0.8051  0.9838
 1450SOL    HW215813   4.088   0.873   6.295  0.4663  0.9294 -0.7658
 1451SOL     OW15814   3.201   3.948  12.894 -0.6987 -0.6627 -0.1848
 1451SOL    HW115815   3.268   3.960  12.961 -0.4971  1.7769 -0.8119
 1451SOL    HW215816   3.223   4.016  12.831 -0.5080 -0.5474  0.0066
 1452SOL     OW15817   4.426   2.244   5.249 -0.2363 -0.2198 -0.0665
 1452SOL    HW115818   4.485   2.202   5.311 -1.0240  0.9580  1.4525
 1452SOL    HW215819   4.386   2.309   5.306 -0.6047 -0.0955 -0.4678
 1453SOL     OW15820   3.546   3.868   3.100  0.1979 -0.0469 -0.1201
 1453SOL    HW115821   3.487   3.793   3.105 -0.0002  0.1675  0.7565
 1453SOL    HW215822   3.502   3.922   3.035  0.7062 -1.6988 -1.8562
 1454SOL     OW15823   2.153   0.685   5.346 -0.4656  0.3436  0.9674
 1454SOL    HW115824   2.144   0.714   5.256 -0.9706 -0.3983  0.7731
 1454SOL    HW215825   2.226   0.739   5.377  0.0082 -0.5166  1.3495
 1455SOL     OW15826   3.331   3.813   2.301 -0.2758  0.0692 -0.0956
 1455SOL    HW115827   3.314   3.731   2.256  1.5813  1.0129 -2.5208
 1455SOL    HW215828   3.280   3.867   2.239 -1.0707 -1.4425 -0.7486
 1456SOL     OW15829   2.674   0.911  17.326  0.5351 -0.0662  0.4613
 1456SOL    HW115830   2.652   0.846  17.259 -1.0527 -0.2096  1.1375
 1456SOL    HW215831   2.654   0.865  17.407  0.0327  1.8731  1.4435
 1457SOL     OW15832   3.090   3.559   2.886  0.0130 -0.2323 -0.3663
 1457SOL    HW115833   3.138   3.489   2.841  2.0857  0.6256  0.5134
 1457SOL    HW215834   3.005   3.556   2.842  0.9364  0.4315 -2.2123
 1458SOL     OW15835   0.680   1.112   7.265  0.5192  0.3249 -0.0611
 1458SOL    HW115836   0.646   1.024   7.250  0.2410  0.6709 -1.4550
 1458SOL    HW215837   0.764   1.095   7.308  1.2714 -0.9995 -2.0395
 1459SOL     OW15838   1.062   0.030   8.644  0.3764 -0.2996 -0.0208
 1459SOL    HW115839   1.095   4.667   8.620 -0.4784 -0.2525 -1.3100
 1459SOL    HW215840   1.104   0.042   8.729  1.0062 -3.4359  0.0904
 1460SOL     OW15841   2.354   4.093   3.690  0.6680 -0.1627 -0.0806
 1460SOL    HW115842   2.297   4.166   3.663  0.4827 -0.2650  0.0329
 1460SOL    HW215843   2.429   4.092   3.631  0.4531  0.1785 -0.3627
 1461SOL     OW15844   2.468   1.606  16.355 -0.4503 -0.0166 -0.3966
 1461SOL    HW115845   2.504   1.553  16.283  3.2285 -0.0484  1.4707
 1461SOL    HW215846   2.394   1.562  16.395  1.0110 -3.8476 -1.8940
 1462SOL     OW15847   1.700   4.461  11.174  0.3643  0.3623  0.0712
 1462SOL    HW115848   1.630   4.481  11.112  0.2819 -0.1101  0.0095
 1462SOL    HW215849   1.783   4.470  11.128 -0.1514  3.2154 -0.2605
 1463SOL     OW15850   0.671   0.612   9.012 -0.2986  0.3779  0.1489
 1463SOL    HW115851   0.713   0.693   9.041 -1.8660  1.7224 -1.3224
 1463SOL    HW215852   0.596   0.643   8.960  0.8082  0.9812 -1.0727
 1464SOL     OW15853   3.572   4.250  12.533 -0.5792  0.1380 -0.6980
 1464SOL    HW115854   3.537   4.185  12.594 -0.3962 -0.4213 -1.1910
 1464SOL    HW215855   3.544   4.215  12.448 -2.8121  0.1659  0.0037
 1465SOL     OW15856   0.065   1.976   0.594 -0.2095  0.1818 -0.0698
 1465SOL    HW115857   0.131   2.045   0.603  1.1808 -1.2084  0.3518
 1465SOL    HW215858   0.064   1.998   0.501 -0.0406 -0.8487 -0.3181
 1466SOL     OW15859   0.239   2.306   7.814 -0.0296  0.0531 -0.3612
 1466SOL    HW115860   0.288   2.332   7.892 -1.0769 -1.4576  0.8136
 1466SOL    HW215861   0.167   2.268   7.864  0.3781  0.5528  0.5963
 1467SOL     OW15862   3.004   3.418   0.619  0.2344  0.5320 -0.2052
 1467SOL    HW115863   3.057   3.491   0.650 -0.4659  0.5088  1.0075
 1467SOL    HW215864   3.073   3.352   0.627 -1.9797 -1.9183 -1.4722
 1468SOL     OW15865   2.411   2.756   9.691  0.6037  0.4893 -0.0886
 1468SOL    HW115866   2.391   2.844   9.722 -0.6289  0.6443 -1.3459
 1468SOL    HW215867   2.439   2.712   9.772 -0.4619 -0.5646 -0.2954
 1469SOL     OW15868   2.732   2.394  11.259  0.0381 -0.1421 -0.0162
 1469SOL    HW115869   2.782   2.318  11.229 -0.2313 -0.9812  1.6495
 1469SOL    HW215870   2.780   2.445  11.324 -0.2343  1.1098 -0.7934
 1470SOL     OW15871   1.537   0.779   3.395 -0.0722  0.1408  0.4879
 1470SOL    HW115872   1.443   0.781   3.378 -0.2434 -2.3886  1.1184
 1470SOL    HW215873   1.558   0.688   3.372 -1.5996  0.5643 -2.6619
 1471SOL     OW15874   2.180   2.338   9.222  0.1973 -0.9909 -0.1547
 1471SOL    HW115875   2.165   2.399   9.294 -2.0089  0.4177 -1.8218
 1471SOL    HW215876   2.276   2.336   9.227  0.2966  3.5272 -0.0256
 1472SOL     OW15877   3.449   2.908   7.997 -0.0788  0.3752 -0.0514
 1472SOL    HW115878   3.423   2.852   8.070  2.1695 -1.3146 -0.5625
 1472SOL    HW215879   3.543   2.892   8.005 -0.0701  0.5396  0.1627
 1473SOL     OW15880   4.255   2.480  17.056  0.2730  0.3578 -0.5061
 1473SOL    HW115881   4.254   2.393  17.017 -0.1650  0.5001 -0.8224
 1473SOL    HW215882   4.163   2.504  17.047 -0.0737 -0.7797  0.0063
 1474SOL     OW15883   0.126   2.002   0.093 -0.3612 -0.1936  0.1496
 1474SOL    HW115884   0.110   1.908   0.081 -1.8156  0.4339 -2.8472
 1474SOL    HW215885   0.073   2.037   0.021  0.1657 -0.6822 -0.4815
 1475SOL     OW15886   1.614   0.463   2.616  0.8137 -0.2126 -0.3653
 1475SOL    HW115887   1.531   0.442   2.573  0.8741 -1.8154  0.2701
 1475SOL    HW215888   1.581   0.486   2.703  0.2841  0.1391 -0.6627
 1476SOL     OW15889   3.252   2.464  17.333  0.6365  0.2850 -0.3146
 1476SOL    HW115890   3.303   2.537  17.368  3.9706 -1.6030 -1.2738
 1476SOL    HW215891   3.320   2.405  17.301  1.4957  1.0053  0.1909
 1477SOL     OW15892   4.528   4.220   2.212 -0.2428 -0.7464 -0.3120
 1477SOL    HW115893   4.524   4.240   2.119 -0.4294 -0.3771 -0.2251
 1477SOL    HW215894   4.522   4.306   2.253 -1.1790 -1.3574  0.8244
 1478SOL     OW15895   2.152   4.372   5.502 -0.5834  0.2757 -0.6781
 1478SOL    HW115896   2.216   4.443   5.496  0.5573 -0.6369  0.8561
 1478SOL    HW215897   2.178   4.325   5.423  2.4157  1.0211 -0.1218
 1479SOL     OW15898   1.161   3.658   7.148 -0.4508  0.0190 -0.3244
 1479SOL    HW115899   1.092   3.720   7.124  0.2517  2.0132  2.8695
 1479SOL    HW215900   1.171   3.671   7.242 -1.7329  0.1124 -0.1955
 1480SOL     OW15901   4.124   3.814   3.790  0.0026  0.0520 -0.0286
 1480SOL    HW115902   4.116   3.719   3.796 -1.0196  0.0654 -1.1993
 1480SOL    HW215903   4.035   3.834   3.759  0.1268  0.1890 -0.2952
 1481SOL     OW15904   3.154   1.681  12.592 -0.6374  0.1025 -0.6373
 1481SOL    HW115905   3.062   1.707  12.595 -0.4627  0.6377  0.1499
 1481SOL    HW215906   3.198   1.761  12.564  2.3077 -0.8347  1.3175
 1482SOL     OW15907   4.373   2.405   7.972 -0.2927 -0.0462 -0.3429
 1482SOL    HW115908   4.344   2.333   8.028  1.7555  0.0976  0.8707
 1482SOL    HW215909   4.449   2.372   7.925 -1.2781 -2.7924  0.0168
 1483SOL     OW15910   1.533   0.998   5.866  0.2327 -0.5081 -0.2468
 1483SOL    HW115911   1.455   0.962   5.909 -0.1616  1.6121  0.8111
 1483SOL    HW215912   1.518   0.953   5.783 -0.5351 -1.4433  0.3967
 1484SOL     OW15913   2.575   2.135   5.712  0.0363 -0.1884 -0.1523
 1484SOL    HW115914   2.582   2.081   5.633 -1.1955  1.0777 -1.1104
 1484SOL    HW215915   2.666   2.160   5.727 -0.4114  1.1417  0.2649
 1485SOL     OW15916   4.239   1.666   3.662 -0.1722 -0.2991  0.1068
 1485SOL    HW115917   4.321   1.698   3.700 -1.0828  2.9741 -0.6474
 1485SOL    HW215918   4.264   1.675   3.570 -0.6405 -0.1118 -0.0026
 1486SOL     OW15919   3.643   1.296   6.253 -0.1334 -0.6494  0.0897
 1486SOL    HW115920   3.704   1.370   6.262 -0.9124  0.2273 -1.8257
 1486SOL    HW215921   3.631   1.293   6.158  1.2525  2.7156 -0.2026
 1487SOL     OW15922   3.721   4.467  14.578 -0.4401 -0.3694  0.4349
 1487SOL    HW115923   3.775   4.438  14.504 -1.7176  0.1512 -0.7062
 1487SOL    HW215924   3.759   4.435  14.659  1.7770  0.8380 -0.1235
 1488SOL     OW15925   0.835   3.778   9.337  0.1079  0.7311 -0.0547
 1488SOL    HW115926   0.837   3.852   9.276  1.9427  1.6995  1.1684
 1488SOL    HW215927   0.801   3.820   9.416  0.5538  2.6911 -0.9017
 1489SOL     OW15928   1.932   1.605   0.499 -0.0974 -0.1061 -0.6177
 1489SOL    HW115929   1.886   1.521   0.486  0.3697 -0.2222 -1.5215
 1489SOL    HW215930   2.004   1.582   0.557 -1.0464  2.0733  1.3895
 1490SOL     OW15931   0.631   3.927  10.768 -0.1464  0.2039 -0.2899
 1490SOL    HW115932   0.717   3.970  10.771 -0.1840  0.4805 -3.6538
 1490SOL    HW215933   0.582   3.991  10.820  0.0384  1.0057 -1.1137
 1491SOL     OW15934   4.301   2.596   0.411 -0.7189 -0.0093  0.1535
 1491SOL    HW115935   4.285   2.614   0.503  0.0011 -0.5666  0.3881
 1491SOL    HW215936   4.395   2.580   0.404 -1.1236 -1.7283 -1.5015
 1492SOL     OW15937   0.491   3.440  11.970  0.7749 -0.1486 -0.5551
 1492SOL    HW115938   0.539   3.377  12.023  0.2760  0.7311  0.9515
 1492SOL    HW215939   0.478   3.391  11.889 -0.5495 -0.9094  0.1231
 1493SOL     OW15940   4.312   0.634   4.293  0.4022 -0.0246 -0.1818
 1493SOL    HW115941   4.218   0.633   4.274 -0.2736  1.2966  3.0436
 1493SOL    HW215942   4.354   0.622   4.208  0.5378 -1.2304  0.0506
 1494SOL     OW15943   0.028   3.494   3.653  0.5047  0.4530 -0.1429
 1494SOL    HW115944   0.095   3.562   3.659 -0.6580  1.5367  0.4603
 1494SOL    HW215945   4.716   3.513   3.567  0.1282  1.8829  0.3340
 1495SOL     OW15946   0.673   3.126   6.924  0.0368  0.4187  0.3040
 1495SOL    HW115947   0.645   3.039   6.896  2.3642  0.0072 -0.7711
 1495SOL    HW215948   0.743   3.107   6.987 -0.3136 -0.7951  0.3258
 1496SOL     OW15949   3.428   0.241   3.115 -0.1389 -0.4071 -0.4419
 1496SOL    HW115950   3.413   0.238   3.021  0.7732 -0.5052 -0.5917
 1496SOL    HW215951   3.466   0.156   3.141 -1.8580 -0.3150  2.4157
 1497SOL     OW15952   1.641   4.466  11.430  0.0988 -0.1059  0.3913
 1497SOL    HW115953   1.565   4.412  11.452 -0.1571 -0.4588 -1.3473
 1497SOL    HW215954   1.662   4.445  11.339  0.5508 -0.7977  0.6533
 1498SOL     OW15955   3.012   4.297   6.386 -0.0630 -0.2072  0.2752
 1498SOL    HW115956   2.925   4.262   6.367  1.1316 -2.1921 -1.6417
 1498SOL    HW215957   2.992   4.390   6.377 -0.0926 -0.6424 -4.1058
 1499SOL     OW15958   0.777   4.141   0.060  1.2251  0.1580 -0.0866
 1499SOL    HW115959   0.872   4.132   0.062  1.2360  0.0778 -0.8411
 1499SOL    HW215960   0.756   4.101  17.671 -0.8372 -0.0200  0.5026
 1500SOL     OW15961   4.225   3.276   8.679  0.2059  0.0784  0.6688
 1500SOL    HW115962   4.214   3.324   8.597 -0.0025 -3.0544 -1.1287
 1500SOL    HW215963   4.217   3.182   8.662  1.1820  0.2334 -0.6254
 1501SOL     OW15964   4.640   1.707   6.927 -0.3067 -0.0151 -0.2744
 1501SOL    HW115965   4.707   1.764   6.964  1.3955 -1.3231 -1.3645
 1501SOL    HW215966   4.614   1.660   7.007 -1.2568 -1.0860 -1.2178
 1502SOL     OW15967   1.199   1.025   8.099  0.2153  0.6818  0.6106
 1502SOL    HW115968   1.283   1.071   8.093 -0.1108  1.5740  2.6842
 1502SOL    HW215969   1.192   1.000   8.191 -2.7114 -2.9159 -0.5752
 1503SOL     OW15970   1.042   3.971   8.675  0.0931 -0.2890 -0.1566
 1503SOL    HW115971   1.002   4.059   8.674 -1.0235 -0.7874  0.6866
 1503SOL    HW215972   0.972   3.917   8.639 -1.3837  2.5625 -1.5839
 1504SOL     OW15973   2.793   0.543  13.387 -0.1325 -0.0611 -0.0503
 1504SOL    HW115974   2.778   0.572  13.297  3.9729  0.1892 -0.6119
 1504SOL    HW215975   2.712   0.567  13.433  0.4472  3.1125 -0.7111
 1505SOL     OW15976   2.382   1.609   4.719  0.1802 -0.2129  0.1689
 1505SOL    HW115977   2.371   1.576   4.809 -0.2151 -2.8307 -0.8450
 1505SOL    HW215978   2.477   1.607   4.706  0.1414  1.7098 -0.3232
 1506SOL     OW15979   2.573   3.910   4.866 -0.5196  0.3716  1.2502
 1506SOL    HW115980   2.502   3.962   4.904 -2.3075 -0.6632 -0.6197
 1506SOL    HW215981   2.543   3.890   4.777  1.1615 -0.3099  0.8450
 1507SOL     OW15982   3.763   3.184   2.001 -0.0860 -0.2930 -0.3263
 1507SOL    HW115983   3.837   3.244   2.003 -0.8536  0.6739 -0.6466
 1507SOL    HW215984   3.718   3.213   1.921  0.8268 -2.7332 -1.7344
 1508SOL     OW15985   2.462   3.241   8.026 -0.1610  0.3250 -0.0607
 1508SOL    HW115986   2.379   3.279   7.997  0.1380 -0.2995 -1.7013
 1508SOL    HW215987   2.439   3.212   8.114 -1.2674 -0.6303 -0.6602
 1509SOL     OW15988   3.390   1.786  16.867  0.1307 -0.7408  0.6010
 1509SOL    HW115989   3.298   1.812  16.867 -0.3852 -2.6087 -0.4238
 1509SOL    HW215990   3.389   1.735  16.786  0.8241  3.4889 -2.0776
 1510SOL     OW15991   1.611   0.502   0.834 -0.1480  0.2519 -0.0822
 1510SOL    HW115992   1.697   0.504   0.792 -0.8797  2.9571 -1.4604
 1510SOL    HW215993   1.632   0.461   0.918 -2.3108  0.7859  0.7152
 1511SOL     OW15994   4.288   1.776   7.518  0.3377 -0.0248 -0.0760
 1511SOL    HW115995   4.230   1.705   7.490 -0.8342  0.1535  1.9062
 1511SOL    HW215996   4.247   1.806   7.599  0.3866  2.1482 -0.8600
 1512SOL     OW15997   1.523   4.131   3.027  0.3255  0.3052  0.1310
 1512SOL    HW115998   1.616   4.139   3.047  0.5172  2.2772 -1.5694
 1512SOL    HW215999   1.507   4.045   3.066 -2.9033 -0.1364 -2.1657
 1513SOL     OW16000   0.457   0.312   0.390  0.5344 -0.5904 -0.5346
 1513SOL    HW116001   0.398   0.341   0.460  1.3833  1.1097 -0.4992
 1513SOL    HW216002   0.500   0.395   0.367  1.4582 -0.8978  0.0798
 1514SOL     OW16003   3.485   1.802   3.122 -0.6852 -0.5873  0.7751
 1514SOL    HW116004   3.424   1.738   3.087  0.9408 -1.1281 -1.0647
 1514SOL    HW216005   3.564   1.781   3.072 -0.9333 -0.7702  0.4616
 1515SOL     OW16006   2.607   4.516   6.459 -0.6588  0.2178 -0.0215
 1515SOL    HW116007   2.567   4.585   6.406 -1.1383 -0.4305 -0.5049
 1515SOL    HW216008   2.654   4.571   6.521  0.1569  0.3472 -0.7545
 1516SOL     OW16009   4.133   1.591   8.076 -0.2108  0.1019 -0.3231
 1516SOL    HW116010   4.214   1.542   8.059  0.4134  0.9434  0.1894
 1516SOL    HW216011   4.070   1.520   8.076 -1.7167  1.4470 -0.3454
 1517SOL     OW16012   0.707   1.592   1.060 -0.5517 -0.5396  0.2306
 1517SOL    HW116013   0.715   1.584   1.155 -1.3266 -0.6730  0.2882
 1517SOL    HW216014   0.715   1.687   1.048  1.1696 -0.9040 -1.3781
 1518SOL     OW16015   4.025   0.137  11.138 -0.3009  0.4911  0.1087
 1518SOL    HW116016   3.939   0.134  11.097 -0.9909 -0.0802  1.6252
 1518SOL    HW216017   4.049   0.229  11.127  0.3834  0.3073  0.0475
 1519SOL     OW16018   0.238   3.728   5.677  0.3868  0.4017  0.5988
 1519SOL    HW116019   0.327   3.735   5.643  0.6618 -0.9502  1.0260
 1519SOL    HW216020   0.251   3.702   5.768  2.6914  1.9031  0.6982
 1520SOL     OW16021   4.579   0.963  17.287 -0.0343 -0.1001  0.0514
 1520SOL    HW116022   4.579   1.006  17.373 -1.4661  2.9014 -1.4445
 1520SOL    HW216023   4.662   0.915  17.290 -0.9131 -1.6798 -1.0792
 1521SOL     OW16024   1.129   1.673   4.645 -0.6629  0.1897 -0.0609
 1521SOL    HW116025   1.216   1.713   4.653  0.3106 -1.7048 -1.1288
 1521SOL    HW216026   1.118   1.666   4.551  1.2699  0.8851 -0.3536
 1522SOL     OW16027   4.507   0.032   0.074 -0.4867  0.1151  0.2694
 1522SOL    HW116028   4.468   4.675   0.109 -2.0966  2.0218  2.8186
 1522SOL    HW216029   4.429   0.085   0.056 -0.4067  0.5489  1.2453
 1523SOL     OW16030   2.917   2.827   6.912  0.3505  0.3182 -0.3751
 1523SOL    HW116031   3.002   2.859   6.942 -0.2927  0.9374  0.7928
 1523SOL    HW216032   2.868   2.874   6.979  0.1042  0.3282 -0.5626
 1524SOL     OW16033   1.629   4.007   7.949  0.5997 -0.0465  0.2924
 1524SOL    HW116034   1.665   4.095   7.954  1.6767 -0.4205 -1.0687
 1524SOL    HW216035   1.658   3.966   8.031  2.9694 -0.0552 -0.5525
 1525SOL     OW16036   2.983   3.160  14.549 -0.5356 -0.1298  0.5961
 1525SOL    HW116037   2.993   3.072  14.585 -0.4261  0.0813  1.0828
 1525SOL    HW216038   2.965   3.210  14.629 -1.2051  1.5574 -0.6101
 1526SOL     OW16039   2.680   0.889   6.986 -0.4186  0.6833 -0.2188
 1526SOL    HW116040   2.702   0.909   7.077 -1.3931  0.1575  0.1422
 1526SOL    HW216041   2.652   0.978   6.963 -0.2692  0.6699 -0.4470
 1527SOL     OW16042   3.932   1.925   4.324  0.4178 -0.2553 -0.2905
 1527SOL    HW116043   3.857   1.886   4.369  2.5900  0.1086  3.6220
 1527SOL    HW216044   3.986   1.856   4.286  2.7140  0.5345  1.5267
 1528SOL     OW16045   0.771   4.418  17.398  0.6312  0.0379  0.5700
 1528SOL    HW116046   0.751   4.359  17.325 -0.0640  0.7467  0.1861
 1528SOL    HW216047   0.851   4.382  17.437  0.9545 -0.4007 -0.4912
 1529SOL     OW16048   1.627   3.940   8.888  0.2056  0.0853 -0.6412
 1529SOL    HW116049   1.598   3.900   8.807  0.7096 -1.6239  0.0256
 1529SOL    HW216050   1.543   3.933   8.933  0.1558  0.2726 -0.7040
 1530SOL     OW16051   0.270   1.240   0.779 -0.1181  0.0101 -0.1324
 1530SOL    HW116052   0.335   1.200   0.721 -0.6550 -0.2521 -0.5446
 1530SOL    HW216053   0.317   1.218   0.860 -2.2390  1.8309  1.5996
 1531SOL     OW16054   0.860   3.777   7.713 -0.0431  0.3359 -0.2861
 1531SOL    HW116055   0.881   3.701   7.659  1.0691  1.7986 -1.9068
 1531SOL    HW216056   0.928   3.843   7.696  0.7963 -0.0601  1.5421
 1532SOL     OW16057   3.940   1.152   1.252 -0.3997 -0.6530  0.0188
 1532SOL    HW116058   3.938   1.093   1.328 -0.8088  0.5308  0.9211
 1532SOL    HW216059   3.882   1.224   1.278  0.4490  0.6380 -1.6739
 1533SOL     OW16060   3.759   4.491   7.012 -0.3338  0.0665  0.1017
 1533SOL    HW116061   3.698   4.563   7.028  1.0565  1.1288  0.6856
 1533SOL    HW216062   3.738   4.466   6.922  0.3515 -1.9657  0.5218
 1534SOL     OW16063   2.219   3.816   7.605  0.4922  0.3289  0.7782
 1534SOL    HW116064   2.183   3.879   7.542  0.8150 -0.9664 -0.6876
 1534SOL    HW216065   2.141   3.771   7.639 -0.1732 -0.2101 -1.4740
 1535SOL     OW16066   2.951   4.390   4.911  0.5149 -0.7503  0.2317
 1535SOL    HW116067   2.999   4.462   4.869 -0.4992 -0.2793 -0.1296
 1535SOL    HW216068   3.000   4.373   4.991  1.9370  0.0494 -0.4734
 1536SOL     OW16069   0.970   2.106   1.998 -0.0728 -0.0174  0.3680
 1536SOL    HW116070   1.006   2.132   1.914  0.8958 -1.4240  0.3424
 1536SOL    HW216071   1.030   2.126   2.070  0.3564 -1.7400  0.4963
 1537SOL     OW16072   2.181   0.437   8.941 -0.1415  0.3937 -1.0682
 1537SOL    HW116073   2.267   0.403   8.966  0.0901  1.4199 -0.4745
 1537SOL    HW216074   2.169   0.500   9.011 -0.7659 -3.7672  2.5771
 1538SOL     OW16075   3.203   0.834   2.715  0.3348  0.4356  0.2764
 1538SOL    HW116076   3.206   0.762   2.778 -2.4600  0.1950  0.1194
 1538SOL    HW216077   3.110   0.854   2.723  0.3599 -1.0459  4.2162
 1539SOL     OW16078   3.953   3.023   7.136  0.3064 -0.0348 -0.0951
 1539SOL    HW116079   3.954   2.990   7.226 -1.8380  0.6715  0.1901
 1539SOL    HW216080   3.861   3.044   7.120 -0.1230 -2.0128 -0.2023
 1540SOL     OW16081   4.359   2.763  14.261  0.2051  0.1057  0.3190
 1540SOL    HW116082   4.299   2.826  14.299  0.0581 -1.1158  2.0879
 1540SOL    HW216083   4.415   2.737  14.334  0.5409 -0.4003 -0.1133
 1541SOL     OW16084   1.203   3.823   4.448 -0.0934  0.2923 -0.2439
 1541SOL    HW116085   1.252   3.754   4.404  1.0858  0.3122  1.0368
 1541SOL    HW216086   1.173   3.877   4.375  3.5981  0.9105 -1.3008
 1542SOL     OW16087   3.662   3.538   7.039  0.7083  0.0010 -0.6841
 1542SOL    HW116088   3.733   3.603   7.038 -0.4701  1.3411  2.8101
 1542SOL    HW216089   3.699   3.471   7.097 -2.4309 -0.1772  1.1083
 1543SOL     OW16090   0.269   2.901  12.381  0.3774 -0.7634 -0.3669
 1543SOL    HW116091   0.287   2.992  12.406 -1.4739 -0.5142  0.0578
 1543SOL    HW216092   0.346   2.856  12.414  0.3552  1.2222  2.3708
 1544SOL     OW16093   3.231   1.921   7.061 -0.1882  0.1972 -0.7323
 1544SOL    HW116094   3.159   1.859   7.061 -0.4524  0.4965 -0.0101
 1544SOL    HW216095   3.184   2.000   7.035  0.7949  0.0352 -2.9795
 1545SOL     OW16096   1.093   1.774  15.832  0.7443 -0.2981 -0.6151
 1545SOL    HW116097   1.026   1.710  15.805 -0.7894  1.0651  0.0168
 1545SOL    HW216098   1.122   1.802  15.745 -1.6292 -0.9904 -1.6265
 1546SOL     OW16099   2.760   0.518   8.099 -0.5603 -0.0817  0.1365
 1546SOL    HW116100   2.674   0.477   8.108 -1.3508  2.0313  2.2246
 1546SOL    HW216101   2.735   0.602   8.062  0.9221  0.0334 -0.6324
 1547SOL     OW16102   1.616   3.723  15.440 -0.2392  0.3698  0.4431
 1547SOL    HW116103   1.689   3.671  15.406  0.2718  1.8472 -0.7040
 1547SOL    HW216104   1.616   3.731  15.536 -0.7065  0.3750  0.4443
 1548SOL     OW16105   2.139   0.364   4.113 -0.1028 -0.0183  0.3111
 1548SOL    HW116106   2.135   0.356   4.018 -0.2209 -1.0140  0.4051
 1548SOL    HW216107   2.048   0.389   4.132 -0.5508 -1.6924  0.3674
 1549SOL     OW16108   0.029   2.871   2.701 -0.7277 -0.3230  0.1058
 1549SOL    HW116109   4.716   2.888   2.788 -0.0468  0.5195  0.2251
 1549SOL    HW216110   0.008   2.779   2.682  0.9120 -0.4022 -1.3839
 1550SOL     OW16111   1.716   0.064   6.295  0.2052  0.2450  0.1343
 1550SOL    HW116112   1.746   0.141   6.343  1.0066 -0.1487  0.2456
 1550SOL    HW216113   1.625   0.091   6.278  0.0244 -1.2099 -1.1549
 1551SOL     OW16114   3.834   2.426   4.665 -0.5029 -0.8417  0.1756
 1551SOL    HW116115   3.921   2.402   4.696 -0.0357  0.2776 -0.2674
 1551SOL    HW216116   3.833   2.373   4.586 -0.1551  0.6073 -0.8140
 1552SOL     OW16117   2.721   3.757  11.247 -0.1747 -0.1722 -0.5225
 1552SOL    HW116118   2.674   3.814  11.187 -1.0759  1.4850  1.7784
 1552SOL    HW216119   2.705   3.785  11.337 -0.9837 -0.4426 -0.5782
 1553SOL     OW16120   1.818   4.609   2.645  0.1495  0.0058  0.0864
 1553SOL    HW116121   1.842   4.547   2.576 -0.8099  0.1719 -0.3918
 1553SOL    HW216122   1.835   4.569   2.730  0.5558  3.3653  1.5882
 1554SOL     OW16123   3.211   3.593   4.913  0.9403  0.2609 -0.4861
 1554SOL    HW116124   3.241   3.519   4.966  0.1524  0.4703  0.2654
 1554SOL    HW216125   3.118   3.600   4.935  1.4218  2.2098  0.8289
 1555SOL     OW16126   2.950   0.817   3.675 -0.0449  0.0366  0.1564
 1555SOL    HW116127   2.891   0.743   3.690  0.0317  0.2553  1.4893
 1555SOL    HW216128   2.969   0.852   3.762  2.6177  0.3214 -0.5375
 1556SOL     OW16129   1.136   2.080   4.692 -0.5746  0.0522  0.0787
 1556SOL    HW116130   1.096   2.004   4.734 -3.6644  0.7788 -1.5283
 1556SOL    HW216131   1.218   2.066   4.738 -0.4261  2.6161  0.6093
 1557SOL     OW16132   3.053   0.525   3.787  0.5630 -0.0816 -0.0807
 1557SOL    HW116133   3.025   0.588   3.854 -1.7111 -0.7683 -0.3943
 1557SOL    HW216134   3.085   0.453   3.841  0.8324  1.5511  1.9528
 1558SOL     OW16135   0.036   2.013  11.298  0.3952  0.3475 -0.4484
 1558SOL    HW116136   0.079   2.069  11.233  0.3742  0.2326 -0.5612
 1558SOL    HW216137   4.689   1.994  11.236  1.7422 -1.7596 -1.3331
 1559SOL     OW16138   1.780   4.624   4.565 -0.5073 -0.1853  0.3888
 1559SOL    HW116139   1.865   4.615   4.523 -0.4220  1.9997  0.0946
 1559SOL    HW216140   1.742   4.698   4.517 -0.3343 -0.9667 -0.9429
 1560SOL     OW16141   3.237   4.143   6.287 -0.0744 -0.7654 -0.0488
 1560SOL    HW116142   3.217   4.106   6.201 -2.1880  0.4525 -0.0730
 1560SOL    HW216143   3.157   4.193   6.302  0.2137 -0.6401  1.0654
 1561SOL     OW16144   0.556   0.441  10.277  0.2763 -0.2809  0.0414
 1561SOL    HW116145   0.604   0.482  10.205  1.5919 -0.4302  0.8254
 1561SOL    HW216146   0.484   0.413  10.221 -0.1439  0.2659  0.3050
 1562SOL     OW16147   1.010   1.797  11.057 -0.3484 -0.1397 -0.1961
 1562SOL    HW116148   0.961   1.717  11.035  0.3700 -0.4418 -0.7360
 1562SOL    HW216149   0.947   1.866  11.036 -1.6339 -1.5210 -0.9096
 1563SOL     OW16150   4.489   3.852  11.510  0.1739  0.0802  0.7872
 1563SOL    HW116151   4.580   3.870  11.486  0.1558 -0.7188  0.0757
 1563SOL    HW216152   4.463   3.799  11.434  1.9734  0.6249 -0.2014
 1564SOL     OW16153   1.191   0.374   9.688  0.0517  0.2130  0.1903
 1564SOL    HW116154   1.251   0.448   9.685  1.8858 -1.3160 -0.7958
 1564SOL    HW216155   1.182   0.365   9.783 -3.0864 -3.1142 -0.3741
 1565SOL     OW16156   1.281   1.859   4.473 -0.2456 -0.5702 -0.2654
 1565SOL    HW116157   1.310   1.800   4.403 -1.1304  0.0553 -1.1530
 1565SOL    HW216158   1.233   1.925   4.423  0.5037 -0.0921 -0.3489
 1566SOL     OW16159   3.881   3.947   2.964 -0.0569  0.3907  0.0708
 1566SOL    HW116160   3.855   4.008   2.895  1.8150 -0.6289 -1.5011
 1566SOL    HW216161   3.923   3.875   2.918  0.4091  0.4522  0.4047
 1567SOL     OW16162   3.925   0.479  13.032 -0.3796  0.3741  0.4187
 1567SOL    HW116163   3.841   0.434  13.021 -0.1296  0.1120 -0.4194
 1567SOL    HW216164   3.929   0.455  13.125  0.8453 -2.4685 -0.3721
 1568SOL     OW16165   4.688   1.318   4.816 -0.4276  0.5225  0.0637
 1568SOL    HW116166   4.721   1.228   4.812  2.5817  1.4706  2.9137
 1568SOL    HW216167   4.600   1.302   4.785 -0.1597 -0.6388 -0.1087
 1569SOL     OW16168   0.684   1.214  16.206 -0.0483  0.0645 -0.5448
 1569SOL    HW116169   0.616   1.154  16.176 -1.8888  3.3107 -2.8443
 1569SOL    HW216170   0.660   1.226  16.298 -1.3065  2.4494 -1.2126
 1570SOL     OW16171   0.957   1.157  11.870  0.6243 -0.1730  0.6656
 1570SOL    HW116172   0.929   1.247  11.850 -2.2088 -0.8299  1.6188
 1570SOL    HW216173   0.908   1.115  11.799  0.6099  1.5808 -0.3731
 1571SOL     OW16174   1.647   1.025   1.898  0.5929  0.3836 -0.3924
 1571SOL    HW116175   1.605   1.089   1.840  2.0214 -0.2930 -2.2009
 1571SOL    HW216176   1.572   0.970   1.921  1.1436 -0.1315  0.1348
 1572SOL     OW16177   3.183   3.016   5.005 -0.4841 -0.2547 -0.4222
 1572SOL    HW116178   3.219   2.938   5.047  1.9841  1.5350  0.7732
 1572SOL    HW216179   3.204   3.007   4.912 -0.5893  2.8393 -0.7342
 1573SOL     OW16180   4.136   3.074   5.398 -0.0743 -0.3409  0.3943
 1573SOL    HW116181   4.105   3.109   5.482 -3.5045 -0.6120 -0.8001
 1573SOL    HW216182   4.175   3.154   5.363 -1.6283  1.1774  2.1315
 1574SOL     OW16183   2.472   2.855   2.367 -0.1016 -0.1104  0.1341
 1574SOL    HW116184   2.426   2.928   2.409 -1.2349 -0.4497 -0.4989
 1574SOL    HW216185   2.466   2.889   2.277  1.4470 -0.7302 -0.2040
 1575SOL     OW16186   3.140   4.485   4.102  0.4160 -0.4415  0.4095
 1575SOL    HW116187   3.102   4.465   4.188 -0.7721  2.6898  0.6453
 1575SOL    HW216188   3.121   4.411   4.045 -1.2928  0.5668 -0.3364
 1576SOL     OW16189   4.690   2.150  10.173 -0.2816  0.1347  0.5126
 1576SOL    HW116190   4.632   2.074  10.184 -0.2547 -0.1856 -1.4179
 1576SOL    HW216191   4.644   2.183  10.096 -0.2637 -1.5725 -0.2448
 1577SOL     OW16192   3.902   3.495  14.623  0.5486  0.5064 -0.4147
 1577SOL    HW116193   3.831   3.467  14.682  0.0689  0.9361 -0.7804
 1577SOL    HW216194   3.970   3.452  14.674  1.5704  0.2925 -1.9524
 1578SOL     OW16195   3.497   0.884  13.265 -0.0648 -0.2700 -0.1548
 1578SOL    HW116196   3.499   0.980  13.272 -1.0339 -0.1560 -1.4810
 1578SOL    HW216197   3.475   0.866  13.173 -1.2439 -2.4551  0.5734
 1579SOL     OW16198   0.432   1.569   1.325  0.2013 -0.2343  0.0526
 1579SOL    HW116199   0.345   1.533   1.311  0.5393 -0.8000 -0.6002
 1579SOL    HW216200   0.417   1.643   1.266  0.7582 -0.7042 -0.6890
 1580SOL     OW16201   0.440   4.542  13.229  0.3787 -0.3011 -0.3389
 1580SOL    HW116202   0.515   4.490  13.200  1.4963  0.8049  0.5866
 1580SOL    HW216203   0.433   4.605  13.156  1.2968  1.0269  0.7093
 1581SOL     OW16204   0.266   3.248   4.316 -0.2376 -0.2883  0.0357
 1581SOL    HW116205   0.220   3.300   4.251 -0.1697  1.0570  1.0627
 1581SOL    HW216206   0.355   3.284   4.311 -0.9287  1.7003  1.8958
 1582SOL     OW16207   2.324   4.543   3.047  0.2716 -0.2238  0.1097
 1582SOL    HW116208   2.290   4.630   3.067  2.8310  0.4898  1.3715
 1582SOL    HW216209   2.291   4.538   2.958  1.6173  0.2626 -0.4107
 1583SOL     OW16210   3.891   1.156   9.059  0.1307 -0.1391 -0.2297
 1583SOL    HW116211   3.951   1.084   9.082  1.1292  0.6498 -0.3763
 1583SOL    HW216212   3.947   1.191   8.989  1.7703 -0.2208  1.0444
 1584SOL     OW16213   1.652   3.895   1.978 -0.2278 -0.6738  0.2560
 1584SOL    HW116214   1.629   3.803   1.991 -0.0765 -1.0247 -2.0643
 1584SOL    HW216215   1.742   3.909   2.005 -0.8768 -0.8545  2.5074
 1585SOL     OW16216   4.476   0.427   7.960  0.3291 -0.1518  0.1118
 1585SOL    HW116217   4.498   0.515   7.992  1.3826  0.5241 -2.5079
 1585SOL    HW216218   4.487   0.377   8.041 -2.9584 -1.6961 -0.3678
 1586SOL     OW16219   2.389   0.803  12.959 -0.1174 -0.7345 -0.3246
 1586SOL    HW116220   2.389   0.824  12.866  1.3490  0.2425 -0.1101
 1586SOL    HW216221   2.440   0.723  12.959  0.5486 -0.3107  0.8319
 1587SOL     OW16222   0.956   1.130   6.987  0.8402  0.2908  0.0317
 1587SOL    HW116223   0.954   1.217   7.025 -0.3049 -0.2762  1.2624
 1587SOL    HW216224   1.012   1.150   6.912  0.5013 -1.0262 -0.5862
 1588SOL     OW16225   1.997   2.964  10.273 -0.0391  0.7378 -0.4007
 1588SOL    HW116226   1.929   2.994  10.333 -0.6435 -0.1225 -0.6515
 1588SOL    HW216227   2.057   3.038  10.280  2.0796 -0.9473 -0.9445
 1589SOL     OW16228   2.674   2.725  13.020 -0.0418  0.0121  0.0493
 1589SOL    HW116229   2.584   2.732  13.052  0.3003  1.1693  0.7494
 1589SOL    HW216230   2.725   2.720  13.100  1.5984  3.2021 -0.8021
 1590SOL     OW16231   2.118   0.438   1.898 -0.0985 -0.4544 -0.1120
 1590SOL    HW116232   2.142   0.484   1.978  0.8729 -0.7449 -0.2335
 1590SOL    HW216233   2.072   0.507   1.851 -1.0561 -0.3956  0.9110
 1591SOL     OW16234   4.298   0.627   6.587  0.5451  0.0550 -0.3902
 1591SOL    HW116235   4.259   0.715   6.589  0.0401 -0.1413 -1.3833
 1591SOL    HW216236   4.389   0.647   6.566 -0.2884  2.2526 -1.9440
 1592SOL     OW16237   3.669   3.893  12.865 -0.4090  0.0738 -0.1204
 1592SOL    HW116238   3.686   3.884  12.771  0.4158  1.0027 -0.0614
 1592SOL    HW216239   3.755   3.921  12.897 -1.2393  0.8438  1.4214
 1593SOL     OW16240   4.375   2.843   3.110 -0.0430  0.4579 -0.3746
 1593SOL    HW116241   4.288   2.874   3.135  1.8132  2.9739  3.0173
 1593SOL    HW216242   4.365   2.767   3.052 -3.4954  1.3539 -0.9333
 1594SOL     OW16243   3.044   3.653   0.853  0.3208 -0.4473  0.3726
 1594SOL    HW116244   3.080   3.577   0.899  1.0707  0.5134  1.3822
 1594SOL    HW216245   3.058   3.710   0.929 -0.8155 -1.0080  1.0083
 1595SOL     OW16246   3.669   2.181  16.860  0.1056 -0.5428 -0.2560
 1595SOL    HW116247   3.636   2.098  16.826  0.4380 -0.0830 -1.6706
 1595SOL    HW216248   3.672   2.158  16.953 -1.1722 -0.3930 -0.1806
 1596SOL     OW16249   0.860   0.863   6.997 -0.2815  0.4353  0.3519
 1596SOL    HW116250   0.806   0.897   6.924 -1.0699 -1.5178  0.0247
 1596SOL    HW216251   0.909   0.945   7.006 -0.0660 -0.0427  3.4271
 1597SOL     OW16252   3.814   3.769   2.731 -0.2709  0.0047  0.0558
 1597SOL    HW116253   3.801   3.678   2.704 -2.2972  0.2795  0.1001
 1597SOL    HW216254   3.902   3.780   2.695  0.5440  1.3162  2.4342
 1598SOL     OW16255   3.808   1.237  10.035 -0.2678 -0.4205 -0.3745
 1598SOL    HW116256   3.752   1.160  10.037 -0.7681 -0.1032 -3.0487
 1598SOL    HW216257   3.764   1.281   9.962  1.7704  0.0303 -1.3109
 1599SOL     OW16258   1.935   3.937   6.865  0.1617  0.3357 -0.7603
 1599SOL    HW116259   1.989   3.861   6.887 -1.5146 -0.3519  0.9647
 1599SOL    HW216260   1.852   3.900   6.897  0.1680 -0.4921 -1.6783
 1600SOL     OW16261   2.588   1.948   5.508  0.2150 -0.1374 -0.0928
 1600SOL    HW116262   2.496   1.931   5.485 -0.1270  1.5748 -0.0136
 1600SOL    HW216263   2.620   1.979   5.423  2.5819  0.0345  0.8650
 1601SOL     OW16264   2.565   0.566   4.522  0.2363  0.2821  1.0736
 1601SOL    HW116265   2.565   0.489   4.465 -0.0980  1.1174 -0.0438
 1601SOL    HW216266   2.554   0.519   4.605  2.8597 -1.3527  0.5010
 1602SOL     OW16267   2.629   1.210  13.780 -0.3656  0.6402 -0.1007
 1602SOL    HW116268   2.719   1.218  13.749 -0.7783 -2.1341 -2.0836
 1602SOL    HW216269   2.607   1.130  13.733  0.6278  0.4153 -0.1917
 1603SOL     OW16270   1.362   2.033   7.140 -0.3218  0.1605 -0.0632
 1603SOL    HW116271   1.454   2.057   7.133  0.1498 -1.2240  1.3248
 1603SOL    HW216272   1.364   1.940   7.115 -0.7280  0.3018 -0.6100
 1604SOL     OW16273   2.136   0.591   2.449  0.4019  0.2717 -0.1904
 1604SOL    HW116274   2.041   0.589   2.440  0.4077 -0.1167 -0.1579
 1604SOL    HW216275   2.155   0.661   2.511 -2.8948  0.8087  0.1856
 1605SOL     OW16276   0.149   1.744   4.047 -0.7633 -0.0743 -0.2469
 1605SOL    HW116277   0.237   1.713   4.024 -0.5051  1.2793 -1.0752
 1605SOL    HW216278   0.148   1.727   4.142 -0.4530  0.4348 -0.1537
 1606SOL     OW16279   3.858   1.490   6.241  0.1821 -0.0680 -0.4982
 1606SOL    HW116280   3.888   1.512   6.153 -1.5032  1.3575 -0.7330
 1606SOL    HW216281   3.866   1.569   6.294  0.2111  0.7032 -1.6308
 1607SOL     OW16282   2.540   1.651  15.755  0.0203 -0.0285  0.7463
 1607SOL    HW116283   2.497   1.708  15.692 -0.4837 -1.3779 -0.1449
 1607SOL    HW216284   2.493   1.677  15.834  2.8576 -0.2039  2.4872
 1608SOL     OW16285   4.139   2.762   0.256 -0.1256 -0.6037  0.1223
 1608SOL    HW116286   4.133   2.822   0.330  0.5104  1.4024 -1.4588
 1608SOL    HW216287   4.178   2.687   0.302 -0.8111 -0.0957  1.5339
 1609SOL     OW16288   4.257   1.826   3.243 -0.3677  0.0050 -0.5531
 1609SOL    HW116289   4.235   1.866   3.327 -0.5374 -0.4138 -0.3985
 1609SOL    HW216290   4.273   1.739   3.280  1.1580  0.7190  0.4762
 1610SOL     OW16291   0.609   1.953   4.462  0.1427  0.3163  0.2198
 1610SOL    HW116292   0.600   1.881   4.398  1.3053 -0.3788  0.8370
 1610SOL    HW216293   0.668   1.909   4.523  0.6385  0.3718 -0.2174
 1611SOL     OW16294   3.029   1.531   4.442  0.1593 -0.0840 -0.3798
 1611SOL    HW116295   3.047   1.612   4.395  1.2418  0.1194  0.3866
 1611SOL    HW216296   2.996   1.478   4.370  1.1077 -1.5702  0.2656
 1612SOL     OW16297   4.226   2.310   7.199 -0.3661 -0.4253 -0.3991
 1612SOL    HW116298   4.237   2.249   7.272 -0.3018  0.1463  0.0668
 1612SOL    HW216299   4.140   2.284   7.166 -1.1972  1.0634  0.5679
 1613SOL     OW16300   0.360   0.157   5.913  0.5550 -0.1030 -0.1441
 1613SOL    HW116301   0.339   0.066   5.891 -0.0983 -0.1726  0.7687
 1613SOL    HW216302   0.280   0.202   5.885  0.6796  0.4722  0.4549
 1614SOL     OW16303   1.553   3.807   0.798 -0.3728 -0.2768  0.3792
 1614SOL    HW116304   1.564   3.772   0.886 -0.0762  2.4901  1.4364
 1614SOL    HW216305   1.630   3.863   0.791 -0.5926 -0.0752 -0.4512
 1615SOL     OW16306   2.825   2.025   2.572  0.1665  0.5957  0.2021
 1615SOL    HW116307   2.768   1.956   2.539  0.4040  1.1402 -1.3786
 1615SOL    HW216308   2.903   2.017   2.517 -1.3043  0.4478 -1.8781
 1616SOL     OW16309   0.684   0.116  13.679  0.2944  0.6218 -0.0036
 1616SOL    HW116310   0.770   0.143  13.647  0.8300 -0.8705  0.1328
 1616SOL    HW216311   0.657   0.200  13.715 -0.3079  0.6078 -0.4246
 1617SOL     OW16312   2.426   1.650   2.499  0.5920 -0.5145  0.2869
 1617SOL    HW116313   2.404   1.564   2.533  1.9082 -0.6038  0.9183
 1617SOL    HW216314   2.475   1.624   2.421  3.8225  0.8340  1.8519
 1618SOL     OW16315   2.721   1.216  16.490 -0.6597 -0.2365 -0.1419
 1618SOL    HW116316   2.737   1.200  16.397 -1.9855  0.1109 -0.4283
 1618SOL    HW216317   2.800   1.257  16.526 -0.3727 -0.2944 -0.6992
 1619SOL     OW16318   0.148   3.746   6.016 -0.0493 -0.1229 -0.5522
 1619SOL    HW116319   0.127   3.731   6.108  1.8470  3.9874  0.5592
 1619SOL    HW216320   0.062   3.776   5.985 -1.9154 -0.9085  3.9198
 1620SOL     OW16321   3.393   2.730   6.819  0.2989  0.1654  0.0972
 1620SOL    HW116322   3.366   2.645   6.853 -0.3134  1.3265  2.5601
 1620SOL    HW216323   3.366   2.719   6.728 -2.2610  3.0811  0.5146
 1621SOL     OW16324   1.473   0.708  17.249  0.5125 -0.3467  0.5192
 1621SOL    HW116325   1.471   0.755  17.332 -3.1776 -0.0981  0.3210
 1621SOL    HW216326   1.469   0.616  17.275  0.1791  0.3208  2.8143
 1622SOL     OW16327   2.428   1.229   8.033  0.6506 -0.0215  0.2042
 1622SOL    HW116328   2.336   1.241   8.010  0.7229 -2.2126 -1.2304
 1622SOL    HW216329   2.419   1.199   8.124 -1.2680 -1.6100 -0.5288
 1623SOL     OW16330   3.758   3.848   5.493  0.9823 -0.2638  0.1214
 1623SOL    HW116331   3.787   3.761   5.469  1.7407  0.3263 -1.1118
 1623SOL    HW216332   3.763   3.881   5.403  1.3702  1.9421  0.9488
 1624SOL     OW16333   3.990   2.148   7.756  0.5066 -0.5342  0.1178
 1624SOL    HW116334   4.037   2.064   7.754  1.4682  0.0035  0.2674
 1624SOL    HW216335   3.927   2.140   7.684  0.4242 -0.7064  0.2084
 1625SOL     OW16336   2.249   3.442  14.001  0.4850 -0.6154  0.0123
 1625SOL    HW116337   2.290   3.478  14.080 -0.5716 -0.9816  0.7245
 1625SOL    HW216338   2.243   3.526  13.955 -0.4911  0.6573  2.4316
 1626SOL     OW16339   1.006   3.705  14.072  0.5416  0.3272  0.2744
 1626SOL    HW116340   1.014   3.733  14.163  0.9206 -1.5409  0.8155
 1626SOL    HW216341   1.072   3.636  14.062  0.6252  0.1182  2.2390
 1627SOL     OW16342   1.407   4.288   3.255  0.4965  0.1342  0.0673
 1627SOL    HW116343   1.337   4.316   3.313  0.3398  0.7299 -0.4093
 1627SOL    HW216344   1.443   4.370   3.222 -1.3082  0.6117 -0.7162
 1628SOL     OW16345   3.328   3.297   7.611 -0.7254  0.6789 -0.3909
 1628SOL    HW116346   3.294   3.281   7.699 -2.3938  0.8581 -0.9967
 1628SOL    HW216347   3.260   3.250   7.563  1.0747 -1.1116 -1.1419
 1629SOL     OW16348   3.765   3.221   7.605  0.0865  0.4649 -0.2710
 1629SOL    HW116349   3.708   3.234   7.680  0.2582  3.1326 -0.5912
 1629SOL    HW216350   3.741   3.297   7.552 -1.5056  0.4634  0.4657
 1630SOL     OW16351   4.107   1.359   5.126 -0.0253 -0.1839  0.4327
 1630SOL    HW116352   4.048   1.409   5.070 -0.4723  1.0344  1.9991
 1630SOL    HW216353   4.184   1.413   5.142 -0.0819  0.0173  0.0270
 1631SOL     OW16354   4.079   4.650   6.504  0.5848  0.6891  0.5613
 1631SOL    HW116355   4.059   4.593   6.578  0.4720 -1.3193 -1.0433
 1631SOL    HW216356   4.131   4.592   6.448  0.5177  0.2612  0.9455
 1632SOL     OW16357   0.831   2.524   5.721 -0.0297 -0.0788  0.1840
 1632SOL    HW116358   0.800   2.593   5.662 -1.1342 -2.0373 -1.5323
 1632SOL    HW216359   0.827   2.571   5.804 -0.3103 -1.9231  1.2164
 1633SOL     OW16360   0.511   0.067   1.311 -0.4177  0.0482 -0.1132
 1633SOL    HW116361   0.516   0.132   1.380 -1.4609  0.2671 -0.2481
 1633SOL    HW216362   0.587   0.018   1.343 -1.7504 -2.2909 -0.4909
 1634SOL     OW16363   3.251   2.593   7.954  0.4391 -0.0831  0.1502
 1634SOL    HW116364   3.176   2.543   7.923  1.2948 -0.6897 -0.9579
 1634SOL    HW216365   3.207   2.661   8.004  4.1654  2.5425 -0.1604
 1635SOL     OW16366   0.452   2.017   0.248 -0.2374  0.1038 -0.1010
 1635SOL    HW116367   0.396   2.086   0.212  1.3000  0.8652 -1.0204
 1635SOL    HW216368   0.475   2.043   0.337 -0.9614 -0.5744  0.2863
 1636SOL     OW16369   0.534   2.690   6.350 -0.3434 -0.3788 -0.2755
 1636SOL    HW116370   0.570   2.767   6.394  1.1090 -1.6197  0.7174
 1636SOL    HW216371   0.445   2.719   6.333 -1.2681 -3.0876 -0.1220
 1637SOL     OW16372   3.589   0.295  16.689  0.3646 -0.0354 -0.6414
 1637SOL    HW116373   3.513   0.351  16.705  0.5185  0.1207 -0.4568
 1637SOL    HW216374   3.579   0.221  16.748 -3.4678  1.0722  0.1156
 1638SOL     OW16375   2.231   3.074   5.165  0.0053 -0.1694 -0.4968
 1638SOL    HW116376   2.236   2.978   5.169  2.2619 -0.1261 -2.5948
 1638SOL    HW216377   2.137   3.092   5.177  0.2529  0.6064  0.2878
 1639SOL     OW16378   3.883   3.016   5.808 -0.1643 -0.4532  0.1375
 1639SOL    HW116379   3.790   3.036   5.818 -0.0400 -0.3057  1.0491
 1639SOL    HW216380   3.902   2.968   5.889 -1.6742  0.1636  0.8746
 1640SOL     OW16381   2.126   3.583   3.151  0.0556  0.0599  0.0106
 1640SOL    HW116382   2.038   3.614   3.173  1.2130  3.0312  0.3828
 1640SOL    HW216383   2.104   3.551   3.063 -0.2607 -0.0065  0.1152
 1641SOL     OW16384   2.195   3.028   2.360  0.0070 -0.1008  0.1058
 1641SOL    HW116385   2.183   2.970   2.285  0.9353  0.2799 -0.3314
 1641SOL    HW216386   2.108   3.030   2.401  0.7953 -1.4113  1.8440
 1642SOL     OW16387   0.375   0.133  17.112 -0.6420 -0.7740  0.3339
 1642SOL    HW116388   0.300   0.114  17.056 -0.5753 -0.3524  0.1058
 1642SOL    HW216389   0.437   0.147  17.040 -0.8796 -1.1307  0.0645
 1643SOL     OW16390   0.639   3.161   9.016 -0.2541  0.3480  0.1639
 1643SOL    HW116391   0.615   3.074   8.982  0.2900  0.6729 -1.0778
 1643SOL    HW216392   0.729   3.149   9.046 -1.3014 -0.4134  2.9472
 1644SOL     OW16393   3.514   1.318  11.782  0.1849  0.5255 -0.4904
 1644SOL    HW116394   3.470   1.288  11.862  4.9210 -1.4170  1.3963
 1644SOL    HW216395   3.596   1.269  11.791  1.2347  1.9757 -2.2272
 1645SOL     OW16396   0.405   1.949   5.543  0.0386 -0.3614  0.2222
 1645SOL    HW116397   0.393   2.042   5.563  1.3494 -0.0867 -0.2680
 1645SOL    HW216398   0.317   1.918   5.520  0.8062 -1.8327 -0.7716
 1646SOL     OW16399   3.990   3.640   6.571 -0.1563  0.0095 -0.4969
 1646SOL    HW116400   3.968   3.554   6.535 -0.2211  1.5844 -4.1891
 1646SOL    HW216401   4.063   3.674   6.519  0.5853 -0.3142  0.3409
 1647SOL     OW16402   1.014   4.684   7.858  0.5903 -0.5504 -0.0167
 1647SOL    HW116403   0.921   4.692   7.877  0.9098  1.6237  0.6914
 1647SOL    HW216404   1.013   4.645   7.770 -1.4245  1.2352 -0.7734
 1648SOL     OW16405   3.669   2.077   3.972 -0.3962 -0.6076 -0.5760
 1648SOL    HW116406   3.582   2.065   3.935 -0.5199 -0.6418 -0.2702
 1648SOL    HW216407   3.684   2.164   3.935  0.3335 -0.3317  0.3800
 1649SOL     OW16408   1.348   3.994  15.773  0.0113 -0.1130 -0.7460
 1649SOL    HW116409   1.440   4.005  15.795 -0.9473  3.1721  1.5082
 1649SOL    HW216410   1.337   3.909  15.816 -0.2018 -0.0828 -0.7422
 1650SOL     OW16411   3.633   4.476   8.746  0.5276  0.0550  0.0936
 1650SOL    HW116412   3.707   4.418   8.762  0.0752 -0.1011  1.5520
 1650SOL    HW216413   3.598   4.436   8.666 -0.8271  0.5184  0.4617
 1651SOL     OW16414   3.137   3.543   8.191  0.2349 -0.1830  0.4606
 1651SOL    HW116415   3.180   3.613   8.240  0.0046 -0.9247  1.7065
 1651SOL    HW216416   3.198   3.469   8.194  0.1957 -0.1748  1.2931
 1652SOL     OW16417   2.150   4.237   4.457  0.4752  0.0571 -0.4129
 1652SOL    HW116418   2.160   4.147   4.425  0.2647 -0.4483  0.9322
 1652SOL    HW216419   2.066   4.233   4.503  0.9563  0.0138  0.4686
 1653SOL     OW16420   4.587   1.502   8.432  0.1398 -0.2630 -0.1141
 1653SOL    HW116421   4.652   1.437   8.459 -0.7929 -0.6250  1.2518
 1653SOL    HW216422   4.594   1.504   8.336 -0.3536 -1.3499 -0.1724
 1654SOL     OW16423   0.200   1.561  17.258 -0.8047  0.4263  0.2436
 1654SOL    HW116424   0.118   1.525  17.223 -0.3460 -1.1713  0.8507
 1654SOL    HW216425   0.215   1.644  17.212 -1.8867  1.0368  0.9711
 1655SOL     OW16426   1.600   4.606   3.490  0.1885 -0.0849  0.1050
 1655SOL    HW116427   1.508   4.581   3.477  0.5227 -1.6342  0.7055
 1655SOL    HW216428   1.633   4.519   3.512  2.3437  0.7844  0.2645
 1656SOL     OW16429   1.231   0.641   1.754 -0.2898 -0.1346 -0.4435
 1656SOL    HW116430   1.152   0.589   1.740  0.0357 -0.3979 -1.3429
 1656SOL    HW216431   1.193   0.727   1.772 -2.1697 -1.2671  0.9654
 1657SOL     OW16432   2.945   1.474   1.444  0.2621  1.0986  0.3276
 1657SOL    HW116433   3.008   1.403   1.452  1.1966  1.6746 -1.7252
 1657SOL    HW216434   2.926   1.496   1.535  1.3574 -0.2909  0.8909
 1658SOL     OW16435   0.902   3.960   2.066 -0.7216  0.0789 -0.0841
 1658SOL    HW116436   0.895   3.939   1.973 -1.2369 -0.6203  0.1150
 1658SOL    HW216437   0.983   4.010   2.055 -0.7205 -0.2161 -1.4542
 1659SOL     OW16438   0.887   4.008   6.125 -0.0679 -0.4435 -0.4742
 1659SOL    HW116439   0.939   3.960   6.190 -0.8181 -0.1257  0.3604
 1659SOL    HW216440   0.799   3.970   6.131  0.4156 -1.3246  1.2940
 1660SOL     OW16441   0.010   0.859   3.263 -0.1160  0.2531  0.1259
 1660SOL    HW116442   4.662   0.801   3.239  0.1788 -0.1895  0.3116
 1660SOL    HW216443   0.078   0.810   3.217  0.0574 -1.3873  2.1209
 1661SOL     OW16444   1.068   2.596   2.266 -0.2481  0.4632  0.3106
 1661SOL    HW116445   1.051   2.575   2.174  0.3071 -2.2987  0.8426
 1661SOL    HW216446   1.000   2.663   2.278 -0.1049  0.6609  0.0203
 1662SOL     OW16447   0.338   1.932   4.538  0.6128 -0.4173 -0.5494
 1662SOL    HW116448   0.378   1.972   4.616  0.9263 -3.5662  0.9037
 1662SOL    HW216449   0.413   1.916   4.481  1.2560  1.9196 -0.3827
 1663SOL     OW16450   1.833   2.007   4.138 -0.5299  0.0468  0.7293
 1663SOL    HW116451   1.770   1.956   4.087  1.5475 -1.6512 -0.1000
 1663SOL    HW216452   1.914   1.974   4.099  0.2175  2.4160  0.2618
 1664SOL     OW16453   1.825   3.970   8.403 -0.2432  0.0516 -0.7382
 1664SOL    HW116454   1.762   4.035   8.434  1.3076  3.1045 -4.0092
 1664SOL    HW216455   1.837   3.905   8.472  0.0247 -0.0923 -0.9263
 1665SOL     OW16456   1.564   3.011   2.538  0.2950 -0.3018  0.2126
 1665SOL    HW116457   1.602   3.067   2.471  0.7868 -1.6264 -0.6289
 1665SOL    HW216458   1.487   2.986   2.488  1.5300 -0.4181 -1.6083
 1666SOL     OW16459   0.755   3.747   3.633 -0.0036  0.3226 -0.0634
 1666SOL    HW116460   0.813   3.815   3.600  1.2406 -0.5297  0.3462
 1666SOL    HW216461   0.782   3.717   3.720 -0.0097 -1.7985 -0.7885
 1667SOL     OW16462   1.754   4.423   2.426 -0.1700 -0.2644  0.5154
 1667SOL    HW116463   1.670   4.465   2.404 -0.3243  0.0726  1.7596
 1667SOL    HW216464   1.773   4.372   2.347  0.0909  1.1060 -0.3049
 1668SOL     OW16465   0.860   2.784  15.886 -0.0536  0.1841 -0.2189
 1668SOL    HW116466   0.835   2.782  15.793 -0.3275  3.1292 -0.2249
 1668SOL    HW216467   0.881   2.876  15.901  1.4213 -0.0668 -0.8234
 1669SOL     OW16468   2.943   3.117   7.942 -0.3826 -0.5634 -0.0432
 1669SOL    HW116469   2.848   3.106   7.933 -0.5192 -0.7354  1.7068
 1669SOL    HW216470   2.940   3.199   7.992  2.8871 -0.8103  0.5152
 1670SOL     OW16471   0.456   1.264   7.379 -0.0003  0.2600  0.2054
 1670SOL    HW116472   0.515   1.304   7.442 -0.6543  0.7672  0.4903
 1670SOL    HW216473   0.512   1.193   7.348 -1.3594 -0.7030 -0.0759
 1671SOL     OW16474   4.282   0.258   2.603 -0.0165  0.2599 -0.6246
 1671SOL    HW116475   4.350   0.192   2.613 -1.3143 -0.9559  0.2801
 1671SOL    HW216476   4.303   0.289   2.515  2.9646 -0.5026 -0.1789
 1672SOL     OW16477   0.061   4.667   0.795 -0.6250 -0.3498 -0.0682
 1672SOL    HW116478   0.082   4.689   0.886  1.9980  0.6100 -0.8918
 1672SOL    HW216479   4.711   4.607   0.800  0.0471 -1.1968 -0.3273
 1673SOL     OW16480   1.780   1.268   2.772  0.1492  0.7453  0.4491
 1673SOL    HW116481   1.851   1.303   2.827  0.3372  2.5440 -0.9628
 1673SOL    HW216482   1.812   1.184   2.738 -1.3376 -0.0695  1.0316
 1674SOL     OW16483   0.942   3.595   3.839  0.6446  0.3822 -0.2213
 1674SOL    HW116484   0.926   3.503   3.819 -0.1125  0.1253  1.6605
 1674SOL    HW216485   0.865   3.607   3.894  0.2734 -0.4595 -0.5553
 1675SOL     OW16486   0.158   2.624  13.363 -0.0011  0.0021  0.1118
 1675SOL    HW116487   0.150   2.602  13.271 -1.4530 -0.7104  0.4177
 1675SOL    HW216488   0.201   2.543  13.392 -0.5093  0.2209  1.4853
 1676SOL     OW16489   0.794   3.405   5.099  0.0242 -0.1610 -0.7336
 1676SOL    HW116490   0.712   3.355   5.097 -0.1898  0.2341 -2.4224
 1676SOL    HW216491   0.773   3.465   5.027 -0.7039  0.0073 -0.3815
 1677SOL     OW16492   2.140   4.345   1.200 -0.3727  0.2165 -0.0909
 1677SOL    HW116493   2.195   4.418   1.231 -0.9339  0.3747  0.5314
 1677SOL    HW216494   2.052   4.381   1.207 -0.5730 -1.1254  4.2448
 1678SOL     OW16495   4.309   2.741  15.627  0.1114 -0.3000 -0.5788
 1678SOL    HW116496   4.365   2.720  15.553  1.4599 -3.1744  1.2212
 1678SOL    HW216497   4.244   2.808  15.610 -1.0784 -1.6487 -1.3786
 1679SOL     OW16498   2.300   1.497   9.664  0.1593 -0.0464  0.4886
 1679SOL    HW116499   2.219   1.449   9.682 -0.4149  0.4962 -0.6428
 1679SOL    HW216500   2.363   1.425   9.664  0.3366  0.1136 -1.3693
 1680SOL     OW16501   0.364   1.401   6.494 -0.2083  0.3507 -0.3262
 1680SOL    HW116502   0.381   1.390   6.588 -3.5026  0.4781  0.2862
 1680SOL    HW216503   0.331   1.490   6.484 -1.0399 -0.1613 -2.1215
 1681SOL     OW16504   1.218   3.387   8.930  0.1051  1.0060 -0.2955
 1681SOL    HW116505   1.136   3.343   8.953  0.5841  0.4016  0.2692
 1681SOL    HW216506   1.290   3.351   8.982 -0.7455 -3.0306 -1.8816
 1682SOL     OW16507   4.540   0.780  13.391  0.2339 -0.0341  0.4556
 1682SOL    HW116508   4.578   0.728  13.320  0.0116  0.9305 -0.3719
 1682SOL    HW216509   4.536   0.720  13.465 -1.9258 -0.0042  0.3575
 1683SOL     OW16510   3.672   1.859   8.325  0.3587 -0.3192  0.3015
 1683SOL    HW116511   3.666   1.786   8.386 -1.4698  1.0744  1.7921
 1683SOL    HW216512   3.739   1.919   8.360  1.0422 -0.6412 -0.4536
 1684SOL     OW16513   3.488   3.254   0.360 -0.4242 -0.0547 -0.2829
 1684SOL    HW116514   3.419   3.315   0.333 -0.2485 -0.5779 -1.8885
 1684SOL    HW216515   3.531   3.315   0.420  1.0215 -0.8409 -0.5277
 1685SOL     OW16516   3.811   0.513   4.911 -0.5165 -0.1117  0.2930
 1685SOL    HW116517   3.768   0.429   4.930  0.5237 -0.3780  1.4546
 1685SOL    HW216518   3.873   0.516   4.984  1.1007 -0.4160 -1.0721
 1686SOL     OW16519   0.470   0.729   7.609 -0.5986  0.2025 -0.4774
 1686SOL    HW116520   0.511   0.691   7.686 -1.0943 -2.4442 -1.5392
 1686SOL    HW216521   0.440   0.815   7.639  0.5970  0.3496  0.2717
 1687SOL     OW16522   2.442   3.524   2.353 -0.0909  0.1731  0.0630
 1687SOL    HW116523   2.498   3.577   2.296 -0.0485  1.1352  0.9935
 1687SOL    HW216524   2.363   3.540   2.301  0.5312  1.2692 -0.5638
 1688SOL     OW16525   0.882   1.148   1.348 -0.4856 -0.2489  0.1219
 1688SOL    HW116526   0.793   1.158   1.314 -1.4288  0.0898  2.6454
 1688SOL    HW216527   0.928   1.231   1.331 -0.1853 -0.2408  0.9541
 1689SOL     OW16528   3.813   0.408   1.866  0.4549 -0.0135  0.1822
 1689SOL    HW116529   3.908   0.405   1.876  0.4201 -2.3261 -0.3726
 1689SOL    HW216530   3.809   0.465   1.789 -0.5189  0.2191  0.4056
 1690SOL     OW16531   0.908   1.538   5.571  0.2755  0.1018 -0.1594
 1690SOL    HW116532   0.879   1.607   5.511  2.8776  4.0049  3.0244
 1690SOL    HW216533   0.950   1.472   5.517  1.5733 -1.7994  3.1578
 1691SOL     OW16534   2.424   4.559   6.768  0.6156  0.1299 -0.6197
 1691SOL    HW116535   2.502   4.596   6.728  0.9791  0.3618  0.3034
 1691SOL    HW216536   2.351   4.569   6.707  1.3308  3.2006 -0.9944
 1692SOL     OW16537   3.073   1.132   7.814  0.8720  0.0009  0.5931
 1692SOL    HW116538   2.987   1.160   7.781  0.6705 -0.5618  0.6297
 1692SOL    HW216539   3.063   1.154   7.906  1.1702  1.6609  0.2256
 1693SOL     OW16540   2.294   4.276   6.543  0.6683 -0.3026 -0.0582
 1693SOL    HW116541   2.345   4.357   6.535  2.0037 -0.7806  3.2952
 1693SOL    HW216542   2.218   4.285   6.486 -0.0942 -0.5692  0.8991
 1694SOL     OW16543   4.054   2.644   7.349  0.2019  0.1729 -0.1202
 1694SOL    HW116544   4.052   2.728   7.395  1.2740  1.0441 -1.7030
 1694SOL    HW216545   4.129   2.594   7.383 -1.3992 -1.7415  0.6345
 1695SOL     OW16546   0.535   1.307  15.362 -0.3227  0.5856  0.2162
 1695SOL    HW116547   0.495   1.394  15.361 -1.6665 -0.0316 -0.0632
 1695SOL    HW216548   0.624   1.335  15.341 -1.9429  4.1660 -1.8846
 1696SOL     OW16549   3.769   1.329   2.035 -0.3235  0.2072  0.2527
 1696SOL    HW116550   3.733   1.305   1.950  0.9948 -0.3166 -0.1635
 1696SOL    HW216551   3.847   1.376   2.003 -1.8184  2.2230 -0.4023
 1697SOL     OW16552   4.163   2.117   5.924  0.0976 -0.5851 -0.0177
 1697SOL    HW116553   4.082   2.116   5.872 -0.4562  0.0691  0.8406
 1697SOL    HW216554   4.202   2.198   5.891 -1.1025  0.1251  0.3035
 1698SOL     OW16555   0.620   0.703  10.655  0.5653 -0.4389 -0.0141
 1698SOL    HW116556   0.527   0.682  10.641  0.2238  2.4544 -2.0776
 1698SOL    HW216557   0.662   0.653  10.585 -1.1484 -0.1576 -1.2551
 1699SOL     OW16558   3.766   4.647   5.592  0.1918 -0.1412 -0.1043
 1699SOL    HW116559   3.737   4.682   5.508  1.4992 -2.1020 -1.3838
 1699SOL    HW216560   3.678   4.634   5.629 -0.0634  1.1482 -0.2719
 1700SOL     OW16561   0.054   0.543   9.223  0.1860 -0.6503 -0.4320
 1700SOL    HW116562   0.144   0.574   9.225  0.3225 -0.8583 -3.0499
 1700SOL    HW216563   0.025   0.625   9.182 -2.2441 -0.5636  1.4389
 1701SOL     OW16564   2.884   4.033  11.252  0.4015 -0.3653 -0.0261
 1701SOL    HW116565   2.930   4.101  11.202  0.4860  0.9934  1.8822
 1701SOL    HW216566   2.812   4.008  11.194  1.4999 -1.3688 -0.9327
 1702SOL     OW16567   3.618   0.809   5.670  0.2184 -0.2023 -0.2561
 1702SOL    HW116568   3.657   0.882   5.719 -0.6650  0.6875 -0.8834
 1702SOL    HW216569   3.681   0.741   5.694 -0.4471  0.1524  2.4537
 1703SOL     OW16570   1.901   0.996   3.962  0.3516 -0.5912 -0.5674
 1703SOL    HW116571   1.967   1.047   3.914  0.7387  0.1930  0.7974
 1703SOL    HW216572   1.818   1.015   3.919 -0.0212  1.3770  1.0065
 1704SOL     OW16573   3.943   1.374   8.094  0.0310 -0.6113 -0.1159
 1704SOL    HW116574   3.940   1.394   8.001 -0.4057 -0.4078 -0.0577
 1704SOL    HW216575   3.850   1.373   8.119  0.0799 -2.3016 -0.0198
 1705SOL     OW16576   0.195   4.677   0.108 -0.1570 -0.5081 -0.2984
 1705SOL    HW116577   0.222   0.017   0.175  1.9729 -1.5750 -0.1484
 1705SOL    HW216578   0.239   4.702   0.027 -0.9304  0.0699 -0.5279
 1706SOL     OW16579   3.175   0.818  12.266 -0.7883 -0.2664  0.0786
 1706SOL    HW116580   3.119   0.893  12.245  0.2469 -0.5948 -3.7886
 1706SOL    HW216581   3.135   0.802  12.352 -0.8727 -0.3183  0.0306
 1707SOL     OW16582   4.418   0.612   0.722 -0.4631 -0.0204 -0.1498
 1707SOL    HW116583   4.402   0.576   0.809  0.3890 -0.7126 -0.2796
 1707SOL    HW216584   4.379   0.700   0.728 -1.0580 -0.2319 -0.8673
 1708SOL     OW16585   3.317   2.158   1.984  0.1239  0.1763 -0.6098
 1708SOL    HW116586   3.263   2.096   1.935 -0.6622  1.1833 -1.0131
 1708SOL    HW216587   3.393   2.142   1.928  2.1464  1.4127  1.7791
 1709SOL     OW16588   3.035   3.741   4.247 -0.0319 -0.1021 -0.3013
 1709SOL    HW116589   2.964   3.800   4.271  1.0121  0.6673  0.8950
 1709SOL    HW216590   3.022   3.675   4.315  2.0584 -0.5341 -0.3002
 1710SOL     OW16591   0.153   3.860   4.908 -0.5456  0.4829  0.0647
 1710SOL    HW116592   0.072   3.857   4.960  0.6015 -0.0917  1.8251
 1710SOL    HW216593   0.144   3.947   4.869  2.0482  0.3220 -0.9041
 1711SOL     OW16594   4.215   0.530   2.727  0.1255  0.1364  0.2882
 1711SOL    HW116595   4.219   0.438   2.701 -0.5815 -0.4686  2.2955
 1711SOL    HW216596   4.233   0.573   2.644 -0.5871  0.8537  0.5049
 1712SOL     OW16597   3.255   3.883   3.233 -0.3306  0.5944 -0.4016
 1712SOL    HW116598   3.268   3.799   3.187 -3.9266 -0.4100  0.4466
 1712SOL    HW216599   3.202   3.921   3.163 -0.3413 -0.2356 -0.8520
 1713SOL     OW16600   4.523   3.549   2.350 -0.1007 -0.2079 -0.6590
 1713SOL    HW116601   4.522   3.598   2.268 -2.8538  0.2574 -0.3345
 1713SOL    HW216602   4.494   3.615   2.413  2.4301 -0.3802  0.7186
 1714SOL     OW16603   4.246   3.288   4.869  0.3440 -0.1808 -0.2879
 1714SOL    HW116604   4.271   3.368   4.823 -0.8366 -2.0315 -4.1208
 1714SOL    HW216605   4.243   3.221   4.802  0.1975  0.0282 -0.4901
 1715SOL     OW16606   1.713   1.674  12.745  0.2280  0.5385 -0.4539
 1715SOL    HW116607   1.756   1.690  12.829  0.2789 -1.4050 -0.1194
 1715SOL    HW216608   1.727   1.761  12.708 -0.7967  0.5020 -0.9091
 1716SOL     OW16609   4.215   0.682  10.750 -0.0180  0.2943  0.2331
 1716SOL    HW116610   4.286   0.652  10.807 -0.6116  4.0539  2.9514
 1716SOL    HW216611   4.154   0.609  10.764  1.7460 -0.9358  1.4596
 1717SOL     OW16612   3.176   2.105   4.120 -0.3707  0.3658 -0.0617
 1717SOL    HW116613   3.171   2.048   4.044 -1.4898  1.8316 -1.0860
 1717SOL    HW216614   3.227   2.053   4.182 -2.5148 -2.1310 -0.3919
 1718SOL     OW16615   4.504   2.695   3.322  0.3906  0.2932 -0.3577
 1718SOL    HW116616   4.491   2.747   3.242  1.8317  2.2291  0.6705
 1718SOL    HW216617   4.477   2.612   3.283 -0.4903 -0.5330  2.0106
 1719SOL     OW16618   3.954   0.792   8.514 -0.5479  0.0865 -0.2286
 1719SOL    HW116619   3.871   0.810   8.558 -0.0059  1.2765  0.2921
 1719SOL    HW216620   4.006   0.766   8.590 -1.5406  0.0903  0.4482
 1720SOL     OW16621   2.085   0.958   7.792  0.4602 -0.7957 -0.0207
 1720SOL    HW116622   2.112   0.981   7.881  1.1910 -0.2316 -0.3848
 1720SOL    HW216623   2.001   0.921   7.819 -0.9153 -0.6218 -4.0800
 1721SOL     OW16624   1.269   3.934   5.393 -0.4997  0.4313 -0.1872
 1721SOL    HW116625   1.209   3.931   5.468 -0.6161  2.5885 -0.2073
 1721SOL    HW216626   1.270   3.849   5.349  1.1418  1.4225 -2.0227
 1722SOL     OW16627   1.967   3.497   8.638 -0.4587 -0.1286 -0.3595
 1722SOL    HW116628   1.931   3.542   8.562 -0.2716  0.3178 -0.1826
 1722SOL    HW216629   2.059   3.486   8.613 -0.2561  0.0352  0.3272
 1723SOL     OW16630   3.978   3.048   8.790  0.4179 -0.0853 -0.3752
 1723SOL    HW116631   3.987   2.980   8.857  0.9999 -0.1683 -0.5395
 1723SOL    HW216632   4.052   3.023   8.735  1.1102  1.9076 -0.3401
 1724SOL     OW16633   1.007   2.767   4.590  0.0434  0.6417 -0.1372
 1724SOL    HW116634   0.969   2.731   4.510  0.0276 -1.4013  0.7861
 1724SOL    HW216635   1.072   2.700   4.613  0.3034  0.8546 -0.2521
 1725SOL     OW16636   0.243   0.084   4.220 -0.4284 -0.5195 -0.1543
 1725SOL    HW116637   0.224   4.722   4.258  0.8873 -1.0632 -0.7171
 1725SOL    HW216638   0.323   0.063   4.172  0.4976 -0.0927  1.2023
 1726SOL     OW16639   4.218   3.485   7.617  0.2333 -0.1411 -0.0859
 1726SOL    HW116640   4.199   3.524   7.532 -1.0519 -2.6134 -0.9391
 1726SOL    HW216641   4.155   3.414   7.625  0.5298 -0.1999  1.7436
 1727SOL     OW16642   3.771   2.947   2.101 -0.1224 -0.8397  0.2567
 1727SOL    HW116643   3.784   3.035   2.066  0.1454 -0.4214  1.3877
 1727SOL    HW216644   3.681   2.929   2.073 -1.1738 -0.1054  3.1093
 1728SOL     OW16645   0.195   2.267   9.406  0.1859  0.1600 -0.2040
 1728SOL    HW116646   0.204   2.286   9.500 -0.2505 -0.9796  0.0663
 1728SOL    HW216647   0.280   2.294   9.371  0.1821 -0.1498 -0.4512
 1729SOL     OW16648   0.962   4.341   7.933  0.0027  0.6985 -0.2475
 1729SOL    HW116649   0.909   4.318   8.009  0.9107 -2.1182 -0.4609
 1729SOL    HW216650   1.049   4.334   7.972 -0.4446  2.9813  1.1460
 1730SOL     OW16651   3.984   4.361   0.233  0.1958  0.3223  0.1064
 1730SOL    HW116652   4.032   4.350   0.315 -0.0185  0.2549  0.2224
 1730SOL    HW216653   3.921   4.430   0.255 -0.9734 -0.4350 -0.8885
 1731SOL     OW16654   1.016   4.408   0.473  0.1801 -0.3416 -0.4236
 1731SOL    HW116655   1.071   4.330   0.462 -1.6825 -1.9234  1.4515
 1731SOL    HW216656   1.007   4.394   0.567  0.1628  1.3317 -0.1853
 1732SOL     OW16657   3.754   0.397   2.547 -0.2327 -0.1011 -0.7223
 1732SOL    HW116658   3.750   0.342   2.624 -1.6819 -1.2519 -1.6161
 1732SOL    HW216659   3.695   0.359   2.481 -0.7120  0.0522 -0.3831
 1733SOL     OW16660   2.671   3.115   3.967 -0.4445 -0.2322 -0.1574
 1733SOL    HW116661   2.711   3.032   3.941  0.2368  0.4127 -1.1459
 1733SOL    HW216662   2.722   3.147   4.042 -0.4584  2.9169 -1.4850
 1734SOL     OW16663   4.298   3.741  13.304 -0.5706 -0.1387  0.4710
 1734SOL    HW116664   4.216   3.693  13.313 -0.6934  0.0624  0.4132
 1734SOL    HW216665   4.314   3.736  13.210  2.1654 -0.6392  0.9440
 1735SOL     OW16666   2.191   1.300   7.452  0.1869  0.2320  0.5112
 1735SOL    HW116667   2.113   1.338   7.494 -0.0094 -0.6806  0.9718
 1735SOL    HW216668   2.153   1.251   7.379  0.0524 -0.8809  1.3312
 1736SOL     OW16669   2.188   1.097   0.804  0.1662 -0.5511 -0.1172
 1736SOL    HW116670   2.124   1.093   0.875  1.4816 -2.6963  0.9376
 1736SOL    HW216671   2.141   1.161   0.750  1.6714  0.7181  0.0911
 1737SOL     OW16672   0.820   3.757  12.397 -0.3162 -0.0748  0.1875
 1737SOL    HW116673   0.865   3.683  12.356 -1.0199 -0.7689  0.6519
 1737SOL    HW216674   0.843   3.836  12.349 -2.8973  1.0536  0.8111
 1738SOL     OW16675   3.144   4.224  16.411 -0.0889  0.0575  0.3210
 1738SOL    HW116676   3.114   4.275  16.486  0.0974  2.2066 -1.0558
 1738SOL    HW216677   3.087   4.147  16.419  1.7231 -1.3879 -0.6229
 1739SOL     OW16678   1.944   1.978   5.998  0.0103 -0.5912  0.2493
 1739SOL    HW116679   1.916   1.886   6.005 -1.1688 -0.3295 -1.2010
 1739SOL    HW216680   1.860   2.022   6.001  0.3957 -0.0780  3.2368
 1740SOL     OW16681   0.490   0.280  11.743  0.6757 -0.1865  0.1210
 1740SOL    HW116682   0.459   0.220  11.811  2.5963 -1.6920 -0.3166
 1740SOL    HW216683   0.493   0.221  11.667  1.9850  0.2500 -0.1678
 1741SOL     OW16684   1.321   2.670  10.124 -0.0855  0.2686 -0.6456
 1741SOL    HW116685   1.234   2.708  10.127 -0.7733 -1.2917 -0.4502
 1741SOL    HW216686   1.312   2.593  10.181 -3.3353 -0.0809 -1.6386
 1742SOL     OW16687   0.988   0.332  11.545 -0.0230  0.1290  0.2074
 1742SOL    HW116688   1.018   0.423  11.556 -1.8749  0.5870  1.4121
 1742SOL    HW216689   1.040   0.309  11.468  0.4436  0.4845  0.4187
 1743SOL     OW16690   3.907   2.657   2.673  0.4054  0.1317 -0.1680
 1743SOL    HW116691   3.865   2.644   2.588 -2.3093 -0.2174  1.2373
 1743SOL    HW216692   3.963   2.579   2.673  1.4793  0.9101 -1.3889
 1744SOL     OW16693   1.728   2.746  10.000 -0.1145  0.1926  0.2341
 1744SOL    HW116694   1.805   2.704  10.040  0.6194  1.5239  0.2236
 1744SOL    HW216695   1.769   2.766   9.915  0.6006 -2.1450  0.0128
 1745SOL     OW16696   1.857   1.760   9.928 -0.1237 -0.0541  0.9023
 1745SOL    HW116697   1.938   1.730   9.887 -0.4953 -1.5977  1.2889
 1745SOL    HW216698   1.884   1.742  10.019 -1.2131 -1.4412  0.9574
 1746SOL     OW16699   1.231   2.533  11.935 -0.5552  0.1052  0.2326
 1746SOL    HW116700   1.274   2.569  12.012  0.5312 -0.8194  0.0450
 1746SOL    HW216701   1.205   2.617  11.896 -0.5792 -0.3983 -0.8558
 1747SOL     OW16702   0.077   3.738  12.355 -0.4114  0.0769  0.1567
 1747SOL    HW116703   0.164   3.714  12.387 -0.9308 -1.6985  0.2589
 1747SOL    HW216704   0.070   3.709  12.264 -0.3036 -2.3579  0.9324
 1748SOL     OW16705   3.031   1.505   2.941 -0.2642  0.2083 -0.0513
 1748SOL    HW116706   3.055   1.413   2.929 -1.1025 -0.2907  1.9473
 1748SOL    HW216707   2.967   1.514   2.871 -3.3452 -2.8793  2.3857
 1749SOL     OW16708   0.278   3.280   0.174  0.0725  0.5296  0.1404
 1749SOL    HW116709   0.214   3.217   0.142  0.5682 -0.3137  0.7895
 1749SOL    HW216710   0.278   3.261   0.268  1.2818 -1.5660 -0.2625
 1750SOL     OW16711   3.521   1.944  17.076  0.0253 -0.0445  0.2927
 1750SOL    HW116712   3.451   2.004  17.099 -1.6115 -1.2521 -1.5315
 1750SOL    HW216713   3.483   1.877  17.019 -1.6159  1.2382 -0.0971
 1751SOL     OW16714   3.900   4.391  13.600 -0.3778 -0.3246 -0.3516
 1751SOL    HW116715   3.836   4.328  13.566  0.6146 -0.6880 -1.5657
 1751SOL    HW216716   3.864   4.476  13.577 -0.1151 -0.1683 -0.1893
 1752SOL     OW16717   2.818   2.639  11.093 -0.3828 -0.1402  0.1837
 1752SOL    HW116718   2.750   2.641  11.027 -0.4741  1.0144  0.3143
 1752SOL    HW216719   2.896   2.611  11.045  0.4939  1.7682  0.4730
 1753SOL     OW16720   1.876   4.254   4.511 -0.0470  0.3736  0.4121
 1753SOL    HW116721   1.794   4.211   4.537  0.5567 -0.9710  0.0514
 1753SOL    HW216722   1.867   4.268   4.417 -0.3712  0.8826  0.5190
 1754SOL     OW16723   3.957   4.451   0.922 -0.1691  0.3551 -0.0871
 1754SOL    HW116724   4.023   4.510   0.886  0.1969  1.2896  2.0734
 1754SOL    HW216725   3.911   4.522   0.967 -0.5071 -0.5944  1.0630
 1755SOL     OW16726   1.550   1.839   5.248 -0.0596  0.2563  0.5199
 1755SOL    HW116727   1.575   1.787   5.324  1.2966  1.6841  1.0543
 1755SOL    HW216728   1.540   1.770   5.183  0.1569  1.1619 -0.4838
 1756SOL     OW16729   2.549   3.420   2.020 -0.6819  0.5152  0.5968
 1756SOL    HW116730   2.574   3.501   2.064 -1.0053  1.4678 -0.9291
 1756SOL    HW216731   2.482   3.383   2.078  1.0156 -0.4683  1.8985
 1757SOL     OW16732   3.223   2.549  16.391 -0.1586 -0.1526 -0.0101
 1757SOL    HW116733   3.215   2.520  16.300  4.1357 -0.4097 -0.2618
 1757SOL    HW216734   3.186   2.473  16.435  0.8212 -0.3962  0.3832
 1758SOL     OW16735   2.817   3.473   3.451  0.7622  0.1375 -0.3114
 1758SOL    HW116736   2.887   3.408   3.456  0.0308 -0.6171  0.2566
 1758SOL    HW216737   2.761   3.428   3.387 -1.1813 -1.2784  2.3443
 1759SOL     OW16738   4.022   3.164   6.349 -0.7092  0.4305  0.2079
 1759SOL    HW116739   3.936   3.146   6.389 -0.9361  2.0249  0.4115
 1759SOL    HW216740   4.082   3.121   6.410 -0.4345  1.9757  1.0106
 1760SOL     OW16741   4.055   2.678   4.763  0.2518  0.7868 -0.2534
 1760SOL    HW116742   4.014   2.673   4.677  0.2776 -1.3419 -0.1590
 1760SOL    HW216743   4.108   2.598   4.763 -2.1498 -0.8309  1.0527
 1761SOL     OW16744   3.809   3.352   5.369 -0.4661 -0.1748 -0.7836
 1761SOL    HW116745   3.738   3.334   5.430  1.1201 -0.7915  0.9048
 1761SOL    HW216746   3.886   3.312   5.410 -2.1597 -0.7823  1.8606
 1762SOL     OW16747   1.130   3.520  13.697 -0.0535 -0.1987 -0.1337
 1762SOL    HW116748   1.224   3.517  13.713 -0.2346  1.7258  1.2967
 1762SOL    HW216749   1.104   3.597  13.748  1.2181 -0.3133  0.7031
 1763SOL     OW16750   3.180   2.458   2.254  0.6047 -0.6518  0.4251
 1763SOL    HW116751   3.107   2.437   2.313 -0.1959  0.4491 -0.1634
 1763SOL    HW216752   3.140   2.473   2.168 -0.0945  1.1837  1.0699
 1764SOL     OW16753   0.816   3.755   2.260  0.4004  0.1689  0.0735
 1764SOL    HW116754   0.908   3.780   2.259  0.3924  0.1873 -1.0405
 1764SOL    HW216755   0.780   3.800   2.183  0.8694 -0.2913 -0.4211
 1765SOL     OW16756   1.386   1.280   5.936  0.3486 -0.1039  0.0263
 1765SOL    HW116757   1.467   1.279   5.886 -1.7629  3.0213 -3.5628
 1765SOL    HW216758   1.325   1.310   5.868  0.1536  0.3246  0.3905
 1766SOL     OW16759   0.338   2.368   5.061 -0.0873 -0.3440 -0.1534
 1766SOL    HW116760   0.336   2.441   4.999 -1.0440 -1.1382 -1.0610
 1766SOL    HW216761   0.247   2.342   5.050 -0.0045 -0.2869 -0.9477
 1767SOL     OW16762   2.758   3.169   3.368  0.0127  0.4504  0.4659
 1767SOL    HW116763   2.693   3.107   3.335 -1.2075  0.0191  3.6239
 1767SOL    HW216764   2.730   3.243   3.314  0.5629 -0.2554 -0.7707
 1768SOL     OW16765   3.151   0.209   7.878 -0.7504 -0.3321  0.0798
 1768SOL    HW116766   3.142   0.121   7.914 -0.6522 -0.4054 -0.0809
 1768SOL    HW216767   3.143   0.267   7.954  0.3656 -0.5252  0.3469
 1769SOL     OW16768   4.265   0.673  15.500 -0.1362 -0.2885  0.7604
 1769SOL    HW116769   4.304   0.746  15.452 -0.6524 -0.2546  0.3958
 1769SOL    HW216770   4.258   0.706  15.589 -1.3631  0.0451  0.5339
 1770SOL     OW16771   3.474   2.106   5.738 -1.2203  0.2632  0.7296
 1770SOL    HW116772   3.434   2.184   5.776  1.6098  1.1198  1.9241
 1770SOL    HW216773   3.405   2.065   5.686  0.1211 -0.0143 -0.8329
 1771SOL     OW16774   2.510   2.189  17.042 -0.7994  0.1322  0.1504
 1771SOL    HW116775   2.469   2.121  16.989 -1.2938 -0.8834  1.8376
 1771SOL    HW216776   2.580   2.218  16.983 -1.0874  2.4089  0.9371
 1772SOL     OW16777   0.234   3.733   4.311  0.3015  0.2418 -0.0394
 1772SOL    HW116778   0.167   3.781   4.262 -0.5720 -0.3700  0.5602
 1772SOL    HW216779   0.292   3.800   4.347 -1.3980  1.9473 -0.4228
 1773SOL     OW16780   3.257   0.673   1.731 -0.3244  0.4728 -0.2880
 1773SOL    HW116781   3.317   0.748   1.724  0.5990 -0.2868 -0.4871
 1773SOL    HW216782   3.171   0.709   1.712  0.2852  1.6720 -0.8141
 1774SOL     OW16783   2.388   2.342   4.219 -0.2173  0.0248  1.5073
 1774SOL    HW116784   2.315   2.288   4.191 -0.2045 -0.2178  1.9311
 1774SOL    HW216785   2.341   2.418   4.253  0.3252  1.6710 -1.4137
 1775SOL     OW16786   1.262   0.806  13.433  0.1231 -0.0462 -0.2664
 1775SOL    HW116787   1.301   0.892  13.448  0.2770  0.1827 -1.8758
 1775SOL    HW216788   1.204   0.820  13.358 -0.7891  0.3058  0.5043
 1776SOL     OW16789   1.851   0.180  10.680 -0.5304 -0.3525 -0.0006
 1776SOL    HW116790   1.812   0.159  10.765  0.7419 -0.5231  0.5530
 1776SOL    HW216791   1.831   0.273  10.674  3.9128  0.6353  0.2298
 1777SOL     OW16792   0.713   1.814   2.106 -0.3822  1.2909  0.1969
 1777SOL    HW116793   0.695   1.898   2.064 -0.2041  0.9661 -0.5421
 1777SOL    HW216794   0.637   1.803   2.164 -0.3257  2.1053  0.4211
 1778SOL     OW16795   2.303   3.739   9.357 -0.4805  0.6265 -0.1397
 1778SOL    HW116796   2.235   3.751   9.291  0.1203 -0.9931 -1.0744
 1778SOL    HW216797   2.344   3.825   9.358 -0.9281  0.8261  0.7949
 1779SOL     OW16798   0.881   0.374   5.523 -0.4593  0.3001  0.2953
 1779SOL    HW116799   0.901   0.393   5.432  1.3236  2.2214  1.1056
 1779SOL    HW216800   0.800   0.324   5.513 -0.2177  0.3124 -1.6383
 1780SOL     OW16801   4.092   4.140   6.212  0.4409 -0.0881 -0.0853
 1780SOL    HW116802   4.172   4.096   6.183  0.9427 -0.0815  1.2454
 1780SOL    HW216803   4.100   4.223   6.164  1.4697 -2.2412 -3.6337
 1781SOL     OW16804   2.091   3.120   4.014  0.4010 -0.0024  0.1175
 1781SOL    HW116805   2.013   3.104   3.960 -0.1195 -1.1309  1.1999
 1781SOL    HW216806   2.077   3.213   4.028 -1.4952 -0.3574  0.5927
 1782SOL     OW16807   1.477   4.555   8.316 -0.6540 -0.3094 -0.0568
 1782SOL    HW116808   1.421   4.480   8.336 -2.1441  1.0642  0.9756
 1782SOL    HW216809   1.554   4.506   8.290 -1.3579 -1.4805  0.0523
 1783SOL     OW16810   4.611   1.332   6.159  0.0481 -0.3805  0.2178
 1783SOL    HW116811   4.697   1.322   6.118  0.4781  4.2092  0.0325
 1783SOL    HW216812   4.641   1.317   6.249 -0.3985  1.9382  0.7351
 1784SOL     OW16813   3.362   0.246   2.017 -0.2160  0.1493 -0.0768
 1784SOL    HW116814   3.388   0.297   1.941 -0.6416 -1.4057 -1.2573
 1784SOL    HW216815   3.277   0.212   1.990 -0.4184  1.3335 -0.9250
 1785SOL     OW16816   1.309   0.361   1.809  0.5484  0.0380  0.0319
 1785SOL    HW116817   1.367   0.334   1.880  1.6740 -0.9080 -1.2518
 1785SOL    HW216818   1.312   0.456   1.819 -3.2599 -0.0794  2.4894
 1786SOL     OW16819   0.726   2.735   7.078  0.4768 -0.9519 -0.3177
 1786SOL    HW116820   0.640   2.703   7.105 -0.7274  2.1107 -0.5196
 1786SOL    HW216821   0.749   2.777   7.161 -2.3412 -1.9346  0.9350
 1787SOL     OW16822   2.081   0.932  15.062  0.1207  0.3835  0.0087
 1787SOL    HW116823   2.135   1.011  15.066 -0.7820  0.9129  1.8108
 1787SOL    HW216824   2.122   0.883  15.134 -0.2675 -0.3486 -0.2747
 1788SOL     OW16825   4.119   4.413  13.426  0.1684  0.2172 -0.2728
 1788SOL    HW116826   4.140   4.323  13.450 -2.4977 -0.4461 -0.4576
 1788SOL    HW216827   4.037   4.427  13.473  0.1790 -0.0309 -0.1799
 1789SOL     OW16828   3.973   2.967  15.310  0.0826 -0.3312  0.0627
 1789SOL    HW116829   4.048   3.023  15.294 -0.8196  1.4596  2.0802
 1789SOL    HW216830   3.895   3.020  15.293  0.9259  0.0633 -2.5598
 1790SOL     OW16831   0.582   4.480   0.186  0.4885 -0.1407  0.9438
 1790SOL    HW116832   0.570   4.556   0.129  1.1751  1.0759  2.3943
 1790SOL    HW216833   0.542   4.408   0.139  2.7560 -0.0708 -1.1096
 1791SOL     OW16834   1.392   2.146   5.437  0.3257 -0.0577 -0.4025
 1791SOL    HW116835   1.413   2.137   5.344  1.0898 -1.3409 -0.1007
 1791SOL    HW216836   1.480   2.156   5.471  0.5542 -0.1959 -0.9476
 1792SOL     OW16837   0.896   3.367  13.665 -0.7879 -0.1433  0.2240
 1792SOL    HW116838   0.974   3.422  13.666 -0.3420 -0.7668  0.2305
 1792SOL    HW216839   0.919   3.304  13.597  0.2034 -0.1745  0.5857
 1793SOL     OW16840   2.181   1.766   1.722  0.2279 -0.0327  0.0203
 1793SOL    HW116841   2.100   1.773   1.773  0.0794  1.1763 -0.3912
 1793SOL    HW216842   2.157   1.807   1.639  0.6281  1.6840  0.7560
 1794SOL     OW16843   2.674   4.252   8.638  0.1480 -0.2455 -0.2224
 1794SOL    HW116844   2.607   4.280   8.700  0.9410  1.0172  0.0654
 1794SOL    HW216845   2.623   4.217   8.565  0.2590 -1.7339  0.4129
 1795SOL     OW16846   2.595   2.073   8.155  0.5283 -0.0463 -0.3078
 1795SOL    HW116847   2.675   2.114   8.187  0.7878 -0.6319 -0.2165
 1795SOL    HW216848   2.631   1.995   8.113  0.2686 -1.8183  2.8071
 1796SOL     OW16849   2.134   3.899   2.736 -0.2233  0.0629  0.6968
 1796SOL    HW116850   2.193   3.860   2.801  3.4003  1.4886 -1.7656
 1796SOL    HW216851   2.073   3.947   2.792  0.9529 -0.1908  2.2062
 1797SOL     OW16852   0.425   0.419   9.083  0.1357 -0.0694  0.4399
 1797SOL    HW116853   0.379   0.497   9.115 -0.9312 -0.1483 -0.8998
 1797SOL    HW216854   0.515   0.452   9.072 -0.1005  0.3966 -0.1362
 1798SOL     OW16855   1.452   4.673   5.378  0.3224  0.3817  0.5604
 1798SOL    HW116856   1.372   4.692   5.329 -0.3371 -1.2284  1.0335
 1798SOL    HW216857   1.421   4.629   5.457  1.4732 -0.1871  0.6833
 1799SOL     OW16858   2.335   0.635   8.246 -0.0918 -0.0324  0.2925
 1799SOL    HW116859   2.285   0.663   8.324 -0.8303 -1.6870  0.4119
 1799SOL    HW216860   2.269   0.585   8.199  1.1518 -2.7862  1.5111
 1800SOL     OW16861   3.331   0.126  10.066 -0.0121 -0.2795 -0.6814
 1800SOL    HW116862   3.257   0.075  10.036 -0.4460 -0.0226 -0.0521
 1800SOL    HW216863   3.279   0.188  10.118  0.7201 -1.4509  1.4211
 1801SOL     OW16864   3.817   2.311   4.401  0.4865  0.0799  0.2355
 1801SOL    HW116865   3.747   2.248   4.382 -0.9736  1.3021  1.5588
 1801SOL    HW216866   3.793   2.376   4.336  0.2243 -2.1943 -1.9271
 1802SOL     OW16867   1.159   3.949  11.004  0.3095 -0.3395  0.6166
 1802SOL    HW116868   1.176   3.997  10.922  2.5733 -0.1007  1.2335
 1802SOL    HW216869   1.222   3.877  11.003  0.7643  0.0742 -1.5894
 1803SOL     OW16870   0.192   2.381   8.711  0.0412 -0.1318  0.0690
 1803SOL    HW116871   0.188   2.342   8.624  0.0050  1.5536 -0.6913
 1803SOL    HW216872   0.284   2.401   8.727  0.2626 -1.4953  0.4875
 1804SOL     OW16873   1.630   0.099   4.462 -0.0483  0.6569  0.2364
 1804SOL    HW116874   1.612   0.099   4.368  0.7581  1.8950  0.0870
 1804SOL    HW216875   1.594   0.185   4.484 -0.8998  0.2802  0.3081
 1805SOL     OW16876   1.649   4.150   1.804 -0.9006 -0.1235  0.1605
 1805SOL    HW116877   1.602   4.231   1.825  0.8365  0.4236  1.9584
 1805SOL    HW216878   1.674   4.120   1.892  2.1496 -0.9377 -1.0066
 1806SOL     OW16879   2.141   3.758   4.627 -0.0009  0.2137 -0.2763
 1806SOL    HW116880   2.145   3.803   4.711  2.1707  0.0265 -0.2679
 1806SOL    HW216881   2.047   3.761   4.609 -0.4622  1.5502  2.4572
 1807SOL     OW16882   4.623   4.069  16.505  0.0133 -0.1356  0.0535
 1807SOL    HW116883   4.589   4.158  16.494 -2.7158 -0.8220  3.0022
 1807SOL    HW216884   4.712   4.082  16.536 -0.4804 -0.3309  1.5507
 1808SOL     OW16885   0.488   1.512   5.989 -0.6169 -1.0147 -0.0803
 1808SOL    HW116886   0.507   1.453   6.062 -0.1457 -0.8241 -0.0499
 1808SOL    HW216887   0.571   1.560   5.980 -1.5582  0.6855  0.4162
 1809SOL     OW16888   1.937   4.699   5.980 -0.6645  0.4557  0.2391
 1809SOL    HW116889   1.896   4.623   5.937  1.2988 -0.3170 -0.2641
 1809SOL    HW216890   1.994   4.660   6.046  0.4620  2.9483  0.7123
 1810SOL     OW16891   3.364   0.707   9.966  0.1350  0.6056  0.3881
 1810SOL    HW116892   3.382   0.634  10.026  1.0096 -0.3445 -1.0521
 1810SOL    HW216893   3.290   0.678   9.914  0.1026  1.9507 -0.3192
 1811SOL     OW16894   1.176   3.968   8.108 -0.8793 -0.0186 -0.0834
 1811SOL    HW116895   1.129   3.974   8.191  0.8882  0.1464  0.9118
 1811SOL    HW216896   1.118   4.008   8.043 -1.0892 -0.0747  0.0704
 1812SOL     OW16897   1.106   2.104  15.806  0.6978 -0.5249 -0.7678
 1812SOL    HW116898   1.177   2.113  15.743  2.4697  1.3392  1.4694
 1812SOL    HW216899   1.115   2.010  15.817  0.3916 -0.1733  2.4020
 1813SOL     OW16900   3.620   4.050  15.367  0.5267  1.0021 -0.4614
 1813SOL    HW116901   3.663   4.121  15.319  0.1592  0.7307 -1.1966
 1813SOL    HW216902   3.535   4.056  15.324 -0.6083  0.1609  1.6772
 1814SOL     OW16903   4.496   4.266   6.004 -0.5116 -0.4711 -0.2726
 1814SOL    HW116904   4.500   4.292   5.913 -2.1820 -0.3287 -0.3123
 1814SOL    HW216905   4.434   4.193   5.995 -1.7819  0.7241 -1.1494
 1815SOL     OW16906   1.923   1.174   9.640 -0.5687 -0.4152  0.0899
 1815SOL    HW116907   1.998   1.123   9.610  0.1186  0.1239  0.8819
 1815SOL    HW216908   1.901   1.129   9.721 -0.1109 -0.9857 -0.1064
 1816SOL     OW16909   4.648   3.875   5.952 -0.8389  0.5774  0.1529
 1816SOL    HW116910   4.672   3.962   5.984  1.5136  0.4504 -1.2944
 1816SOL    HW216911   4.559   3.898   5.927 -1.5499 -1.0739  1.1893
 1817SOL     OW16912   3.529   2.635   1.020 -0.0376 -0.0027 -0.1769
 1817SOL    HW116913   3.584   2.704   0.983  0.5351  0.8511  2.2600
 1817SOL    HW216914   3.498   2.666   1.106 -0.3552  0.3022 -0.4026
 1818SOL     OW16915   1.033   1.231   4.952  0.1525 -0.2738 -0.0277
 1818SOL    HW116916   1.061   1.301   4.893  2.0349 -0.0782  1.0959
 1818SOL    HW216917   1.107   1.225   5.013  0.1129 -2.0789 -0.1779
 1819SOL     OW16918   0.476   4.143   7.674 -0.5866 -0.0191 -0.0246
 1819SOL    HW116919   0.504   4.075   7.613 -1.6554  0.3749 -0.9457
 1819SOL    HW216920   0.534   4.122   7.747 -0.4942 -0.3919 -0.2023
 1820SOL     OW16921   0.783   2.190   6.624 -0.3966 -0.2271  0.2861
 1820SOL    HW116922   0.846   2.127   6.591 -0.4559  1.2376 -2.6631
 1820SOL    HW216923   0.826   2.274   6.607 -2.2975  0.1417 -2.7824
 1821SOL     OW16924   1.867   3.050  13.891 -0.1680 -0.4466  0.3162
 1821SOL    HW116925   1.951   3.094  13.899 -0.2809 -0.5709  2.1408
 1821SOL    HW216926   1.838   3.069  13.980  0.3717  1.1969  0.1434
 1822SOL     OW16927   4.402   3.197  16.881 -0.1338  0.2081 -0.1422
 1822SOL    HW116928   4.377   3.290  16.877 -1.2623 -0.1133 -0.7366
 1822SOL    HW216929   4.348   3.175  16.958  0.7005  0.1589  0.4305
 1823SOL     OW16930   2.727   0.391   8.372  0.3846  0.7577 -0.2143
 1823SOL    HW116931   2.794   0.338   8.328 -1.0148 -1.3463  0.1948
 1823SOL    HW216932   2.702   0.452   8.304  1.5315  1.4567 -0.0192
 1824SOL     OW16933   2.875   2.250   6.129  0.3222  0.6317 -0.3336
 1824SOL    HW116934   2.909   2.172   6.086 -0.6672 -1.0023  1.8683
 1824SOL    HW216935   2.914   2.328   6.089  1.7759 -0.0482 -0.2251
 1825SOL     OW16936   2.531   2.344  17.477 -0.8570 -0.4214 -0.5333
 1825SOL    HW116937   2.487   2.316  17.397  1.3896 -1.5044 -1.3819
 1825SOL    HW216938   2.470   2.412  17.505  0.2905  0.2728  0.2743
 1826SOL     OW16939   3.702   1.018   5.112 -0.3927 -0.4758  0.1950
 1826SOL    HW116940   3.775   1.044   5.056 -0.9234 -1.4987 -0.9772
 1826SOL    HW216941   3.663   1.106   5.121 -2.3085 -1.3884  0.7802
 1827SOL     OW16942   0.604   4.651   6.301 -0.0923  0.3472 -0.5977
 1827SOL    HW116943   0.555   4.671   6.380 -0.5020 -3.2534  0.0380
 1827SOL    HW216944   0.539   4.679   6.237 -1.8900  2.0376  1.9772
 1828SOL     OW16945   2.828   2.531   8.812  0.0644  0.2727 -0.1315
 1828SOL    HW116946   2.904   2.583   8.839 -0.3560  1.3521 -1.0259
 1828SOL    HW216947   2.770   2.558   8.883  0.7210 -0.3661  0.6446
 1829SOL     OW16948   0.481   3.845   8.700 -0.0500 -0.3674 -0.4509
 1829SOL    HW116949   0.435   3.768   8.733 -3.0650  1.6310 -0.0234
 1829SOL    HW216950   0.412   3.909   8.718 -0.2607 -0.7277  0.0213
 1830SOL     OW16951   0.777   3.245  14.920  0.2474  0.4854  0.0516
 1830SOL    HW116952   0.783   3.159  14.878 -0.4305  0.1895  0.5569
 1830SOL    HW216953   0.721   3.287  14.854  1.5017  0.8174 -0.8106
 1831SOL     OW16954   2.016   2.173   0.084 -0.5822 -0.5174 -0.3895
 1831SOL    HW116955   2.023   2.113   0.010  2.5508  1.9329 -2.1302
 1831SOL    HW216956   1.965   2.234   0.031  0.3344  1.0118  0.4668
 1832SOL     OW16957   1.493   4.336  15.727  0.1914 -0.0367 -0.1862
 1832SOL    HW116958   1.542   4.418  15.733 -0.8529  0.6872 -1.5350
 1832SOL    HW216959   1.556   4.271  15.759 -0.5345 -0.5377  0.2238
 1833SOL     OW16960   1.259   4.052   7.257 -0.1142 -0.1635  0.6294
 1833SOL    HW116961   1.337   4.004   7.229 -1.6889 -1.8588 -0.8890
 1833SOL    HW216962   1.228   4.015   7.340 -0.9809 -1.4008 -0.2288
 1834SOL     OW16963   3.913   3.127   1.681  0.1869  0.0349 -0.0474
 1834SOL    HW116964   3.942   3.067   1.749  2.1819  3.1362  1.8164
 1834SOL    HW216965   3.821   3.128   1.708  0.4018 -0.4588  0.6943
 1835SOL     OW16966   1.246   0.996   9.259 -0.2754 -0.3320  0.1013
 1835SOL    HW116967   1.201   0.915   9.284 -1.8603  0.5481  0.1008
 1835SOL    HW216968   1.330   0.987   9.305 -1.3405 -2.6878  1.5805
 1836SOL     OW16969   0.140   0.001  17.297 -0.6208 -0.0121 -0.5560
 1836SOL    HW116970   0.103   4.677  17.223  2.6035 -0.5189 -1.8636
 1836SOL    HW216971   0.188   0.068  17.247 -1.9183  1.6982  0.4886
 1837SOL     OW16972   0.055   3.144   2.635 -0.0135  0.2018 -0.7384
 1837SOL    HW116973   0.061   3.141   2.539 -2.4495  1.5982 -0.9369
 1837SOL    HW216974   0.074   3.052   2.650 -0.3545  0.5907  1.9907
 1838SOL     OW16975   0.220   0.601   6.417 -0.2799 -0.1997  1.0162
 1838SOL    HW116976   0.309   0.614   6.450 -1.3358 -0.7316  4.0185
 1838SOL    HW216977   0.189   0.688   6.393  0.9784 -0.3596 -1.1939
 1839SOL     OW16978   1.395   3.625   3.511 -0.1452  0.3326  0.0058
 1839SOL    HW116979   1.437   3.694   3.563  0.9089 -0.1020 -0.2772
 1839SOL    HW216980   1.317   3.619   3.566  0.7274 -3.5080  0.7753
 1840SOL     OW16981   3.626   2.498   2.825  0.2190 -0.1541  0.1546
 1840SOL    HW116982   3.579   2.539   2.752 -0.9747  1.1440  1.6436
 1840SOL    HW216983   3.593   2.410   2.804 -0.8943 -0.7052  4.2462
 1841SOL     OW16984   1.271   1.285   4.353  0.0622  0.2463 -0.3162
 1841SOL    HW116985   1.208   1.341   4.308  0.3868  2.4357  1.9604
 1841SOL    HW216986   1.350   1.322   4.314  0.1018 -0.0438 -0.5173
 1842SOL     OW16987   1.083   0.328   5.691  0.1420  0.6894  0.1193
 1842SOL    HW116988   1.005   0.339   5.637  0.5002 -0.2806 -0.5977
 1842SOL    HW216989   1.143   0.374   5.632 -1.4430  2.1953 -0.3155
 1843SOL     OW16990   3.971   4.421  13.869  0.1035 -0.0967 -0.3646
 1843SOL    HW116991   3.884   4.459  13.863 -0.2713 -1.3490 -2.8108
 1843SOL    HW216992   3.978   4.414  13.774 -1.2013  1.4171 -0.5520
 1844SOL     OW16993   2.654   1.630   3.826  0.5596  0.2939  0.4222
 1844SOL    HW116994   2.739   1.669   3.807 -0.2843  1.3751 -1.1036
 1844SOL    HW216995   2.607   1.706   3.859 -1.2908 -1.0319  0.8003
 1845SOL     OW16996   3.823   2.095   8.410 -0.0282  0.6068 -0.1899
 1845SOL    HW116997   3.809   2.190   8.406 -1.1450  0.4806  0.8828
 1845SOL    HW216998   3.906   2.086   8.364 -0.3860  0.3280 -0.7983
 1846SOL     OW16999   2.430   2.138  17.664 -0.2395  0.1118  0.0986
 1846SOL    HW117000   2.471   2.222  17.684  0.2438  0.0421 -0.5884
 1846SOL    HW217001   2.454   2.090   0.048  0.7123  0.2784 -0.0811
 1847SOL     OW17002   4.444   0.115   9.516  0.3480  0.0244 -0.3321
 1847SOL    HW117003   4.390   0.109   9.437  1.8711  1.6102 -1.5191
 1847SOL    HW217004   4.526   0.149   9.479  0.2750 -0.3320 -0.8133
 1848SOL     OW17005   3.380   3.263   3.705  0.0530 -0.1667  0.2431
 1848SOL    HW117006   3.293   3.299   3.725 -0.1993  0.5322 -2.0507
 1848SOL    HW217007   3.425   3.249   3.788 -1.7980 -2.6593  0.8320
 1849SOL     OW17008   2.026   0.841   1.368  0.1247 -0.0643  0.3463
 1849SOL    HW117009   2.038   0.769   1.305  1.6173  0.9988 -0.5868
 1849SOL    HW217010   1.934   0.820   1.383 -0.0150  0.9390  0.8703
 1850SOL     OW17011   4.431   4.087   9.139  0.0723 -0.1588  0.6995
 1850SOL    HW117012   4.344   4.074   9.102 -0.9602  3.1880  1.8793
 1850SOL    HW217013   4.420   4.048   9.226 -1.1433 -2.5330 -0.5296
 1851SOL     OW17014   2.629   0.903   2.206 -0.0802 -0.1578  0.4712
 1851SOL    HW117015   2.672   0.817   2.199 -1.8734 -0.9889 -0.3354
 1851SOL    HW217016   2.595   0.919   2.118  1.0190 -0.5268 -0.0317
 1852SOL     OW17017   2.991   0.908   7.674 -0.0511 -0.2972 -0.5029
 1852SOL    HW117018   2.953   0.859   7.747 -0.0131  1.8520  0.9588
 1852SOL    HW217019   3.047   0.975   7.712 -0.8114  1.6041 -2.7001
 1853SOL     OW17020   3.167   3.682   0.115 -0.0380 -0.3800  0.0075
 1853SOL    HW117021   3.185   3.760   0.168 -3.9038  1.2557 -1.0792
 1853SOL    HW217022   3.073   3.664   0.122 -0.0829 -0.0601  0.2391
 1854SOL     OW17023   2.121   2.043   8.422 -0.1859  0.0506  0.2015
 1854SOL    HW117024   2.198   2.009   8.375 -0.4480  0.3522 -0.4392
 1854SOL    HW217025   2.130   1.999   8.506  0.5355  3.4713  1.8828
 1855SOL     OW17026   1.317   1.402   1.951 -0.0284  0.0519  0.3861
 1855SOL    HW117027   1.310   1.329   2.013  0.8970  0.6299  1.1801
 1855SOL    HW217028   1.228   1.435   1.956 -0.0254  0.4164 -2.2881
 1856SOL     OW17029   1.991   2.379  11.059  0.2905  0.5731 -0.1508
 1856SOL    HW117030   1.910   2.371  11.110  0.3583  1.5658  0.1164
 1856SOL    HW217031   2.054   2.389  11.130 -0.6460  0.0838  0.7643
 1857SOL     OW17032   3.172   3.616   6.741  0.4253 -0.2378 -0.4779
 1857SOL    HW117033   3.228   3.576   6.807  0.5915  1.5046  0.4440
 1857SOL    HW217034   3.238   3.649   6.680 -0.6378 -3.1577 -3.2016
 1858SOL     OW17035   1.501   0.354   4.491  0.2924 -0.2515 -0.3329
 1858SOL    HW117036   1.461   0.436   4.464  1.7076  0.5764  0.0693
 1858SOL    HW217037   1.585   0.398   4.501  0.2941 -0.6649  1.4498
 1859SOL     OW17038   2.777   0.105   6.528 -0.2922 -0.1012 -0.5401
 1859SOL    HW117039   2.843   0.161   6.570  1.1796 -1.6416 -0.8149
 1859SOL    HW217040   2.775   0.137   6.438 -0.2062  1.3555 -0.0245
 1860SOL     OW17041   4.222   3.439   4.002 -0.2956 -0.3226 -0.6479
 1860SOL    HW117042   4.317   3.431   4.013 -0.6966 -3.7836  0.1782
 1860SOL    HW217043   4.205   3.345   4.009  2.1195 -0.8426 -1.8418
 1861SOL     OW17044   1.141   2.938   9.969  0.0625  0.3535  0.8132
 1861SOL    HW117045   1.090   2.989   9.905  0.8760  1.9787  1.4593
 1861SOL    HW217046   1.234   2.960   9.965 -0.1756  1.4454  1.3400
 1862SOL     OW17047   1.589   0.528   5.972  0.0843 -0.1704  0.2479
 1862SOL    HW117048   1.565   0.567   5.888  1.2525  1.2998  0.5827
 1862SOL    HW217049   1.669   0.577   5.992 -0.3879  0.3188  0.9556
 1863SOL     OW17050   4.250   0.706   3.714  0.0541  0.3929 -0.3141
 1863SOL    HW117051   4.264   0.729   3.805 -1.7510  0.2691 -0.0030
 1863SOL    HW217052   4.171   0.652   3.713 -0.2051  0.7886 -0.6952
 1864SOL     OW17053   4.116   2.455   7.773  0.2082  0.0274 -0.1733
 1864SOL    HW117054   4.171   2.437   7.697  0.8318 -0.8191  0.4827
 1864SOL    HW217055   4.075   2.369   7.787  0.8526 -0.5365 -1.7523
 1865SOL     OW17056   2.027   3.919   3.027  0.4196  0.4781 -0.4242
 1865SOL    HW117057   2.087   3.983   3.066 -1.0932  2.4252 -1.2693
 1865SOL    HW217058   1.957   3.905   3.091  1.0619  1.5754  0.5190
 1866SOL     OW17059   1.719   1.545   8.604 -0.5051  0.4239 -0.1892
 1866SOL    HW117060   1.806   1.568   8.571 -0.7933  0.9945 -0.5692
 1866SOL    HW217061   1.725   1.570   8.696 -0.2300  2.1988 -0.6734
 1867SOL     OW17062   3.787   4.190   5.401 -0.3499 -0.5697 -0.1652
 1867SOL    HW117063   3.823   4.107   5.430 -1.1585 -1.9893 -3.2868
 1867SOL    HW217064   3.807   4.242   5.479 -0.3675  0.3100 -0.7445
 1868SOL     OW17065   0.794   1.647   7.093  0.0903 -0.1708  0.1689
 1868SOL    HW117066   0.798   1.700   7.172  3.1665  1.5813 -1.2036
 1868SOL    HW217067   0.725   1.585   7.119  0.2397  0.3313  1.7503
 1869SOL     OW17068   4.145   1.328  10.942 -0.2537 -0.3895 -0.5195
 1869SOL    HW117069   4.052   1.314  10.927 -0.7810  1.8704  0.4968
 1869SOL    HW217070   4.144   1.338  11.038 -2.1391  0.1054 -0.6007
 1870SOL     OW17071   4.244   3.396  11.992 -0.0178 -0.7049  1.0810
 1870SOL    HW117072   4.316   3.444  11.951  0.4295 -0.9822  1.5434
 1870SOL    HW217073   4.221   3.438  12.074  0.2056  1.5465 -0.0235
 1871SOL     OW17074   1.946   3.214  11.145  0.0355  0.2512 -0.2730
 1871SOL    HW117075   1.983   3.126  11.138 -1.0746 -0.0219 -2.7907
 1871SOL    HW217076   1.892   3.222  11.066  1.9821  0.9141 -1.5342
 1872SOL     OW17077   4.023   2.324  15.564  0.1446 -0.6188 -0.2479
 1872SOL    HW117078   4.056   2.366  15.484 -0.8269  2.6247  1.0441
 1872SOL    HW217079   4.054   2.378  15.637 -0.7941  0.1539 -0.4158
 1873SOL     OW17080   1.830   4.305   0.353 -0.2182 -0.0830 -0.1007
 1873SOL    HW117081   1.792   4.339   0.272 -0.4566  2.0375  0.8985
 1873SOL    HW217082   1.871   4.222   0.328  1.5948  0.5871  0.6401
 1874SOL     OW17083   3.177   1.547  13.579  0.0627  0.4655  0.3473
 1874SOL    HW117084   3.227   1.502  13.511 -0.3323 -1.1782  1.1513
 1874SOL    HW217085   3.108   1.576  13.520 -1.9819 -2.6240  1.2256
 1875SOL     OW17086   1.312   3.495  11.095 -0.3489 -0.7181 -0.3003
 1875SOL    HW117087   1.329   3.411  11.137 -0.9635 -1.1346 -0.8891
 1875SOL    HW217088   1.247   3.542  11.146 -2.1502  0.3651 -3.5945
 1876SOL     OW17089   1.398   4.451   9.612  0.4235  0.2822  0.6182
 1876SOL    HW117090   1.419   4.436   9.704 -1.5911  2.7861  1.4756
 1876SOL    HW217091   1.456   4.391   9.565 -0.2155  0.7150 -0.7411
 1877SOL     OW17092   0.117   0.497   3.280  0.4265  0.6679 -0.3527
 1877SOL    HW117093   0.023   0.498   3.295  0.5420 -1.2394  0.5089
 1877SOL    HW217094   0.148   0.410   3.307 -1.5069  0.1301  0.1272
 1878SOL     OW17095   4.722   2.300   6.592  0.2544  0.6869 -0.6082
 1878SOL    HW117096   4.689   2.386   6.619  2.1420  1.2310  0.0072
 1878SOL    HW217097   0.087   2.298   6.628  1.2252 -0.5385 -3.0139
 1879SOL     OW17098   2.646   2.797  15.523  0.1684  0.3561 -0.3995
 1879SOL    HW117099   2.639   2.885  15.486 -1.6038  0.7082  0.7430
 1879SOL    HW217100   2.553   2.777  15.530 -0.1409  1.4227 -1.5323
 1880SOL     OW17101   1.531   1.562   6.457 -0.1277 -0.1346  0.9088
 1880SOL    HW117102   1.562   1.652   6.448  0.5815 -0.4563  0.2074
 1880SOL    HW217103   1.575   1.538   6.376 -2.3638  0.0772 -0.3578
 1881SOL     OW17104   3.573   2.174   0.969  0.9397 -0.1582  0.0160
 1881SOL    HW117105   3.512   2.245   0.988  0.6783 -0.1346 -0.9538
 1881SOL    HW217106   3.606   2.156   1.058  0.6214  0.7568  0.3152
 1882SOL     OW17107   1.783   0.145   8.743 -0.4128 -0.3628  0.1063
 1882SOL    HW117108   1.873   0.176   8.728  0.1873 -1.7944  0.7222
 1882SOL    HW217109   1.767   0.162   8.836 -1.2529 -1.3684  0.1461
 1883SOL     OW17110   4.480   1.902  16.841  0.6087  0.1631  0.4026
 1883SOL    HW117111   4.470   1.987  16.799  2.3493  0.8455  1.3333
 1883SOL    HW217112   4.547   1.866  16.782 -0.2856  1.3103 -1.3173
 1884SOL     OW17113   1.461   1.643   7.820 -0.2661  0.6319  0.3042
 1884SOL    HW117114   1.505   1.665   7.902 -1.6586  0.6906  1.0264
 1884SOL    HW217115   1.407   1.568   7.845 -1.9487  2.1445  1.2746
 1885SOL     OW17116   2.535   2.706  17.373  0.0566  0.3117  0.1245
 1885SOL    HW117117   2.468   2.645  17.341 -0.4071  1.8171 -1.8422
 1885SOL    HW217118   2.570   2.742  17.291 -1.9366  0.7160 -0.5630
 1886SOL     OW17119   1.696   1.374  14.656 -0.1780 -0.5245  0.0567
 1886SOL    HW117120   1.721   1.334  14.739  1.5892  1.3871  0.4377
 1886SOL    HW217121   1.693   1.291  14.607 -1.4937 -1.0034  0.9562
 1887SOL     OW17122   3.846   3.457   0.704 -0.0213  0.3954  0.2138
 1887SOL    HW117123   3.792   3.452   0.783  1.3492 -0.6475  1.0720
 1887SOL    HW217124   3.811   3.381   0.658 -2.9918  1.0329  1.3703
 1888SOL     OW17125   4.178   0.667   2.476  0.2020  0.0182  0.2842
 1888SOL    HW117126   4.085   0.644   2.466  0.8144 -1.3633 -2.2521
 1888SOL    HW217127   4.194   0.735   2.410 -2.2692  1.2600  0.9499
 1889SOL     OW17128   1.983   4.449  11.152  0.0422  0.2064 -0.0419
 1889SOL    HW117129   2.016   4.537  11.133 -1.3151  0.5907 -0.6049
 1889SOL    HW217130   2.058   4.390  11.138  1.3512  1.4021  1.9603
 1890SOL     OW17131   3.498   3.196   4.031  0.3094  0.1241 -0.8379
 1890SOL    HW117132   3.428   3.256   4.005  0.9067  1.3618  0.4392
 1890SOL    HW217133   3.470   3.169   4.119 -1.9134 -2.4400 -2.3255
 1891SOL     OW17134   0.978   2.795   3.747  0.1831  0.2038 -0.2358
 1891SOL    HW117135   1.070   2.784   3.725  0.7323 -2.9195  3.6091
 1891SOL    HW217136   0.965   2.704   3.774  2.4895 -0.0818 -0.1294
 1892SOL     OW17137   0.943   4.317  16.147  0.0277 -0.1586  0.0989
 1892SOL    HW117138   0.926   4.325  16.241  0.3825 -0.9882  0.2309
 1892SOL    HW217139   0.893   4.393  16.117 -0.2238  0.4507  2.0788
 1893SOL     OW17140   0.134   3.162   7.534  0.4679  0.4546  0.0445
 1893SOL    HW117141   0.110   3.201   7.450 -2.4551 -2.0999 -0.2896
 1893SOL    HW217142   0.175   3.081   7.502 -1.2561 -0.1611 -0.6046
 1894SOL     OW17143   0.424   1.218   4.847  0.0926  0.3831 -0.0788
 1894SOL    HW117144   0.467   1.274   4.912  0.3255 -1.2090  1.1414
 1894SOL    HW217145   0.382   1.270   4.778  1.5065  0.9529 -0.5031
 1895SOL     OW17146   2.544   3.371   2.969 -0.0285 -0.0854  0.1521
 1895SOL    HW117147   2.565   3.300   2.909  0.2270  1.0283 -1.0653
 1895SOL    HW217148   2.467   3.414   2.933 -0.0278 -1.2711 -1.2578
 1896SOL     OW17149   2.888   2.539   6.798 -0.2179 -0.4821  0.4344
 1896SOL    HW117150   2.856   2.489   6.874 -0.2144 -3.6292 -1.6385
 1896SOL    HW217151   2.902   2.622   6.843  1.5773 -1.0774  0.9808
 1897SOL     OW17152   2.766   4.018   1.471  0.6471  0.2680 -0.3751
 1897SOL    HW117153   2.803   4.083   1.531 -0.4082  1.1670 -0.7048
 1897SOL    HW217154   2.696   3.973   1.519 -0.5812  1.1420 -1.3512
 1898SOL     OW17155   1.406   1.594  16.385  0.1739 -0.2908  0.1341
 1898SOL    HW117156   1.429   1.622  16.296  1.3798 -1.3784  0.1007
 1898SOL    HW217157   1.374   1.675  16.424 -0.7206 -0.9223  0.7022
 1899SOL     OW17158   1.270   2.904   2.714 -0.0399  1.3821  0.5203
 1899SOL    HW117159   1.340   2.923   2.651  0.1000 -1.7217 -0.2616
 1899SOL    HW217160   1.298   2.960   2.786  0.8081  1.4977  0.1063
 1900SOL     OW17161   2.367   0.793   8.039 -0.0571 -0.3397 -0.0353
 1900SOL    HW117162   2.345   0.724   8.101 -0.8436  1.2941  1.5010
 1900SOL    HW217163   2.440   0.758   7.987 -0.0014  0.6222 -0.6104
 1901SOL     OW17164   2.150   3.429   2.494  0.3105  0.0796  0.4454
 1901SOL    HW117165   2.102   3.496   2.543  1.1352  1.6738 -0.9442
 1901SOL    HW217166   2.210   3.488   2.449 -0.3450 -0.1480 -0.7179
 1902SOL     OW17167   2.033   0.076   3.844  0.1536 -0.5887  0.4110
 1902SOL    HW117168   2.066   0.078   3.934 -0.4591 -0.8303  0.6425
 1902SOL    HW217169   2.085   0.147   3.807 -1.8149 -0.0093 -1.2232
 1903SOL     OW17170   0.832   1.505   2.540 -0.1023  0.2440 -0.0787
 1903SOL    HW117171   0.776   1.433   2.510  0.1867  0.1513 -0.3972
 1903SOL    HW217172   0.764   1.573   2.541 -0.9566 -0.5827 -1.4134
 1904SOL     OW17173   1.411   2.947  10.390 -0.3580 -0.1328 -0.0269
 1904SOL    HW117174   1.458   2.909  10.465 -0.8690  3.1129  1.9663
 1904SOL    HW217175   1.464   3.026  10.376  0.7165 -1.2816 -2.5403
 1905SOL     OW17176   0.555   2.193   4.965  0.8838 -0.0008 -0.6593
 1905SOL    HW117177   0.638   2.241   4.964  1.1550 -0.4706 -0.9237
 1905SOL    HW217178   0.497   2.258   5.006 -0.7749 -0.4103 -2.3367
 1906SOL     OW17179   0.438   1.356   9.685 -0.3891 -0.6224  0.2947
 1906SOL    HW117180   0.375   1.366   9.615 -1.3768 -1.8370  1.0210
 1906SOL    HW217181   0.502   1.295   9.649  1.0001 -0.1981  1.9848
 1907SOL     OW17182   0.762   4.618   0.380  0.0869  0.3598  0.4167
 1907SOL    HW117183   0.688   4.664   0.340  0.5462 -0.0040 -0.8378
 1907SOL    HW217184   0.718   4.535   0.395 -1.1677  0.9216 -0.2378
 1908SOL     OW17185   4.436   1.587   6.174 -0.0965 -0.3820 -0.1980
 1908SOL    HW117186   4.501   1.585   6.104  0.3419  1.5073  0.1513
 1908SOL    HW217187   4.363   1.629   6.129  0.1924 -1.3327 -1.5650
 1909SOL     OW17188   0.805   1.161  14.861 -0.2865  0.2525 -0.6737
 1909SOL    HW117189   0.897   1.173  14.883 -0.4565  0.6467 -0.1781
 1909SOL    HW217190   0.774   1.227  14.923  2.9454  0.3744  0.7847
 1910SOL     OW17191   4.190   0.003  11.685 -0.1950 -0.9101 -0.4769
 1910SOL    HW117192   4.224   0.069  11.746 -1.9440 -1.8773  1.5300
 1910SOL    HW217193   4.100   0.034  11.685  0.3408  0.6933  0.5027
 1911SOL     OW17194   2.061   4.098   6.370  0.3509  0.3912 -0.1997
 1911SOL    HW117195   1.990   4.162   6.364 -1.0888 -1.2244 -0.6429
 1911SOL    HW217196   2.027   4.048   6.444 -0.1614  3.1174  1.3726
 1912SOL     OW17197   2.864   3.138   6.436  0.4041 -0.1728  0.2991
 1912SOL    HW117198   2.789   3.196   6.450 -1.0712 -2.2888  1.0943
 1912SOL    HW217199   2.821   3.052   6.437 -0.2597  0.1575  0.0043
 1913SOL     OW17200   4.514   4.206  13.375  0.2700 -0.1217 -0.0163
 1913SOL    HW117201   4.608   4.191  13.384  0.5200  1.6691  0.4050
 1913SOL    HW217202   4.480   4.123  13.341  0.8526 -0.5338  0.3990
 1914SOL     OW17203   0.869   3.355   4.756  0.3101  0.1927  0.1291
 1914SOL    HW117204   0.837   3.386   4.672 -0.9333 -1.1016  0.1396
 1914SOL    HW217205   0.950   3.312   4.728  0.8484  1.0812  0.3100
 1915SOL     OW17206   0.730   0.510   6.915 -0.1176  0.0846 -0.0837
 1915SOL    HW117207   0.749   0.563   6.837 -3.1765 -1.2113 -1.7518
 1915SOL    HW217208   0.797   0.542   6.975  0.9840  0.8590 -1.7017
 1916SOL     OW17209   1.646   3.165  10.660 -0.4424  0.2518 -0.1766
 1916SOL    HW117210   1.634   3.191  10.569  1.8758  1.6121 -0.0957
 1916SOL    HW217211   1.638   3.070  10.648  0.1050  0.4346 -1.9249
 1917SOL     OW17212   2.860   3.714   7.253  0.3426 -0.1142 -0.3706
 1917SOL    HW117213   2.830   3.756   7.333  1.6004 -3.5566  1.9192
 1917SOL    HW217214   2.795   3.755   7.196 -0.8035  0.1651  1.1364
 1918SOL     OW17215   2.457   2.179   7.528 -0.3257 -0.3873 -1.1733
 1918SOL    HW117216   2.430   2.264   7.563 -1.7239 -1.0454 -0.6561
 1918SOL    HW217217   2.386   2.122   7.557 -0.1136 -0.8399 -1.5474
 1919SOL     OW17218   2.742   1.695  16.841  0.0753  0.1940 -0.0850
 1919SOL    HW117219   2.800   1.622  16.861 -2.6824 -1.4894  1.8413
 1919SOL    HW217220   2.659   1.650  16.829 -1.5447  2.6840  1.6580
 1920SOL     OW17221   1.283   2.018  11.922  0.7014 -0.5594  0.2885
 1920SOL    HW117222   1.206   2.063  11.957  0.8280  0.6423 -1.0223
 1920SOL    HW217223   1.314   1.991  12.009 -1.6256 -2.7237  0.4461
 1921SOL     OW17224   1.307   1.049  17.656 -0.2476 -0.4050  0.5455
 1921SOL    HW117225   1.327   0.966   0.005  0.8328  1.7655  4.1297
 1921SOL    HW217226   1.215   1.059  17.679 -0.5198 -0.3834 -0.5580
 1922SOL     OW17227   4.367   1.350   5.458 -0.7362  0.5001  0.2619
 1922SOL    HW117228   4.402   1.439   5.465  2.1651 -0.6334  0.0518
 1922SOL    HW217229   4.276   1.364   5.484 -1.2218  0.5772 -1.5272
 1923SOL     OW17230   0.956   2.879  17.073  0.5447 -0.6667 -0.5306
 1923SOL    HW117231   0.978   2.837  16.989  1.6667 -0.3804 -0.3862
 1923SOL    HW217232   0.894   2.814  17.105 -2.4641  0.1642 -4.6067
 1924SOL     OW17233   0.203   4.567   9.003  0.9888 -0.2627 -0.1150
 1924SOL    HW117234   0.150   4.633   8.959  0.7348  0.3961  1.1838
 1924SOL    HW217235   0.249   4.546   8.922  0.3078  0.8836 -0.7902
 1925SOL     OW17236   1.454   2.526   4.824  0.4605  0.1209 -0.6340
 1925SOL    HW117237   1.436   2.451   4.768  0.2299  1.0133 -1.7371
 1925SOL    HW217238   1.486   2.483   4.903 -2.3186  0.3868  0.6495
 1926SOL     OW17239   4.166   0.070   5.394 -0.1997 -0.0138  0.1733
 1926SOL    HW117240   4.230   0.133   5.360 -0.6965  1.2733  1.6408
 1926SOL    HW217241   4.230   0.017   5.442 -0.9027 -2.0971 -1.1993
 1927SOL     OW17242   2.732   1.747  17.213 -0.2400 -0.2957 -0.5615
 1927SOL    HW117243   2.813   1.706  17.182  0.5595  0.3008  0.7323
 1927SOL    HW217244   2.746   1.736  17.307  0.9111 -2.5738 -1.0105
 1928SOL     OW17245   4.038   1.742   1.770  0.0961 -0.0720 -0.1758
 1928SOL    HW117246   4.113   1.710   1.820 -1.1777 -2.4781  0.2204
 1928SOL    HW217247   4.033   1.836   1.783  1.2085  0.0551 -0.6942
 1929SOL     OW17248   4.072   3.843   7.243  0.1941  0.8965 -0.1581
 1929SOL    HW117249   4.140   3.860   7.178  1.4200 -0.7489  0.7011
 1929SOL    HW217250   4.002   3.906   7.226  1.1086  2.0413  0.3816
 1930SOL     OW17251   3.981   2.126  13.431  0.5402 -0.3262  0.2355
 1930SOL    HW117252   4.039   2.182  13.482  0.2921  1.0134 -0.9803
 1930SOL    HW217253   4.012   2.036  13.445 -0.4481 -0.5377  1.0952
 1931SOL     OW17254   2.253   4.599   8.596  0.0577  0.3037 -0.0416
 1931SOL    HW117255   2.213   4.686   8.598  0.9258  0.6881  0.2938
 1931SOL    HW217256   2.183   4.539   8.572  0.8348 -0.2144 -1.0279
 1932SOL     OW17257   2.777   4.505  14.971 -0.4447 -0.3303  0.9405
 1932SOL    HW117258   2.709   4.512  14.903  1.5092 -3.4829 -1.3592
 1932SOL    HW217259   2.789   4.410  14.977  0.0799 -0.4722 -2.1508
 1933SOL     OW17260   2.258   1.403   5.740 -0.2401 -0.1562  0.2336
 1933SOL    HW117261   2.254   1.465   5.813  1.2010  1.4498 -1.0528
 1933SOL    HW217262   2.209   1.454   5.677 -0.4115  2.5396  2.5709
 1934SOL     OW17263   3.781   0.293   7.792 -0.3540  0.1418  0.1859
 1934SOL    HW117264   3.719   0.228   7.760 -0.7736 -0.1303  1.5774
 1934SOL    HW217265   3.818   0.248   7.868  3.2902  2.2083 -0.3603
 1935SOL     OW17266   3.968   0.444   4.666  0.1029 -0.1786  0.1092
 1935SOL    HW117267   3.933   0.457   4.755 -1.9058 -1.4024 -0.5199
 1935SOL    HW217268   3.992   0.535   4.649 -0.1254 -0.1306  0.0429
 1936SOL     OW17269   0.067   4.134   0.017 -0.0099  0.1401  0.1267
 1936SOL    HW117270   0.076   4.039   0.011 -0.7297  0.1657 -1.2980
 1936SOL    HW217271   4.722   4.142   0.084  0.2138  2.9971 -0.0170
 1937SOL     OW17272   1.988   4.046   4.977  0.6410  0.2656 -0.1493
 1937SOL    HW117273   1.893   4.056   4.983  0.2167 -3.2975 -1.0273
 1937SOL    HW217274   2.009   4.136   4.950  0.8230  0.1752 -0.3118
 1938SOL     OW17275   3.116   3.995   4.963  0.1340  0.0385 -0.1981
 1938SOL    HW117276   3.102   3.907   4.999  0.6553 -0.2886 -0.8165
 1938SOL    HW217277   3.025   4.006   4.935 -0.1717 -1.8754  0.0309
 1939SOL     OW17278   4.674   4.597   7.042 -0.1822  0.0407  0.2844
 1939SOL    HW117279   4.667   4.553   6.957  1.0924  1.2796 -0.4580
 1939SOL    HW217280   4.716   4.681   7.022 -1.0843  0.1433 -1.1403
 1940SOL     OW17281   3.053   0.162  16.305  0.1114  0.1555  0.1740
 1940SOL    HW117282   3.135   0.180  16.352  0.8907 -0.1687 -1.0541
 1940SOL    HW217283   3.098   0.136  16.224  2.7826  0.0390  1.6700
 1941SOL     OW17284   3.985   2.918  17.420  0.6181  0.6361 -0.4727
 1941SOL    HW117285   4.018   3.008  17.414 -1.7972  1.6199  0.7735
 1941SOL    HW217286   4.045   2.885  17.487 -0.3721 -0.1079  0.0425
 1942SOL     OW17287   4.294   2.180  17.668 -0.5145 -0.4992  0.0502
 1942SOL    HW117288   4.385   2.155  17.684 -0.1287 -0.1181 -1.5902
 1942SOL    HW217289   4.271   2.227   0.052 -0.0454 -0.0796 -0.0637
 1943SOL     OW17290   1.806   1.370   8.296 -0.0513 -0.0981  0.3077
 1943SOL    HW117291   1.856   1.329   8.224 -0.7805 -0.0887 -0.2049
 1943SOL    HW217292   1.805   1.295   8.355  0.0461 -1.0736 -0.9139
 1944SOL     OW17293   0.462   2.874   4.163 -0.1411 -0.1749 -0.3352
 1944SOL    HW117294   0.381   2.899   4.208 -0.3486  1.2603 -1.5105
 1944SOL    HW217295   0.476   2.782   4.187 -3.0427 -0.5999 -0.3562
 1945SOL     OW17296   3.780   0.175   6.782 -0.1213 -0.3132 -0.1863
 1945SOL    HW117297   3.871   0.149   6.766 -0.0558  0.6378 -1.3216
 1945SOL    HW217298   3.789   0.266   6.755  1.0004 -0.2016  0.5680
 1946SOL     OW17299   2.071   3.853   2.181  0.4654  0.0191 -0.7224
 1946SOL    HW117300   2.017   3.899   2.116 -0.0500 -0.8140 -0.8821
 1946SOL    HW217301   2.157   3.893   2.167  1.3374 -1.0159  1.6961
 1947SOL     OW17302   2.710   1.846   7.999  0.6142  0.1772 -0.1330
 1947SOL    HW117303   2.805   1.855   8.006  1.1055 -2.5603 -3.4794
 1947SOL    HW217304   2.699   1.829   7.906 -0.7529 -0.4022  0.1370
 1948SOL     OW17305   1.904   1.693   5.967  0.8574 -0.1706  0.5382
 1948SOL    HW117306   1.888   1.625   5.901  1.3641 -0.7934  1.0593
 1948SOL    HW217307   1.980   1.651   6.006  1.3462  0.6453  0.4798
 1949SOL     OW17308   1.659   2.110  14.115 -0.6569  0.1347  0.2911
 1949SOL    HW117309   1.733   2.057  14.144 -0.6707 -1.1200 -1.9551
 1949SOL    HW217310   1.593   2.069  14.171  0.5940 -3.3064 -0.7724
 1950SOL     OW17311   4.650   4.035   8.392 -0.0192 -0.2419 -0.3097
 1950SOL    HW117312   4.705   4.106   8.360 -0.2910  0.1841  0.1513
 1950SOL    HW217313   4.706   3.964   8.423  1.6828  1.4950  0.5879
 1951SOL     OW17314   2.296   1.495   4.111 -0.8547 -0.5903  0.5023
 1951SOL    HW117315   2.304   1.523   4.020 -1.4850 -0.3186  0.5252
 1951SOL    HW217316   2.237   1.564   4.143 -0.2218  0.9077 -1.5293
 1952SOL     OW17317   2.821   4.566  11.754  0.4233  0.9050  0.1173
 1952SOL    HW117318   2.833   4.477  11.787  1.1295  0.8519 -0.2859
 1952SOL    HW217319   2.872   4.604  11.826  3.1601 -0.2167 -1.2349
 1953SOL     OW17320   1.931   1.478  16.516 -0.6446  0.4241  0.3172
 1953SOL    HW117321   1.866   1.416  16.550 -1.2148  0.0740 -1.4506
 1953SOL    HW217322   1.875   1.555  16.506  1.2500  1.6225 -1.0602
 1954SOL     OW17323   1.516   1.935   4.208 -0.0215  0.3576  0.1932
 1954SOL    HW117324   1.551   1.926   4.120  1.5998 -4.1869  1.3010
 1954SOL    HW217325   1.424   1.959   4.196  0.1018  1.6169  1.6765
 1955SOL     OW17326   1.838   4.413   1.238  0.3296  0.0389 -0.4011
 1955SOL    HW117327   1.809   4.339   1.291  2.5113 -1.6404 -1.5528
 1955SOL    HW217328   1.805   4.487   1.289 -1.8529 -1.6074  0.5502
 1956SOL     OW17329   1.613   3.016   9.219 -0.0919 -0.4956  0.4101
 1956SOL    HW117330   1.696   3.021   9.265  0.1379  0.3945 -0.0943
 1956SOL    HW217331   1.647   3.000   9.130  0.5915 -1.2253  0.8048
 1957SOL     OW17332   2.011   4.229   3.709 -0.4010  0.2988 -0.0927
 1957SOL    HW117333   1.993   4.135   3.713  1.4405  0.0171  1.7209
 1957SOL    HW217334   1.925   4.264   3.732 -0.3567 -0.6347  1.4397
 1958SOL     OW17335   2.912   1.489   4.842  0.0323 -0.4697  0.4901
 1958SOL    HW117336   2.930   1.462   4.752  1.0677  2.7639 -0.2882
 1958SOL    HW217337   2.972   1.562   4.857 -1.9356  0.7145  2.5656
 1959SOL     OW17338   1.806   3.831   0.927 -0.5524  0.0821  0.0682
 1959SOL    HW117339   1.875   3.880   0.973  1.6577 -1.5322 -1.5475
 1959SOL    HW217340   1.802   3.753   0.982  0.0465 -0.4885 -0.7118
 1960SOL     OW17341   3.462   0.177   2.832 -0.2228 -0.1216 -0.4472
 1960SOL    HW117342   3.440   0.089   2.864 -0.9007  0.5207  0.8356
 1960SOL    HW217343   3.554   0.158   2.812 -0.8769 -0.8413 -2.8466
 1961SOL     OW17344   4.151   1.308   6.769  0.0336  0.5430  0.0550
 1961SOL    HW117345   4.155   1.385   6.713  0.7104  0.5873  0.1586
 1961SOL    HW217346   4.210   1.243   6.730  0.2349 -0.1027  1.4484
 1962SOL     OW17347   3.466   0.797   7.422  0.0444 -0.0550 -0.1511
 1962SOL    HW117348   3.412   0.859   7.471 -0.4429  0.7786 -1.7413
 1962SOL    HW217349   3.545   0.799   7.477  1.0762 -0.4817 -1.6302
 1963SOL     OW17350   2.751   0.013   2.021 -0.1849  0.5967 -0.2834
 1963SOL    HW117351   2.791   0.074   1.959 -0.2943  0.3059 -0.6320
 1963SOL    HW217352   2.824   4.711   2.078 -1.3109  0.1597  0.9707
 1964SOL     OW17353   1.934   3.638   1.433 -0.2799 -0.4237 -0.4246
 1964SOL    HW117354   1.893   3.552   1.435 -0.3360 -0.3709  0.8050
 1964SOL    HW217355   2.005   3.626   1.496  0.3898  0.3723 -1.0186
 1965SOL     OW17356   0.565   0.963   4.258  0.0071  0.1124  0.6727
 1965SOL    HW117357   0.599   0.960   4.347 -2.9874  0.9807  1.8725
 1965SOL    HW217358   0.533   1.053   4.259 -0.1392  0.0750 -0.1923
 1966SOL     OW17359   2.101   0.164   6.234  0.1620  0.1057 -0.1074
 1966SOL    HW117360   2.039   0.237   6.233  0.9153  0.7418 -0.1976
 1966SOL    HW217361   2.167   0.211   6.286 -1.2431 -0.8299  2.5198
 1967SOL     OW17362   0.777   2.889   4.346 -0.2892 -0.0079 -0.2664
 1967SOL    HW117363   0.710   2.822   4.335  0.2928 -0.7354  0.5828
 1967SOL    HW217364   0.857   2.839   4.366 -0.0994  1.1337  1.7896
 1968SOL     OW17365   1.094   0.417   2.133  0.2496 -0.8541 -0.4199
 1968SOL    HW117366   1.083   0.324   2.111  0.6758 -0.7723 -0.9815
 1968SOL    HW217367   1.061   0.408   2.222  0.0770 -0.8673 -0.4850
 1969SOL     OW17368   3.971   1.104   4.347 -0.9187  0.0296 -0.2293
 1969SOL    HW117369   4.024   1.026   4.333  0.2223  0.8838 -0.7227
 1969SOL    HW217370   4.040   1.169   4.364 -0.1152 -0.9948  0.3658
 1970SOL     OW17371   3.466   1.544  13.434  0.8052  0.0444  0.0244
 1970SOL    HW117372   3.410   1.598  13.378 -1.1984 -1.0722  0.9225
 1970SOL    HW217373   3.455   1.565  13.527 -0.9157 -1.0623  0.0701
 1971SOL     OW17374   3.634   0.114   3.383 -0.2727  0.3176  0.1816
 1971SOL    HW117375   3.713   0.065   3.406 -1.8749 -0.9087  3.1242
 1971SOL    HW217376   3.570   0.042   3.379  0.7216 -0.5973  0.6086
 1972SOL     OW17377   2.487   1.040   3.407 -0.3827  0.2343 -0.0350
 1972SOL    HW117378   2.537   1.096   3.348 -0.0728  0.4509  0.4273
 1972SOL    HW217379   2.477   1.103   3.478  1.4631  1.8023 -1.1574
 1973SOL     OW17380   1.409   4.682   6.490  0.5014  0.7771  0.2922
 1973SOL    HW117381   1.419   0.004   6.406 -0.7420  1.7149  0.6484
 1973SOL    HW217382   1.337   0.011   6.526 -0.7600 -0.6591 -0.1397
 1974SOL     OW17383   2.417   4.563   8.814 -0.0625  0.3735 -0.3136
 1974SOL    HW117384   2.380   4.575   8.726 -3.0712 -1.5319  0.6671
 1974SOL    HW217385   2.449   4.473   8.815  0.0667  0.4354  0.5743
 1975SOL     OW17386   3.598   4.566   4.538  0.0175 -0.3001 -0.1826
 1975SOL    HW117387   3.545   4.605   4.468 -2.0820 -2.7569  0.0285
 1975SOL    HW217388   3.688   4.564   4.504  1.3098 -0.7646  3.2521
 1976SOL     OW17389   1.052   3.268   3.948 -0.2798 -0.4896  0.4102
 1976SOL    HW117390   1.009   3.197   3.996  1.9478 -1.5975  0.7619
 1976SOL    HW217391   1.144   3.240   3.944 -0.9414 -2.6253  0.1405
 1977SOL     OW17392   1.393   3.531  13.706  0.1991  0.5384  0.1721
 1977SOL    HW117393   1.487   3.535  13.723 -0.0329  0.2978  1.5287
 1977SOL    HW217394   1.389   3.612  13.655  1.6121  0.6473  0.2172
 1978SOL     OW17395   4.029   3.454  16.305 -0.2087  0.0798 -0.0651
 1978SOL    HW117396   3.992   3.416  16.225 -0.4255 -0.2084  0.1734
 1978SOL    HW217397   4.058   3.540  16.274 -0.4622  0.8356  1.8175
 1979SOL     OW17398   0.281   3.864   3.919  0.2230 -0.2523  0.6825
 1979SOL    HW117399   0.344   3.930   3.949 -1.8958  1.8874  0.3769
 1979SOL    HW217400   0.210   3.927   3.913 -0.4828 -0.9650  1.5200
 1980SOL     OW17401   0.880   3.070   9.074 -0.3555 -0.0418  0.0241
 1980SOL    HW117402   0.897   2.984   9.035  1.1525  1.4799 -2.6225
 1980SOL    HW217403   0.951   3.075   9.138  0.4397 -2.4357 -0.6656
 1981SOL     OW17404   1.858   4.378  15.885  0.4815 -0.2984 -0.0335
 1981SOL    HW117405   1.814   4.300  15.853  0.1740 -0.2125  0.1739
 1981SOL    HW217406   1.789   4.437  15.916  0.9029  0.7898 -1.1668
 1982SOL     OW17407   2.122   1.460   1.674 -0.2311  0.1161  0.3582
 1982SOL    HW117408   2.074   1.543   1.672 -0.6546 -0.1290  0.2912
 1982SOL    HW217409   2.053   1.409   1.631 -0.4017  2.2270 -1.8890
 1983SOL     OW17410   2.536   3.466   3.884 -0.5075  0.2619 -0.4869
 1983SOL    HW117411   2.578   3.402   3.827 -0.1943 -1.1497  1.3182
 1983SOL    HW217412   2.612   3.481   3.941  0.3136  1.6283 -1.9526
 1984SOL     OW17413   2.767   1.471  13.491  0.5997  0.3942  0.0163
 1984SOL    HW117414   2.695   1.496  13.548  2.3833 -1.6948  3.2086
 1984SOL    HW217415   2.791   1.550  13.443 -0.9312 -1.0775 -3.1559
 1985SOL     OW17416   2.557   1.528  17.359  0.2221 -0.7745  0.2848
 1985SOL    HW117417   2.622   1.584  17.402 -0.7523 -0.3410  1.1895
 1985SOL    HW217418   2.574   1.448  17.408 -0.0196 -0.3579  1.0468
 1986SOL     OW17419   0.800   1.579   5.174 -0.3516 -0.1438  0.1479
 1986SOL    HW117420   0.756   1.556   5.092 -2.8341 -1.7176  1.9068
 1986SOL    HW217421   0.784   1.497   5.221  1.2359 -0.2267  0.5332
 1987SOL     OW17422   4.488   4.276   0.139  1.0418 -0.1415 -0.5875
 1987SOL    HW117423   4.562   4.300   0.083 -1.1308  0.2105 -3.3144
 1987SOL    HW217424   4.479   4.189   0.101 -1.8351  0.9621 -2.3895
 1988SOL     OW17425   1.896   1.343   1.254  0.1199  0.6080  0.0226
 1988SOL    HW117426   1.853   1.348   1.339 -0.6934  0.5326 -0.3896
 1988SOL    HW217427   1.862   1.261   1.217  3.0220 -0.6702  0.1574
 1989SOL     OW17428   0.205   2.875   5.624 -0.7448 -0.0524 -0.5825
 1989SOL    HW117429   0.263   2.950   5.612 -2.1628  1.2596  0.8154
 1989SOL    HW217430   0.230   2.810   5.557 -0.2260 -1.7398  1.2471
 1990SOL     OW17431   0.513   4.548  16.872 -0.0957 -0.0286  0.3661
 1990SOL    HW117432   0.588   4.519  16.821 -0.0182 -0.4298  0.7135
 1990SOL    HW217433   0.504   4.474  16.931  0.6394  0.0481  0.5655
 1991SOL     OW17434   1.054   2.935   7.700 -0.4728 -0.2154 -0.1513
 1991SOL    HW117435   1.012   2.938   7.785  2.8376 -0.0227  1.4955
 1991SOL    HW217436   1.144   2.950   7.728  0.0263 -0.3514 -1.6533
 1992SOL     OW17437   3.531   4.281   9.534 -0.8546 -0.3877 -0.0349
 1992SOL    HW117438   3.481   4.204   9.562  1.3563 -1.2705  1.4278
 1992SOL    HW217439   3.546   4.320   9.619  3.6736 -0.0449 -1.0185
 1993SOL     OW17440   4.585   2.339   5.516  0.3457  0.1751 -0.0777
 1993SOL    HW117441   4.659   2.352   5.456 -0.1225  0.6959 -0.5339
 1993SOL    HW217442   4.628   2.368   5.596  0.0557  0.0057  0.1384
 1994SOL     OW17443   3.260   3.842   7.740  0.5527 -0.1508 -0.0101
 1994SOL    HW117444   3.197   3.889   7.686  0.7532  0.4176  0.2582
 1994SOL    HW217445   3.321   3.828   7.667 -0.4146 -1.9729 -0.4685
 1995SOL     OW17446   0.102   0.516  13.295 -0.2388 -0.1856 -0.2451
 1995SOL    HW117447   0.095   0.507  13.390 -0.1918  1.4746 -0.0922
 1995SOL    HW217448   0.190   0.550  13.283 -0.2776  0.0683  0.2294
 1996SOL     OW17449   3.141   1.895   6.626 -0.0571  0.1952 -0.0663
 1996SOL    HW117450   3.151   1.883   6.721 -0.3366 -0.3053 -0.1001
 1996SOL    HW217451   3.051   1.928   6.621 -0.7393 -1.7898 -1.0437
 1997SOL     OW17452   4.462   3.201  12.059 -0.4678 -0.1133  0.0848
 1997SOL    HW117453   4.524   3.209  12.132 -1.5207  1.0607  0.8572
 1997SOL    HW217454   4.416   3.285  12.065 -1.6470 -0.8674  1.5741
 1998SOL     OW17455   2.965   2.545  12.775  0.0841 -0.0865  0.1190
 1998SOL    HW117456   3.040   2.601  12.794  0.1465  0.2936 -1.2756
 1998SOL    HW217457   2.977   2.538  12.681 -0.4140 -1.2672  0.1485
 1999SOL     OW17458   3.686   2.451   7.488 -0.1107  0.4522  1.6646
 1999SOL    HW117459   3.603   2.492   7.465  0.5582  1.5738  1.2280
 1999SOL    HW217460   3.672   2.414   7.575 -0.2255 -0.7902  1.1145
 2000SOL     OW17461   1.295   0.284   3.054  0.4865 -0.2189  0.5243
 2000SOL    HW117462   1.335   0.367   3.082  0.9756  0.6158 -2.6649
 2000SOL    HW217463   1.203   0.308   3.047  0.3986 -1.1334 -1.3122
 2001SOL     OW17464   3.954   0.282  14.172 -0.2392 -0.5311  0.0874
 2001SOL    HW117465   3.881   0.232  14.138 -0.7958  2.0501 -2.4949
 2001SOL    HW217466   3.937   0.372  14.144 -3.9669 -0.6499  1.9287
 2002SOL     OW17467   1.951   2.746   8.390  0.2695  0.4875  0.2413
 2002SOL    HW117468   2.002   2.823   8.415  1.7314 -0.3977 -0.0581
 2002SOL    HW217469   1.862   2.779   8.374  0.4660  0.7146 -0.4017
 2003SOL     OW17470   1.853   2.576   7.585  0.1136 -0.2686  0.1229
 2003SOL    HW117471   1.884   2.615   7.504  0.2849  2.4060  1.4550
 2003SOL    HW217472   1.922   2.607   7.644  1.2422 -2.8033  0.1576
 2004SOL     OW17473   3.759   0.851   0.650  0.0372 -0.2634 -0.6316
 2004SOL    HW117474   3.678   0.801   0.657  0.7215 -1.4981 -1.6704
 2004SOL    HW217475   3.806   0.786   0.598 -1.6053 -1.6528 -0.3875
 2005SOL     OW17476   1.612   3.615   3.875 -0.3909  0.6268  0.3872
 2005SOL    HW117477   1.526   3.598   3.912 -0.4036  0.8366  0.4538
 2005SOL    HW217478   1.641   3.531   3.840 -0.3729  0.6187  0.4223
 2006SOL     OW17479   0.650   4.128   3.779  0.2626 -0.6718 -0.0649
 2006SOL    HW117480   0.625   4.201   3.836 -1.8173 -0.8945 -0.6615
 2006SOL    HW217481   0.733   4.096   3.813 -0.0668  0.8568  2.2215
 2007SOL     OW17482   0.680   1.974   6.356  0.0039  0.0604  0.3102
 2007SOL    HW117483   0.738   2.032   6.405  0.6307 -0.1494 -0.1844
 2007SOL    HW217484   0.650   1.922   6.430  2.0163 -1.2215  0.2069
 2008SOL     OW17485   3.758   1.195   9.482  0.5762 -0.0714 -0.1003
 2008SOL    HW117486   3.702   1.156   9.549 -0.4980 -1.6810 -1.9554
 2008SOL    HW217487   3.779   1.122   9.423 -2.3727 -1.9306  1.1536
 2009SOL     OW17488   2.261   0.704   4.130 -0.1074  0.5077 -0.3107
 2009SOL    HW117489   2.281   0.797   4.120  0.8158  0.2263 -1.1287
 2009SOL    HW217490   2.299   0.683   4.215  1.2316  0.3441 -0.9413
 2010SOL     OW17491   2.726   4.569   2.777 -0.4475  0.0582  0.2958
 2010SOL    HW117492   2.637   4.600   2.761 -0.3494  0.6550  0.9075
 2010SOL    HW217493   2.713   4.521   2.859  0.2867 -0.3384  0.1777
 2011SOL     OW17494   2.234   1.580   5.933 -0.4973  0.1117 -0.1475
 2011SOL    HW117495   2.205   1.603   6.021  0.1528  0.7584 -0.1034
 2011SOL    HW217496   2.245   1.668   5.895 -1.0090 -0.3342 -1.3449
 2012SOL     OW17497   2.643   0.863  11.097 -0.4360  0.6056 -0.2445
 2012SOL    HW117498   2.724   0.914  11.102  0.2405 -0.3322 -1.7623
 2012SOL    HW217499   2.585   0.932  11.064 -1.4357 -0.0997  0.0554
 2013SOL     OW17500   4.066   0.655  12.825  0.2166 -0.1105 -0.1242
 2013SOL    HW117501   4.027   0.614  12.903  0.6002  1.9444  1.1403
 2013SOL    HW217502   4.122   0.722  12.865  1.7955 -1.3387 -0.2687
 2014SOL     OW17503   1.398   4.126   7.901  0.2672  0.4076  0.3809
 2014SOL    HW117504   1.415   4.211   7.941 -2.2417  0.8217  0.5463
 2014SOL    HW217505   1.483   4.084   7.915  0.5254  1.0116  0.5902
 2015SOL     OW17506   2.186   3.536   7.084 -0.1637 -0.0987 -0.3206
 2015SOL    HW117507   2.197   3.625   7.051  0.8135 -0.7625 -1.7831
 2015SOL    HW217508   2.100   3.519   7.044  0.4333 -0.0254 -1.6034
 2016SOL     OW17509   0.455   4.695  12.726 -0.0051  0.8562  0.2388
 2016SOL    HW117510   0.522   0.014  12.780 -0.3655  1.4626  0.2186
 2016SOL    HW217511   0.402   4.649  12.791  1.3926  0.1153  0.8550
 2017SOL     OW17512   0.209   2.895   6.955  0.7082 -0.4911 -0.1730
 2017SOL    HW117513   0.119   2.878   6.983  0.3752 -0.0457 -0.9618
 2017SOL    HW217514   0.218   2.837   6.879  0.7551  0.7156 -1.0761
 2018SOL     OW17515   0.273   2.868  15.856 -0.0297 -0.1720  0.0768
 2018SOL    HW117516   0.361   2.848  15.890  1.1612  1.7341 -1.9095
 2018SOL    HW217517   0.250   2.788  15.810 -0.0042  1.9032 -3.4830
 2019SOL     OW17518   0.169   4.225  17.483 -0.3163 -0.3981 -0.5335
 2019SOL    HW117519   0.148   4.172  17.561 -0.1366 -0.1961 -0.3467
 2019SOL    HW217520   0.083   4.253  17.453  0.6436  1.4990 -1.5303
 2020SOL     OW17521   3.545   0.509   4.379  0.1207 -0.7727 -0.4455
 2020SOL    HW117522   3.525   0.480   4.468 -0.2435  0.0242 -0.2717
 2020SOL    HW217523   3.543   0.604   4.382  0.2338 -0.8565  1.9429
 2021SOL     OW17524   0.278   1.895  11.733  0.5988  0.1325 -0.2827
 2021SOL    HW117525   0.273   1.989  11.714  0.8223  0.5310  1.6138
 2021SOL    HW217526   0.203   1.872  11.678  1.3396 -0.0472 -1.2157
 2022SOL     OW17527   4.022   2.157   9.505 -0.0901  0.8431  0.0093
 2022SOL    HW117528   3.960   2.086   9.522 -0.6562  0.3199 -4.3290
 2022SOL    HW217529   4.060   2.173   9.592 -1.7620 -3.2385  1.4758
 2023SOL     OW17530   1.608   3.966   6.182 -0.8265  0.4222 -0.1296
 2023SOL    HW117531   1.638   3.979   6.272 -1.2050 -2.2835  0.3637
 2023SOL    HW217532   1.595   4.058   6.157 -1.4184  0.0180 -1.2570
 2024SOL     OW17533   4.516   0.967   2.219  0.1087 -0.5063  0.1434
 2024SOL    HW117534   4.569   0.983   2.296 -1.8479 -0.5058  1.5048
 2024SOL    HW217535   4.567   0.900   2.173  1.8712 -0.1245  1.5772
 2025SOL     OW17536   1.639   4.087   4.425  0.1571  0.9204  0.5760
 2025SOL    HW117537   1.579   4.159   4.405  0.6907  1.4846  1.0270
 2025SOL    HW217538   1.673   4.056   4.341 -1.6620 -3.4384  1.4192
 2026SOL     OW17539   3.121   4.369   5.133 -0.5404 -0.0768  0.1914
 2026SOL    HW117540   3.142   4.277   5.149 -0.4842 -0.3567 -1.5191
 2026SOL    HW217541   3.211   4.400   5.120 -0.2151 -1.7047 -1.4077
 2027SOL     OW17542   2.418   4.641   1.187 -0.3808  0.3206  0.6920
 2027SOL    HW117543   2.435   0.011   1.176 -0.7536  0.4015  0.8139
 2027SOL    HW217544   2.323   4.634   1.197 -0.2624 -1.4307  0.6106
 2028SOL     OW17545   2.023   1.068   9.365 -0.5361 -0.8039  0.1586
 2028SOL    HW117546   1.981   1.040   9.284 -2.8484  2.6303  0.1699
 2028SOL    HW217547   2.014   0.999   9.430  0.7550 -0.7864  0.3495
 2029SOL     OW17548   0.021   2.498   3.154 -0.0098  0.9294 -0.6368
 2029SOL    HW117549   0.104   2.451   3.141 -0.2014  0.5967 -0.6653
 2029SOL    HW217550   0.008   2.480   3.247 -3.0941  2.0082 -0.8745
 2030SOL     OW17551   0.900   2.655  13.858 -0.1930  0.1781  0.0851
 2030SOL    HW117552   0.817   2.680  13.897  0.7459 -2.0031  3.5056
 2030SOL    HW217553   0.943   2.741  13.853 -2.8826  1.4913 -0.0387
 2031SOL     OW17554   3.570   2.211   8.479  0.0071 -0.0797 -0.2339
 2031SOL    HW117555   3.581   2.229   8.386  0.4354  3.0086  0.4291
 2031SOL    HW217556   3.626   2.134   8.488  1.2946  0.8142 -0.6083
 2032SOL     OW17557   2.111   0.809   8.346  0.1983 -0.3727 -0.0102
 2032SOL    HW117558   2.127   0.744   8.414  0.7333  1.9047  2.0381
 2032SOL    HW217559   2.098   0.889   8.396  1.2082 -0.9871  1.2265
 2033SOL     OW17560   0.937   3.333   8.999 -0.4128 -0.2977  0.1100
 2033SOL    HW117561   0.894   3.305   8.917 -0.0740 -0.4982  0.0013
 2033SOL    HW217562   0.893   3.275   9.060 -0.5062 -1.7215 -1.3057
 2034SOL     OW17563   3.410   0.052   8.189  0.0176 -0.4443  0.6938
 2034SOL    HW117564   3.430   4.687   8.159  0.8409 -0.1609  0.4180
 2034SOL    HW217565   3.353   0.037   8.264  1.2219  2.0041  2.0921
 2035SOL     OW17566   4.127   4.177   7.675 -0.1893  0.0741 -0.4037
 2035SOL    HW117567   4.110   4.271   7.671  1.0875  0.1224 -3.8920
 2035SOL    HW217568   4.121   4.143   7.586 -1.5376  0.6361 -0.5363
 2036SOL     OW17569   3.717   0.965   2.201 -0.6196  0.6217  0.7718
 2036SOL    HW117570   3.787   1.028   2.185 -2.9430  2.5006 -2.0946
 2036SOL    HW217571   3.663   1.018   2.260  1.0201  2.0426  0.9885
 2037SOL     OW17572   3.285   2.639   2.769  0.0937  0.2256 -0.1623
 2037SOL    HW117573   3.243   2.703   2.711 -0.3989 -2.2691 -2.5690
 2037SOL    HW217574   3.229   2.564   2.754  1.0502 -0.1468 -1.8543
 2038SOL     OW17575   0.544   3.192   2.791  0.1878  0.1243  0.6433
 2038SOL    HW117576   0.581   3.104   2.791 -0.0487  0.0306 -1.8332
 2038SOL    HW217577   0.622   3.242   2.812  0.6115 -1.0038  1.7364
 2039SOL     OW17578   2.669   2.140   1.168  0.2501 -0.0934  0.4228
 2039SOL    HW117579   2.737   2.087   1.211 -1.6058 -1.2366  1.9384
 2039SOL    HW217580   2.651   2.071   1.104 -0.8343 -0.4048  1.0613
 2040SOL     OW17581   3.164   2.658   3.725 -0.4905  0.4727  0.4866
 2040SOL    HW117582   3.257   2.677   3.714 -0.0705 -1.4410  0.8740
 2040SOL    HW217583   3.169   2.577   3.776  1.7207  1.9283  2.5971
 2041SOL     OW17584   2.869   2.490   8.509 -0.0282 -0.5526  0.2511
 2041SOL    HW117585   2.938   2.426   8.527  1.4385  0.9719  0.0260
 2041SOL    HW217586   2.844   2.516   8.598 -2.6244 -1.6738 -0.1505
 2042SOL     OW17587   2.584   0.009   1.607 -0.1318 -0.1151  0.3864
 2042SOL    HW117588   2.537   4.707   1.687 -2.2473  1.0225 -0.5104
 2042SOL    HW217589   2.585   0.104   1.614  1.6380 -0.0468 -0.7720
 2043SOL     OW17590   2.482   0.147   6.503 -0.4841 -0.2021  0.1942
 2043SOL    HW117591   2.451   0.158   6.593  0.1692 -0.6253  0.4706
 2043SOL    HW217592   2.577   0.151   6.509 -0.4717 -0.7501  0.3785
 2044SOL     OW17593   4.544   0.595   9.750  0.0362 -0.1517  0.7303
 2044SOL    HW117594   4.465   0.647   9.736  1.3367  2.3817  2.7672
 2044SOL    HW217595   4.578   0.579   9.663 -1.4038 -0.5471  0.2348
 2045SOL     OW17596   3.650   3.360  15.269 -0.3111 -0.8245 -0.5147
 2045SOL    HW117597   3.563   3.322  15.272 -1.5227  1.8899 -0.9384
 2045SOL    HW217598   3.644   3.434  15.207 -1.2402 -1.4779 -1.1989
 2046SOL     OW17599   0.824   4.460   9.552 -0.6260  0.0434 -0.0847
 2046SOL    HW117600   0.819   4.480   9.645 -1.7104 -0.2718 -0.0639
 2046SOL    HW217601   0.915   4.434   9.540 -0.3666  0.6119  0.6899
 2047SOL     OW17602   0.297   0.301   8.344 -0.0982  0.2046  0.3351
 2047SOL    HW117603   0.270   0.375   8.399  1.5716 -1.0422  2.8512
 2047SOL    HW217604   0.213   0.292   8.299 -0.1527 -2.5691  0.9972
 2048SOL     OW17605   0.015   4.358  10.887 -0.1384 -0.5206  0.2645
 2048SOL    HW117606   0.019   4.432  10.948  0.5212 -1.1714  1.0057
 2048SOL    HW217607   0.036   4.288  10.948  1.3174 -2.4620 -2.4624
 2049SOL     OW17608   0.481   3.111   8.177 -0.3831 -0.2813  0.0330
 2049SOL    HW117609   0.514   3.172   8.243  0.7906  0.5349 -1.3284
 2049SOL    HW217610   0.390   3.141   8.172 -0.6026 -0.7944  1.0045
 2050SOL     OW17611   4.494   1.139   3.251 -0.0871  0.0785 -0.6161
 2050SOL    HW117612   4.431   1.069   3.235 -0.2562  0.1376 -0.1863
 2050SOL    HW217613   4.552   1.104   3.319  0.1774  0.0948 -0.8315
 2051SOL     OW17614   0.064   3.095   0.150  0.4764  0.0134 -0.1192
 2051SOL    HW117615   0.100   3.008   0.169  1.0598  1.4333  5.2880
 2051SOL    HW217616   4.714   3.074   0.092  0.9650  0.6723 -0.9696
 2052SOL     OW17617   3.205   0.602   6.288 -0.0427  0.1944 -0.1896
 2052SOL    HW117618   3.296   0.602   6.318 -0.1846 -0.5680  0.2560
 2052SOL    HW217619   3.174   0.692   6.295  1.8050  0.8151  0.1033
 2053SOL     OW17620   2.502   4.000   3.263 -0.1639 -0.6110  0.6122
 2053SOL    HW117621   2.532   4.025   3.351 -0.1505 -1.8973  0.9726
 2053SOL    HW217622   2.467   3.911   3.269  0.8334 -0.9425  1.5450
 2054SOL     OW17623   3.661   2.563  15.513 -0.3297  0.2134 -0.1629
 2054SOL    HW117624   3.755   2.572  15.497 -0.2203  1.6223  1.2029
 2054SOL    HW217625   3.621   2.566  15.426 -1.7302  2.5589  0.5467
 2055SOL     OW17626   0.141   4.109   9.731 -0.0494 -0.1935  0.1472
 2055SOL    HW117627   0.182   4.128   9.646 -0.2937  0.1461  0.1057
 2055SOL    HW217628   0.129   4.200   9.760 -0.2118  0.4752 -1.9725
 2056SOL     OW17629   1.979   0.147   5.161  0.3551  0.0118 -0.0702
 2056SOL    HW117630   1.900   0.171   5.112  0.5562  0.0586 -0.3717
 2056SOL    HW217631   2.046   0.152   5.093 -0.1264  1.4527 -0.4314
 2057SOL     OW17632   2.613   3.541   0.552  0.4088 -0.1011  0.1197
 2057SOL    HW117633   2.538   3.526   0.495 -0.5844 -1.1686  1.6743
 2057SOL    HW217634   2.604   3.635   0.562  1.4821 -0.0463  0.6416
 2058SOL     OW17635   1.055   2.339   5.204 -0.3895  0.2350  0.1894
 2058SOL    HW117636   1.098   2.364   5.285 -0.6062  0.6766  0.1673
 2058SOL    HW217637   1.055   2.243   5.202  0.3086  0.2220  1.1184
 2059SOL     OW17638   4.523   2.666  14.467  0.2340 -0.3092 -0.4371
 2059SOL    HW117639   4.568   2.684  14.549  0.3578  0.1991 -0.6116
 2059SOL    HW217640   4.462   2.596  14.487 -1.0041  1.6329  2.5548
 2060SOL     OW17641   2.401   1.146  17.658  0.3406  0.2596  0.9833
 2060SOL    HW117642   2.371   1.061  17.624 -0.7023  0.7451  0.6925
 2060SOL    HW217643   2.341   1.167   0.034  0.0767  0.1860  0.7868
 2061SOL     OW17644   2.884   2.571   0.101 -0.3040  0.8344 -0.4085
 2061SOL    HW117645   2.960   2.523   0.134  0.2935  0.4312 -2.3699
 2061SOL    HW217646   2.844   2.499   0.053  0.5032  0.3893 -0.4140
 2062SOL     OW17647   1.920   4.003   9.670  0.1436  0.4889 -0.9337
 2062SOL    HW117648   1.998   4.031   9.717  1.2384  0.1654 -2.5423
 2062SOL    HW217649   1.859   4.066   9.707  1.1728  1.6594 -1.2373
 2063SOL     OW17650   1.508   2.672   5.506 -0.3403  0.2208 -0.1862
 2063SOL    HW117651   1.453   2.607   5.550  2.1689 -1.2226  0.8289
 2063SOL    HW217652   1.595   2.631   5.508 -0.2100  0.6087  1.6399
 2064SOL     OW17653   0.339   0.235  13.475  0.3076  0.3786 -0.0007
 2064SOL    HW117654   0.354   0.143  13.497  2.3690  0.2140 -2.0970
 2064SOL    HW217655   0.418   0.260  13.427  1.7629 -1.5701  1.3785
 2065SOL     OW17656   0.973   1.510   7.767 -0.0281 -0.2080 -0.2062
 2065SOL    HW117657   0.904   1.446   7.747  0.9534 -1.2836 -0.1451
 2065SOL    HW217658   0.944   1.549   7.849 -2.8823  0.0351 -1.3111
 2066SOL     OW17659   1.890   2.126  12.081  0.5059  0.2009  0.2504
 2066SOL    HW117660   1.816   2.071  12.107  0.0136  1.2480  1.1049
 2066SOL    HW217661   1.897   2.100  11.989  0.6090 -0.1016  0.3470
 2067SOL     OW17662   1.359   1.443  11.925 -0.1046  0.3978 -0.1073
 2067SOL    HW117663   1.266   1.424  11.940  0.1203  0.6744  1.6965
 2067SOL    HW217664   1.362   1.534  11.955  2.1676  0.2689  0.0190
 2068SOL     OW17665   1.266   4.409   6.000  0.3044 -0.1605  0.4756
 2068SOL    HW117666   1.255   4.424   6.094 -1.1803 -1.1836  0.4791
 2068SOL    HW217667   1.326   4.481   5.983 -0.6190 -0.0638 -2.2351
 2069SOL     OW17668   0.393   1.096  14.566  0.0705 -0.0017 -0.0151
 2069SOL    HW117669   0.486   1.119  14.576  0.2354 -0.5383 -0.2962
 2069SOL    HW217670   0.391   1.011  14.522 -0.1908  0.1774 -0.3526
 2070SOL     OW17671   4.332   2.433   1.558  0.5706  0.1521 -0.4916
 2070SOL    HW117672   4.403   2.372   1.579 -1.6694 -2.4491 -0.3803
 2070SOL    HW217673   4.341   2.443   1.463 -0.5568 -1.5243 -0.7809
 2071SOL     OW17674   2.992   0.838   6.722  0.0665 -0.2024 -0.0990
 2071SOL    HW117675   3.028   0.750   6.726 -0.3097 -0.3836 -0.6990
 2071SOL    HW217676   3.062   0.878   6.774 -1.5932 -0.0064  1.9698
 2072SOL     OW17677   3.014   3.831  15.557  0.0911 -0.6477  0.0295
 2072SOL    HW117678   3.031   3.784  15.639  0.8584 -0.6090 -0.1092
 2072SOL    HW217679   3.073   3.801  15.487  1.7006  0.8380  0.7518
 2073SOL     OW17680   3.724   3.666   3.040 -0.5354 -0.3602  0.2338
 2073SOL    HW117681   3.692   3.749   3.074 -1.8737 -0.5203 -0.6331
 2073SOL    HW217682   3.729   3.686   2.947  1.7385 -1.5528  0.0822
 2074SOL     OW17683   0.609   3.647   0.374 -0.0601 -0.2780 -0.0146
 2074SOL    HW117684   0.610   3.739   0.346  1.0277 -0.3217 -0.1152
 2074SOL    HW217685   0.620   3.653   0.469 -0.9731  1.0057  0.0118
 2075SOL     OW17686   2.776   3.528   4.741 -0.2042 -0.5664 -0.4283
 2075SOL    HW117687   2.807   3.453   4.792  1.4482  0.3488 -0.0969
 2075SOL    HW217688   2.853   3.570   4.703  0.0242 -0.1144  0.5307
 2076SOL     OW17689   2.154   0.145  12.625 -0.6299  0.0928  0.5640
 2076SOL    HW117690   2.238   0.187  12.641 -0.7004  1.1489 -1.7463
 2076SOL    HW217691   2.101   0.210  12.578  3.1601  1.0632 -2.3708
 2077SOL     OW17692   1.921   2.611  10.914 -0.1644  0.4627  0.0315
 2077SOL    HW117693   1.997   2.607  10.856 -0.5444  1.3971 -0.5098
 2077SOL    HW217694   1.953   2.565  10.992  2.2520  0.9700 -0.6654
 2078SOL     OW17695   2.020   1.655  17.537 -0.1539  0.1458  1.0266
 2078SOL    HW117696   1.996   1.568  17.570  1.3939 -0.5447  0.3328
 2078SOL    HW217697   1.988   1.656  17.447  1.4252  0.5154  0.4582
 2079SOL     OW17698   3.036   1.019   6.127 -0.0816 -0.4531 -0.4642
 2079SOL    HW117699   3.079   1.091   6.173 -1.1478  1.4680 -2.5265
 2079SOL    HW217700   2.989   1.059   6.054  0.0504 -0.2247 -0.4222
 2080SOL     OW17701   1.942   3.033  10.038  0.0168  0.2586 -0.1181
 2080SOL    HW117702   1.941   2.979  10.117  2.2540 -0.1519 -0.3717
 2080SOL    HW217703   1.936   3.120  10.077 -1.5660  0.7891 -1.5375
 2081SOL     OW17704   1.868   3.595  16.799  0.8942 -0.1430 -0.1381
 2081SOL    HW117705   1.894   3.522  16.856 -0.6737 -0.5406  0.0802
 2081SOL    HW217706   1.797   3.630  16.854  1.0501  1.1345 -0.7612
 2082SOL     OW17707   3.186   0.981   6.843  0.2597  0.1973  0.8415
 2082SOL    HW117708   3.269   1.027   6.839 -0.0623  0.8552  1.7390
 2082SOL    HW217709   3.119   1.049   6.852 -0.8134 -0.6806 -0.4784
 2083SOL     OW17710   2.594   1.485  17.058  0.2583  0.6138  0.0251
 2083SOL    HW117711   2.689   1.469  17.059  0.2194  0.3435 -0.5825
 2083SOL    HW217712   2.582   1.532  17.140  1.1758 -0.9294  1.0386
 2084SOL     OW17713   2.992   4.630   5.819 -0.2373 -0.5035  0.2123
 2084SOL    HW117714   3.076   4.595   5.790 -1.2701 -1.1851 -1.9420
 2084SOL    HW217715   2.984   4.572   5.895 -1.4944 -2.1849 -1.1907
 2085SOL     OW17716   0.713   0.215   4.294 -0.8941  0.1848  0.6813
 2085SOL    HW117717   0.720   0.285   4.229 -2.7433 -1.7594 -1.6068
 2085SOL    HW217718   0.623   0.225   4.323 -0.4068  0.7073  2.0254
 2086SOL     OW17719   0.025   3.113   7.961 -0.0426 -0.0268 -0.1002
 2086SOL    HW117720   0.109   3.082   7.925 -0.1549  0.9728 -1.2114
 2086SOL    HW217721   4.697   3.119   7.881 -0.6562  0.3492  0.3227
 2087SOL     OW17722   4.522   2.254   6.334 -0.7232 -0.8899  0.2259
 2087SOL    HW117723   4.521   2.162   6.310 -2.8242 -1.1600  1.2979
 2087SOL    HW217724   4.616   2.270   6.325 -0.8723 -0.1279 -0.0410
 2088SOL     OW17725   4.665   2.647  16.370 -0.1108 -0.5573 -0.0390
 2088SOL    HW117726   4.626   2.560  16.355  0.0195 -0.1032 -2.9774
 2088SOL    HW217727   4.633   2.664  16.459  1.5904  0.3220  0.4027
 2089SOL     OW17728   1.313   4.463   9.910  0.1257  0.0634 -0.4964
 2089SOL    HW117729   1.342   4.550   9.937  1.4175 -0.4064 -0.3594
 2089SOL    HW217730   1.219   4.481   9.910 -0.1704 -1.4842 -0.5584
 2090SOL     OW17731   1.785   0.660   9.959 -0.1296  0.0744  0.2870
 2090SOL    HW117732   1.723   0.719  10.002 -2.4368 -2.1232 -0.0249
 2090SOL    HW217733   1.740   0.576   9.965  1.1659 -0.6919 -0.8585
 2091SOL     OW17734   0.165   0.375  14.573  0.2399  0.1963 -0.3228
 2091SOL    HW117735   0.110   0.368  14.495 -0.3593 -2.9791  0.4091
 2091SOL    HW217736   0.187   0.284  14.590  0.8120  0.8379  2.4375
 2092SOL     OW17737   2.776   3.315   1.937 -0.6009 -0.2958  0.5080
 2092SOL    HW117738   2.781   3.366   1.856  1.5431 -1.6056 -0.2026
 2092SOL    HW217739   2.693   3.351   1.967 -0.8423 -0.6293  0.2516
 2093SOL     OW17740   3.735   1.694  16.604  0.3182  0.1109 -0.6518
 2093SOL    HW117741   3.759   1.732  16.520  2.5182 -3.0692 -1.4186
 2093SOL    HW217742   3.812   1.647  16.635 -0.8563 -0.0169  2.0942
 2094SOL     OW17743   4.564   3.341   6.326 -0.1432  0.6127  0.6424
 2094SOL    HW117744   4.516   3.276   6.378  0.4693  0.3829  0.9209
 2094SOL    HW217745   4.501   3.334   6.255  1.2549  0.8898 -0.6295
 2095SOL     OW17746   1.848   1.945   8.418  0.0343  0.9302  0.3155
 2095SOL    HW117747   1.842   1.898   8.501  0.3232 -2.7740 -1.7443
 2095SOL    HW217748   1.933   1.988   8.418  1.1370 -1.2545  2.4440
 2096SOL     OW17749   4.297   2.096   9.974 -0.4218 -0.1247  0.0383
 2096SOL    HW117750   4.386   2.128   9.963 -0.4778  0.3558  1.0138
 2096SOL    HW217751   4.302   2.001   9.990 -0.9860 -0.6813 -3.0269
 2097SOL     OW17752   1.030   1.259  17.123 -0.1632 -0.4575  0.2513
 2097SOL    HW117753   0.939   1.232  17.110 -1.0169  1.3591  2.5748
 2097SOL    HW217754   1.008   1.352  17.134 -1.9783 -0.7563 -0.7241
 2098SOL     OW17755   3.163   4.280   3.910  0.0073  0.1143  0.5856
 2098SOL    HW117756   3.179   4.353   3.850 -0.7201 -1.3975 -1.4421
 2098SOL    HW217757   3.184   4.208   3.850  0.3954  0.8132 -0.1168
 2099SOL     OW17758   3.977   1.717   6.771  0.6339  0.0268 -0.0005
 2099SOL    HW117759   3.914   1.723   6.699  1.2724  0.3490 -0.5347
 2099SOL    HW217760   3.998   1.811   6.779  1.7213 -0.3306  1.3577
 2100SOL     OW17761   1.535   3.560   9.467 -0.0455 -0.1660 -0.7972
 2100SOL    HW117762   1.482   3.578   9.389  2.0745 -2.2122 -2.7149
 2100SOL    HW217763   1.617   3.609   9.455  0.0456  0.2132  1.3479
 2101SOL     OW17764   0.394   0.374  10.092 -0.1158 -0.7545 -0.1568
 2101SOL    HW117765   0.350   0.438  10.036  2.0242 -0.1553 -1.1626
 2101SOL    HW217766   0.323   0.340  10.145 -0.3005  0.0744  0.1239
 2102SOL     OW17767   1.187   3.172  10.561 -0.0185 -0.0630 -0.0471
 2102SOL    HW117768   1.167   3.097  10.505 -0.4575  0.7987 -1.0392
 2102SOL    HW217769   1.254   3.215  10.509  0.9932 -1.2840  0.2367
 2103SOL     OW17770   2.092   1.972  13.243 -0.0798  0.0566  0.3485
 2103SOL    HW117771   2.101   2.028  13.320 -2.4059  0.3627  0.4003
 2103SOL    HW217772   2.086   2.040  13.176  1.5335  0.6979  0.8505
 2104SOL     OW17773   0.153   2.601   6.821 -0.5457 -0.5214 -0.5142
 2104SOL    HW117774   0.160   2.588   6.916 -0.0983 -0.3624 -0.5252
 2104SOL    HW217775   0.246   2.606   6.799 -0.4211 -2.3352 -0.3515
 2105SOL     OW17776   4.419   3.522   2.864 -0.3058  0.6503  0.0883
 2105SOL    HW117777   4.373   3.468   2.800 -1.1838  2.1985 -0.5776
 2105SOL    HW217778   4.412   3.602   2.813 -2.5475  0.3548 -0.0901
 2106SOL     OW17779   1.307   4.087   7.648 -0.2820  0.6871  0.1055
 2106SOL    HW117780   1.383   4.081   7.589 -1.5650 -2.6518 -1.1813
 2106SOL    HW217781   1.357   4.104   7.728  0.4169  0.1300 -0.2055
 2107SOL     OW17782   3.741   4.148  17.225  0.1499 -0.2360 -0.2195
 2107SOL    HW117783   3.757   4.219  17.287  2.9882 -1.2636  0.2165
 2107SOL    HW217784   3.668   4.093  17.255 -0.6387  1.5230  1.1252
 2108SOL     OW17785   4.121   2.543   1.662  0.3171  0.1762  0.4548
 2108SOL    HW117786   4.142   2.505   1.747 -0.8924  1.3303  1.2659
 2108SOL    HW217787   4.208   2.536   1.621  1.0127 -0.1950  1.9963
 2109SOL     OW17788   1.180   4.662  16.426  0.3625 -0.3398  0.4896
 2109SOL    HW117789   1.123   4.681  16.352  1.0652  3.6688  0.9497
 2109SOL    HW217790   1.263   4.701  16.397  0.4650  0.3183  1.6565
 2110SOL     OW17791   3.797   3.962  17.579 -0.4021  0.0048 -0.6625
 2110SOL    HW117792   3.852   3.959  17.657  0.5418  0.0076 -1.3415
 2110SOL    HW217793   3.853   3.924  17.512  1.4741  0.0710  0.8811
 2111SOL     OW17794   1.108   2.529   3.148 -0.1145 -0.1059  0.2479
 2111SOL    HW117795   1.146   2.572   3.072 -0.3069  3.0750  1.9472
 2111SOL    HW217796   1.016   2.526   3.120 -0.0315  1.1484 -0.1268
 2112SOL     OW17797   2.279   2.129   7.754  0.6696  0.4574 -0.5572
 2112SOL    HW117798   2.340   2.197   7.781  0.9681  1.2003 -3.1409
 2112SOL    HW217799   2.203   2.180   7.784  0.1111  1.7007 -4.0805
 2113SOL     OW17800   2.974   0.325  12.753  0.0735 -0.2834 -0.4247
 2113SOL    HW117801   3.012   0.411  12.733 -0.6709  0.7029  2.4497
 2113SOL    HW217802   2.959   0.342  12.845  1.1644  4.2134 -1.0679
 2114SOL     OW17803   2.329   0.177   4.584 -0.4400  0.0045  0.0714
 2114SOL    HW117804   2.282   0.259   4.604 -1.5654 -0.3102 -1.2501
 2114SOL    HW217805   2.411   0.214   4.550 -0.6287 -0.7270 -1.1781
 2115SOL     OW17806   0.072   0.352   6.432  0.0683 -0.1431 -0.3354
 2115SOL    HW117807   0.130   0.421   6.399  1.0309 -0.7834  0.0193
 2115SOL    HW217808   0.112   0.339   6.518 -2.4229 -1.9276  0.5513
 2116SOL     OW17809   2.981   0.361   7.454 -0.0235  0.3148  0.3152
 2116SOL    HW117810   2.944   0.351   7.367  2.1752  0.9202 -0.6914
 2116SOL    HW217811   3.053   0.423   7.439 -0.9659  1.3160 -0.0309
 2117SOL     OW17812   3.331   3.360  12.463 -0.0055  0.0983  0.0501
 2117SOL    HW117813   3.278   3.285  12.435 -0.3945 -0.2022  1.6220
 2117SOL    HW217814   3.362   3.389  12.377 -0.0523  2.3113  0.7670
 2118SOL     OW17815   3.838   2.786   3.101  0.1421  0.0218  0.3075
 2118SOL    HW117816   3.880   2.771   3.016  0.1794  3.5387 -0.2929
 2118SOL    HW217817   3.780   2.710   3.102 -0.6489  0.5727 -3.8060
 2119SOL     OW17818   4.459   0.685  14.313 -0.0886 -0.1860 -0.1298
 2119SOL    HW117819   4.498   0.772  14.323  1.1316 -0.5309 -2.0728
 2119SOL    HW217820   4.506   0.645  14.386 -1.6101 -0.4604  0.6992
 2120SOL     OW17821   1.809   2.242   5.714  0.3238 -0.8224 -0.8446
 2120SOL    HW117822   1.897   2.248   5.678  0.5977 -0.6851 -0.1529
 2120SOL    HW217823   1.801   2.320   5.770 -4.5225 -1.8411 -0.0962
 2121SOL     OW17824   0.217   1.962   2.940 -0.3098  0.0940 -0.6939
 2121SOL    HW117825   0.306   1.945   2.972 -0.2522  0.8284 -0.4834
 2121SOL    HW217826   0.193   1.891   2.880  0.1503 -0.5472 -0.1201
 2122SOL     OW17827   0.751   3.833  14.141  0.2787 -0.0990  1.0218
 2122SOL    HW117828   0.843   3.843  14.165  0.9096 -2.7369 -0.2446
 2122SOL    HW217829   0.727   3.925  14.132  0.8505 -0.2249 -1.9534
 2123SOL     OW17830   0.108   1.786  16.050  0.0897 -0.0163  0.1939
 2123SOL    HW117831   0.112   1.722  16.121  0.8670 -0.4148 -0.1985
 2123SOL    HW217832   0.078   1.863  16.098 -1.9217 -0.9144  0.3642
 2124SOL     OW17833   4.148   4.075   7.409  0.3838  0.2894 -0.3517
 2124SOL    HW117834   4.226   4.131   7.397 -0.2033  0.7084 -2.1835
 2124SOL    HW217835   4.191   3.990   7.416  0.1566 -0.0271 -2.8271
 2125SOL     OW17836   0.494   2.782   5.287  0.4213  0.0535 -0.9042
 2125SOL    HW117837   0.532   2.870   5.295  0.1878  0.0032  0.6394
 2125SOL    HW217838   0.517   2.754   5.198  0.6006 -0.5854 -0.6527
 2126SOL     OW17839   2.039   2.694   8.647 -0.1839 -0.9236  0.3041
 2126SOL    HW117840   2.029   2.599   8.645  0.0178 -0.9301 -0.2954
 2126SOL    HW217841   1.998   2.729   8.568 -0.6089  1.2399  1.4900
 2127SOL     OW17842   1.769   1.573   4.372  0.2240 -0.0399 -0.0015
 2127SOL    HW117843   1.735   1.533   4.452 -1.5921 -0.6553 -1.0929
 2127SOL    HW217844   1.863   1.574   4.392  0.0513  0.9419  0.8188
 2128SOL     OW17845   0.303   2.750  12.157 -0.3332  0.1877 -0.3758
 2128SOL    HW117846   0.279   2.788  12.241 -1.8569 -2.4446  0.3679
 2128SOL    HW217847   0.331   2.824  12.102 -0.7757  1.3787  1.0021
 2129SOL     OW17848   2.818   0.964   8.310 -0.0900  0.2201  0.6042
 2129SOL    HW117849   2.725   0.986   8.304 -0.2648 -0.8171 -0.6200
 2129SOL    HW217850   2.837   0.977   8.403  0.3537 -1.9256  0.8098
 2130SOL     OW17851   3.033   3.604  14.601  0.2584 -0.8125  0.1805
 2130SOL    HW117852   3.036   3.700  14.609 -1.5197 -0.6761 -0.6244
 2130SOL    HW217853   3.119   3.595  14.560  0.3497  0.7461  0.0047
 2131SOL     OW17854   4.058   3.395  14.307 -0.2966  0.3131  0.0178
 2131SOL    HW117855   4.045   3.452  14.383  1.1454 -2.0630  2.0834
 2131SOL    HW217856   4.034   3.450  14.232 -0.8591  1.5472  1.0960
 2132SOL     OW17857   1.544   3.225  10.998  0.2082  0.9361  0.0904
 2132SOL    HW117858   1.578   3.314  10.990  1.0204  0.6317  0.2028
 2132SOL    HW217859   1.518   3.228  11.090 -0.6259 -2.2875 -0.0124
 2133SOL     OW17860   0.663   2.100   4.050  0.4503  0.5459 -0.3704
 2133SOL    HW117861   0.575   2.092   4.088 -0.1387  3.5381 -1.1117
 2133SOL    HW217862   0.725   2.071   4.116 -0.0186 -2.2014 -1.1282
 2134SOL     OW17863   4.076   3.601  13.203 -0.1451 -0.3074 -0.0259
 2134SOL    HW117864   3.997   3.547  13.205 -1.1552  1.2207  0.6897
 2134SOL    HW217865   4.050   3.669  13.141  0.8909 -0.1027 -0.2435
 2135SOL     OW17866   1.672   0.063   5.950 -0.4780  0.1807  0.6836
 2135SOL    HW117867   1.671   0.014   5.868 -1.4898  2.2632 -0.5769
 2135SOL    HW217868   1.746   0.020   5.992  1.8774  2.4317 -1.1279
 2136SOL     OW17869   0.511   0.571   7.383 -0.2362  0.0893 -0.3852
 2136SOL    HW117870   0.496   0.627   7.460 -2.6006 -0.3725 -0.5311
 2136SOL    HW217871   0.605   0.584   7.365 -0.0974 -0.1893  0.1232
 2137SOL     OW17872   3.839   1.968   3.506  0.3752 -0.0808 -0.1488
 2137SOL    HW117873   3.755   1.936   3.472 -1.6866  2.6878  2.3127
 2137SOL    HW217874   3.841   2.059   3.475 -2.2265  0.7125  1.9821
 2138SOL     OW17875   2.798   0.244   4.652 -0.2275  0.5188 -0.1073
 2138SOL    HW117876   2.782   0.335   4.675  1.6324  0.4457  1.4101
 2138SOL    HW217877   2.721   0.191   4.673 -0.0425 -0.0306 -0.8000
 2139SOL     OW17878   2.527   1.585  10.045  0.3916 -0.2996 -0.4541
 2139SOL    HW117879   2.450   1.545  10.084  0.0899 -0.5833 -1.3257
 2139SOL    HW217880   2.597   1.570  10.108  1.4900 -0.3974 -1.6810
 2140SOL     OW17881   0.537   1.469  17.541  0.3170  0.1797  0.2528
 2140SOL    HW117882   0.450   1.505  17.524  0.5507  0.5652 -0.1271
 2140SOL    HW217883   0.583   1.539  17.587  0.7521  0.6908 -0.9699
 2141SOL     OW17884   4.641   0.862  14.137 -0.3849 -0.2035  0.1153
 2141SOL    HW117885   4.695   0.855  14.058 -0.3689  0.5816  0.0566
 2141SOL    HW217886   4.649   0.776  14.178 -0.0876 -0.4502 -0.4477
 2142SOL     OW17887   0.008   4.531  11.069  0.5268 -0.7359  0.4731
 2142SOL    HW117888   0.071   4.603  11.073 -0.2057 -0.1282  1.0993
 2142SOL    HW217889   4.672   4.572  11.132  0.1342 -0.3773 -0.1289
 2143SOL     OW17890   2.669   2.990   5.809  0.3573 -0.4281  0.3014
 2143SOL    HW117891   2.649   3.066   5.754 -2.9774 -0.2640  1.8075
 2143SOL    HW217892   2.652   3.030   5.894  1.3219 -2.4271  1.4264
 2144SOL     OW17893   0.084   2.284   8.934  0.2196 -0.0506 -0.1255
 2144SOL    HW117894   0.169   2.303   8.974 -0.3543 -0.6907  1.4157
 2144SOL    HW217895   0.115   2.314   8.848  0.0552 -1.6664 -0.7618
 2145SOL     OW17896   3.616   1.974   7.934 -0.4880 -0.0496 -0.8260
 2145SOL    HW117897   3.670   2.044   7.972 -1.2182 -0.0934  0.2957
 2145SOL    HW217898   3.620   1.900   7.994 -2.3660  1.4731  1.1995
 2146SOL     OW17899   2.093   3.621   1.698  0.5139  0.6395  0.2321
 2146SOL    HW117900   2.163   3.570   1.738  1.0818  0.0012 -1.5863
 2146SOL    HW217901   2.141   3.666   1.629  1.2346 -0.5892 -0.0689
 2147SOL     OW17902   4.493   4.307   8.242 -0.3448 -0.6468  0.2735
 2147SOL    HW117903   4.491   4.387   8.190 -1.0835  0.1858  1.5748
 2147SOL    HW217904   4.414   4.266   8.206 -1.3147  1.0263  0.5050
 2148SOL     OW17905   1.459   1.816   2.558  0.5943  0.2356  0.2113
 2148SOL    HW117906   1.469   1.721   2.556 -1.2350 -0.0167  2.4393
 2148SOL    HW217907   1.533   1.850   2.608  0.2689 -1.7713  2.0333
 2149SOL     OW17908   0.817   1.963  16.904  0.6477  0.5986 -0.2829
 2149SOL    HW117909   0.770   2.032  16.857 -2.0685 -0.0547  1.4420
 2149SOL    HW217910   0.867   1.932  16.828  0.2242  3.5615 -1.7770
 2150SOL     OW17911   0.441   3.609   2.661 -0.1587  0.5420 -0.1189
 2150SOL    HW117912   0.475   3.652   2.583  1.6146 -0.9996 -0.1842
 2150SOL    HW217913   0.358   3.654   2.679  0.3503  2.1085 -1.6937
 2151SOL     OW17914   0.946   2.716   5.388 -0.4005 -0.0247 -0.0022
 2151SOL    HW117915   0.965   2.794   5.336  1.4922 -2.7529 -3.4100
 2151SOL    HW217916   0.907   2.751   5.468  0.4362 -3.8354  2.1116
 2152SOL     OW17917   1.537   3.601   2.303  0.1347  0.7206 -0.3010
 2152SOL    HW117918   1.591   3.641   2.370 -0.8142  1.9445 -0.2649
 2152SOL    HW217919   1.469   3.666   2.287  0.6559  1.1269 -0.8568
 2153SOL     OW17920   2.887   2.700   3.739 -0.1118 -0.0111 -0.1547
 2153SOL    HW117921   2.879   2.678   3.831  1.9548 -2.2222 -0.5173
 2153SOL    HW217922   2.978   2.672   3.728 -0.1738 -1.0545  2.1236
 2154SOL     OW17923   0.485   0.232   8.042 -0.1002 -0.5420  0.2851
 2154SOL    HW117924   0.511   0.294   8.111 -0.5465  1.0558 -0.9866
 2154SOL    HW217925   0.428   0.174   8.093 -2.6145  1.6342 -0.0696
 2155SOL     OW17926   3.335   1.520   0.070 -0.1705  0.0321 -0.2047
 2155SOL    HW117927   3.422   1.561   0.062  0.0126 -0.6689 -2.0331
 2155SOL    HW217928   3.321   1.500  17.673  0.6116  1.0572 -0.5551
 2156SOL     OW17929   0.671   3.368   4.309  0.5027  0.2151  0.4499
 2156SOL    HW117930   0.733   3.298   4.287 -1.2357 -0.5765 -2.0210
 2156SOL    HW217931   0.729   3.441   4.329 -0.1045  0.7574  0.2209
 2157SOL     OW17932   1.796   2.216   3.877 -0.0464 -0.2158 -0.2600
 2157SOL    HW117933   1.865   2.201   3.942  1.1340 -1.0266 -1.7152
 2157SOL    HW217934   1.826   2.291   3.825  0.4224 -0.6799 -0.6536
 2158SOL     OW17935   3.288   1.312   8.028 -0.2942  0.3085 -0.7942
 2158SOL    HW117936   3.243   1.231   8.052  0.4946  0.0181 -0.2923
 2158SOL    HW217937   3.219   1.360   7.982  0.2345  1.8436  0.0156
 2159SOL     OW17938   3.154   0.359   5.016  0.0673 -0.2742  0.0874
 2159SOL    HW117939   3.164   0.295   4.946  0.0257 -1.1508  0.8861
 2159SOL    HW217940   3.068   0.394   4.992  0.3075 -0.1661 -0.6085
 2160SOL     OW17941   0.572   1.370   0.777 -0.2596  0.8040 -0.1617
 2160SOL    HW117942   0.517   1.446   0.758  0.8366  2.1413  2.0258
 2160SOL    HW217943   0.518   1.301   0.737 -0.1172  0.5449  0.0998
 2161SOL     OW17944   1.230   0.532  11.541  0.1043 -0.3275 -0.1944
 2161SOL    HW117945   1.252   0.439  11.549  2.0222  0.0666 -0.9724
 2161SOL    HW217946   1.301   0.577  11.587  0.4147  0.0631 -1.0473
 2162SOL     OW17947   2.769   0.140   3.650  0.4834  0.1167  0.0393
 2162SOL    HW117948   2.814   0.068   3.606  0.2699  1.5409 -2.5060
 2162SOL    HW217949   2.778   0.212   3.588  1.9962  1.1455  1.4545
 2163SOL     OW17950   3.110   0.130   4.145 -0.3385  0.1114  0.0306
 2163SOL    HW117951   3.033   0.184   4.165 -0.0899  0.0689  1.1297
 2163SOL    HW217952   3.075   0.045   4.118 -2.2444  1.1008 -0.5982
 2164SOL     OW17953   1.707   2.865  16.716  0.4259  0.4347  0.9176
 2164SOL    HW117954   1.631   2.921  16.735  0.7416 -0.0898  3.7302
 2164SOL    HW217955   1.770   2.905  16.656 -0.4297  1.0447  0.4177
 2165SOL     OW17956   4.202   3.315   5.269  0.4117  0.1874  0.8898
 2165SOL    HW117957   4.153   3.298   5.189  1.1444  0.4300  0.3958
 2165SOL    HW217958   4.163   3.394   5.307  1.0416  0.1076  1.7175
 2166SOL     OW17959   3.001   1.029  12.223  0.7945  0.0616 -0.4271
 2166SOL    HW117960   2.922   1.080  12.202  1.2317  0.4114 -1.1887
 2166SOL    HW217961   3.072   1.091  12.207 -0.0253  1.4407  1.3427
 2167SOL     OW17962   4.418   4.582   2.241  0.4090  0.3497 -0.5129
 2167SOL    HW117963   4.345   4.629   2.281  1.1919 -0.4661  1.8360
 2167SOL    HW217964   4.373   4.543   2.166 -0.3976 -1.2685  0.8146
 2168SOL     OW17965   4.690   4.293   4.339 -0.2041 -0.2761 -0.1664
 2168SOL    HW117966   4.632   4.267   4.410  1.2264  0.6401  1.3362
 2168SOL    HW217967   0.054   4.314   4.372  0.0014 -2.4063  0.6485
 2169SOL     OW17968   1.947   4.024   6.609  0.0241  0.2854 -0.4947
 2169SOL    HW117969   1.868   4.000   6.560 -0.5462 -2.6424  1.8936
 2169SOL    HW217970   1.940   3.986   6.697 -0.5564  1.5733  0.0050
 2170SOL     OW17971   0.422   3.392   5.514 -0.3398 -0.6836 -0.2394
 2170SOL    HW117972   0.462   3.458   5.458  2.0151 -0.9548  1.1241
 2170SOL    HW217973   0.358   3.349   5.457 -1.2712 -0.7625  0.8497
 2171SOL     OW17974   4.024   0.454   5.768  0.1142 -0.5536 -0.0655
 2171SOL    HW117975   4.060   0.537   5.799  0.5235  0.1331 -2.3635
 2171SOL    HW217976   4.027   0.407   5.852  2.0768 -0.5287 -0.1167
 2172SOL     OW17977   3.904   1.720   7.855  0.4590  0.7142  0.8478
 2172SOL    HW117978   3.962   1.748   7.926  0.6928 -1.7894  1.6404
 2172SOL    HW217979   3.831   1.686   7.906 -0.5163  0.9729 -0.3722
 2173SOL     OW17980   3.269   2.688   4.864 -0.4358 -0.2683  0.4158
 2173SOL    HW117981   3.242   2.604   4.826 -1.0462  0.3034 -0.4122
 2173SOL    HW217982   3.362   2.694   4.842 -0.4558 -3.1807 -0.4624
 2174SOL     OW17983   3.533   0.019   5.695 -0.0577  0.5113  0.5445
 2174SOL    HW117984   3.460   4.714   5.749 -1.1400 -0.9381 -1.7121
 2174SOL    HW217985   3.503   0.106   5.667 -0.3937  0.7734  1.7120
 2175SOL     OW17986   0.872   0.762   8.809 -0.2396  0.1771 -0.3349
 2175SOL    HW117987   0.856   0.671   8.785 -1.0027  0.5623 -1.2793
 2175SOL    HW217988   0.941   0.788   8.749 -0.2324  0.8009 -0.0603
 2176SOL     OW17989   3.893   0.544   5.178  0.5062 -0.7828 -0.5952
 2176SOL    HW117990   3.931   0.631   5.164 -0.6681 -0.4207 -1.4232
 2176SOL    HW217991   3.820   0.566   5.235  1.4290  0.1072  0.2480
 2177SOL     OW17992   1.364   3.114  15.379  0.2402 -0.0638 -0.2842
 2177SOL    HW117993   1.270   3.118  15.396  0.3885 -0.0306  0.5091
 2177SOL    HW217994   1.375   3.082  15.290  0.4449 -0.5400 -0.0836
 2178SOL     OW17995   3.905   2.849   6.027  0.2983  0.4033 -0.0930
 2178SOL    HW117996   3.996   2.839   6.053 -0.5039 -2.5965  1.5383
 2178SOL    HW217997   3.864   2.765   6.047 -1.4694  1.5441  1.0110
 2179SOL     OW17998   0.280   0.068   4.984  0.0029 -0.1178  0.1176
 2179SOL    HW117999   0.289   4.698   4.969 -1.1291 -0.2439  0.2275
 2179SOL    HW218000   0.186   0.073   4.966 -0.8048 -1.4218  3.8514
 2180SOL     OW18001   3.049   2.956   4.425 -0.1436 -0.3768  0.2605
 2180SOL    HW118002   3.116   3.001   4.372  0.7236 -0.7137  1.0622
 2180SOL    HW218003   3.041   3.023   4.493 -0.6070  1.1053 -1.2721
 2181SOL     OW18004   1.669   4.607   5.259  0.0891 -0.7979  0.2376
 2181SOL    HW118005   1.589   4.613   5.310 -0.1642 -1.2920 -0.1035
 2181SOL    HW218006   1.635   4.616   5.170 -1.9609 -1.1316  0.9972
 2182SOL     OW18007   3.886   4.234   7.466 -0.1804  0.2743  0.1544
 2182SOL    HW118008   3.922   4.152   7.431 -1.1591  0.5814 -1.5768
 2182SOL    HW218009   3.801   4.204   7.500  0.1119 -0.7153  0.0149
 2183SOL     OW18010   4.517   1.411   3.830  0.2417 -0.5981  0.4464
 2183SOL    HW118011   4.566   1.333   3.855  1.9104 -0.1853 -1.4923
 2183SOL    HW218012   4.559   1.420   3.744 -0.9032 -0.4514 -0.1101
 2184SOL     OW18013   1.410   4.619   6.810  0.2861  0.0294  0.5483
 2184SOL    HW118014   1.327   4.588   6.774  1.4435  0.6619 -2.6403
 2184SOL    HW218015   1.476   4.587   6.749  0.7884 -0.4791  1.3723
 2185SOL     OW18016   2.920   3.434   8.692 -0.1609  0.1250  0.0650
 2185SOL    HW118017   2.984   3.371   8.661 -0.7687  0.1152 -1.1499
 2185SOL    HW218018   2.937   3.420   8.786  1.6275  1.4376 -0.0445
 2186SOL     OW18019   0.274   1.700   8.058 -0.6181  0.0873 -0.4983
 2186SOL    HW118020   0.330   1.696   8.135  1.1754 -0.9252 -1.8468
 2186SOL    HW218021   0.219   1.622   8.068 -2.0246  1.5441  3.1477
 2187SOL     OW18022   1.444   0.722   3.682 -0.4902 -0.9323  0.0873
 2187SOL    HW118023   1.461   0.744   3.591 -2.3458  0.5964  0.1196
 2187SOL    HW218024   1.532   0.693   3.707 -0.7753 -2.6324 -0.8877
 2188SOL     OW18025   2.215   3.191   4.910  0.3620 -0.5455  0.0632
 2188SOL    HW118026   2.130   3.159   4.883 -0.5364  3.3263 -1.6857
 2188SOL    HW218027   2.204   3.219   5.001  1.0205  0.7460 -0.2489
 2189SOL     OW18028   0.057   2.799   3.175 -0.1559 -0.2502 -0.0030
 2189SOL    HW118029   0.031   2.710   3.200 -0.9738 -0.2595 -0.8968
 2189SOL    HW218030   0.008   2.847   3.241  0.1177  0.5275 -0.3570
 2190SOL     OW18031   3.074   1.690   4.857 -0.0029  0.3284  0.7274
 2190SOL    HW118032   3.115   1.701   4.771 -2.6295 -3.9646 -1.0814
 2190SOL    HW218033   3.114   1.755   4.915 -0.7224  2.3331 -1.0435
 2191SOL     OW18034   1.428   3.617   9.230  0.6855 -0.5389 -0.0876
 2191SOL    HW118035   1.426   3.639   9.137 -0.4354  1.1995  0.3318
 2191SOL    HW218036   1.335   3.636   9.246  0.6930  0.6482 -1.4092
 2192SOL     OW18037   2.695   1.664   1.485  0.2535  0.2603 -0.2244
 2192SOL    HW118038   2.603   1.687   1.471  0.8268  2.3212 -0.6458
 2192SOL    HW218039   2.694   1.569   1.498  0.2860  0.3388  0.3440
 2193SOL     OW18040   2.158   2.658   8.089  0.0813 -0.0681 -0.1951
 2193SOL    HW118041   2.247   2.627   8.075  0.0140  0.1732 -1.1517
 2193SOL    HW218042   2.174   2.742   8.133  1.3820 -0.1572 -0.5058
 2194SOL     OW18043   3.148   3.039   8.205 -0.2015 -0.0273  0.2016
 2194SOL    HW118044   3.220   3.101   8.199 -1.9339  1.6573 -2.7930
 2194SOL    HW218045   3.111   3.060   8.291  1.5151 -0.1482  0.9570
 2195SOL     OW18046   1.350   3.357   1.607 -0.1148 -0.6050  0.1311
 2195SOL    HW118047   1.372   3.448   1.589  0.8421 -0.4903  1.8741
 2195SOL    HW218048   1.257   3.354   1.582 -0.2405  2.3041  0.2274
 2196SOL     OW18049   1.026   3.142   6.409 -0.1861 -0.2978 -0.0968
 2196SOL    HW118050   0.988   3.158   6.495  0.6150  1.2508 -0.0140
 2196SOL    HW218051   1.092   3.076   6.430 -0.7171 -0.0857  2.2529
 2197SOL     OW18052   0.565   2.563  10.805 -0.0450 -0.2422  0.0066
 2197SOL    HW118053   0.573   2.495  10.872 -0.8541 -1.3935 -1.0777
 2197SOL    HW218054   0.652   2.604  10.806 -0.7603  1.2636  0.0956
 2198SOL     OW18055   1.140   1.318  12.084 -0.1561 -0.4474  0.0560
 2198SOL    HW118056   1.089   1.343  12.007 -0.6094 -2.5102 -0.3068
 2198SOL    HW218057   1.165   1.399  12.129 -1.0977  0.0621 -0.3474
 2199SOL     OW18058   2.973   3.991   2.355 -0.0838  0.1678  0.1600
 2199SOL    HW118059   3.037   4.007   2.424 -0.7611  1.0809  0.5904
 2199SOL    HW218060   2.903   4.050   2.385  0.6513 -0.3994  2.9579
 2200SOL     OW18061   1.813   3.680   6.569  0.0532 -0.6722  0.1623
 2200SOL    HW118062   1.741   3.639   6.522  1.7663 -1.3559 -1.8404
 2200SOL    HW218063   1.852   3.735   6.501  0.6823 -1.9338 -0.4887
 2201SOL     OW18064   2.926   3.852  13.657  0.4698 -0.3978  0.8293
 2201SOL    HW118065   2.873   3.778  13.626  0.5807 -0.8462  1.7137
 2201SOL    HW218066   2.969   3.881  13.576  0.2690 -1.4895  0.3349
 2202SOL     OW18067   3.515   1.850   1.249 -0.1661  0.4522 -0.3197
 2202SOL    HW118068   3.471   1.806   1.175 -1.0113 -0.2437  0.5934
 2202SOL    HW218069   3.470   1.934   1.253  0.3570  0.6961  0.3378
 2203SOL     OW18070   2.711   3.006   0.656 -0.1896  0.4546  0.0736
 2203SOL    HW118071   2.644   3.019   0.723  1.2419  0.1108  1.5692
 2203SOL    HW218072   2.785   3.026   0.714 -1.2886 -1.4320  2.1508
 2204SOL     OW18073   4.568   2.325   0.112  0.3688 -0.1837  0.2222
 2204SOL    HW118074   4.570   2.235   0.079 -0.4541 -1.2658  3.1569
 2204SOL    HW218075   4.659   2.336   0.138  0.9804 -2.0131 -1.1000
 2205SOL     OW18076   1.804   2.464   5.876 -0.1537 -0.0349  0.0349
 2205SOL    HW118077   1.756   2.538   5.839  1.1848  0.7650 -0.1169
 2205SOL    HW218078   1.762   2.456   5.962 -1.6551  3.4323 -0.3726
 2206SOL     OW18079   0.607   4.656   5.262 -0.0587  0.2636  0.0768
 2206SOL    HW118080   0.587   4.565   5.285  0.4295  0.0501 -0.3328
 2206SOL    HW218081   0.642   4.674   5.349 -1.4415 -0.2173  0.7339
 2207SOL     OW18082   1.480   3.980   6.807  0.4027 -0.3201 -0.1898
 2207SOL    HW118083   1.496   3.893   6.770 -0.3393 -0.1902 -0.8309
 2207SOL    HW218084   1.385   3.984   6.794  0.4263  1.7005  0.3052
 2208SOL     OW18085   0.703   3.585   3.406 -0.1002  0.0217 -0.0395
 2208SOL    HW118086   0.698   3.657   3.343  3.3365 -1.5202 -2.0980
 2208SOL    HW218087   0.701   3.639   3.485  0.7088 -0.7478  0.5057
 2209SOL     OW18088   4.430   0.374   7.064 -0.3351  0.2157 -0.1471
 2209SOL    HW118089   4.434   0.333   7.150  0.3200 -0.9126 -0.7139
 2209SOL    HW218090   4.345   0.337   7.042 -0.3488  1.4442 -2.1306
 2210SOL     OW18091   1.487   4.111   9.238  0.0010 -0.1571  0.4530
 2210SOL    HW118092   1.541   4.059   9.297 -1.1871  0.2824  1.9244
 2210SOL    HW218093   1.441   4.046   9.185  0.8260 -1.3777  1.2530
 2211SOL     OW18094   4.068   0.673   5.924  0.1457 -0.5558 -0.5715
 2211SOL    HW118095   4.097   0.649   6.012 -1.1343 -4.5525 -1.2218
 2211SOL    HW218096   4.124   0.749   5.908  0.0712 -0.1949  0.8935
 2212SOL     OW18097   0.632   1.280   1.719 -0.1287  0.3897 -0.6532
 2212SOL    HW118098   0.629   1.347   1.652  0.4350 -0.4043 -1.4707
 2212SOL    HW218099   0.545   1.283   1.760 -0.1156  0.1630 -0.6081
 2213SOL     OW18100   3.031   2.184   0.379  0.3097  0.3589 -0.3112
 2213SOL    HW118101   3.090   2.167   0.452  1.4800  1.4334 -1.0201
 2213SOL    HW218102   2.975   2.106   0.383  2.6465 -1.3215 -0.3887
 2214SOL     OW18103   1.420   3.235   6.495  0.1168  0.1764 -0.4691
 2214SOL    HW118104   1.510   3.212   6.476  0.0461  0.3861 -1.0600
 2214SOL    HW218105   1.385   3.242   6.406 -1.4612 -0.8964  0.0679
 2215SOL     OW18106   2.319   4.233   2.026  0.2925  0.5812  0.4124
 2215SOL    HW118107   2.319   4.137   2.026  1.7912  0.5942  0.7616
 2215SOL    HW218108   2.403   4.255   2.067  0.9206  0.9000 -1.0765
 2216SOL     OW18109   0.069   4.561  14.497  0.3027  0.3198  0.1045
 2216SOL    HW118110   4.701   4.587  14.489  0.0921  0.0317  1.5255
 2216SOL    HW218111   0.086   4.558  14.403 -1.7743  0.9742 -0.2981
 2217SOL     OW18112   0.014   3.373   2.239 -0.0557 -0.4245 -0.0337
 2217SOL    HW118113   4.672   3.402   2.302 -0.7188  0.4389 -1.1203
 2217SOL    HW218114   0.076   3.322   2.290  1.7349  1.8888  0.0839
 2218SOL     OW18115   2.230   3.503  15.646 -0.2073 -0.0174 -0.3247
 2218SOL    HW118116   2.265   3.445  15.578  0.5578 -0.8488  0.7957
 2218SOL    HW218117   2.233   3.587  15.599  0.1923  0.3309  0.3294
 2219SOL     OW18118   0.529   2.564   3.602 -0.3698  0.0852  0.3125
 2219SOL    HW118119   0.607   2.584   3.654  0.2115 -0.7106 -0.2597
 2219SOL    HW218120   0.497   2.489   3.651  0.4117 -0.4148  0.0507
 2220SOL     OW18121   3.056   4.311   5.580 -0.1799 -0.2712  0.3579
 2220SOL    HW118122   3.010   4.342   5.658  1.6775  1.0318  0.9608
 2220SOL    HW218123   3.027   4.361   5.504  2.3306  1.4560  0.5206
 2221SOL     OW18124   1.271   3.684   3.153 -0.1857  0.8875  0.2960
 2221SOL    HW118125   1.240   3.672   3.243 -0.1536  0.3198  0.2316
 2221SOL    HW218126   1.195   3.703   3.099 -0.9675 -1.9315  0.3677
 2222SOL     OW18127   2.768   0.301   2.233  0.1785  0.1164  0.0492
 2222SOL    HW118128   2.845   0.329   2.185  0.9780 -0.1104  1.1945
 2222SOL    HW218129   2.774   0.208   2.213  1.1512 -0.4125  2.7590
 2223SOL     OW18130   4.324   1.353   7.367  0.3574 -0.0360  0.2779
 2223SOL    HW118131   4.302   1.429   7.313  1.7568  0.9371  1.0872
 2223SOL    HW218132   4.384   1.398   7.426  1.1350  0.4760 -0.9166
 2224SOL     OW18133   2.007   2.347   0.611 -0.1600 -0.4129  0.0876
 2224SOL    HW118134   1.959   2.342   0.528 -0.4993  1.1984  0.1907
 2224SOL    HW218135   2.091   2.362   0.568 -0.8422  1.7238 -0.4824
 2225SOL     OW18136   3.551   4.254  13.903 -0.6301  0.4757 -0.0162
 2225SOL    HW118137   3.525   4.185  13.964  2.3939 -0.7569 -0.1110
 2225SOL    HW218138   3.632   4.290  13.941 -0.2547 -0.7949  0.3763
 2226SOL     OW18139   0.339   3.434   6.113 -0.1124  0.8587  0.0604
 2226SOL    HW118140   0.259   3.401   6.153  0.1746 -0.3004 -0.3225
 2226SOL    HW218141   0.402   3.414   6.183 -0.0544  0.3990 -0.1269
 2227SOL     OW18142   2.817   2.667   4.010  0.4322 -0.2195 -0.1561
 2227SOL    HW118143   2.763   2.678   4.088  0.3146  0.4415 -0.3368
 2227SOL    HW218144   2.765   2.599   3.968  0.7992 -1.7669  1.8631
 2228SOL     OW18145   4.539   3.617   8.598 -0.1180  0.4631  0.1043
 2228SOL    HW118146   4.479   3.553   8.634  0.1818 -0.3918 -0.9223
 2228SOL    HW218147   4.519   3.696   8.648 -1.6569  0.6369 -0.7713
 2229SOL     OW18148   1.821   4.532   3.109  1.0630  0.4560 -0.5479
 2229SOL    HW118149   1.893   4.553   3.168  0.5839  1.4629 -0.3182
 2229SOL    HW218150   1.852   4.554   3.022 -1.0283  2.5340 -0.7779
 2230SOL     OW18151   4.401   3.318  17.661  0.2172  0.0188  0.4904
 2230SOL    HW118152   4.336   3.270   0.016 -2.4053  0.7160 -2.2114
 2230SOL    HW218153   4.370   3.409  17.671 -0.1347 -0.0835  0.3283
 2231SOL     OW18154   0.007   4.341   7.725 -0.4402 -0.0601 -0.1701
 2231SOL    HW118155   4.712   4.250   7.750 -3.4794  0.2292 -1.3860
 2231SOL    HW218156   0.103   4.338   7.733 -0.2522  0.9723 -1.9965
 2232SOL     OW18157   2.337   0.578   0.761  0.2495 -0.2371  0.5816
 2232SOL    HW118158   2.430   0.598   0.776  0.1737  1.2695 -0.9806
 2232SOL    HW218159   2.314   0.669   0.781  0.0059 -0.1999  0.1361
 2233SOL     OW18160   1.761   2.976   8.610  0.5435  0.0109 -0.0881
 2233SOL    HW118161   1.849   3.010   8.596 -0.1412  2.4444  1.3874
 2233SOL    HW218162   1.727   2.981   8.521 -0.9858  0.3231  0.5086
 2234SOL     OW18163   1.820   0.662   6.557 -0.2806 -0.2008  1.0387
 2234SOL    HW118164   1.824   0.642   6.463 -1.3415 -0.3847  1.0420
 2234SOL    HW218165   1.827   0.756   6.541 -1.6739 -0.7638 -2.8646
 2235SOL     OW18166   1.863   3.898  11.200  0.3032 -0.3060  0.0857
 2235SOL    HW118167   1.794   3.842  11.235 -1.8255  2.1567 -0.1635
 2235SOL    HW218168   1.835   3.978  11.245  2.4252  0.0860  0.6925
 2236SOL     OW18169   3.031   3.518   7.103  0.1235 -0.1824 -0.3811
 2236SOL    HW118170   2.973   3.577   7.151  1.2931 -0.0735  0.9194
 2236SOL    HW218171   3.113   3.567   7.110  0.1354 -0.2467 -0.0232
 2237SOL     OW18172   2.074   4.028   7.480  0.0340  0.2763  0.1799
 2237SOL    HW118173   2.106   4.113   7.509  0.6418  0.3601 -0.7369
 2237SOL    HW218174   2.011   4.050   7.411  0.3202  1.9780  0.4761
 2238SOL     OW18175   2.114   1.638   6.160 -0.2387  0.2753 -0.2892
 2238SOL    HW118176   2.050   1.698   6.199 -0.9234  1.0795 -2.6211
 2238SOL    HW218177   2.154   1.606   6.240  1.7663  2.7500 -0.3109
 2239SOL     OW18178   3.173   0.151  12.918 -0.0037 -0.0007  0.0545
 2239SOL    HW118179   3.090   0.111  12.896  0.8624 -1.9618  0.3489
 2239SOL    HW218180   3.141   0.241  12.918  0.3307  0.1324  2.0576
 2240SOL     OW18181   1.309   2.245   2.483 -0.6754 -0.1425 -0.0753
 2240SOL    HW118182   1.321   2.302   2.407 -0.4081  0.9222  0.7571
 2240SOL    HW218183   1.365   2.296   2.542  0.2228 -0.4967 -0.6101
 2241SOL     OW18184   3.165   0.824   7.472  0.4005 -0.8093 -0.8077
 2241SOL    HW118185   3.203   0.912   7.477 -0.1862 -0.4794 -2.2321
 2241SOL    HW218186   3.119   0.826   7.557  0.6595  3.0582 -0.7507
 2242SOL     OW18187   1.925   1.978   9.072  0.7842 -0.0686 -0.2690
 2242SOL    HW118188   2.006   1.928   9.058  0.3445 -1.1988  1.1910
 2242SOL    HW218189   1.876   1.979   8.990 -2.6734 -1.0298  1.7798
 2243SOL     OW18190   0.787   0.668   1.750  0.1857  0.6549  0.2765
 2243SOL    HW118191   0.812   0.649   1.660  0.6896  0.4288  0.4603
 2243SOL    HW218192   0.726   0.739   1.736  1.5839  1.7818 -0.0964
 2244SOL     OW18193   1.579   3.088   2.796  0.7641  0.1202  0.6998
 2244SOL    HW118194   1.565   3.055   2.707  0.1144  0.4263  0.6903
 2244SOL    HW218195   1.649   3.148   2.772  0.5298 -0.1689 -0.7229
 2245SOL     OW18196   3.679   4.080   4.174  0.1192  0.2147 -0.3701
 2245SOL    HW118197   3.619   4.133   4.121  0.1510  0.4832 -0.1381
 2245SOL    HW218198   3.721   4.042   4.097  1.1904 -1.1467  0.9047
 2246SOL     OW18199   0.725   2.601   3.382 -0.4082 -0.0396 -0.0657
 2246SOL    HW118200   0.770   2.671   3.429 -0.8101  0.7564 -0.8540
 2246SOL    HW218201   0.648   2.589   3.438  1.1732  0.0178  2.1076
 2247SOL     OW18202   2.028   4.673   3.503  0.9116  0.8003  1.1026
 2247SOL    HW118203   1.979   4.666   3.585 -1.5029  1.9538 -0.2413
 2247SOL    HW218204   2.004   0.040   3.483  0.1484 -0.2266 -2.5151
 2248SOL     OW18205   1.290   2.835   5.550  0.6814  0.1610 -0.8264
 2248SOL    HW118206   1.334   2.772   5.493 -1.9930 -0.8497 -1.7817
 2248SOL    HW218207   1.309   2.915   5.499  0.8750  0.7502  0.1760
 2249SOL     OW18208   2.869   3.039  11.846 -0.0503 -0.4158  0.3230
 2249SOL    HW118209   2.781   3.002  11.846 -1.7125  3.4381  1.2603
 2249SOL    HW218210   2.874   3.100  11.773  0.7570 -0.9230 -0.0361
 2250SOL     OW18211   4.503   2.046   0.282 -0.0222 -0.0697 -0.9618
 2250SOL    HW118212   4.597   2.051   0.300 -0.5259  2.1160  0.9705
 2250SOL    HW218213   4.514   2.046   0.187  3.8867 -2.5147 -0.5109
 2251SOL     OW18214   0.804   0.712   6.741  0.1387  0.2256 -0.3261
 2251SOL    HW118215   0.819   0.739   6.650  0.6062  1.5856  0.1669
 2251SOL    HW218216   0.739   0.778   6.762 -0.2463 -0.3669  0.3648
 2252SOL     OW18217   1.983   4.209   5.869  0.0686 -0.1369 -0.4156
 2252SOL    HW118218   1.942   4.250   5.793  0.1320 -0.5423 -0.6713
 2252SOL    HW218219   1.925   4.134   5.880  2.6678 -2.4264 -2.3177
 2253SOL     OW18220   2.338   4.699   6.340 -0.5879 -0.3854 -0.2927
 2253SOL    HW118221   2.388   0.035   6.396 -2.6158  2.1336 -1.1476
 2253SOL    HW218222   2.302   4.632   6.399 -0.0027 -2.7037 -2.6169
 2254SOL     OW18223   3.933   2.682  15.708 -0.4848 -0.6745 -0.3062
 2254SOL    HW118224   4.014   2.636  15.727  0.8704  2.3825  1.3511
 2254SOL    HW218225   3.926   2.677  15.612  2.8078 -2.2381 -0.4409
 2255SOL     OW18226   1.898   3.336   3.119 -0.4655  0.1485 -0.1676
 2255SOL    HW118227   1.905   3.275   3.192 -0.2925  1.1647  0.6691
 2255SOL    HW218228   1.969   3.309   3.061 -0.6351  2.4040 -1.4465
 2256SOL     OW18229   2.742   4.570  10.341 -0.2920  0.4264 -0.2788
 2256SOL    HW118230   2.803   4.595  10.410 -1.9398  2.2503  0.5024
 2256SOL    HW218231   2.731   4.656  10.301  0.1989  1.3978  1.7022
 2257SOL     OW18232   1.817   3.587  15.707  0.1140  0.0348  0.1496
 2257SOL    HW118233   1.746   3.645  15.737 -1.1944 -2.3110  1.5625
 2257SOL    HW218234   1.820   3.595  15.612 -1.7016  1.3511  0.1968
 2258SOL     OW18235   2.331   4.604   5.536 -0.5532 -0.0872  0.0398
 2258SOL    HW118236   2.396   4.537   5.557  0.2374  0.2100 -1.4548
 2258SOL    HW218237   2.382   4.671   5.490  0.2780 -0.2254  0.7813
 2259SOL     OW18238   0.588   0.556   6.213 -0.1812  0.2543  0.2506
 2259SOL    HW118239   0.652   0.491   6.185 -0.2267  0.1664  0.3514
 2259SOL    HW218240   0.526   0.500   6.260  0.4856  1.8420  3.0249
 2260SOL     OW18241   4.699   2.166  15.811 -0.3516 -0.5096 -0.0429
 2260SOL    HW118242   4.720   2.199  15.723 -0.3597  1.8660  0.8447
 2260SOL    HW218243   4.659   2.244  15.850 -0.1322 -2.0102  3.1605
 2261SOL     OW18244   3.980   0.067   0.043 -0.1868 -0.1636  0.0968
 2261SOL    HW118245   3.954   0.118  17.663  0.2141  0.8799  0.6664
 2261SOL    HW218246   3.972   4.698   0.018  2.3627 -1.1048  2.8112
 2262SOL     OW18247   2.463   2.207  14.552 -0.1670 -0.1132  0.8880
 2262SOL    HW118248   2.477   2.301  14.561  0.4773 -0.1838  0.6079
 2262SOL    HW218249   2.419   2.180  14.632 -1.4174 -0.3954  0.1075
 2263SOL     OW18250   1.175   3.050   1.808 -0.3693 -0.0686  0.1146
 2263SOL    HW118251   1.250   3.000   1.840 -1.5290 -2.3674 -0.6900
 2263SOL    HW218252   1.123   2.992   1.752 -0.4894 -0.3068  0.4717
 2264SOL     OW18253   0.675   0.099   7.519 -0.1166 -0.8188  0.2206
 2264SOL    HW118254   0.732   0.134   7.588 -1.1935  1.9963 -0.3075
 2264SOL    HW218255   0.620   0.175   7.501 -0.1992 -0.9701 -0.1699
 2265SOL     OW18256   1.270   0.517   7.656 -0.3156 -0.1058  0.0896
 2265SOL    HW118257   1.293   0.568   7.578  0.1768  0.3562  0.5429
 2265SOL    HW218258   1.177   0.534   7.670  0.2208  1.4405  1.6919
 2266SOL     OW18259   1.611   2.986   5.134 -0.0955 -0.4313  0.0382
 2266SOL    HW118260   1.566   2.907   5.166  1.7090 -2.1825 -1.7455
 2266SOL    HW218261   1.537   3.046   5.128  0.5223  0.2612 -0.6012
 2267SOL     OW18262   4.673   4.612   4.007  0.1385  0.1340  0.1827
 2267SOL    HW118263   4.611   4.603   3.934 -0.6699 -0.4607  0.9418
 2267SOL    HW218264   4.699   4.704   4.002 -2.5760  0.9065  0.2769
 2268SOL     OW18265   2.865   0.172   5.883 -0.1324  0.3818 -0.7293
 2268SOL    HW118266   2.889   0.080   5.894  2.4001  1.2113  0.5849
 2268SOL    HW218267   2.940   0.222   5.916 -0.4599 -1.3270  2.5234
 2269SOL     OW18268   0.981   0.386   6.260 -0.2561 -0.1530  0.7003
 2269SOL    HW118269   0.962   0.454   6.195  1.6022 -0.6807 -0.3929
 2269SOL    HW218270   0.890   0.359   6.276 -0.8431 -0.3256 -2.9408
 2270SOL     OW18271   2.587   1.496  16.635 -0.0978  0.2468  0.2966
 2270SOL    HW118272   2.564   1.446  16.556 -3.0977  1.2248  0.5479
 2270SOL    HW218273   2.518   1.466  16.694 -0.5256  1.8311  0.6005
 2271SOL     OW18274   1.654   3.788  11.358 -0.0817 -0.0651 -0.4167
 2271SOL    HW118275   1.691   3.702  11.336  2.1670  0.1510  2.4181
 2271SOL    HW218276   1.639   3.785  11.453 -0.2015  0.2608 -0.4258
 2272SOL     OW18277   0.631   0.848   7.185 -0.2139 -0.1517 -0.0536
 2272SOL    HW118278   0.705   0.870   7.128  0.0683  0.8122  0.6958
 2272SOL    HW218279   0.560   0.811   7.132 -1.2410 -0.3982  1.5206
 2273SOL     OW18280   0.962   3.894  12.610 -0.2991  0.8707 -0.1058
 2273SOL    HW118281   1.035   3.915  12.552  0.1470  1.8991  0.8321
 2273SOL    HW218282   0.902   3.865  12.541 -0.0410  1.9583 -0.7780
 2274SOL     OW18283   1.570   0.727   9.753 -0.1772 -0.2135 -0.2021
 2274SOL    HW118284   1.542   0.813   9.784 -0.6833  0.5406 -2.7462
 2274SOL    HW218285   1.510   0.697   9.684 -0.7809 -0.0078  0.2382
 2275SOL     OW18286   4.639   3.716  12.995  0.1355 -0.0968  0.2314
 2275SOL    HW118287   4.642   3.669  13.078 -0.5832  0.8924  0.8222
 2275SOL    HW218288   4.550   3.693  12.968 -0.5737  1.6648  1.0876
 2276SOL     OW18289   4.539   1.234  16.468 -0.0679  0.0268 -0.5531
 2276SOL    HW118290   4.589   1.158  16.496 -0.5882 -0.1697 -0.1465
 2276SOL    HW218291   4.492   1.197  16.393 -0.4454  2.2712 -1.4138
 2277SOL     OW18292   4.189   2.975   2.843  0.2735 -0.3912  0.5005
 2277SOL    HW118293   4.199   3.003   2.752  0.6145  0.6320  0.8522
 2277SOL    HW218294   4.251   3.036   2.884 -0.3935  0.6565 -0.0230
 2278SOL     OW18295   0.776   1.676   3.598  0.0961  0.3956 -0.1886
 2278SOL    HW118296   0.759   1.640   3.511 -0.6778 -1.9945  0.9578
 2278SOL    HW218297   0.752   1.602   3.653 -3.0880  0.9308 -0.8360
 2279SOL     OW18298   0.509   0.829  12.703  0.1116 -0.1242 -0.7653
 2279SOL    HW118299   0.457   0.887  12.757  0.9042  1.3353 -1.5550
 2279SOL    HW218300   0.572   0.886  12.658 -0.7306 -0.8423 -2.8497
 2280SOL     OW18301   0.678   3.052   4.556 -0.1130 -0.7340  0.0156
 2280SOL    HW118302   0.767   3.026   4.580  0.0681 -0.2442 -0.1151
 2280SOL    HW218303   0.684   3.021   4.465  1.1650  1.2110 -0.5716
 2281SOL     OW18304   1.276   2.547   8.329  0.2383 -0.8001 -0.1318
 2281SOL    HW118305   1.280   2.486   8.402  0.9115  0.8806  1.2353
 2281SOL    HW218306   1.355   2.523   8.281 -0.0988 -1.7189 -0.2307
 2282SOL     OW18307   0.214   4.574   5.369  0.4090  0.2134 -0.5312
 2282SOL    HW118308   0.280   4.558   5.436 -0.7238 -1.0933  0.2851
 2282SOL    HW218309   0.254   4.649   5.325 -0.8838  1.2144 -0.0110
 2283SOL     OW18310   1.114   4.588  17.575 -0.2326  0.1682 -0.1381
 2283SOL    HW118311   1.103   4.543  17.491 -1.5911  2.5651 -1.2193
 2283SOL    HW218312   1.099   4.679  17.549 -0.3287  0.1509 -0.1424
 2284SOL     OW18313   1.678   3.149   4.744  0.0497  0.3644  0.1336
 2284SOL    HW118314   1.765   3.175   4.713  0.1810 -0.8118 -0.4895
 2284SOL    HW218315   1.644   3.095   4.673  0.3991  0.0233  0.2227
 2285SOL     OW18316   4.402   2.811  16.157  0.0938 -0.3360 -0.5130
 2285SOL    HW118317   4.339   2.769  16.215  0.4253  0.6257  0.5233
 2285SOL    HW218318   4.371   2.775  16.073 -0.0509  0.6726 -0.8925
 2286SOL     OW18319   2.253   1.218   4.800 -0.3541 -0.0342  0.1347
 2286SOL    HW118320   2.187   1.159   4.764 -0.5386 -0.1580  0.6803
 2286SOL    HW218321   2.331   1.164   4.812  1.7403  2.4085 -2.4518
 2287SOL     OW18322   0.958   0.798   1.161 -0.3959 -0.1326 -0.6346
 2287SOL    HW118323   0.899   0.767   1.092 -0.7826 -1.3249  0.2356
 2287SOL    HW218324   1.030   0.837   1.111 -1.4494  1.7265 -0.6828
 2288SOL     OW18325   0.837   0.677  14.939 -0.5236  0.5726 -0.1504
 2288SOL    HW118326   0.888   0.683  14.858  2.1523 -0.5595  1.4317
 2288SOL    HW218327   0.790   0.759  14.949  0.6006  1.3212 -1.1139
 2289SOL     OW18328   3.715   0.551   2.076 -0.3320 -0.2310  0.0427
 2289SOL    HW118329   3.642   0.497   2.046  1.6776 -1.5322 -2.5805
 2289SOL    HW218330   3.783   0.519   2.017 -2.0606  1.7782 -2.9687
 2290SOL     OW18331   1.589   1.288   8.613  0.7823 -0.0210 -0.4194
 2290SOL    HW118332   1.626   1.374   8.630 -3.5620  2.0059 -1.0606
 2290SOL    HW218333   1.559   1.263   8.701  2.0052  1.7788  0.5124
 2291SOL     OW18334   4.557   1.215   0.199  0.0696 -0.0193 -0.3606
 2291SOL    HW118335   4.619   1.276   0.239 -1.4262  0.3523  1.3865
 2291SOL    HW218336   4.501   1.265   0.140 -0.2228 -2.3693 -2.0845
 2292SOL     OW18337   2.676   0.430  16.091 -0.0556  0.0984 -0.3576
 2292SOL    HW118338   2.719   0.409  16.174  0.6701  2.0480 -0.2394
 2292SOL    HW218339   2.624   0.508  16.109  0.9912  1.2150 -2.1966
 2293SOL     OW18340   1.982   1.599   8.574 -0.1148  0.6054  0.2562
 2293SOL    HW118341   2.073   1.608   8.548 -0.4447  0.9695 -0.7557
 2293SOL    HW218342   2.003   1.540   8.647  0.5987 -0.8792 -1.1428
 2294SOL     OW18343   2.563   4.099   3.501  0.1517  0.4763  0.3492
 2294SOL    HW118344   2.589   4.190   3.484 -0.2013  0.0917 -2.2105
 2294SOL    HW218345   2.646   4.065   3.532 -0.8563 -0.2174  2.3019
 2295SOL     OW18346   0.127   0.072   1.342 -0.5887 -0.1325  0.2815
 2295SOL    HW118347   0.146   0.022   1.421 -0.5286  0.6936  0.7899
 2295SOL    HW218348   0.212   0.114   1.332 -1.0086  0.8174  0.7133
 2296SOL     OW18349   3.317   4.534  12.892  0.7498 -0.0169 -0.2368
 2296SOL    HW118350   3.310   4.617  12.939  2.5460 -1.3406  2.3459
 2296SOL    HW218351   3.277   4.560  12.809  0.7153  1.3285  0.1983
 2297SOL     OW18352   3.970   1.420   7.819 -0.1523 -0.7243  0.5033
 2297SOL    HW118353   3.915   1.479   7.768 -1.9513 -3.2835 -0.5479
 2297SOL    HW218354   4.056   1.457   7.797 -0.9518 -0.6605 -2.5992
 2298SOL     OW18355   1.583   4.343  14.160  0.2445 -0.3228 -0.1124
 2298SOL    HW118356   1.601   4.250  14.174  1.3249  0.2581  2.5736
 2298SOL    HW218357   1.593   4.353  14.066  0.4432  1.6196  0.1141
 2299SOL     OW18358   4.419   2.574  10.991 -0.0193  0.2298  1.1180
 2299SOL    HW118359   4.433   2.668  10.976  0.2162  0.2781  1.6441
 2299SOL    HW218360   4.403   2.543  10.902  1.4407  0.7764  0.6546
 2300SOL     OW18361   2.803   3.766  10.073  0.4386  0.0559  0.5301
 2300SOL    HW118362   2.807   3.825   9.998 -0.5573 -1.5757 -0.8121
 2300SOL    HW218363   2.709   3.769  10.087  0.6953 -1.8793  2.6876
 2301SOL     OW18364   0.808   4.426   4.524 -0.6232  0.7135  0.1791
 2301SOL    HW118365   0.781   4.509   4.485 -0.9449 -0.4187 -1.9939
 2301SOL    HW218366   0.743   4.406   4.591  0.5375 -1.9188  0.5517
 2302SOL     OW18367   4.509   4.006   0.006  0.4679 -0.1357 -0.9850
 2302SOL    HW118368   4.510   3.945  17.628  1.8828 -0.0869 -1.0036
 2302SOL    HW218369   4.453   3.963   0.071 -0.2853  1.2749 -0.7192
 2303SOL     OW18370   2.529   2.798  11.037  0.5326  0.0485  0.5973
 2303SOL    HW118371   2.503   2.707  11.049 -0.4634  0.1693 -0.6528
 2303SOL    HW218372   2.536   2.821  11.129 -0.7840 -0.4284  0.8097
 2304SOL     OW18373   1.454   4.196   4.660  0.8635  0.2121 -0.3015
 2304SOL    HW118374   1.443   4.228   4.571 -0.5672  1.4339  0.3198
 2304SOL    HW218375   1.387   4.128   4.660 -1.2879  2.3192 -0.7935
 2305SOL     OW18376   0.413   1.728   5.169  0.5025 -0.0574  0.8541
 2305SOL    HW118377   0.349   1.799   5.160  2.5619  1.6792 -0.1843
 2305SOL    HW218378   0.483   1.780   5.208  0.0775 -0.2003  1.7847
 2306SOL     OW18379   3.724   1.636   4.097  0.1474 -0.2302  0.5815
 2306SOL    HW118380   3.764   1.713   4.058 -2.2092  0.5339 -0.3267
 2306SOL    HW218381   3.630   1.636   4.075 -0.3033 -1.8431  2.4382
 2307SOL     OW18382   0.824   0.159   3.616  0.2314  0.1552  0.4641
 2307SOL    HW118383   0.875   0.169   3.537  1.0712  2.5120  1.3222
 2307SOL    HW218384   0.789   0.070   3.610 -0.4219  0.3739  0.9108
 2308SOL     OW18385   2.287   4.188   2.347 -0.2091 -0.9351  0.4179
 2308SOL    HW118386   2.217   4.162   2.407  1.3431 -1.2579  2.0933
 2308SOL    HW218387   2.229   4.204   2.272 -0.6686  2.8109  1.5362
 2309SOL     OW18388   1.420   3.657   1.290 -0.2839  0.1227  0.2984
 2309SOL    HW118389   1.441   3.707   1.211 -0.7688  0.2778  0.2623
 2309SOL    HW218390   1.324   3.653   1.281 -0.4782  1.7549  1.5177
 2310SOL     OW18391   1.871   3.623  10.217  0.2125 -0.5822  0.0633
 2310SOL    HW118392   1.895   3.532  10.236  1.2118 -0.2761  0.2232
 2310SOL    HW218393   1.879   3.661  10.304 -2.0074  0.7237 -0.3158
 2311SOL     OW18394   3.086   4.004   6.085  0.3271 -0.0975  0.2499
 2311SOL    HW118395   3.110   3.969   5.999 -2.3654 -0.5985 -0.2895
 2311SOL    HW218396   2.997   3.972   6.096  0.0877  0.6884  0.6450
 2312SOL     OW18397   4.199   4.583   8.049  0.8021 -0.0352 -0.4147
 2312SOL    HW118398   4.124   4.555   7.997  0.2585 -0.5542  0.6415
 2312SOL    HW218399   4.180   4.534   8.130  0.6979  1.3230  0.3772
 2313SOL     OW18400   2.876   3.980  17.160 -0.3626 -0.1736  0.4077
 2313SOL    HW118401   2.877   4.053  17.098 -0.2490 -1.7749 -1.4721
 2313SOL    HW218402   2.848   3.910  17.101  1.0707 -0.5565  0.1769
 2314SOL     OW18403   4.696   4.248   0.367  0.2282 -0.7183 -0.1332
 2314SOL    HW118404   4.671   4.308   0.297  0.0152 -2.0489 -1.1942
 2314SOL    HW218405   0.066   4.265   0.382 -0.1300  2.0491 -1.1085
 2315SOL     OW18406   0.121   3.023  12.608 -0.7421 -0.8506  0.4522
 2315SOL    HW118407   0.067   3.099  12.585  0.1063  0.1815  1.8424
 2315SOL    HW218408   0.198   3.045  12.557 -0.4368 -2.1562  0.3557
 2316SOL     OW18409   1.492   4.306   4.379 -0.2386  0.0094 -0.6899
 2316SOL    HW118410   1.424   4.326   4.314 -1.5534 -1.4130  0.2435
 2316SOL    HW218411   1.485   4.374   4.447  1.8616 -0.0215 -0.4697
 2317SOL     OW18412   3.493   2.027   6.595  0.0910  0.2367  0.3326
 2317SOL    HW118413   3.582   2.057   6.576  0.0559 -0.7429 -1.3779
 2317SOL    HW218414   3.513   1.941   6.633  2.4899 -1.0793 -3.8766
 2318SOL     OW18415   4.568   3.886  16.314  0.4103 -0.2689 -0.3789
 2318SOL    HW118416   4.563   3.960  16.375 -3.3129  1.0144 -2.2171
 2318SOL    HW218417   4.613   3.820  16.366  2.7078  1.3929 -0.2336
 2319SOL     OW18418   2.890   1.988   6.596 -0.3268 -0.1293 -0.2163
 2319SOL    HW118419   2.806   1.950   6.569 -0.5297  0.1418  0.0387
 2319SOL    HW218420   2.910   2.056   6.533  1.3886 -1.0499 -0.6783
 2320SOL     OW18421   4.154   2.330   6.665  0.2365  0.0120  0.3670
 2320SOL    HW118422   4.212   2.405   6.678 -0.1747  0.5970 -1.2225
 2320SOL    HW218423   4.081   2.361   6.612  0.0152 -0.0168  0.6557
 2321SOL     OW18424   0.442   4.622   7.982 -0.1164 -0.1833  0.4170
 2321SOL    HW118425   0.359   4.598   8.024  0.3042 -0.0631  1.3114
 2321SOL    HW218426   0.493   4.650   8.058  1.4863  2.2420 -1.5853
 2322SOL     OW18427   3.252   0.008  14.754 -0.1660 -0.1499 -0.0069
 2322SOL    HW118428   3.247   0.093  14.710  0.0891  0.7944  1.8217
 2322SOL    HW218429   3.344   0.003  14.776 -0.6824 -1.4379  1.8256
 2323SOL     OW18430   1.702   2.136   4.717 -0.1876  0.7805  0.0421
 2323SOL    HW118431   1.709   2.202   4.648 -2.7003  0.2238 -0.7390
 2323SOL    HW218432   1.789   2.136   4.756 -0.4763  2.8655  0.6661
 2324SOL     OW18433   1.394   2.632   6.951  0.1711  0.3484 -0.1806
 2324SOL    HW118434   1.424   2.548   6.918  2.2187  0.9501  0.1347
 2324SOL    HW218435   1.423   2.681   6.873  0.6526  0.2625 -0.0528
 2325SOL     OW18436   0.024   2.215   5.047  0.3092 -0.4351 -0.4886
 2325SOL    HW118437   0.047   2.302   5.013 -1.7261 -0.2407 -1.3700
 2325SOL    HW218438   0.004   2.221   5.140 -1.0768  1.2359 -0.9002
 2326SOL     OW18439   0.241   1.866  11.377 -0.6804 -0.0540  0.0776
 2326SOL    HW118440   0.179   1.904  11.315 -1.5827 -1.4543  0.1298
 2326SOL    HW218441   0.186   1.865  11.455  0.2381 -0.2423  0.7249
 2327SOL     OW18442   0.497   1.472   5.466  0.2644  0.4825 -0.1501
 2327SOL    HW118443   0.418   1.460   5.518  1.3408 -0.5390  1.2403
 2327SOL    HW218444   0.528   1.533   5.533 -0.3375  0.3190  0.2712
 2328SOL     OW18445   1.656   4.007  10.313  0.3898  0.5023  0.2779
 2328SOL    HW118446   1.659   3.913  10.294 -0.7215  0.7249 -0.9531
 2328SOL    HW218447   1.743   4.018  10.352  0.2260  1.8401  0.2446
 2329SOL     OW18448   3.950   4.513   6.717  0.0179 -0.0592 -0.1236
 2329SOL    HW118449   3.995   4.468   6.789 -0.7615  0.3714  0.6226
 2329SOL    HW218450   3.867   4.466   6.714  0.7798 -1.2315 -2.9565
 2330SOL     OW18451   1.977   2.167   6.319  0.3623 -0.1956  0.1430
 2330SOL    HW118452   1.930   2.251   6.324  1.9005  0.5622  2.0514
 2330SOL    HW218453   2.041   2.196   6.255 -0.1929  1.1013  0.1685
 2331SOL     OW18454   4.352   1.542   5.198  0.0256 -0.5793  0.1269
 2331SOL    HW118455   4.371   1.541   5.292  1.0459 -3.7599 -0.1009
 2331SOL    HW218456   4.443   1.565   5.178 -0.8453  3.5399  0.8622
 2332SOL     OW18457   0.715   3.217  16.917  0.4161 -0.7636 -0.2430
 2332SOL    HW118458   0.763   3.287  16.962 -0.7277 -0.4849  0.5336
 2332SOL    HW218459   0.645   3.267  16.876 -1.4119 -2.1411  1.2137
 2333SOL     OW18460   0.975   3.922   5.887 -0.6709  0.2210  0.9002
 2333SOL    HW118461   0.939   3.941   5.974 -0.6289 -0.8943  1.1573
 2333SOL    HW218462   0.989   3.828   5.895 -0.0868  0.0629 -2.0789
 2334SOL     OW18463   0.058   0.088   7.177  0.6070  0.1279 -0.0005
 2334SOL    HW118464   4.696   0.049   7.195  1.5560 -2.0177 -0.1065
 2334SOL    HW218465   0.110   0.071   7.256  0.0103 -0.9159  0.1619
 2335SOL     OW18466   1.981   1.122   7.314 -0.0681  0.1786 -0.5009
 2335SOL    HW118467   1.948   1.058   7.377 -0.7527 -0.4095 -1.4625
 2335SOL    HW218468   2.065   1.081   7.292  0.1687 -1.0328  2.6270
 2336SOL     OW18469   2.185   2.672  13.967 -0.6101 -0.0533 -0.2734
 2336SOL    HW118470   2.259   2.649  14.023  0.4727  2.4447 -0.6520
 2336SOL    HW218471   2.104   2.655  14.015 -0.6299  2.7902  0.7147
 2337SOL     OW18472   0.111   0.436   3.984 -0.2478 -0.4378  0.0572
 2337SOL    HW118473   0.119   0.500   4.055 -0.0186 -0.1864 -0.1987
 2337SOL    HW218474   0.030   0.388   4.004  0.0258 -0.8475  0.1927
 2338SOL     OW18475   0.359   1.358  11.599  0.5614 -0.0118 -0.1851
 2338SOL    HW118476   0.447   1.324  11.582  0.0558 -1.5873  0.3357
 2338SOL    HW218477   0.369   1.441  11.552 -0.2393  0.0789 -0.1930
 2339SOL     OW18478   3.603   2.669   3.994 -0.1974 -0.1740  0.7844
 2339SOL    HW118479   3.547   2.604   3.952  0.6005 -0.0424 -0.4833
 2339SOL    HW218480   3.572   2.750   3.953 -1.8102 -1.5874 -0.8385
 2340SOL     OW18481   3.494   3.979   6.315  0.4859  0.3811  0.7691
 2340SOL    HW118482   3.436   3.903   6.324 -2.1110  2.0742 -1.6322
 2340SOL    HW218483   3.456   4.044   6.374 -0.1965  2.2398 -1.6925
 2341SOL     OW18484   2.077   2.816   0.250 -0.3467  0.1944 -0.5712
 2341SOL    HW118485   2.096   2.849   0.338  1.6479 -2.4982  0.0272
 2341SOL    HW218486   1.981   2.824   0.251 -0.1475  2.5580  0.0287
 2342SOL     OW18487   2.852   3.500   6.829  0.1409  0.2956  0.2751
 2342SOL    HW118488   2.928   3.528   6.777 -0.1663 -1.8195 -1.2795
 2342SOL    HW218489   2.881   3.512   6.920 -1.9188 -3.3662  1.3878
 2343SOL     OW18490   3.123   3.126  17.231 -0.5820  0.3591 -0.3456
 2343SOL    HW118491   3.107   3.206  17.281 -0.4642 -0.2334  0.6291
 2343SOL    HW218492   3.089   3.148  17.144 -0.5219  1.8495  0.0134
 2344SOL     OW18493   2.129   3.207   2.999  0.3850 -0.1945 -0.4755
 2344SOL    HW118494   2.146   3.259   2.920  0.3396 -2.1305 -1.7642
 2344SOL    HW218495   2.141   3.120   2.960  1.5625 -0.3838  0.3224
 2345SOL     OW18496   2.105   0.631   6.684 -0.1486 -0.0638 -0.0914
 2345SOL    HW118497   2.158   0.624   6.764  1.5982 -0.1329 -1.2472
 2345SOL    HW218498   2.021   0.648   6.726  1.2458  2.0323  1.8840
 2346SOL     OW18499   1.609   2.394   9.295  0.2644 -0.6185 -0.2322
 2346SOL    HW118500   1.573   2.310   9.269 -0.9007  0.0361 -0.7391
 2346SOL    HW218501   1.608   2.435   9.209 -3.0719 -2.9315 -1.2760
 2347SOL     OW18502   1.209   4.353  16.123 -0.4564  0.0422  0.3495
 2347SOL    HW118503   1.114   4.337  16.126 -0.6321  0.6214 -1.5997
 2347SOL    HW218504   1.228   4.320  16.035  1.4108 -0.5252  0.9638
 2348SOL     OW18505   3.113   2.356  15.829 -0.1080 -0.0891 -0.2615
 2348SOL    HW118506   3.057   2.313  15.894 -0.8628  0.1590 -0.7423
 2348SOL    HW218507   3.086   2.446  15.848 -1.1585 -0.0227 -2.0881
 2349SOL     OW18508   1.486   4.563   2.850 -0.3331 -0.4105 -0.4485
 2349SOL    HW118509   1.567   4.541   2.896  0.4335  2.7529 -0.2432
 2349SOL    HW218510   1.435   4.485   2.869  0.3939 -1.2575 -1.9876
 2350SOL     OW18511   2.492   1.904   5.866  0.3076 -0.3931  0.2305
 2350SOL    HW118512   2.460   1.935   5.951 -1.1921 -1.3609  0.0229
 2350SOL    HW218513   2.497   1.990   5.825 -0.0663 -0.1050  0.7926
 2351SOL     OW18514   4.688   1.369   5.573 -0.4872 -0.5449  0.0668
 2351SOL    HW118515   4.603   1.393   5.535 -0.5240 -2.5307 -1.1209
 2351SOL    HW218516   4.653   1.358   5.661  2.2500 -1.8454  0.9913
 2352SOL     OW18517   1.417   2.145   4.770  0.9697  0.5542 -0.2988
 2352SOL    HW118518   1.371   2.205   4.711 -1.0209 -0.1021  0.5888
 2352SOL    HW218519   1.507   2.162   4.744  1.5123  0.3909  1.5078
 2353SOL     OW18520   3.499   3.710  12.978 -0.1453  0.3012 -0.2790
 2353SOL    HW118521   3.576   3.671  13.019 -0.6519  1.4035  1.7083
 2353SOL    HW218522   3.548   3.760  12.913 -2.2354  2.4522 -0.2082
 2354SOL     OW18523   3.453   4.037  12.726 -0.0030 -0.1683  0.1409
 2354SOL    HW118524   3.511   4.060  12.799 -0.9265  0.8231  0.5650
 2354SOL    HW218525   3.478   3.945  12.715  2.0122  0.3756  0.1538
 2355SOL     OW18526   3.724   1.192   3.188 -0.3538  0.2152  0.5789
 2355SOL    HW118527   3.723   1.137   3.266  0.4711 -1.6617 -0.7114
 2355SOL    HW218528   3.677   1.141   3.121 -1.8222  1.2857  0.8107
 2356SOL     OW18529   0.518   3.778   3.744 -0.6708  0.2757 -0.9332
 2356SOL    HW118530   0.481   3.834   3.675  0.3678 -0.8912 -2.4336
 2356SOL    HW218531   0.604   3.773   3.702  0.5993 -3.6354  2.1725
 2357SOL     OW18532   2.684   1.827   7.722  0.4979  0.3903  0.1657
 2357SOL    HW118533   2.773   1.795   7.704 -0.1303 -0.5082 -1.2917
 2357SOL    HW218534   2.710   1.919   7.724  1.0582  0.2398  0.0557
 2358SOL     OW18535   2.850   2.371   9.072 -0.7920  0.4265 -0.1120
 2358SOL    HW118536   2.816   2.458   9.049  1.0529  1.1220 -0.1996
 2358SOL    HW218537   2.782   2.345   9.135  0.6629  0.0758  1.3258
 2359SOL     OW18538   0.321   3.535   3.496 -0.0776 -0.1422  0.3642
 2359SOL    HW118539   0.304   3.594   3.570 -1.4976 -0.6797  0.4751
 2359SOL    HW218540   0.344   3.604   3.434  0.8217 -1.5550 -0.8638
 2360SOL     OW18541   2.819   1.389   1.233  0.0975  0.4504 -0.0606
 2360SOL    HW118542   2.864   1.435   1.304 -0.5060  0.5294  0.2753
 2360SOL    HW218543   2.871   1.308   1.229 -1.6524 -0.4930 -3.3774
 2361SOL     OW18544   4.599   3.654   8.308  0.3049 -0.2935  0.2370
 2361SOL    HW118545   4.644   3.713   8.369  1.7555 -1.6804  0.5222
 2361SOL    HW218546   4.510   3.668   8.339 -0.0017  1.1570 -1.2841
 2362SOL     OW18547   1.182   2.435   4.198  0.7425  0.1388 -0.3570
 2362SOL    HW118548   1.096   2.454   4.235  0.6794  2.1275 -1.5215
 2362SOL    HW218549   1.162   2.366   4.136  3.8764 -2.4412  1.5033
 2363SOL     OW18550   2.759   1.354   0.093 -0.0737  0.3628 -0.3086
 2363SOL    HW118551   2.798   1.271   0.063  1.7909  1.0730  0.1578
 2363SOL    HW218552   2.804   1.357   0.178 -0.6500 -1.7781  0.0687
 2364SOL     OW18553   2.168   2.407   2.644  0.2487 -0.2796  0.0120
 2364SOL    HW118554   2.093   2.387   2.588  0.6115  1.9870 -1.2666
 2364SOL    HW218555   2.235   2.412   2.576 -1.2503 -0.5064 -1.4842
 2365SOL     OW18556   1.323   4.579  11.313 -0.2609  0.5181 -0.3706
 2365SOL    HW118557   1.336   4.484  11.314  0.7326  0.6991  2.3204
 2365SOL    HW218558   1.243   4.582  11.365  0.4462 -0.4991  0.7784
 2366SOL     OW18559   0.293   0.468   4.425 -0.3220  0.3109  0.2962
 2366SOL    HW118560   0.244   0.411   4.366 -0.8409  1.9471 -0.8700
 2366SOL    HW218561   0.225   0.524   4.463 -0.5302 -0.6915  1.3701
 2367SOL     OW18562   0.608   4.115   8.987 -0.5916  0.3089  0.2485
 2367SOL    HW118563   0.633   4.071   9.068 -1.1083 -0.2412  0.1111
 2367SOL    HW218564   0.514   4.097   8.974 -0.1015 -1.9418 -0.2215
 2368SOL     OW18565   3.163   1.866  13.083  0.2539  0.2663  0.1775
 2368SOL    HW118566   3.210   1.886  13.002 -0.8239  1.8145 -0.0855
 2368SOL    HW218567   3.100   1.804  13.047  0.3832  0.2663 -0.0514
 2369SOL     OW18568   3.351   3.261   4.791  0.1195  0.1782 -0.0949
 2369SOL    HW118569   3.323   3.280   4.880  2.5592  0.4090  0.5988
 2369SOL    HW218570   3.425   3.321   4.787 -0.5937  1.1436  1.2145
 2370SOL     OW18571   2.268   1.723   4.502 -0.3232 -0.8249 -0.0188
 2370SOL    HW118572   2.276   1.666   4.578  0.6798 -1.9624 -0.9891
 2370SOL    HW218573   2.341   1.783   4.521 -0.5133 -0.5472 -0.1556
 2371SOL     OW18574   3.373   2.387   6.553 -0.1226 -0.1165  0.2210
 2371SOL    HW118575   3.315   2.425   6.619  0.1014  0.8500 -0.1401
 2371SOL    HW218576   3.320   2.312   6.528  0.0619 -0.5777  1.2470
 2372SOL     OW18577   1.682   2.306   4.489 -0.2192  0.2192  0.0278
 2372SOL    HW118578   1.697   2.257   4.409  0.1419  1.0558 -0.4214
 2372SOL    HW218579   1.639   2.389   4.465 -1.1989 -0.3090 -0.0300
 2373SOL     OW18580   3.301   1.524  11.288 -0.2208  0.0720  0.1865
 2373SOL    HW118581   3.294   1.600  11.347  1.9920  0.0272  0.4762
 2373SOL    HW218582   3.341   1.556  11.208 -1.8997  2.3410  0.2478
 2374SOL     OW18583   3.959   0.066   3.833  0.0590  0.0560  0.4604
 2374SOL    HW118584   3.960   0.156   3.800  0.6749  0.0083  0.3606
 2374SOL    HW218585   3.873   0.063   3.875 -0.0760  0.8449  0.2538
 2375SOL     OW18586   0.893   1.237   7.762 -0.0240  0.9013 -0.3048
 2375SOL    HW118587   0.950   1.218   7.837 -1.2429 -3.6169 -0.5021
 2375SOL    HW218588   0.809   1.227   7.807  0.8326 -0.6209  0.9570
 2376SOL     OW18589   3.005   3.783   5.113  0.6929 -0.3844  0.2434
 2376SOL    HW118590   2.998   3.720   5.185 -1.7836  0.6904  0.9491
 2376SOL    HW218591   2.941   3.733   5.062 -1.1275  1.6740  0.5425
 2377SOL     OW18592   4.389   4.063   7.838  0.1811 -0.3388 -0.2043
 2377SOL    HW118593   4.319   4.023   7.786  1.4743 -2.0046 -0.6729
 2377SOL    HW218594   4.382   4.157   7.818 -1.1488 -0.3637  0.2047
 2378SOL     OW18595   1.607   3.816   5.956 -0.4333 -0.7009  0.7445
 2378SOL    HW118596   1.583   3.724   5.965  0.4936 -0.7988  2.2328
 2378SOL    HW218597   1.583   3.856   6.040  0.7445 -1.6254  1.5065
 2379SOL     OW18598   1.278   1.884   5.554 -0.0025 -0.2803  0.0669
 2379SOL    HW118599   1.187   1.894   5.526  0.4649 -0.0664 -1.3629
 2379SOL    HW218600   1.316   1.964   5.518  0.9160 -0.8624 -0.2387
 2380SOL     OW18601   1.009   1.047   5.475 -0.3564 -0.0690  0.4273
 2380SOL    HW118602   1.058   0.969   5.448  1.4457  0.7565  1.3242
 2380SOL    HW218603   0.949   1.009   5.539 -2.0723  1.8468 -0.0510
 2381SOL     OW18604   3.006   2.762   7.697  0.3386  0.0309 -0.5527
 2381SOL    HW118605   3.049   2.744   7.613  0.7031  1.1430 -0.5946
 2381SOL    HW218606   2.993   2.674   7.733 -0.2968  0.4668  0.3001
 2382SOL     OW18607   4.087   2.759  17.655  0.0229 -0.4206  0.0619
 2382SOL    HW118608   4.117   2.747   0.050  0.3749 -1.2663 -0.1717
 2382SOL    HW218609   4.121   2.680  17.613 -1.4610 -1.7677  1.3829
 2383SOL     OW18610   3.880   2.901   0.069 -0.0754 -0.6138  0.1973
 2383SOL    HW118611   3.845   2.838   0.132 -2.3849 -0.9594 -1.4167
 2383SOL    HW218612   3.967   2.866   0.050  0.6405  0.7101  0.9879
 2384SOL     OW18613   3.746   3.274   2.545 -0.2292  0.5275  0.6669
 2384SOL    HW118614   3.765   3.210   2.614 -0.7025  2.0817  2.2572
 2384SOL    HW218615   3.710   3.234   2.466 -0.0855  2.7554 -0.5360
 2385SOL     OW18616   4.005   1.190   5.314  0.3315 -0.4909 -0.4204
 2385SOL    HW118617   4.049   1.229   5.239 -0.0301  1.0370  0.1539
 2385SOL    HW218618   4.038   1.231   5.394 -1.2313 -0.0848  0.0220
 2386SOL     OW18619   4.493   1.298   7.152 -0.3102  0.7509  0.6821
 2386SOL    HW118620   4.436   1.296   7.229 -0.5660 -0.6426  0.4565
 2386SOL    HW218621   4.566   1.265   7.204 -1.8384 -1.3351  1.5045
 2387SOL     OW18622   0.199   1.607   0.941  0.4089 -0.3206 -0.9360
 2387SOL    HW118623   0.225   1.661   1.016 -1.3990  0.8076 -1.1093
 2387SOL    HW218624   0.121   1.649   0.904 -0.5013 -3.1053 -2.1975
 2388SOL     OW18625   0.341   2.460   2.793  0.6097  0.2943  0.1886
 2388SOL    HW118626   0.296   2.540   2.820  1.5355  1.2169 -0.9663
 2388SOL    HW218627   0.321   2.469   2.699  2.4972 -0.3067 -0.2631
 2389SOL     OW18628   2.207   2.023   1.077 -0.0488  0.2288 -0.6015
 2389SOL    HW118629   2.126   2.061   1.111 -1.2016 -2.5108 -0.3057
 2389SOL    HW218630   2.211   1.942   1.128 -0.2512  0.9631  0.6022
 2390SOL     OW18631   0.432   1.046   5.651  0.1276  0.7167 -0.3041
 2390SOL    HW118632   0.461   1.136   5.665 -0.6027  0.7174  1.1909
 2390SOL    HW218633   0.487   1.021   5.576  1.2254  1.1874  0.3468
 2391SOL     OW18634   3.246   1.912  12.831  0.5569  0.3745 -0.0264
 2391SOL    HW118635   3.190   1.914  12.754 -0.1199  0.5674  0.4714
 2391SOL    HW218636   3.324   1.874  12.790 -0.4006 -2.9778  1.2311
 2392SOL     OW18637   4.220   3.077  15.912  0.1383  0.0115 -0.0513
 2392SOL    HW118638   4.127   3.091  15.895  0.4149  1.3223 -0.4540
 2392SOL    HW218639   4.230   3.148  15.975  0.2217 -0.4367  0.4416
 2393SOL     OW18640   3.428   3.868   8.230  0.0784 -0.0615  0.1053
 2393SOL    HW118641   3.423   3.842   8.138  0.1821 -0.8600  0.3252
 2393SOL    HW218642   3.348   3.825   8.263 -0.0673  0.5844  0.6125
 2394SOL     OW18643   3.395   1.378  11.516 -0.6513  0.2404 -0.8516
 2394SOL    HW118644   3.367   1.432  11.442 -0.8149  1.4791  0.1113
 2394SOL    HW218645   3.382   1.434  11.593 -1.9967 -0.6079 -0.4727
 2395SOL     OW18646   2.649   1.660  14.605 -0.4691 -0.1434  0.0963
 2395SOL    HW118647   2.635   1.711  14.525 -0.0570  0.0615  0.1558
 2395SOL    HW218648   2.707   1.596  14.564  1.4949  2.7472 -1.6621
 2396SOL     OW18649   3.739   4.313   4.405  0.3600  0.4307  0.2654
 2396SOL    HW118650   3.713   4.315   4.497  1.0098 -1.3113  0.4843
 2396SOL    HW218651   3.713   4.224   4.380  3.2003  0.0704 -1.3212
 2397SOL     OW18652   0.727   0.751   8.191  0.2997 -0.7799 -0.7174
 2397SOL    HW118653   0.701   0.751   8.283  0.3856  0.8374 -0.7015
 2397SOL    HW218654   0.821   0.735   8.202  0.6709  0.0701 -2.6823
 2398SOL     OW18655   1.854   0.393   0.002  0.1786 -0.4930  0.0372
 2398SOL    HW118656   1.815   0.478  17.677  0.5352 -0.5776 -0.9902
 2398SOL    HW218657   1.783   0.338   0.032 -1.7133  2.7046  1.4030
 2399SOL     OW18658   3.554   1.519   4.741  0.0665 -0.1155 -0.1217
 2399SOL    HW118659   3.575   1.478   4.657  0.2468 -1.9067  0.8141
 2399SOL    HW218660   3.550   1.440   4.794  1.0993  0.7128  1.1765
 2400SOL     OW18661   0.491   0.894   9.307 -0.4515 -0.6872 -0.3595
 2400SOL    HW118662   0.465   0.981   9.278 -0.0798 -0.8588 -1.1991
 2400SOL    HW218663   0.568   0.912   9.361  0.9165 -0.7002 -2.3385
 2401SOL     OW18664   1.925   2.226   8.357 -0.7378 -0.3564  0.0000
 2401SOL    HW118665   1.946   2.318   8.339  0.8875 -0.8296 -0.5160
 2401SOL    HW218666   2.009   2.181   8.357  0.2069  1.3849  0.3225
 2402SOL     OW18667   0.490   3.270  11.761  0.4687 -0.0565  0.4016
 2402SOL    HW118668   0.553   3.214  11.805  2.7102  2.3780  0.2478
 2402SOL    HW218669   0.456   3.213  11.692  1.6441  1.6523 -1.5883
 2403SOL     OW18670   2.806   0.329   3.281  0.0572  0.0068  0.2028
 2403SOL    HW118671   2.751   0.390   3.330  0.9951  0.0636  1.2000
 2403SOL    HW218672   2.897   0.343   3.307  0.2305 -0.4012 -0.1868
 2404SOL     OW18673   1.901   3.058   2.409 -0.3476 -0.4486  0.2875
 2404SOL    HW118674   1.825   3.116   2.403 -0.2276 -0.2579  0.6140
 2404SOL    HW218675   1.890   3.019   2.495 -1.8393  0.3757  0.4740
 2405SOL     OW18676   0.600   0.066  17.325  0.0930 -0.1286 -0.0551
 2405SOL    HW118677   0.513   0.078  17.287  1.0529  0.0286 -2.2442
 2405SOL    HW218678   0.647   0.072  17.241  0.2922  1.4984  0.1621
 2406SOL     OW18679   2.703   1.806   5.734 -0.4676 -0.2283  0.7664
 2406SOL    HW118680   2.684   1.850   5.652  1.4264 -1.6251 -0.4346
 2406SOL    HW218681   2.616   1.817   5.773 -0.3328  0.8139  0.7694
 2407SOL     OW18682   4.488   0.361   8.697  0.5626  0.1219  0.1349
 2407SOL    HW118683   4.504   0.302   8.624  0.2139  1.3937 -0.9900
 2407SOL    HW218684   4.412   0.411   8.667 -0.5623  0.3747  3.3589
 2408SOL     OW18685   0.257   2.652   6.305  0.4612 -0.4329  0.6691
 2408SOL    HW118686   0.186   2.679   6.362  0.4733 -1.1547  1.0269
 2408SOL    HW218687   0.203   2.618   6.233  3.0155  0.4764 -1.7167
 2409SOL     OW18688   3.915   4.274  17.676 -0.6052 -0.6317 -0.5546
 2409SOL    HW118689   3.925   4.307   0.070 -3.1126  1.3755 -1.0445
 2409SOL    HW218690   3.938   4.181  17.684  2.6708  0.1349 -0.8488
 2410SOL     OW18691   1.421   0.971   4.504  0.0786 -0.0445 -0.3778
 2410SOL    HW118692   1.474   0.961   4.583 -1.7876 -1.0089  0.7776
 2410SOL    HW218693   1.463   1.049   4.469 -0.7058  0.5268 -0.0515
 2411SOL     OW18694   0.935   4.085   9.635 -0.1495  0.1683  0.1161
 2411SOL    HW118695   0.987   4.108   9.712  1.1429 -0.3248 -0.6141
 2411SOL    HW218696   0.992   4.118   9.567 -1.0808  0.8589 -0.3216
 2412SOL     OW18697   3.612   3.290   5.023  0.1048 -0.3315 -0.4493
 2412SOL    HW118698   3.695   3.322   5.059 -2.0137  0.2288  3.8375
 2412SOL    HW218699   3.597   3.346   4.947 -1.1411 -3.8278 -2.7988
 2413SOL     OW18700   1.400   0.687   1.079 -0.3872  0.9424  0.3572
 2413SOL    HW118701   1.313   0.672   1.116  0.0445 -0.7564  0.6747
 2413SOL    HW218702   1.391   0.639   0.997  0.9842  0.2363  0.6139
 2414SOL     OW18703   1.863   0.268   6.432 -0.1600 -0.2163 -0.0749
 2414SOL    HW118704   1.944   0.292   6.477 -0.5706  2.0221 -0.5630
 2414SOL    HW218705   1.854   0.350   6.384 -0.8091  1.6919  3.4044
 2415SOL     OW18706   2.148   3.572  10.985 -0.0133  0.0631  0.0929
 2415SOL    HW118707   2.092   3.518  10.929  0.7503  2.4185 -2.9891
 2415SOL    HW218708   2.135   3.659  10.945  0.9472  0.4079  0.5410
 2416SOL     OW18709   2.276   2.163   2.257 -0.0098 -0.1308  0.1624
 2416SOL    HW118710   2.328   2.179   2.335 -0.6616  0.0256  0.5664
 2416SOL    HW218711   2.337   2.199   2.192 -1.0901  0.4017 -0.5566
 2417SOL     OW18712   3.202   2.074   7.318  0.1641 -0.1543 -0.5410
 2417SOL    HW118713   3.252   2.063   7.238  1.9379 -0.6584  0.6518
 2417SOL    HW218714   3.186   2.169   7.319  0.2865 -0.2035  3.6845
 2418SOL     OW18715   3.110   4.160   7.311 -0.3597 -0.2307 -0.0165
 2418SOL    HW118716   3.130   4.070   7.338  0.5144 -0.2130 -0.5821
 2418SOL    HW218717   3.150   4.167   7.224 -0.5414  4.5840  0.3327
 2419SOL     OW18718   3.117   1.933  11.558 -0.2407  0.4049  0.1994
 2419SOL    HW118719   3.031   1.961  11.587  0.6026  2.1297  1.0605
 2419SOL    HW218720   3.164   2.011  11.588  0.4774 -0.1874  0.6279
 2420SOL     OW18721   4.707   3.733   0.080  0.2528  0.2010  0.2622
 2420SOL    HW118722   4.693   3.669   0.010  1.4332 -0.6668  0.8311
 2420SOL    HW218723   4.628   3.786   0.071 -0.0278 -0.2465  0.0681
 2421SOL     OW18724   0.276   0.861   2.664  0.2707 -0.0221  0.3667
 2421SOL    HW118725   0.214   0.796   2.630  1.2083 -1.4973  1.4682
 2421SOL    HW218726   0.214   0.910   2.717 -0.5627 -2.2701  1.4575
 2422SOL     OW18727   2.176   3.419   1.384  0.0476  0.2020 -0.3919
 2422SOL    HW118728   2.106   3.480   1.363 -0.0229 -0.3205 -1.7112
 2422SOL    HW218729   2.261   3.460   1.397  0.6966 -1.2917  0.0469
 2423SOL     OW18730   4.527   2.578  11.325 -0.0300 -0.2071  0.2647
 2423SOL    HW118731   4.450   2.618  11.286  0.5036  0.9435  0.3872
 2423SOL    HW218732   4.495   2.577  11.416 -0.0347 -0.0430  0.2648
 2424SOL     OW18733   2.315   3.233   4.623  0.0834  0.0925 -0.3268
 2424SOL    HW118734   2.282   3.214   4.711  0.3841 -0.1632 -0.2657
 2424SOL    HW218735   2.309   3.328   4.622  0.0716  0.1016  0.9736
 2425SOL     OW18736   1.565   4.694  11.338  0.1479 -0.1447  0.4078
 2425SOL    HW118737   1.473   4.667  11.337  0.4304 -1.0027 -1.3445
 2425SOL    HW218738   1.597   4.628  11.399  0.1000 -1.4782 -1.0190
 2426SOL     OW18739   0.248   0.264   7.308  0.1212  0.2459 -0.1496
 2426SOL    HW118740   0.330   0.217   7.298 -1.0373 -2.0452  1.1160
 2426SOL    HW218741   0.239   0.247   7.401  0.0390  0.0328 -0.1958
 2427SOL     OW18742   4.384   1.896   5.470  0.0668 -1.0280 -0.5070
 2427SOL    HW118743   4.458   1.850   5.430  1.4764 -1.1355  2.2684
 2427SOL    HW218744   4.412   1.986   5.483 -1.1102 -0.9876  1.7285
 2428SOL     OW18745   4.240   3.203   8.375  0.5903 -0.5769  0.1320
 2428SOL    HW118746   4.253   3.238   8.286 -1.2127  0.6338  0.3545
 2428SOL    HW218747   4.207   3.119   8.342 -1.6262 -0.7757  2.9304
 2429SOL     OW18748   0.913   3.001   4.678  0.4312  0.3445  0.2891
 2429SOL    HW118749   0.964   2.920   4.673 -1.0784 -0.6652  1.3267
 2429SOL    HW218750   0.923   3.022   4.771  1.9618 -1.4475  0.5402
 2430SOL     OW18751   3.935   1.480   7.230  0.0833 -0.2626  0.4515
 2430SOL    HW118752   3.906   1.545   7.166 -0.8132 -2.6068 -1.5160
 2430SOL    HW218753   3.987   1.426   7.171  1.1683  1.3685 -0.0758
 2431SOL     OW18754   4.502   1.149   7.558 -0.7152 -0.0717  0.0212
 2431SOL    HW118755   4.470   1.134   7.468  1.2161  2.0648 -1.0180
 2431SOL    HW218756   4.594   1.161   7.537 -0.3892 -1.5717  0.5939
 2432SOL     OW18757   1.168   0.572   5.890  0.3040 -0.5420  0.2417
 2432SOL    HW118758   1.204   0.497   5.938 -0.7532 -0.1747  1.6128
 2432SOL    HW218759   1.195   0.547   5.802  2.3994  1.2228  0.3976
 2433SOL     OW18760   0.727   1.679   5.995  0.5466  0.1177  0.3472
 2433SOL    HW118761   0.784   1.728   6.054  0.1987 -1.4854  2.0193
 2433SOL    HW218762   0.739   1.741   5.923  0.6613  0.4015  0.6107
 2434SOL     OW18763   2.279   2.828   6.936 -0.0144 -0.3504  0.0750
 2434SOL    HW118764   2.375   2.823   6.943  0.0461  0.0401 -0.5012
 2434SOL    HW218765   2.266   2.921   6.921  0.2012 -0.0025  1.9790
 2435SOL     OW18766   2.337   1.927   8.299 -0.1683  0.0093 -0.2088
 2435SOL    HW118767   2.429   1.900   8.296  0.1370  1.2371 -2.0193
 2435SOL    HW218768   2.336   1.991   8.227 -0.6842 -0.8650 -0.9717
 2436SOL     OW18769   1.787   0.062   4.798 -0.3247  0.5866 -0.0037
 2436SOL    HW118770   1.725   0.029   4.863 -0.4822  0.0280 -0.4348
 2436SOL    HW218771   1.772   0.002   4.725  2.1839  0.8378 -0.7182
 2437SOL     OW18772   0.214   2.393   4.661  0.0519 -0.3418 -0.5521
 2437SOL    HW118773   0.207   2.307   4.701  0.7926 -0.4769 -0.7134
 2437SOL    HW218774   0.141   2.388   4.599 -0.3431  2.9739 -0.3546
 2438SOL     OW18775   2.862   2.552   5.173 -0.4417  0.3342  1.0117
 2438SOL    HW118776   2.831   2.608   5.245 -1.8180  0.9487 -0.0617
 2438SOL    HW218777   2.902   2.615   5.114 -1.6733 -2.1735 -2.5194
 2439SOL     OW18778   3.267   4.401  10.090  0.1707 -0.5969 -0.0432
 2439SOL    HW118779   3.175   4.403  10.118 -0.1623 -1.2431 -1.1123
 2439SOL    HW218780   3.316   4.443  10.161  0.3212 -1.7118  0.5165
 2440SOL     OW18781   2.772   2.084   7.759 -0.1420 -0.8308 -0.8353
 2440SOL    HW118782   2.729   2.107   7.841  2.8824 -0.7137  0.6700
 2440SOL    HW218783   2.862   2.103   7.782 -0.2550  0.6313 -1.5786
 2441SOL     OW18784   0.161   2.203   3.056  0.2689  0.0417 -0.1038
 2441SOL    HW118785   0.090   2.175   3.113  2.4449 -1.2141  2.0052
 2441SOL    HW218786   0.191   2.120   3.019  1.5813 -0.4639  2.0855
 2442SOL     OW18787   2.076   0.215   7.129 -0.3080 -0.9194 -0.2649
 2442SOL    HW118788   2.067   0.140   7.071 -0.7675 -2.6229  1.9950
 2442SOL    HW218789   1.984   0.233   7.147  0.4490  1.4539  1.3048
 2443SOL     OW18790   3.278   2.851   6.547  0.5761  0.0867  0.7140
 2443SOL    HW118791   3.316   2.910   6.612  1.6006  0.9077 -0.6410
 2443SOL    HW218792   3.357   2.809   6.512  0.4968  0.4336  0.1160
 2444SOL     OW18793   2.918   2.989   3.474  0.5709  0.2102 -0.1013
 2444SOL    HW118794   2.855   3.054   3.444 -0.4144 -1.8589 -2.4931
 2444SOL    HW218795   2.876   2.919   3.424  0.6740  0.1702 -0.1322
 2445SOL     OW18796   3.702   2.835   8.034  0.2375 -0.1094 -0.1220
 2445SOL    HW118797   3.754   2.782   8.095 -0.1060 -1.0372 -0.6453
 2445SOL    HW218798   3.748   2.919   8.039 -2.2019  1.2323 -0.1830
 2446SOL     OW18799   0.234   0.868   3.439 -0.4665  0.3083  0.1511
 2446SOL    HW118800   0.151   0.873   3.392  0.6025  0.8009 -1.6690
 2446SOL    HW218801   0.204   0.863   3.530  3.6790 -0.0132  1.4821
 2447SOL     OW18802   3.700   0.862  16.278  0.1012  0.1172 -0.1330
 2447SOL    HW118803   3.742   0.877  16.362  1.8619 -2.0355 -0.6318
 2447SOL    HW218804   3.620   0.815  16.301  1.5027 -2.3174 -0.2026
 2448SOL     OW18805   2.735   1.136  12.291 -0.3308  0.2019 -0.0242
 2448SOL    HW118806   2.686   1.208  12.251  0.2416  0.1763 -0.7717
 2448SOL    HW218807   2.755   1.179  12.374  0.6463  1.4395 -0.8833
 2449SOL     OW18808   3.626   1.436   6.004 -0.1852 -0.3871 -0.1632
 2449SOL    HW118809   3.695   1.468   5.946 -0.2623 -0.8128 -0.4880
 2449SOL    HW218810   3.547   1.475   5.967  0.4487  1.0386  0.0027
 2450SOL     OW18811   4.059   2.138  10.192 -0.3994  0.1258 -0.2335
 2450SOL    HW118812   4.151   2.153  10.216 -0.1456 -0.7101 -0.6924
 2450SOL    HW218813   4.053   2.189  10.111 -0.8000 -0.6336 -0.6777
 2451SOL     OW18814   1.841   1.607  17.060  0.4430  0.1134 -0.0243
 2451SOL    HW118815   1.753   1.592  17.025  0.7207  0.4518 -0.8782
 2451SOL    HW218816   1.839   1.555  17.140 -1.0335  1.6802  0.9411
 2452SOL     OW18817   2.603   3.986  10.227  0.0228  0.1746  0.2757
 2452SOL    HW118818   2.628   4.013  10.315 -0.7501  0.3137  0.4567
 2452SOL    HW218819   2.617   3.891  10.230  1.2803  0.4264  2.1718
 2453SOL     OW18820   4.053   4.206   7.959 -0.4726 -0.6233  0.3218
 2453SOL    HW118821   4.072   4.184   7.868 -0.0770  1.2513 -0.0515
 2453SOL    HW218822   3.998   4.282   7.941 -0.6950 -0.5447  1.3142
 2454SOL     OW18823   0.006   1.347  17.142 -0.3566 -0.0788  0.0842
 2454SOL    HW118824   0.013   1.287  17.217 -0.8602 -0.3611 -0.0966
 2454SOL    HW218825   4.678   1.417  17.182  0.6890 -0.4555  2.1472
 2455SOL     OW18826   4.470   2.494   4.150 -0.1754  0.1194  0.4298
 2455SOL    HW118827   4.458   2.457   4.063 -0.8491 -0.6456  0.8533
 2455SOL    HW218828   4.564   2.510   4.140 -0.9595  3.5876 -1.5472
 2456SOL     OW18829   1.773   1.337   3.980  0.5772 -0.2602 -0.4584
 2456SOL    HW118830   1.855   1.323   3.933 -0.5056 -0.4760 -2.3144
 2456SOL    HW218831   1.794   1.330   4.073  1.7198 -0.2789 -0.7284
 2457SOL     OW18832   3.539   2.318   4.133  0.3817  0.1100 -0.1300
 2457SOL    HW118833   3.496   2.370   4.065  1.7225  1.8471  0.3565
 2457SOL    HW218834   3.527   2.228   4.100  1.8200  0.1519 -0.7843
 2458SOL     OW18835   0.178   2.100   3.856  0.3856  0.1845 -0.9475
 2458SOL    HW118836   0.269   2.096   3.827  1.3641  0.7057  2.1114
 2458SOL    HW218837   0.126   2.060   3.786  1.5060 -2.4327 -0.2908
 2459SOL     OW18838   2.707   4.668   1.356 -0.0526 -0.1929 -0.4701
 2459SOL    HW118839   2.630   4.696   1.406  2.6330  1.3815  2.7737
 2459SOL    HW218840   2.731   4.586   1.400 -0.2724  0.5379  1.0210
 2460SOL     OW18841   0.122   3.010   2.017  0.8080 -0.1937  0.5053
 2460SOL    HW118842   0.044   3.064   2.006  1.7116  0.9479 -0.2982
 2460SOL    HW218843   0.110   2.971   2.104  0.7006  0.0105  0.5824
 2461SOL     OW18844   1.523   0.551   7.033  0.0070 -0.1990 -0.3542
 2461SOL    HW118845   1.613   0.561   7.000  0.8436 -0.8560  1.6863
 2461SOL    HW218846   1.485   0.628   6.989  0.8650 -1.0145 -2.5212
 2462SOL     OW18847   4.070   3.623   4.218  0.6695  0.2066  0.0118
 2462SOL    HW118848   4.038   3.535   4.199  1.2621 -0.2016  0.8906
 2462SOL    HW218849   4.148   3.618   4.163  0.1556 -0.7562 -0.6355
 2463SOL     OW18850   0.372   3.555   5.882 -0.3426  0.2884 -0.3043
 2463SOL    HW118851   0.341   3.520   5.966 -2.3222  0.9499 -0.7608
 2463SOL    HW218852   0.374   3.467   5.843 -0.6322  0.1894 -0.1019
 2464SOL     OW18853   2.392   0.101   7.020 -0.6461  0.0819  0.3680
 2464SOL    HW118854   2.311   0.061   6.988 -2.1215  2.4328  1.1728
 2464SOL    HW218855   2.377   0.101   7.114  0.6099 -1.4991  0.5813
 2465SOL     OW18856   1.075   2.214   0.573 -0.0567 -0.1102  0.1536
 2465SOL    HW118857   1.145   2.253   0.522  0.5939 -1.1404  0.2623
 2465SOL    HW218858   1.021   2.183   0.501  0.4739  1.0707 -0.7558
 2466SOL     OW18859   3.871   2.972  15.586  0.2111 -0.1268 -0.0813
 2466SOL    HW118860   3.960   2.955  15.616 -0.1306  0.7527  1.4382
 2466SOL    HW218861   3.876   2.968  15.490  0.8119 -1.3075  0.0018
 2467SOL     OW18862   2.220   0.016  15.804  0.0358  0.0055  0.4263
 2467SOL    HW118863   2.140   0.067  15.790  0.9945  1.3682 -0.0567
 2467SOL    HW218864   2.295   0.074  15.809 -0.5147  0.5211  2.6396
 2468SOL     OW18865   3.683   0.179   1.879  0.2052  0.2559 -0.8248
 2468SOL    HW118866   3.642   0.163   1.794 -0.9597  0.6315 -0.3397
 2468SOL    HW218867   3.723   0.264   1.860  0.6466  0.5291  1.3271
 2469SOL     OW18868   2.393   3.575   9.553 -0.5343  0.0632 -0.4874
 2469SOL    HW118869   2.465   3.530   9.509  1.2486  3.0915 -0.6394
 2469SOL    HW218870   2.379   3.645   9.489  0.2662  0.0044 -0.7298
 2470SOL     OW18871   0.924   3.905  15.517 -0.0382 -0.1178  0.4556
 2470SOL    HW118872   0.883   3.972  15.462 -2.6124 -0.4050  2.0024
 2470SOL    HW218873   0.938   3.950  15.600 -0.0294  0.5487  0.0880
 2471SOL     OW18874   1.429   4.364   8.932  0.8218  0.5083  0.0944
 2471SOL    HW118875   1.470   4.374   9.018 -1.4627  1.3191  1.0998
 2471SOL    HW218876   1.503   4.394   8.881  0.1787  2.2874  0.1889
 2472SOL     OW18877   4.312   2.615   9.019  0.1444 -0.7624 -0.0946
 2472SOL    HW118878   4.385   2.610   9.081  1.2102  1.8957 -1.1116
 2472SOL    HW218879   4.242   2.588   9.077  0.1461 -1.2684 -0.3276
 2473SOL     OW18880   1.334   3.089   9.793  0.0202  0.3862 -0.1968
 2473SOL    HW118881   1.394   3.014   9.798  0.2599  0.3213 -3.9629
 2473SOL    HW218882   1.383   3.147   9.852  0.3025 -1.6375  1.5797
 2474SOL     OW18883   2.851   3.419  14.877  0.3071 -0.1428  0.2972
 2474SOL    HW118884   2.918   3.359  14.844  0.2273  0.5057 -1.0461
 2474SOL    HW218885   2.778   3.393  14.820  1.4136 -0.3864 -1.0276
 2475SOL     OW18886   3.840   4.044   1.679  0.1523  0.2684 -0.5550
 2475SOL    HW118887   3.857   4.042   1.585  0.8316  2.4343 -0.4702
 2475SOL    HW218888   3.927   4.075   1.704  0.5051 -0.5418 -0.8009
 2476SOL     OW18889   0.875   4.645   0.057  0.1538 -0.0398 -0.4140
 2476SOL    HW118890   0.915   4.608  17.674 -2.4030 -2.6877 -0.4567
 2476SOL    HW218891   0.785   4.657   0.027 -0.8024 -0.4622  2.2190
 2477SOL     OW18892   0.992   0.076   2.359 -0.1219  0.0077 -0.1319
 2477SOL    HW118893   1.072   0.078   2.410  0.9771 -1.4470 -1.8122
 2477SOL    HW218894   1.038   0.073   2.275  0.5310  0.4340  0.2171
 2478SOL     OW18895   1.137   2.217  14.875 -0.3315  0.3427  0.0327
 2478SOL    HW118896   1.198   2.263  14.818 -0.1148 -0.7113 -0.5860
 2478SOL    HW218897   1.152   2.136  14.828  0.7141 -0.8683  2.4689
 2479SOL     OW18898   4.619   4.591   7.796 -0.5982  0.0945  0.0290
 2479SOL    HW118899   4.660   4.517   7.750 -2.6515 -0.8866 -0.2332
 2479SOL    HW218900   4.589   4.554   7.879  1.8734 -0.1967  0.7827
 2480SOL     OW18901   0.982   4.573   4.141  0.5273  0.0245 -0.2877
 2480SOL    HW118902   1.030   4.614   4.213 -1.3173  0.9492  0.4238
 2480SOL    HW218903   1.044   4.598   4.072 -0.6354  3.0859 -0.2556
 2481SOL     OW18904   3.781   3.055   2.936 -0.0444 -0.5629 -0.3579
 2481SOL    HW118905   3.730   2.979   2.966 -0.2853 -0.3410 -0.2067
 2481SOL    HW218906   3.800   3.033   2.845 -0.8038 -0.6756 -0.4922
 2482SOL     OW18907   0.444   0.111   4.763  0.5269  0.0284 -0.0221
 2482SOL    HW118908   0.390   0.095   4.840 -0.9637 -2.1579 -1.5233
 2482SOL    HW218909   0.380   0.138   4.698  1.2164  2.1557  0.2027
 2483SOL     OW18910   3.184   0.381   3.973  0.2311 -0.5799  0.0936
 2483SOL    HW118911   3.163   0.416   4.060 -1.5903  1.4980 -1.2096
 2483SOL    HW218912   3.229   0.298   3.991 -0.1299 -0.6190  0.8230
 2484SOL     OW18913   0.614   3.935   6.158  0.2329 -0.3317 -0.0257
 2484SOL    HW118914   0.549   3.995   6.195  1.1868  0.4363  0.4016
 2484SOL    HW218915   0.581   3.846   6.172  0.0064 -0.0850  1.0170
 2485SOL     OW18916   1.878   0.668   6.025  0.2998  0.4965 -0.1529
 2485SOL    HW118917   1.948   0.670   6.090  0.5778 -0.2041 -0.4383
 2485SOL    HW218918   1.888   0.577   5.998  1.3007  0.5534  0.0501
 2486SOL     OW18919   1.695   0.100  13.320 -0.3069 -0.4085 -0.2240
 2486SOL    HW118920   1.657   0.025  13.273 -1.4830 -0.1608  0.3202
 2486SOL    HW218921   1.782   0.105  13.282  0.0391 -2.3025  0.3318
 2487SOL     OW18922   3.693   1.044   4.418 -0.3398  0.3283  0.0503
 2487SOL    HW118923   3.644   1.107   4.365 -0.0649  1.8653  1.6411
 2487SOL    HW218924   3.776   1.055   4.371 -0.5164 -0.6549 -0.5064
 2488SOL     OW18925   2.566   4.512  14.798  0.1546 -0.0697  0.3811
 2488SOL    HW118926   2.518   4.549  14.872 -0.0754 -1.5828  0.9830
 2488SOL    HW218927   2.491   4.467  14.759 -1.3944  0.8891  2.2756
 2489SOL     OW18928   2.416   2.575   8.057  0.0293 -0.3836  0.9382
 2489SOL    HW118929   2.494   2.603   8.011 -0.6113 -0.7585 -0.3787
 2489SOL    HW218930   2.473   2.513   8.104 -0.0054  1.3872  3.3283
 2490SOL     OW18931   1.074   1.453   1.635  0.0309 -0.3002  0.1873
 2490SOL    HW118932   1.118   1.538   1.626  2.6389 -1.5805  0.6484
 2490SOL    HW218933   1.050   1.455   1.727  1.1162 -0.7010  0.4871
 2491SOL     OW18934   0.112   0.229   0.519  0.1506 -0.2448  0.3457
 2491SOL    HW118935   0.100   0.167   0.447  0.1828 -2.2823  2.0885
 2491SOL    HW218936   0.021   0.255   0.531  0.2431  0.4697 -0.4722
 2492SOL     OW18937   1.434   1.464   3.041  0.3428 -0.2643 -0.2651
 2492SOL    HW118938   1.499   1.457   2.971 -0.2925 -3.0603 -0.6172
 2492SOL    HW218939   1.472   1.528   3.101  2.3720 -1.9087  0.2286
 2493SOL     OW18940   4.363   1.368   8.727  0.1301 -0.8233  0.3390
 2493SOL    HW118941   4.293   1.432   8.740  0.3276 -0.5445  0.0239
 2493SOL    HW218942   4.366   1.367   8.632  0.3366 -2.6179  0.3743
 2494SOL     OW18943   0.492   1.397   3.550  0.8137  0.3176  0.2257
 2494SOL    HW118944   0.504   1.325   3.488  1.5603  0.5216  0.1327
 2494SOL    HW218945   0.467   1.469   3.491  1.3527  1.1158  0.9732
 2495SOL     OW18946   2.811   0.306   9.772 -0.1323  0.5177 -0.3476
 2495SOL    HW118947   2.735   0.343   9.727  0.9688 -1.9534 -4.2687
 2495SOL    HW218948   2.762   0.227   9.797 -0.8977  1.7626  2.0607
 2496SOL     OW18949   1.889   0.515  16.691  0.1975  0.6579  0.2108
 2496SOL    HW118950   1.876   0.595  16.639 -2.3029 -1.1977 -1.9989
 2496SOL    HW218951   1.969   0.521  16.743  0.6021  1.7527 -0.5369
 2497SOL     OW18952   1.812   0.349   5.674  0.2637  0.0494 -0.0073
 2497SOL    HW118953   1.839   0.267   5.717  0.7073 -0.3476 -1.0277
 2497SOL    HW218954   1.785   0.323   5.586  0.4635 -0.5003  0.0907
 2498SOL     OW18955   2.679   1.912  17.650 -0.4041 -0.4148  0.7324
 2498SOL    HW118956   2.679   1.981  17.584  2.4004  0.3361  1.5243
 2498SOL    HW218957   2.705   1.962   0.032 -1.8288 -0.6972  1.3916
 2499SOL     OW18958   1.141   2.442   6.177 -0.5219  0.0222  0.1059
 2499SOL    HW118959   1.151   2.385   6.254 -1.2891  0.5838  0.6210
 2499SOL    HW218960   1.089   2.506   6.224  0.7535 -0.5880  2.3608
 2500SOL     OW18961   1.897   1.679   3.469 -0.2140  0.2375 -0.1172
 2500SOL    HW118962   1.918   1.745   3.403  3.2693  1.2288  1.9716
 2500SOL    HW218963   1.972   1.698   3.526 -0.3209  0.8235 -0.1647
 2501SOL     OW18964   1.175   3.397   7.790  0.6852 -0.1562  0.0516
 2501SOL    HW118965   1.190   3.326   7.854 -0.0908 -1.8192 -1.6229
 2501SOL    HW218966   1.265   3.425   7.775  0.4915  1.5409  2.1191
 2502SOL     OW18967   1.578   4.620   1.740  0.1151 -0.3130 -0.3127
 2502SOL    HW118968   1.655   4.650   1.691 -1.7997  1.5777 -2.1302
 2502SOL    HW218969   1.612   4.625   1.829  0.5305 -0.4740 -0.4594
 2503SOL     OW18970   0.897   4.114   3.934 -0.2642 -0.1218 -0.1774
 2503SOL    HW118971   0.968   4.061   3.898 -0.4367  0.1862 -0.9667
 2503SOL    HW218972   0.924   4.203   3.911 -0.6750  0.5732  1.9965
 2504SOL     OW18973   3.173   2.287  17.549  0.5562  0.4728 -0.5514
 2504SOL    HW118974   3.212   2.345  17.485  1.9448 -0.3356 -0.4365
 2504SOL    HW218975   3.086   2.280  17.511  0.7101 -2.0372 -0.4609
 2505SOL     OW18976   0.908   3.817   5.282 -0.0677  0.1383 -0.3473
 2505SOL    HW118977   0.908   3.768   5.364  0.0586  0.8654  0.0902
 2505SOL    HW218978   0.819   3.851   5.285 -1.1248 -2.6658 -0.0096
 2506SOL     OW18979   0.617   4.080  16.216  0.7368  0.8409  0.6859
 2506SOL    HW118980   0.651   4.146  16.156  3.0931 -0.9128  0.0988
 2506SOL    HW218981   0.612   4.000  16.165 -0.9176 -0.4671  2.8917
 2507SOL     OW18982   0.619   4.219   9.389  0.3521 -0.2625 -0.4246
 2507SOL    HW118983   0.631   4.130   9.423 -3.1960 -0.0156  1.5356
 2507SOL    HW218984   0.545   4.197   9.333  0.3976  2.2488 -1.4829
 2508SOL     OW18985   1.962   3.959   4.049  0.2431  0.0028 -0.6137
 2508SOL    HW118986   1.988   3.889   4.109 -0.8842 -0.3379 -0.5294
 2508SOL    HW218987   2.035   4.018   4.064 -0.5568  0.5967  0.9133
 2509SOL     OW18988   2.005   3.170   4.297 -0.1321 -0.9059  0.3692
 2509SOL    HW118989   2.058   3.248   4.312 -1.8872  0.6564 -1.6025
 2509SOL    HW218990   2.062   3.124   4.235  0.6881  0.5048  0.0840
 2510SOL     OW18991   1.309   3.182   7.001 -0.5659 -0.1728 -0.3227
 2510SOL    HW118992   1.235   3.121   6.992 -0.8282  0.4002 -2.0948
 2510SOL    HW218993   1.365   3.134   7.062 -0.0870 -1.4348 -1.7436
 2511SOL     OW18994   1.926   2.879  11.995 -1.0554  0.3522 -0.4189
 2511SOL    HW118995   1.959   2.855  12.082 -1.9008 -0.8379 -0.4217
 2511SOL    HW218996   1.989   2.939  11.955 -0.6241 -0.6973 -1.3201
 2512SOL     OW18997   4.023   4.475   3.679 -0.5048  0.3831  0.4551
 2512SOL    HW118998   4.058   4.399   3.632  0.0061  1.4814 -0.9279
 2512SOL    HW218999   3.978   4.428   3.749 -0.5246 -0.7869 -0.3420
 2513SOL     OW19000   1.989   1.341  10.002 -0.0079  0.0827  0.3590
 2513SOL    HW119001   2.084   1.337   9.996 -0.1435 -0.5857 -1.2732
 2513SOL    HW219002   1.983   1.359  10.096 -2.4119 -0.9377  0.4133
 2514SOL     OW19003   0.016   1.744  16.303  0.2224  0.5621 -0.0852
 2514SOL    HW119004   4.693   1.664  16.326  0.5593  0.1049 -0.9830
 2514SOL    HW219005   4.722   1.792  16.384 -0.2823 -0.8908  0.6600
 2515SOL     OW19006   2.435   0.649   7.013  0.5680  0.3662  0.1978
 2515SOL    HW119007   2.432   0.731   6.965  0.4355 -0.6916 -1.6086
 2515SOL    HW219008   2.363   0.668   7.074 -1.0180 -2.0669 -0.9386
 2516SOL     OW19009   3.120   2.447  14.016  0.3120  0.4670  0.0294
 2516SOL    HW119010   3.105   2.354  13.997 -1.8557  1.1031 -1.3776
 2516SOL    HW219011   3.177   2.437  14.092 -1.0460  0.6892  1.0752
 2517SOL     OW19012   2.508   2.469   8.964 -0.0052 -0.7986  0.3177
 2517SOL    HW119013   2.530   2.388   9.011  1.9124 -0.4585 -0.0056
 2517SOL    HW219014   2.586   2.523   8.982 -1.0857  0.7096  0.4673
 2518SOL     OW19015   0.314   4.467   8.779  0.2216  0.1310  0.1718
 2518SOL    HW119016   0.404   4.490   8.802 -0.1438  2.5641 -0.8121
 2518SOL    HW219017   0.316   4.428   8.691  0.7751 -0.1759  0.3207
 2519SOL     OW19018   1.497   2.177   8.956 -0.5642 -0.1334 -0.3341
 2519SOL    HW119019   1.546   2.252   8.922 -0.4376  0.2384  0.6864
 2519SOL    HW219020   1.433   2.221   9.011 -0.7578  0.9344 -1.4244
 2520SOL     OW19021   4.200   0.905   5.866  0.4046 -0.0925  0.1631
 2520SOL    HW119022   4.271   0.928   5.927  0.9286 -1.9941  0.2480
 2520SOL    HW219023   4.212   0.962   5.790 -1.2896 -1.0670 -0.8300
 2521SOL     OW19024   3.201   3.274   7.886 -0.1911  0.1592  0.7588
 2521SOL    HW119025   3.187   3.294   7.979  0.4685 -0.4842  0.9943
 2521SOL    HW219026   3.111   3.266   7.854  0.2404 -0.8138 -0.2061
 2522SOL     OW19027   1.635   4.417   7.201 -0.5327  0.3867  0.4409
 2522SOL    HW119028   1.700   4.487   7.204  0.4581 -0.5559  0.6712
 2522SOL    HW219029   1.565   4.448   7.142 -0.8020 -1.8487 -0.4225
 2523SOL     OW19030   2.478   1.195   1.586 -0.0070  0.4871  0.1237
 2523SOL    HW119031   2.407   1.208   1.648 -0.7308 -0.1944 -0.5697
 2523SOL    HW219032   2.461   1.263   1.520  2.0008  0.4548 -0.4417
 2524SOL     OW19033   2.118   1.973   0.665  0.4121 -0.6680 -0.0185
 2524SOL    HW119034   2.150   2.043   0.722  1.1136 -1.8950  1.0832
 2524SOL    HW219035   2.027   1.970   0.695  0.3181 -1.8484 -0.4210
 2525SOL     OW19036   3.461   0.943   6.622  0.2449  0.4075 -0.0605
 2525SOL    HW119037   3.456   0.997   6.701  0.4331  0.8336 -0.3387
 2525SOL    HW219038   3.495   1.002   6.554 -2.4871 -1.6707 -3.2077
 2526SOL     OW19039   0.585   4.302   8.242 -0.2981  0.3931 -0.4405
 2526SOL    HW119040   0.572   4.207   8.244 -2.4940  0.7256  0.9681
 2526SOL    HW219041   0.536   4.342   8.314 -0.7958 -0.2102 -0.4430
 2527SOL     OW19042   0.652   1.850  14.806 -0.0630  0.1584 -0.1315
 2527SOL    HW119043   0.664   1.861  14.712  0.6505 -1.8783 -0.2909
 2527SOL    HW219044   0.574   1.902  14.824  0.1745  0.4711 -0.0131
 2528SOL     OW19045   2.761   0.638   1.759  0.2959 -0.7217  0.2306
 2528SOL    HW119046   2.729   0.669   1.675  2.2035  1.0370  0.1486
 2528SOL    HW219047   2.854   0.660   1.750  0.1966 -0.5006 -0.2243
 2529SOL     OW19048   3.469   1.839   1.942 -0.2153  0.5307 -0.2528
 2529SOL    HW119049   3.473   1.840   1.846 -2.9048  1.4891 -0.3370
 2529SOL    HW219050   3.506   1.753   1.964 -1.1063  0.1917 -0.1038
 2530SOL     OW19051   3.902   3.925   3.675 -0.0689 -0.3514  0.2381
 2530SOL    HW119052   3.909   3.978   3.595  0.3010 -0.1206  0.4231
 2530SOL    HW219053   3.827   3.871   3.650  0.1701 -0.4634 -0.2287
 2531SOL     OW19054   2.404   4.180  16.573 -0.4575  0.4823  0.6302
 2531SOL    HW119055   2.327   4.187  16.629  1.0462 -1.2000  2.9189
 2531SOL    HW219056   2.424   4.273  16.574  0.2302  0.3430 -0.0240
 2532SOL     OW19057   2.966   1.466   5.105 -0.0806 -0.4204 -0.0804
 2532SOL    HW119058   2.931   1.458   5.017 -0.2004 -0.2984 -0.0431
 2532SOL    HW219059   3.025   1.390   5.106  2.7703  1.7796 -3.2317
 2533SOL     OW19060   0.804   1.782  15.843 -0.1515  0.5102 -0.6538
 2533SOL    HW119061   0.838   1.753  15.758  1.0030  1.3532 -0.4814
 2533SOL    HW219062   0.863   1.733  15.899  0.0117  0.9289 -0.4614
 2534SOL     OW19063   2.552   0.869   2.532 -0.1679  0.2884 -0.1762
 2534SOL    HW119064   2.546   0.877   2.627  1.3314 -0.8384  0.0242
 2534SOL    HW219065   2.497   0.793   2.510  0.6025 -0.7207  1.3536
 2535SOL     OW19066   4.032   0.101  16.035 -0.3557 -0.0435 -0.4469
 2535SOL    HW119067   4.057   0.164  16.102  1.2020  0.6315 -1.6598
 2535SOL    HW219068   4.116   0.092  15.989 -1.1624  0.3386 -1.9977
 2536SOL     OW19069   0.617   2.370   1.036 -0.1767 -0.0029 -0.3404
 2536SOL    HW119070   0.663   2.387   1.118  0.3209 -0.2278 -0.5733
 2536SOL    HW219071   0.608   2.457   0.997  1.3557 -1.2216 -3.3585
 2537SOL     OW19072   0.285   4.500   0.291  0.2423 -0.2816  0.1420
 2537SOL    HW119073   0.248   4.574   0.243  1.6508 -0.2642 -0.9278
 2537SOL    HW219074   0.380   4.510   0.282  0.3971 -1.8547  0.0309
 2538SOL     OW19075   1.466   2.322   3.700 -0.0202 -0.2452 -0.0961
 2538SOL    HW119076   1.541   2.379   3.688 -3.1404  3.7235 -0.9811
 2538SOL    HW219077   1.449   2.302   3.608  2.5536 -3.9137  0.2081
 2539SOL     OW19078   0.562   1.381   5.211  0.3473 -0.5216  0.1099
 2539SOL    HW119079   0.556   1.412   5.301  1.3896  1.6503 -0.5614
 2539SOL    HW219080   0.503   1.308   5.223  1.1178 -1.4683 -1.7664
 2540SOL     OW19081   2.613   1.688   4.409 -0.2882 -0.3533 -0.4508
 2540SOL    HW119082   2.670   1.640   4.469 -0.2573  0.0424 -0.1608
 2540SOL    HW219083   2.566   1.751   4.464 -0.9998 -1.6029  0.3903
 2541SOL     OW19084   4.212   0.825   5.292 -0.3187 -0.1015 -0.2477
 2541SOL    HW119085   4.168   0.874   5.362  2.1905 -1.5418  2.3223
 2541SOL    HW219086   4.269   0.899   5.268 -0.5311 -0.2601 -1.2252
 2542SOL     OW19087   2.713   1.571   0.606  0.3382 -0.4985 -0.3541
 2542SOL    HW119088   2.622   1.541   0.607  0.1309  0.1547  0.1787
 2542SOL    HW219089   2.756   1.486   0.613 -2.6683 -2.0520 -0.6316
 2543SOL     OW19090   2.792   4.659  15.219 -0.5316  0.0731  0.4595
 2543SOL    HW119091   2.731   4.586  15.220  1.0771 -1.2831 -2.0607
 2543SOL    HW219092   2.761   4.695  15.302  1.2520 -1.4225  1.7647
 2544SOL     OW19093   1.063   3.241   2.154  0.5738 -0.0122 -0.1386
 2544SOL    HW119094   0.991   3.189   2.189 -1.2459  3.5003  1.4426
 2544SOL    HW219095   1.132   3.204   2.209 -0.8294 -3.3140 -0.6082
 2545SOL     OW19096   2.049   0.120   5.417  0.0085 -0.6349 -0.3016
 2545SOL    HW119097   2.032   0.214   5.427  2.0737 -0.0433 -2.3643
 2545SOL    HW219098   2.026   0.118   5.324  0.1177 -3.3011 -0.2572
 2546SOL     OW19099   3.201   4.514   3.718  0.0799 -0.0710 -0.0883
 2546SOL    HW119100   3.268   4.582   3.719 -1.0799  1.1058 -1.7341
 2546SOL    HW219101   3.221   4.458   3.643 -0.9703 -0.7618  0.1383
 2547SOL     OW19102   0.581   1.938   4.999  0.2108 -0.1298 -0.4696
 2547SOL    HW119103   0.651   1.943   5.064  1.2645 -1.9401 -1.4451
 2547SOL    HW219104   0.568   2.031   4.981 -0.0038 -0.0840 -0.0807
 2548SOL     OW19105   4.307   4.622   8.596  0.6171  0.0192  0.1625
 2548SOL    HW119106   4.219   4.662   8.593  0.7192  0.0596 -2.7866
 2548SOL    HW219107   4.347   4.659   8.517 -1.2717  1.9507  0.0826
 2549SOL     OW19108   0.302   4.251   5.459  0.1385 -0.1500 -0.2320
 2549SOL    HW119109   0.247   4.290   5.526  1.0542 -1.5721  1.3491
 2549SOL    HW219110   0.354   4.191   5.513  1.2597  0.1606 -0.9703
 2550SOL     OW19111   3.604   0.410   6.512 -0.0916 -0.0959  0.5915
 2550SOL    HW119112   3.690   0.392   6.474 -0.6596 -0.0330 -0.7047
 2550SOL    HW219113   3.619   0.398   6.606 -1.1854 -1.3654  0.6117
 2551SOL     OW19114   0.856   2.977  15.401 -0.0432 -0.2833  0.3971
 2551SOL    HW119115   0.865   3.069  15.378  1.4435 -1.1053 -2.4034
 2551SOL    HW219116   0.763   2.971  15.382 -0.3029 -0.8363  1.8765
 2552SOL     OW19117   3.740   4.294   5.903  0.3393 -0.0033 -0.4550
 2552SOL    HW119118   3.778   4.210   5.931 -2.7681 -1.4589 -0.6560
 2552SOL    HW219119   3.758   4.341   5.985 -2.4271 -1.4137  0.9620
 2553SOL     OW19120   3.778   4.696   1.576  0.6130  0.1652  0.0568
 2553SOL    HW119121   3.716   0.043   1.593  1.3877  1.0373 -0.7549
 2553SOL    HW219122   3.824   0.023   1.509 -1.3515  0.2133 -1.2856
 2554SOL     OW19123   4.625   2.512   6.746  0.3369 -0.2085  0.2878
 2554SOL    HW119124   4.715   2.532   6.773  1.0962 -2.9557 -0.2071
 2554SOL    HW219125   4.579   2.596   6.751 -0.3963 -0.6125  0.3567
 2555SOL     OW19126   3.861   4.563   0.388 -0.2071  0.0665 -0.4172
 2555SOL    HW119127   3.922   4.635   0.373  1.2054 -1.2072 -0.7722
 2555SOL    HW219128   3.814   4.591   0.466  0.9850  1.8894 -0.3448
 2556SOL     OW19129   4.110   1.095  13.035  0.0278 -0.3361  0.0849
 2556SOL    HW119130   4.090   1.122  13.124 -1.3958 -1.6013  0.1509
 2556SOL    HW219131   4.048   1.135  12.975  1.3943  0.0058 -1.1073
 2557SOL     OW19132   2.125   1.256   3.594  0.0424 -0.0456  0.0964
 2557SOL    HW119133   2.065   1.183   3.609 -0.1506 -0.4206 -2.6496
 2557SOL    HW219134   2.157   1.253   3.504 -1.0505 -0.2014 -0.2895
 2558SOL     OW19135   0.446   0.238  10.424  0.5875  0.0633 -0.6014
 2558SOL    HW119136   0.452   0.318  10.373 -0.6328  0.7824  0.3909
 2558SOL    HW219137   0.474   0.170  10.362  0.6666 -0.8479  0.4220
 2559SOL     OW19138   2.687   3.431  10.051 -0.0827 -0.4779 -0.2967
 2559SOL    HW119139   2.712   3.476   9.970  2.1870  1.0245  1.2359
 2559SOL    HW219140   2.595   3.409  10.039 -0.0067 -1.5187  1.0237
 2560SOL     OW19141   4.353   4.559  12.548  0.2053  0.1981  0.2900
 2560SOL    HW119142   4.284   4.624  12.560 -1.0097 -0.4696 -2.8051
 2560SOL    HW219143   4.355   4.497  12.620 -2.3916 -2.1444 -1.6421
 2561SOL     OW19144   2.982   4.443  13.931  0.4835 -0.3736 -0.2723
 2561SOL    HW119145   2.924   4.472  13.860 -1.8434  0.0757  1.8098
 2561SOL    HW219146   3.028   4.526  13.945  0.7215 -0.4561 -0.5589
 2562SOL     OW19147   3.744   2.936  16.009 -0.0273  0.1812 -0.1072
 2562SOL    HW119148   3.744   2.899  16.097 -2.3000 -1.6513 -0.8786
 2562SOL    HW219149   3.746   2.854  15.960 -0.0654 -1.2281  2.2209
 2563SOL     OW19150   3.471   4.038  14.049  0.3407 -0.2087  0.1666
 2563SOL    HW119151   3.468   3.957  13.997 -2.5827 -0.8382  1.3190
 2563SOL    HW219152   3.423   4.015  14.129  1.2402 -1.3632  0.3838
 2564SOL     OW19153   4.491   4.062   7.029 -0.0291  0.4989  0.0225
 2564SOL    HW119154   4.500   4.157   7.041 -0.6782  0.4718  0.7154
 2564SOL    HW219155   4.560   4.019   7.080 -0.9806 -0.6861  0.3061
 2565SOL     OW19156   0.381   2.862   6.083  0.3359 -0.1743 -0.1682
 2565SOL    HW119157   0.343   2.775   6.092 -1.5258  0.5899 -0.6794
 2565SOL    HW219158   0.413   2.862   5.992  1.3663  0.8276  0.1906
 2566SOL     OW19159   4.555   0.684   8.484 -0.1804  0.4438  0.2487
 2566SOL    HW119160   4.582   0.616   8.422  0.6799  0.0329  1.0828
 2566SOL    HW219161   4.489   0.635   8.533 -0.5390  1.4991  0.8120
 2567SOL     OW19162   2.547   3.140   3.585  0.7173  0.5574 -0.0750
 2567SOL    HW119163   2.553   3.136   3.490  0.5179  0.0607 -0.0711
 2567SOL    HW219164   2.596   3.062   3.610  0.7633  0.6319  0.0673
 2568SOL     OW19165   3.032   3.200  16.980 -0.5025  0.2986  0.1357
 2568SOL    HW119166   3.026   3.172  16.889  3.1045 -2.5320  0.8073
 2568SOL    HW219167   3.089   3.277  16.974 -1.6056  1.0569 -0.6423
 2569SOL     OW19168   0.725   1.615   4.486  0.3648 -0.3235 -0.2728
 2569SOL    HW119169   0.655   1.595   4.548  0.5758  2.5881  0.9009
 2569SOL    HW219170   0.685   1.645   4.404  0.8141  0.8520 -0.0636
 2570SOL     OW19171   2.606   1.697   0.959 -0.3233 -0.1759 -0.2434
 2570SOL    HW119172   2.658   1.635   1.010  1.9574  1.4737 -0.5728
 2570SOL    HW219173   2.523   1.699   1.007 -0.2062  0.0178 -0.0496
 2571SOL     OW19174   1.626   3.154  16.867 -0.1777  0.2433 -0.2733
 2571SOL    HW119175   1.702   3.110  16.905 -1.3502 -1.7575 -0.2533
 2571SOL    HW219176   1.591   3.203  16.941 -2.5709  1.3609 -2.1215
 2572SOL     OW19177   4.587   2.734   9.413  0.2682  0.6302 -0.2658
 2572SOL    HW119178   4.542   2.677   9.476  1.4965 -1.9186 -1.6599
 2572SOL    HW219179   4.672   2.736   9.458  0.4099 -0.3633 -0.4878
 2573SOL     OW19180   2.878   2.983   3.791  0.1635 -0.3365  0.5355
 2573SOL    HW119181   2.896   2.890   3.774 -0.3903 -0.5750  1.2695
 2573SOL    HW219182   2.860   3.002   3.699  0.5297 -0.4446  0.4405
 2574SOL     OW19183   3.732   2.686   3.676 -0.3680  0.1890  0.2361
 2574SOL    HW119184   3.768   2.706   3.763  1.7757  0.9975 -0.8505
 2574SOL    HW219185   3.726   2.769   3.629  1.6595  0.7210  0.9349
 2575SOL     OW19186   1.691   4.387   8.422 -0.4854 -0.1495 -0.4837
 2575SOL    HW119187   1.771   4.395   8.370 -0.0487 -1.1417  0.0319
 2575SOL    HW219188   1.702   4.462   8.479  1.8332 -0.5900 -0.3433
 2576SOL     OW19189   4.212   0.205   4.406  0.2278 -0.1864  0.7822
 2576SOL    HW119190   4.174   0.182   4.321  0.6667  0.4626  0.4131
 2576SOL    HW219191   4.172   0.141   4.465 -2.3456 -0.4304 -1.2438
 2577SOL     OW19192   1.757   4.386   6.230  0.2881 -0.2231 -0.1745
 2577SOL    HW119193   1.683   4.406   6.172 -2.1439 -0.3261  2.9301
 2577SOL    HW219194   1.804   4.468   6.243  0.4349 -0.0006 -2.0846
 2578SOL     OW19195   1.247   2.350   6.608 -0.3368  0.4693  0.3325
 2578SOL    HW119196   1.204   2.322   6.528  1.1755 -0.2501 -0.2359
 2578SOL    HW219197   1.171   2.375   6.661  0.6512  0.6819  1.6712
 2579SOL     OW19198   4.166   1.026  15.693  0.0617  0.3937  0.1982
 2579SOL    HW119199   4.156   1.119  15.711 -2.6605 -0.1568  1.4854
 2579SOL    HW219200   4.094   1.018  15.631  0.8318  2.0479 -0.9075
 2580SOL     OW19201   2.436   1.005   6.162  0.4026  0.4137 -0.2415
 2580SOL    HW119202   2.394   1.025   6.245 -1.7626  0.2793 -1.3130
 2580SOL    HW219203   2.408   1.089   6.124 -1.1973  0.7083  1.5728
 2581SOL     OW19204   2.685   1.362   4.217  0.2427  0.1555 -0.4180
 2581SOL    HW119205   2.651   1.350   4.306 -1.0354 -2.9165 -1.3038
 2581SOL    HW219206   2.679   1.457   4.210  2.3252  0.3436  0.5381
 2582SOL     OW19207   3.253   1.000   4.503  0.1553 -0.1837 -0.5534
 2582SOL    HW119208   3.233   0.923   4.449 -2.2148  0.0927 -0.0851
 2582SOL    HW219209   3.338   0.973   4.539  0.3899  2.2964  0.7330
 2583SOL     OW19210   3.016   4.671   3.464 -0.1493  0.0995 -0.0970
 2583SOL    HW119211   3.038   4.643   3.375  1.5585 -1.4511  0.7977
 2583SOL    HW219212   3.099   4.694   3.505 -0.2457 -0.5324  0.4512
 2584SOL     OW19213   1.335   1.514   2.695  0.2642 -0.7648  0.3962
 2584SOL    HW119214   1.258   1.500   2.639 -1.1758  0.3381  2.0829
 2584SOL    HW219215   1.398   1.549   2.632  0.3100  0.6469  1.2116
 2585SOL     OW19216   1.432   3.630   7.114 -0.6113 -0.7612 -0.4373
 2585SOL    HW119217   1.351   3.678   7.094 -0.6070  0.3832  2.3603
 2585SOL    HW219218   1.436   3.560   7.048  0.3727  0.1111 -1.2993
 2586SOL     OW19219   1.790   0.965   8.024  0.5646 -0.2510 -0.0457
 2586SOL    HW119220   1.711   0.917   8.049  1.6112 -0.5402  2.7770
 2586SOL    HW219221   1.861   0.907   8.049 -1.1323 -2.3823 -0.2271
 2587SOL     OW19222   0.431   0.792  13.667 -0.8477  0.1491 -0.0363
 2587SOL    HW119223   0.468   0.785  13.755  0.6628 -1.6176 -0.8179
 2587SOL    HW219224   0.383   0.710  13.662 -0.8682  0.2095 -0.8389
 2588SOL     OW19225   3.661   2.713  10.825  0.3821 -0.0830 -0.2535
 2588SOL    HW119226   3.660   2.808  10.836  1.4521 -0.4348  3.0606
 2588SOL    HW219227   3.595   2.704  10.757  0.8160 -1.0813 -0.5421
 2589SOL     OW19228   3.370   4.444   2.349 -0.1872 -0.2365  0.6299
 2589SOL    HW119229   3.350   4.513   2.412  0.3711  1.1423 -0.7086
 2589SOL    HW219230   3.346   4.489   2.268 -2.7623 -0.6084  1.1840
 2590SOL     OW19231   1.984   1.839   4.915  0.3897  0.5789 -0.5403
 2590SOL    HW119232   1.968   1.756   4.871 -0.0237  0.9296 -1.0580
 2590SOL    HW219233   2.079   1.835   4.927  0.2676  0.4409  0.3645
 2591SOL     OW19234   3.966   0.777   3.849 -0.1294  0.2388 -0.6816
 2591SOL    HW119235   3.944   0.864   3.816 -0.1762  0.9047  1.0963
 2591SOL    HW219236   3.994   0.806   3.936 -2.9445  1.5809 -0.2065
 2592SOL     OW19237   4.579   0.376   6.710  0.3148  0.1245  1.1821
 2592SOL    HW119238   4.619   0.460   6.731  2.8907 -0.8649  0.1569
 2592SOL    HW219239   4.621   0.365   6.625 -0.8795  1.8406  0.3860
 2593SOL     OW19240   0.643   2.864   6.834 -0.3627 -0.3414  0.2424
 2593SOL    HW119241   0.583   2.814   6.779  0.5955 -0.7091 -0.4645
 2593SOL    HW219242   0.661   2.796   6.899 -0.5652 -0.0867  0.5658
 2594SOL     OW19243   3.334   1.473  12.670  0.6398 -0.2455  0.6484
 2594SOL    HW119244   3.419   1.514  12.653  0.3844 -0.8988 -2.2693
 2594SOL    HW219245   3.281   1.549  12.649  0.7241 -0.4597 -0.3554
 2595SOL     OW19246   2.724   2.299   2.520  0.5590 -0.8370  0.1222
 2595SOL    HW119247   2.774   2.219   2.502  0.0267 -0.7543 -1.8247
 2595SOL    HW219248   2.687   2.291   2.608 -0.0173  1.1349  0.0586
 2596SOL     OW19249   0.616   4.402   2.916 -0.2961  0.3686  0.3172
 2596SOL    HW119250   0.547   4.461   2.884 -0.4340 -0.1925 -0.3937
 2596SOL    HW219251   0.690   4.426   2.861  0.6226 -1.1341  0.8928
 2597SOL     OW19252   1.304   2.344   2.237 -0.0795  0.2808 -0.3476
 2597SOL    HW119253   1.339   2.305   2.157  1.9381  0.3745  0.4799
 2597SOL    HW219254   1.268   2.418   2.190 -2.4026 -0.5368  0.1719
 2598SOL     OW19255   3.110   1.595  16.425  0.4055  0.0129  0.1708
 2598SOL    HW119256   3.042   1.651  16.387 -1.3959 -1.9798  0.4959
 2598SOL    HW219257   3.155   1.568  16.345 -0.7258 -1.3610 -0.0111
 2599SOL     OW19258   4.575   0.402   5.873  0.0239 -0.2220 -0.5716
 2599SOL    HW119259   4.671   0.401   5.878 -0.0803 -2.3348  0.9330
 2599SOL    HW219260   4.562   0.322   5.821  0.6087 -0.9475  0.3957
 2600SOL     OW19261   1.154   0.653   1.361 -0.3199 -0.5253  0.4542
 2600SOL    HW119262   1.085   0.598   1.400 -1.9890  0.4600 -1.1056
 2600SOL    HW219263   1.107   0.697   1.290 -1.1469 -0.2622  1.1586
 2601SOL     OW19264   0.198   4.407  14.974 -0.4492 -0.5565 -0.6716
 2601SOL    HW119265   0.170   4.423  14.883 -2.4506  0.3845  0.1013
 2601SOL    HW219266   0.113   4.403  15.018  0.2924 -0.1434  0.7819
 2602SOL     OW19267   1.433   3.953   9.594  0.2291  0.0778 -0.3569
 2602SOL    HW119268   1.507   4.011   9.576  0.0412 -0.0366 -1.4531
 2602SOL    HW219269   1.392   3.941   9.509 -3.6171 -2.1189  1.8262
 2603SOL     OW19270   2.332   2.940   8.062 -0.7865  0.9039 -0.2554
 2603SOL    HW119271   2.359   2.866   8.118  0.4286  1.1242 -0.5533
 2603SOL    HW219272   2.296   3.003   8.124 -0.4378  0.3197  0.5514
 2604SOL     OW19273   0.234   2.934   3.544  0.4689 -0.2646  0.1929
 2604SOL    HW119274   0.217   2.906   3.634 -0.3910  0.1281  0.1505
 2604SOL    HW219275   0.279   2.858   3.506  0.7345  0.6967 -1.4073
 2605SOL     OW19276   2.503   1.519   4.996 -0.4563  0.0645 -0.7228
 2605SOL    HW119277   2.537   1.437   4.959 -1.8477 -2.3065  3.1872
 2605SOL    HW219278   2.553   1.521   5.077 -0.6784 -2.4083 -0.5185
 2606SOL     OW19279   2.784   3.844   0.248  0.4272 -0.5113 -0.3975
 2606SOL    HW119280   2.852   3.880   0.306 -0.9500 -2.2131  2.2683
 2606SOL    HW219281   2.798   3.880   0.161 -0.1756 -0.6745 -0.5600
 2607SOL     OW19282   1.963   3.974  10.210 -0.3588 -0.0450 -0.1521
 2607SOL    HW119283   1.999   3.927  10.135 -0.0968  0.5362 -0.3907
 2607SOL    HW219284   1.869   3.957  10.210 -0.3303 -0.2247 -0.5923
 2608SOL     OW19285   0.638   4.711   5.541  0.3306 -0.3309 -0.2486
 2608SOL    HW119286   0.638   0.083   5.528 -0.9083 -0.2384  0.4580
 2608SOL    HW219287   0.732   4.693   5.553  0.8861  0.5595 -3.0778
 2609SOL     OW19288   4.608   0.206  14.619  0.1222 -0.3376  0.1900
 2609SOL    HW119289   4.634   0.207  14.527  0.3276  0.0697  0.2533
 2609SOL    HW219290   4.518   0.240  14.616  0.2087 -0.0423  1.1927
 2610SOL     OW19291   3.998   3.305   1.969  0.0088 -0.2606 -0.1835
 2610SOL    HW119292   4.037   3.377   1.920 -0.3063  1.5595  2.2125
 2610SOL    HW219293   4.072   3.255   2.005 -0.2803  0.6715  1.6682
 2611SOL     OW19294   0.851   3.585   4.285  0.0703 -0.0401  0.0328
 2611SOL    HW119295   0.885   3.674   4.291  0.6347 -0.1320 -1.7413
 2611SOL    HW219296   0.804   3.598   4.203  0.0877  2.3513  0.4190
 2612SOL     OW19297   3.964   0.508   2.993  0.3279  0.1737  0.4070
 2612SOL    HW119298   4.047   0.464   2.980 -0.2195 -0.4903 -0.8927
 2612SOL    HW219299   3.951   0.551   2.908  1.4115 -1.1798 -0.4369
 2613SOL     OW19300   4.681   4.079   0.727  0.2335  0.0740 -0.7502
 2613SOL    HW119301   4.678   4.172   0.708 -1.0896 -0.3902 -2.7960
 2613SOL    HW219302   4.601   4.054   0.681  0.6425 -0.4956 -1.1591
 2614SOL     OW19303   3.615   0.190  14.730  0.1531 -0.8016 -0.3385
 2614SOL    HW119304   3.581   0.101  14.737 -2.0106  0.1444  1.0888
 2614SOL    HW219305   3.624   0.208  14.824 -0.9763  1.3539 -0.6588
 2615SOL     OW19306   0.853   3.075   3.481  0.7438  0.2160  0.2219
 2615SOL    HW119307   0.883   3.165   3.471  0.2439  0.4308  0.6698
 2615SOL    HW219308   0.896   3.036   3.405 -0.4368  1.3638 -1.0205
 2616SOL     OW19309   0.152   2.137  11.071 -0.3667  0.3426  0.3431
 2616SOL    HW119310   0.153   2.074  10.998 -0.1761  0.0370  0.6113
 2616SOL    HW219311   0.227   2.193  11.054 -1.4621  1.5337 -0.6315
 2617SOL     OW19312   1.234   2.961   4.478  0.5333  0.4499 -0.2600
 2617SOL    HW119313   1.204   2.897   4.413 -0.8244  1.2060 -0.3571
 2617SOL    HW219314   1.279   2.905   4.543 -1.8000 -0.8697  0.2028
 2618SOL     OW19315   1.253   3.377   0.061  0.1649 -0.5662  0.3713
 2618SOL    HW119316   1.167   3.363   0.020  1.0899  0.2608 -1.8629
 2618SOL    HW219317   1.235   3.465   0.092 -0.4688 -1.4901  2.6103
 2619SOL     OW19318   2.338   1.014   6.412  0.4966  0.1336  0.1876
 2619SOL    HW119319   2.272   0.947   6.429 -0.9673  1.8077  1.1598
 2619SOL    HW219320   2.297   1.068   6.480  1.5764 -0.2968  1.1911
 2620SOL     OW19321   3.535   4.698   2.387 -0.7099 -0.0922  0.2403
 2620SOL    HW119322   3.523   0.039   2.318  0.7815  1.8421  1.7773
 2620SOL    HW219323   3.444   4.698   2.416 -0.4568 -0.7078  1.0408
 2621SOL     OW19324   3.332   1.279   3.747 -0.4905  0.4664  0.4927
 2621SOL    HW119325   3.415   1.300   3.789  0.9641 -1.6598 -1.2914
 2621SOL    HW219326   3.315   1.193   3.787 -2.0787 -0.0470 -1.2842
 2622SOL     OW19327   1.446   2.533   1.830  0.2798 -0.2875  0.2777
 2622SOL    HW119328   1.533   2.568   1.848  1.0703 -1.3736 -1.5061
 2622SOL    HW219329   1.406   2.603   1.778  3.0382  2.4770  1.9077
 2623SOL     OW19330   3.680   3.752   3.594 -0.1150 -0.6587  0.1926
 2623SOL    HW119331   3.732   3.677   3.566 -2.2332 -1.8338 -0.5536
 2623SOL    HW219332   3.672   3.733   3.688 -2.2460  0.1035  0.1694
 2624SOL     OW19333   1.878   3.400  14.906 -0.5152  0.6807 -0.0754
 2624SOL    HW119334   1.952   3.348  14.874 -1.1995 -0.0779 -0.4240
 2624SOL    HW219335   1.904   3.416  14.996 -0.4544 -0.1307  0.0500
 2625SOL     OW19336   2.287   2.225  13.881  0.4696 -0.0212 -0.4300
 2625SOL    HW119337   2.373   2.254  13.912  0.2332 -1.3478  1.4542
 2625SOL    HW219338   2.255   2.179  13.958  0.7461 -0.6301 -0.6825
 2626SOL     OW19339   4.305   0.701  13.268  0.3540 -0.8948  0.1409
 2626SOL    HW119340   4.215   0.720  13.296 -0.0462 -3.1535  0.4201
 2626SOL    HW219341   4.332   0.669  13.354 -0.5303  0.1322  0.7959
 2627SOL     OW19342   0.316   0.675   9.144 -0.4095  0.7143 -0.5911
 2627SOL    HW119343   0.279   0.751   9.098 -1.1205  0.6677 -0.0940
 2627SOL    HW219344   0.389   0.722   9.184 -0.5642  2.5055 -2.3541
 2628SOL     OW19345   1.968   1.464   7.649  0.1783 -0.2463  0.2865
 2628SOL    HW119346   1.916   1.501   7.721  1.5975  3.0325 -0.3765
 2628SOL    HW219347   1.969   1.375   7.682  0.3343 -0.3451  0.0164
 2629SOL     OW19348   2.938   0.228  17.092 -0.5168  0.3595 -0.3785
 2629SOL    HW119349   2.998   0.269  17.029  1.0228 -2.0395 -0.4363
 2629SOL    HW219350   2.934   0.293  17.163  1.2281 -1.3486  1.2694
 2630SOL     OW19351   4.118   2.621   6.457 -0.3188  0.2868  0.5263
 2630SOL    HW119352   4.188   2.564   6.425 -0.7934 -1.0134  1.8524
 2630SOL    HW219353   4.138   2.628   6.550 -0.8657 -1.3578  0.7598
 2631SOL     OW19354   1.984   1.383  12.129 -0.2166 -0.2206  0.3528
 2631SOL    HW119355   1.952   1.444  12.063  0.4264  2.7049  2.7536
 2631SOL    HW219356   2.071   1.417  12.146  0.8247 -1.9810 -1.4443
 2632SOL     OW19357   3.053   0.336  14.481  0.6745  0.3153 -0.4810
 2632SOL    HW119358   3.001   0.274  14.533  0.2519 -0.5141 -1.8983
 2632SOL    HW219359   2.987   0.361  14.416 -0.4983  1.3963  1.1168
 2633SOL     OW19360   3.068   0.095   0.314  0.3922  0.5755 -0.0356
 2633SOL    HW119361   3.093   0.140   0.233  0.8360  0.7695  0.2135
 2633SOL    HW219362   3.009   0.026   0.283  1.8113 -0.5196 -0.3118
 2634SOL     OW19363   3.599   0.178   1.627  0.1435  0.2191  0.2536
 2634SOL    HW119364   3.519   0.145   1.586  0.5295 -1.1216  0.5798
 2634SOL    HW219365   3.616   0.263   1.587 -0.8993  0.2983 -0.0303
 2635SOL     OW19366   0.590   2.649   6.069 -0.3735 -0.0666 -0.3522
 2635SOL    HW119367   0.585   2.693   6.154  0.1236 -0.2496 -0.2300
 2635SOL    HW219368   0.547   2.570   6.103  2.1473 -0.8571  1.0038
 2636SOL     OW19369   4.574   1.273   3.026 -0.0519 -0.1363  0.0080
 2636SOL    HW119370   4.551   1.233   3.110  1.7669 -0.6462  0.2542
 2636SOL    HW219371   4.550   1.209   2.958 -1.8052  0.4270  0.1077
 2637SOL     OW19372   1.699   0.160   9.006 -0.7049  0.1241 -0.1237
 2637SOL    HW119373   1.736   0.110   9.079 -0.2517 -2.4132 -2.0845
 2637SOL    HW219374   1.729   0.242   9.044 -2.4284  0.6435  0.1242
 2638SOL     OW19375   3.209   4.053   4.152 -0.3228  0.2282  0.1041
 2638SOL    HW119376   3.180   4.086   4.236 -0.5092  0.1052  0.0877
 2638SOL    HW219377   3.129   4.057   4.100 -0.2103  0.8488 -0.0235
 2639SOL     OW19378   2.085   1.405   4.943 -0.7230 -0.0479 -0.9818
 2639SOL    HW119379   2.162   1.453   4.974 -0.9410  0.3131 -1.0041
 2639SOL    HW219380   2.123   1.334   4.890 -1.6081  0.6606 -2.5500
 2640SOL     OW19381   2.159   2.503  12.260  0.0164 -0.4899  0.5222
 2640SOL    HW119382   2.185   2.485  12.350  1.9259  1.2527  0.2984
 2640SOL    HW219383   2.076   2.455  12.257  0.2877 -0.9600  0.5194
 2641SOL     OW19384   0.647   0.205   8.718 -0.3619  0.3076  0.4842
 2641SOL    HW119385   0.698   0.168   8.645 -0.2665 -2.9591  2.1929
 2641SOL    HW219386   0.701   0.167   8.787 -0.4836 -1.6705 -0.5088
 2642SOL     OW19387   2.001   4.444   9.401  0.2149  0.2608 -0.4471
 2642SOL    HW119388   2.064   4.408   9.338 -0.1503 -0.6516 -0.2875
 2642SOL    HW219389   2.053   4.518   9.431 -0.6611  0.3776  0.7693
 2643SOL     OW19390   2.128   4.116   1.606  0.6175 -0.3837  0.0098
 2643SOL    HW119391   2.089   4.037   1.643 -3.1515  1.8610  0.9233
 2643SOL    HW219392   2.097   4.097   1.517 -0.7145 -2.7493  0.9797
 2644SOL     OW19393   3.783   4.709   2.654 -0.3920 -1.3189 -0.2291
 2644SOL    HW119394   3.805   0.031   2.573  0.1434 -1.7066 -0.3061
 2644SOL    HW219395   3.752   4.630   2.610  0.0602 -1.6925  0.1067
 2645SOL     OW19396   2.011   3.327   5.148 -0.5616 -0.1312 -0.2176
 2645SOL    HW119397   1.927   3.290   5.122 -0.9137  1.4180 -1.2774
 2645SOL    HW219398   1.984   3.390   5.215  1.0318  1.3501 -0.9743
 2646SOL     OW19399   0.893   2.533   6.966 -0.7529 -0.3890  0.5126
 2646SOL    HW119400   0.816   2.477   6.982 -2.4779  2.0883  0.9519
 2646SOL    HW219401   0.875   2.621   6.999  1.4632 -0.2487  1.3060
 2647SOL     OW19402   2.907   2.824   3.038  0.0247  0.1045  0.4399
 2647SOL    HW119403   2.863   2.799   2.957  2.0310  3.9367 -1.8559
 2647SOL    HW219404   2.881   2.916   3.046 -0.6053  0.1191 -1.7877
 2648SOL     OW19405   3.881   0.095   6.375  0.7154 -0.3509 -0.0443
 2648SOL    HW119406   3.819   0.063   6.441  1.8405  1.2749  1.8034
 2648SOL    HW219407   3.942   0.022   6.380  0.7752 -0.4146 -1.7932
 2649SOL     OW19408   4.409   1.710   0.216 -0.4282 -0.4164 -0.5281
 2649SOL    HW119409   4.366   1.733   0.134 -0.6591  0.9093 -0.0400
 2649SOL    HW219410   4.438   1.798   0.241 -0.4775 -1.4571  3.1705
 2650SOL     OW19411   0.622   2.217   5.978 -0.2899  0.0224 -0.2261
 2650SOL    HW119412   0.646   2.237   6.069  0.3174 -0.8543 -0.1889
 2650SOL    HW219413   0.572   2.297   5.961  0.9352  0.5547 -1.3020
 2651SOL     OW19414   1.584   3.357   3.726  0.3062 -0.3100  0.1740
 2651SOL    HW119415   1.674   3.366   3.697 -0.0358  2.0578 -0.1097
 2651SOL    HW219416   1.598   3.273   3.770 -0.2331  1.0816  3.0032
 2652SOL     OW19417   2.373   1.650  11.817 -0.6576  0.2871  0.4178
 2652SOL    HW119418   2.329   1.580  11.865  0.0695 -0.1402  0.4558
 2652SOL    HW219419   2.384   1.605  11.733  0.6656 -0.8490  1.2194
 2653SOL     OW19420   2.198   2.491   4.638  0.4863  0.0815 -0.1854
 2653SOL    HW119421   2.119   2.443   4.613 -0.4503  0.4622  2.0964
 2653SOL    HW219422   2.201   2.473   4.732  0.0574 -1.1430 -0.4063
 2654SOL     OW19423   0.494   3.143  16.041  0.5785 -0.0695 -0.4611
 2654SOL    HW119424   0.499   3.050  16.061 -0.0501 -0.0827 -0.3729
 2654SOL    HW219425   0.403   3.146  16.010  0.1707 -1.5357  0.5682
 2655SOL     OW19426   2.111   3.840   5.334 -0.0983 -0.0609  0.3459
 2655SOL    HW119427   2.137   3.921   5.291  2.6369 -0.5127  1.1431
 2655SOL    HW219428   2.109   3.875   5.424 -0.1443 -3.2523  1.6018
 2656SOL     OW19429   1.229   4.523   9.324 -0.1797 -0.2627 -0.2486
 2656SOL    HW119430   1.320   4.496   9.331  0.0915  0.4063 -1.2284
 2656SOL    HW219431   1.197   4.488   9.407  0.9641 -0.6670  0.0236
 2657SOL     OW19432   2.853   1.231   1.875 -0.1369 -0.6420  0.0809
 2657SOL    HW119433   2.823   1.308   1.827  0.5342 -1.4793 -1.6904
 2657SOL    HW219434   2.784   1.165   1.872  1.1401 -2.0019  0.3123
 2658SOL     OW19435   2.706   1.524   5.196 -0.4656  0.1532  0.0183
 2658SOL    HW119436   2.738   1.515   5.285 -0.9286  1.0520  0.2715
 2658SOL    HW219437   2.786   1.506   5.146  1.3016  3.0742  1.7591
 2659SOL     OW19438   1.913   2.426   3.135 -0.5630  0.5910  0.1243
 2659SOL    HW119439   1.990   2.369   3.129 -0.3471  0.8760  0.2204
 2659SOL    HW219440   1.865   2.399   3.057  1.1188 -1.8181 -0.0879
 2660SOL     OW19441   3.413   4.029   4.422 -0.2215  0.6331  0.3336
 2660SOL    HW119442   3.473   4.000   4.353 -0.3092 -1.6722  1.2211
 2660SOL    HW219443   3.433   4.122   4.417  0.9405  0.3310 -0.6489
 2661SOL     OW19444   1.334   1.382   1.564  0.7410 -0.1398  0.0907
 2661SOL    HW119445   1.266   1.399   1.629  0.2978 -0.2170 -0.3468
 2661SOL    HW219446   1.287   1.412   1.486  0.0668 -1.0328  0.1565
 2662SOL     OW19447   0.571   1.077  15.122 -0.0088  0.2437  0.1050
 2662SOL    HW119448   0.485   1.089  15.082  0.5833  0.2519 -1.1632
 2662SOL    HW219449   0.600   1.163  15.155  1.1745  0.4984 -1.5765
 2663SOL     OW19450   1.604   0.068   3.270  0.3404 -0.0813  0.2338
 2663SOL    HW119451   1.511   0.092   3.277  0.3093 -0.6876  1.8037
 2663SOL    HW219452   1.612   0.005   3.341 -1.0142 -0.0635  0.4128
 2664SOL     OW19453   1.709   1.113   1.205  0.2787 -0.4490 -0.0793
 2664SOL    HW119454   1.641   1.152   1.261  3.1392  0.1937  2.9274
 2664SOL    HW219455   1.655   1.038   1.179  2.5475 -1.4000 -1.9999
 2665SOL     OW19456   1.027   2.937   5.212 -0.2918 -0.2540 -0.6516
 2665SOL    HW119457   1.114   2.958   5.246 -0.8027  1.2228 -0.2768
 2665SOL    HW219458   1.004   3.026   5.187 -1.3275  0.3223  2.4290
 2666SOL     OW19459   0.258   2.220   5.450  0.0556  0.1045 -0.1182
 2666SOL    HW119460   0.183   2.190   5.501 -0.5480  1.2192 -0.3526
 2666SOL    HW219461   0.328   2.239   5.513  0.7368 -3.9734  0.3509
 2667SOL     OW19462   3.410   2.050   5.038  0.0984  0.1951 -0.1583
 2667SOL    HW119463   3.356   2.038   5.117 -0.0294 -0.0794 -0.2865
 2667SOL    HW219464   3.496   2.053   5.080  0.4859 -1.3303 -0.8264
 2668SOL     OW19465   1.617   1.044   9.019  0.1392 -0.3249 -0.4863
 2668SOL    HW119466   1.583   1.091   9.095  0.9138  0.9799 -0.9581
 2668SOL    HW219467   1.572   0.959   9.022  1.9999 -1.2961  0.2493
 2669SOL     OW19468   1.238   4.688   7.109 -0.0682 -0.1418 -0.4366
 2669SOL    HW119469   1.206   4.670   7.021 -1.5191  0.2058  0.0202
 2669SOL    HW219470   1.256   4.602   7.148 -3.9128  0.2474  2.2192
 2670SOL     OW19471   0.245   1.209   6.325  0.1067  0.4551  0.2207
 2670SOL    HW119472   0.180   1.167   6.382  2.1132  0.1585  2.2830
 2670SOL    HW219473   0.292   1.261   6.390  0.5040  0.1624  0.1687
 2671SOL     OW19474   2.303   3.065   7.471  0.4089  0.2992 -0.4007
 2671SOL    HW119475   2.369   3.000   7.446  0.4543  0.0572  0.3548
 2671SOL    HW219476   2.261   3.096   7.391  0.0838  0.3989 -0.1928
 2672SOL     OW19477   2.557   1.494   3.604 -0.4722  0.0207  0.1732
 2672SOL    HW119478   2.567   1.567   3.544 -1.9590  1.0871  1.2163
 2672SOL    HW219479   2.581   1.532   3.688  0.8087 -2.0599  0.7488
 2673SOL     OW19480   1.290   1.012   4.237 -0.5307  0.1293  0.2062
 2673SOL    HW119481   1.382   0.998   4.213  0.0503  0.3293  2.3400
 2673SOL    HW219482   1.285   1.106   4.255 -0.7452  0.1953 -0.1963
 2674SOL     OW19483   4.571   1.510  16.392 -0.2749 -0.4340 -0.0417
 2674SOL    HW119484   4.572   1.423  16.432 -0.7880 -0.7289 -0.6704
 2674SOL    HW219485   4.480   1.534  16.409 -1.1854 -2.5178 -1.8890
 2675SOL     OW19486   2.585   1.408   2.365 -0.2972 -0.6447 -0.1374
 2675SOL    HW119487   2.552   1.456   2.289  0.7167 -0.0596 -0.2042
 2675SOL    HW219488   2.676   1.438   2.369 -0.1764 -0.8305 -1.4240
 2676SOL     OW19489   3.669   2.046  14.137 -0.3987 -0.2949  0.5828
 2676SOL    HW119490   3.610   1.981  14.098 -0.8608  0.5990 -0.1837
 2676SOL    HW219491   3.638   2.056  14.227 -0.8861 -0.3848  0.4274
 2677SOL     OW19492   3.951   4.040  16.339 -0.1256 -0.4989 -0.0339
 2677SOL    HW119493   3.889   4.021  16.408 -0.4480  2.8210  0.5718
 2677SOL    HW219494   3.892   4.022  16.265  1.1568 -2.9889 -0.4843
 2678SOL     OW19495   1.367   1.634   3.989 -0.9346 -0.2598 -0.6536
 2678SOL    HW119496   1.443   1.643   4.048 -2.0704  1.3058  0.5807
 2678SOL    HW219497   1.411   1.612   3.907 -1.5743 -1.2246 -0.7356
 2679SOL     OW19498   3.011   0.938   2.062  0.3190  0.3390 -0.2221
 2679SOL    HW119499   3.030   0.846   2.080  2.8535  1.1732  1.4489
 2679SOL    HW219500   2.960   0.934   1.981  0.4828 -0.2903 -0.2953
 2680SOL     OW19501   3.910   4.677   1.087  0.0111  0.6564 -0.4181
 2680SOL    HW119502   3.895   0.045   1.110 -3.1561  0.3780 -1.3774
 2680SOL    HW219503   3.909   4.638   1.175 -2.0684 -0.0659 -0.7761
 2681SOL     OW19504   4.678   2.048   6.616  1.1097 -0.8623  0.0789
 2681SOL    HW119505   4.683   2.142   6.604 -4.8277 -0.2909  2.1041
 2681SOL    HW219506   4.607   2.047   6.681 -0.8079  2.5083 -1.9557
 2682SOL     OW19507   0.086   1.453  13.265 -0.4712  0.5036 -0.4376
 2682SOL    HW119508   4.721   1.417  13.254 -0.8506  0.8185  1.4368
 2682SOL    HW219509   0.087   1.507  13.186  1.2408  0.8373 -0.1869
 2683SOL     OW19510   0.436   3.642   3.971 -0.3033 -0.2138  0.0186
 2683SOL    HW119511   0.377   3.709   4.005 -1.7326 -1.0400 -0.8221
 2683SOL    HW219512   0.471   3.689   3.895 -4.3526  1.4689 -0.7620
 2684SOL     OW19513   3.998   0.060   4.560 -0.1886 -0.7811 -0.0948
 2684SOL    HW119514   3.949   4.705   4.539  0.1903 -0.8281 -0.8183
 2684SOL    HW219515   3.940   0.129   4.528  0.6383  0.3459  0.8295
 2685SOL     OW19516   3.639   1.738   8.050 -0.5011 -0.0489 -0.7867
 2685SOL    HW119517   3.575   1.668   8.036 -0.3720 -0.5505  1.1384
 2685SOL    HW219518   3.644   1.749   8.145  2.3574 -0.4565 -0.8828
 2686SOL     OW19519   0.472   3.428   0.448  0.0441  0.1461 -0.1757
 2686SOL    HW119520   0.510   3.501   0.398  1.0206 -0.3897 -0.2182
 2686SOL    HW219521   0.521   3.443   0.528 -0.3628 -1.3321  0.3514
 2687SOL     OW19522   4.252   1.914   6.970  0.0015 -0.5982  0.0395
 2687SOL    HW119523   4.211   1.993   6.934  1.5312  1.8198  3.5712
 2687SOL    HW219524   4.249   1.948   7.060 -1.4431 -0.0481 -0.2188
 2688SOL     OW19525   4.395   0.804   6.281 -0.2464  0.3994  0.6172
 2688SOL    HW119526   4.441   0.767   6.355  1.1913  1.7046  0.3709
 2688SOL    HW219527   4.314   0.826   6.328 -1.9449 -0.7021 -1.7793
 2689SOL     OW19528   2.666   0.825   5.941 -0.6626 -0.2261  0.3093
 2689SOL    HW119529   2.738   0.813   5.878 -0.8109 -0.2926  0.1516
 2689SOL    HW219530   2.599   0.853   5.878 -0.3076 -0.2935 -0.0946
 2690SOL     OW19531   0.269   2.844   5.035 -0.5193 -0.4612 -0.4486
 2690SOL    HW119532   0.331   2.906   4.998 -0.2149  0.6522  1.9071
 2690SOL    HW219533   0.324   2.766   5.045  0.2064 -0.0017 -0.9219
 2691SOL     OW19534   1.188   3.752   9.597  0.4292  0.0142 -0.1942
 2691SOL    HW119535   1.244   3.722   9.669  1.4983 -1.3085 -1.5948
 2691SOL    HW219536   1.112   3.774   9.650  0.6421 -2.0154  0.9224
 2692SOL     OW19537   1.041   3.659   0.570 -0.4400  0.0009  0.9710
 2692SOL    HW119538   1.068   3.733   0.624 -0.7049  2.1171 -1.7449
 2692SOL    HW219539   1.128   3.655   0.530  0.2474 -1.0340  2.5743
 2693SOL     OW19540   4.680   3.052   6.537  0.6776  0.0803  0.0637
 2693SOL    HW119541   4.595   3.091   6.555  1.8786  2.5385  0.4325
 2693SOL    HW219542   4.693   3.066   6.443  0.3574 -1.3672 -0.1940
 2694SOL     OW19543   3.033   2.559   4.210  0.8760  0.5639  0.2009
 2694SOL    HW119544   3.085   2.633   4.242 -0.5293  1.9273 -0.6569
 2694SOL    HW219545   2.951   2.602   4.185  1.5175  0.4571 -2.0616
 2695SOL     OW19546   0.381   1.192   5.349 -0.0249  0.1396 -0.1766
 2695SOL    HW119547   0.335   1.110   5.330  0.5600  0.3244 -2.4940
 2695SOL    HW219548   0.334   1.216   5.429  0.9402  2.7609 -0.3741
 2696SOL     OW19549   1.239   4.191   9.708 -0.0809 -0.5635 -0.2192
 2696SOL    HW119550   1.196   4.176   9.624 -0.5756  0.0656 -0.0824
 2696SOL    HW219551   1.316   4.134   9.697  0.4723 -0.1257  1.3633
 2697SOL     OW19552   4.379   0.708   4.582 -0.3960 -0.1114  0.2950
 2697SOL    HW119553   4.385   0.678   4.491  0.0295  0.7360  0.0489
 2697SOL    HW219554   4.391   0.625   4.629  1.6820  1.7987  3.1436
 2698SOL     OW19555   2.382   2.125   8.767  0.7079  0.5370 -0.2975
 2698SOL    HW119556   2.456   2.136   8.826  0.6345 -0.6745  0.0067
 2698SOL    HW219557   2.346   2.041   8.794 -0.2619  1.9210  2.7547
 2699SOL     OW19558   4.183   2.271  16.907  0.1722  0.2326 -0.9343
 2699SOL    HW119559   4.128   2.198  16.935  0.0616  0.5790 -0.2490
 2699SOL    HW219560   4.264   2.228  16.877  0.3660  0.3896 -0.6396
 2700SOL     OW19561   0.509   3.215   7.550 -0.4417 -0.8239  0.5858
 2700SOL    HW119562   0.474   3.126   7.556  0.3948 -1.1954 -0.0328
 2700SOL    HW219563   0.459   3.254   7.622 -1.8972 -0.1976 -0.7580
 2701SOL     OW19564   3.302   3.806   4.241  0.1145 -0.1012 -0.0677
 2701SOL    HW119565   3.217   3.765   4.231  0.2818 -0.8123  1.3551
 2701SOL    HW219566   3.276   3.896   4.219 -1.0718  0.0429  1.8905
 2702SOL     OW19567   3.702   0.749   1.886 -0.1098  0.0344  0.4629
 2702SOL    HW119568   3.703   0.686   1.958 -1.2282 -2.5433 -1.7841
 2702SOL    HW219569   3.765   0.814   1.917  0.6244 -0.1907 -0.5841
 2703SOL     OW19570   1.721   3.543  11.288 -0.0218  0.2890  0.1822
 2703SOL    HW119571   1.728   3.510  11.198  0.7832  0.0909  0.3190
 2703SOL    HW219572   1.701   3.465  11.340 -0.2797  0.1492 -0.1256
 2704SOL     OW19573   1.393   4.214   8.603  0.1581  0.5070 -0.6177
 2704SOL    HW119574   1.486   4.193   8.607  0.1503  0.6517  0.5033
 2704SOL    HW219575   1.395   4.254   8.517  1.3730  3.4929  0.7994
 2705SOL     OW19576   4.387   1.195   2.400  0.2316  0.1798  0.0124
 2705SOL    HW119577   4.399   1.255   2.326  0.3131 -0.1324 -0.2255
 2705SOL    HW219578   4.472   1.156   2.422  0.3254 -1.3604 -3.0737
 2706SOL     OW19579   0.172   4.322   8.576  0.1632 -0.1011  0.1801
 2706SOL    HW119580   0.119   4.291   8.503  0.9893 -1.7937  0.2879
 2706SOL    HW219581   0.105   4.365   8.629  1.1715  2.6968 -0.8422
 2707SOL     OW19582   1.274   2.031   7.390 -0.6048  0.2184  0.0109
 2707SOL    HW119583   1.242   2.111   7.432 -0.9755 -0.3684  0.8498
 2707SOL    HW219584   1.298   2.056   7.301  1.0706  2.7956  1.1758
 2708SOL     OW19585   2.190   3.877   0.915 -0.1084 -0.7706 -0.4738
 2708SOL    HW119586   2.270   3.928   0.921 -0.3136 -0.2524 -1.9468
 2708SOL    HW219587   2.205   3.823   0.837  0.0866  1.2028 -1.8063
 2709SOL     OW19588   0.940   3.714   1.744 -0.2967 -0.0809  0.1476
 2709SOL    HW119589   0.931   3.809   1.733 -0.4439 -0.1722 -0.5460
 2709SOL    HW219590   0.951   3.707   1.839 -1.4436 -0.1035  0.2863
 2710SOL     OW19591   1.107   1.625  12.792 -0.2186 -0.7064 -0.1007
 2710SOL    HW119592   1.052   1.693  12.833 -1.9350 -2.5929  0.7033
 2710SOL    HW219593   1.140   1.582  12.871  2.8822 -0.4647 -1.2754
 2711SOL     OW19594   1.700   2.248   6.677  0.3393  0.0999  0.1768
 2711SOL    HW119595   1.622   2.196   6.696  0.1777  1.3920  3.0605
 2711SOL    HW219596   1.766   2.180   6.691 -2.1357 -2.2072  0.6127
 2712SOL     OW19597   1.786   4.712   1.611  0.3367  0.4459  0.0457
 2712SOL    HW119598   1.801   4.687   1.520 -3.3974  1.7105 -0.9349
 2712SOL    HW219599   1.842   0.066   1.620  0.8110  0.2589 -1.4647
 2713SOL     OW19600   1.221   1.069  12.174  0.1143  0.2287  0.2181
 2713SOL    HW119601   1.143   1.018  12.153  1.5077 -0.9619 -2.1718
 2713SOL    HW219602   1.190   1.158  12.157  2.1625  0.7135 -1.0715
 2714SOL     OW19603   3.944   0.720   7.583 -0.0888  0.2083  0.5835
 2714SOL    HW119604   3.871   0.658   7.582  2.0584 -2.3613  1.3087
 2714SOL    HW219605   3.951   0.750   7.493 -3.5856  1.3577  0.7255
 2715SOL     OW19606   0.575   2.099   7.835  0.0821  0.3741  0.2777
 2715SOL    HW119607   0.657   2.125   7.877  0.4249  0.8821 -0.7223
 2715SOL    HW219608   0.527   2.077   7.915  0.8705  0.0921  0.6856
 2716SOL     OW19609   0.300   0.428   0.586 -0.3744  0.1905 -0.8047
 2716SOL    HW119610   0.216   0.403   0.547  0.1301 -3.6153  0.5789
 2716SOL    HW219611   0.270   0.438   0.676  2.0053  0.4116 -0.0196
 2717SOL     OW19612   3.353   0.396   7.826 -0.4091 -0.1281 -0.2367
 2717SOL    HW119613   3.410   0.349   7.887 -0.7904  1.4384  1.3342
 2717SOL    HW219614   3.274   0.346   7.844 -0.3260 -0.4034 -0.6175
 2718SOL     OW19615   0.078   1.929  12.641 -0.0547 -0.9260 -0.3892
 2718SOL    HW119616   0.039   1.959  12.723  3.8935  1.2176  0.6848
 2718SOL    HW219617   0.162   1.973  12.634 -0.6362  0.1754 -0.3541
 2719SOL     OW19618   3.609   0.359   8.742 -0.0631  0.3817 -0.4540
 2719SOL    HW119619   3.657   0.338   8.661 -2.7724  0.9229 -2.2211
 2719SOL    HW219620   3.589   0.450   8.719 -0.0725  0.4411 -0.2082
 2720SOL     OW19621   2.214   1.589   6.410 -0.1855 -0.0699 -0.4698
 2720SOL    HW119622   2.246   1.635   6.488 -2.2971 -0.1917  0.4790
 2720SOL    HW219623   2.224   1.498   6.435  0.6879 -0.0995 -0.9470
 2721SOL     OW19624   4.530   1.748   5.684 -0.5156 -0.3917 -0.1690
 2721SOL    HW119625   4.609   1.792   5.715 -2.3481  2.7856 -0.0608
 2721SOL    HW219626   4.459   1.801   5.722 -2.1851 -1.7119 -1.4511
 2722SOL     OW19627   0.325   0.162   3.122  0.0788  0.3358  0.1683
 2722SOL    HW119628   0.385   0.237   3.126 -2.1319  2.0376  1.0456
 2722SOL    HW219629   0.255   0.192   3.180 -0.4311 -0.6959  0.0671
 2723SOL     OW19630   3.396   2.547   7.453  0.3879 -0.2883 -0.5434
 2723SOL    HW119631   3.409   2.593   7.370  0.3647 -0.8678 -0.8715
 2723SOL    HW219632   3.391   2.616   7.518 -0.9474 -0.7380 -0.1749
 2724SOL     OW19633   1.191   1.976   9.559  0.1911 -0.2656 -0.0662
 2724SOL    HW119634   1.212   2.068   9.572 -1.7248  0.4559 -2.1096
 2724SOL    HW219635   1.096   1.968   9.563  0.0904  1.2823  0.6911
 2725SOL     OW19636   0.870   1.870   5.104 -0.4612  0.6761 -0.5537
 2725SOL    HW119637   0.865   1.775   5.118 -0.1112  0.2674 -3.0898
 2725SOL    HW219638   0.915   1.873   5.019 -2.5131 -0.4195 -1.6715
 2726SOL     OW19639   4.056   4.579  16.525 -0.0727 -0.1417  0.2505
 2726SOL    HW119640   4.026   4.604  16.437 -0.6017 -1.1714  0.1408
 2726SOL    HW219641   4.090   4.491  16.509  0.7544  0.2096  0.0601
 2727SOL     OW19642   2.379   3.586   1.866 -0.4617  1.4343  0.3915
 2727SOL    HW119643   2.320   3.523   1.908  0.3979  0.5858  0.3240
 2727SOL    HW219644   2.459   3.559   1.910  0.9437  0.8685 -2.5118
 2728SOL     OW19645   1.805   1.252   9.385 -0.3805 -0.2840  0.2250
 2728SOL    HW119646   1.877   1.190   9.370 -0.4093 -0.2538 -0.0379
 2728SOL    HW219647   1.814   1.260   9.480 -0.6548  0.6960  0.1689
 2729SOL     OW19648   1.837   3.603   3.132 -0.6911 -0.3317  0.2868
 2729SOL    HW119649   1.858   3.520   3.089  1.6017 -1.7304  4.0976
 2729SOL    HW219650   1.754   3.624   3.089 -0.5926 -0.3039  0.1071
 2730SOL     OW19651   0.460   2.881  11.795 -0.4318 -0.3454 -0.8162
 2730SOL    HW119652   0.451   2.785  11.793  0.9724 -0.5219  1.9788
 2730SOL    HW219653   0.402   2.893  11.870  0.0771  0.9390 -0.6395
 2731SOL     OW19654   4.070   1.845   6.199 -0.1760  0.3552 -0.1131
 2731SOL    HW119655   4.149   1.824   6.150 -0.1469 -0.3341  0.2274
 2731SOL    HW219656   4.106   1.921   6.245  0.7590 -0.2240  0.0972
 2732SOL     OW19657   2.311   4.025   5.223 -0.1891 -0.0066  0.4543
 2732SOL    HW119658   2.395   3.980   5.224  0.6277  1.5034  0.2565
 2732SOL    HW219659   2.293   4.023   5.129  0.8300  0.5921  0.2373
 2733SOL     OW19660   0.606   1.491   8.021 -0.0581 -0.1558  0.5231
 2733SOL    HW119661   0.673   1.518   8.084 -0.2507  1.1168  0.1657
 2733SOL    HW219662   0.594   1.575   7.977 -2.0133  0.3717  2.0456
 2734SOL     OW19663   1.736   0.102   2.960  0.1127 -0.0010  0.3136
 2734SOL    HW119664   1.662   0.145   2.918 -0.0085 -0.0610  0.4666
 2734SOL    HW219665   1.700   0.045   3.028 -0.4068  0.2695  0.2683
 2735SOL     OW19666   0.450   4.692   8.655  0.2196  0.0554  0.1682
 2735SOL    HW119667   0.499   4.643   8.722  1.1820  1.3776  0.4110
 2735SOL    HW219668   0.395   0.027   8.708 -1.3829 -1.3365  0.0652
 2736SOL     OW19669   3.213   2.339   5.110  0.5476  0.1106  0.0086
 2736SOL    HW119670   3.145   2.371   5.051 -1.2212 -1.3409  1.2554
 2736SOL    HW219671   3.288   2.347   5.051  1.1902  0.7148  0.9007
 2737SOL     OW19672   1.342   1.371   6.616  0.1855  0.5247  0.3381
 2737SOL    HW119673   1.269   1.334   6.567  0.7861  1.9700 -1.6693
 2737SOL    HW219674   1.372   1.428   6.545 -0.0360 -1.8988 -1.6714
 2738SOL     OW19675   1.818   2.877   4.853 -0.4692  0.0243  0.7496
 2738SOL    HW119676   1.809   2.821   4.931  2.5993  0.1790  1.1883
 2738SOL    HW219677   1.736   2.926   4.864 -0.9776 -0.4605 -0.7557
 2739SOL     OW19678   0.019   0.629   6.640 -0.1681 -0.3241 -0.4079
 2739SOL    HW119679   0.083   0.644   6.710  0.9906 -0.5801 -1.4235
 2739SOL    HW219680   0.070   0.600   6.564  0.0458  1.5724 -0.9706
 2740SOL     OW19681   2.884   2.868   2.360 -0.9733 -0.2074  0.0021
 2740SOL    HW119682   2.864   2.806   2.290  1.5467  0.5230 -1.3870
 2740SOL    HW219683   2.967   2.904   2.327 -0.2430 -1.9098 -0.0053
 2741SOL     OW19684   3.403   0.927  12.470 -0.1606 -0.2712  0.1226
 2741SOL    HW119685   3.399   0.996  12.536  2.3367  1.0112 -1.0954
 2741SOL    HW219686   3.334   0.869  12.502 -0.7315  0.7947  0.8332
 2742SOL     OW19687   4.085   3.034   6.721 -0.1046  0.2317  0.0519
 2742SOL    HW119688   4.117   2.975   6.654 -0.9700 -0.3522  0.1629
 2742SOL    HW219689   3.996   3.049   6.690  0.9487  1.3989 -2.4243
 2743SOL     OW19690   2.272   3.193   5.410 -0.3690  0.0583  0.1035
 2743SOL    HW119691   2.362   3.227   5.415 -0.9629  1.7177 -0.2255
 2743SOL    HW219692   2.262   3.145   5.328 -1.8364  3.2633 -1.5847
 2744SOL     OW19693   0.027   1.418   7.797  0.7518  0.1129  0.3786
 2744SOL    HW119694   0.011   1.511   7.780 -3.2801 -0.6501 -0.1348
 2744SOL    HW219695   0.093   1.403   7.729  0.7575  1.1119  0.1642
 2745SOL     OW19696   0.508   0.030   2.844 -0.0158  0.6961  0.4041
 2745SOL    HW119697   0.478   4.666   2.817  0.5870  0.8412 -0.7237
 2745SOL    HW219698   0.543   0.004   2.930 -0.1946 -0.0923  0.2381
 2746SOL     OW19699   2.739   2.879   7.621  0.3591  0.3138 -0.4132
 2746SOL    HW119700   2.816   2.828   7.598  1.0163  0.6593  1.0020
 2746SOL    HW219701   2.756   2.903   7.712 -0.1318 -1.1180  0.0570
 2747SOL     OW19702   0.256   0.654   5.341 -0.2584  0.0449 -0.8563
 2747SOL    HW119703   0.322   0.670   5.273 -0.2410 -1.0433 -1.0959
 2747SOL    HW219704   0.211   0.581   5.299 -0.3143 -2.1989  3.1897
 2748SOL     OW19705   4.546   0.414   4.705  0.3211  0.1635  0.2978
 2748SOL    HW119706   4.528   0.449   4.618  0.5156 -1.3350 -0.3416
 2748SOL    HW219707   4.515   0.488   4.757  0.4821  0.6047 -0.2350
 2749SOL     OW19708   1.629   1.717  14.348 -0.2017  0.4040  0.3613
 2749SOL    HW119709   1.687   1.675  14.285 -1.0333 -2.2092  1.3499
 2749SOL    HW219710   1.543   1.701  14.311 -1.1331  0.8566  2.3042
 2750SOL     OW19711   2.661   3.584  11.657 -0.5200  0.1611 -0.5886
 2750SOL    HW119712   2.734   3.557  11.601 -0.8536 -2.0324  0.0595
 2750SOL    HW219713   2.674   3.545  11.743 -1.9903 -0.8162 -0.8040
 2751SOL     OW19714   2.850   1.539   2.414  0.6311  0.0507  0.2598
 2751SOL    HW119715   2.926   1.547   2.356  1.0758 -3.1919  0.4148
 2751SOL    HW219716   2.866   1.451   2.447 -0.6177 -0.2348  0.1011
 2752SOL     OW19717   0.173   1.545   3.469 -0.1726 -0.4098 -0.6736
 2752SOL    HW119718   0.126   1.626   3.449  2.1463  0.9630 -0.6254
 2752SOL    HW219719   0.141   1.482   3.405  1.1355 -2.3479  0.5910
 2753SOL     OW19720   0.105   0.744  14.751  0.7804 -0.4178 -0.2994
 2753SOL    HW119721   0.173   0.769  14.815 -0.3528 -0.9519  1.1237
 2753SOL    HW219722   0.035   0.704  14.803 -0.0055 -0.1935 -1.1931
 2754SOL     OW19723   3.085   1.187   5.418 -0.8800  0.0475  0.0117
 2754SOL    HW119724   3.095   1.172   5.324 -1.3656 -2.6884  0.4006
 2754SOL    HW219725   3.128   1.272   5.424 -2.3781  0.7881  0.2062
 2755SOL     OW19726   3.465   2.733   1.254  0.1654  0.0001  0.0650
 2755SOL    HW119727   3.409   2.711   1.329  0.4870 -0.8448  0.0661
 2755SOL    HW219728   3.450   2.827   1.243  0.4345  0.0278 -0.0619
 2756SOL     OW19729   0.362   2.446   7.335 -0.2287  0.8679 -0.3886
 2756SOL    HW119730   0.303   2.509   7.377  1.9614  0.7061  2.9559
 2756SOL    HW219731   0.355   2.454   7.240 -0.5838 -0.5116 -0.4785
 2757SOL     OW19732   2.306   0.227   5.327  0.0907 -0.3164  0.3113
 2757SOL    HW119733   2.321   0.262   5.415  0.0996  0.2718  0.0692
 2757SOL    HW219734   2.245   0.155   5.346 -0.0953 -0.2066  0.1266
 2758SOL     OW19735   1.466   1.497   7.580 -0.8598  0.7429  0.4849
 2758SOL    HW119736   1.460   1.547   7.661  1.1484 -0.0962  1.1647
 2758SOL    HW219737   1.374   1.475   7.563 -0.2073 -1.2635 -0.5355
 2759SOL     OW19738   1.001   3.013   2.617 -0.1745  0.1181  0.5082
 2759SOL    HW119739   0.933   2.965   2.665 -0.8128 -0.7642 -1.2852
 2759SOL    HW219740   1.078   2.968   2.653  0.3467 -0.0734 -0.8543
 2760SOL     OW19741   3.996   1.967   2.906  0.1255  0.3242  0.7548
 2760SOL    HW119742   3.946   2.006   2.835 -0.2122 -1.4168  0.0291
 2760SOL    HW219743   3.943   1.993   2.982 -0.3559  0.7346  0.2734
 2761SOL     OW19744   4.527   1.971   7.864  0.0913  0.3149 -0.3657
 2761SOL    HW119745   4.475   2.034   7.813 -2.8115 -1.3436  0.5745
 2761SOL    HW219746   4.615   1.996   7.835 -0.4235  2.9640  0.3690
 2762SOL     OW19747   2.433   0.164  15.841 -0.7216  0.5173  0.2668
 2762SOL    HW119748   2.387   0.248  15.844 -2.4556 -0.3057 -2.9454
 2762SOL    HW219749   2.463   0.170  15.932  4.1813  0.5553 -1.3625
 2763SOL     OW19750   4.683   0.131   7.700  0.0374  0.4059  1.0258
 2763SOL    HW119751   4.662   0.048   7.743 -1.3559 -0.0066 -0.4538
 2763SOL    HW219752   4.594   0.155   7.675  1.4077  2.3221 -1.9853
 2764SOL     OW19753   3.719   0.042   8.947  0.0727  0.9107 -0.8175
 2764SOL    HW119754   3.674   0.015   9.028  0.1481  1.6036 -0.5446
 2764SOL    HW219755   3.809   0.013   8.958 -0.2404  0.4289  0.6200
 2765SOL     OW19756   1.283   1.161   3.101  0.2067 -0.4692 -0.5452
 2765SOL    HW119757   1.228   1.224   3.053  0.0442 -0.0613  0.1829
 2765SOL    HW219758   1.357   1.216   3.127  0.0439 -0.0152 -1.0442
 2766SOL     OW19759   4.543   3.891   5.465 -0.4869 -0.0243 -0.1795
 2766SOL    HW119760   4.638   3.884   5.456 -0.2834  1.0617  1.1510
 2766SOL    HW219761   4.523   3.797   5.468 -0.0064 -0.1732 -1.5409
 2767SOL     OW19762   1.408   1.303   0.045  0.5130 -0.0507 -0.2933
 2767SOL    HW119763   1.412   1.221  17.690  0.8544 -1.4403  1.9880
 2767SOL    HW219764   1.479   1.351   0.003  1.1735 -0.2946  0.5361
 2768SOL     OW19765   0.759   0.159  16.115  0.5104 -0.0003 -0.0527
 2768SOL    HW119766   0.782   0.112  16.195 -0.1499 -0.5302 -0.1783
 2768SOL    HW219767   0.847   0.190  16.094  0.7622  1.4066  3.1580
 2769SOL     OW19768   3.647   2.832  15.590 -0.1532 -0.1913  0.1478
 2769SOL    HW119769   3.731   2.867  15.562  0.1700  0.1026  1.4893
 2769SOL    HW219770   3.635   2.762  15.526 -2.6780  1.3904 -1.1352
 2770SOL     OW19771   3.096   0.778   8.532  0.1250  0.3070 -0.0101
 2770SOL    HW119772   3.183   0.812   8.553 -0.0026  0.5498  0.1122
 2770SOL    HW219773   3.137   0.702   8.490  1.8763  1.7908 -0.9599
 2771SOL     OW19774   1.941   1.231   7.767  0.1385  0.2127 -0.4409
 2771SOL    HW119775   1.929   1.225   7.861  1.5851  3.9337 -0.0022
 2771SOL    HW219776   1.977   1.144   7.751 -2.4249 -0.6571 -1.3137
 2772SOL     OW19777   1.312   3.988   8.741  0.2355  0.3791  0.3836
 2772SOL    HW119778   1.221   3.981   8.712 -0.4405 -2.1705  3.0863
 2772SOL    HW219779   1.341   4.073   8.707 -0.0200  1.2530  2.3237
 2773SOL     OW19780   4.553   1.160   6.869  0.0969  0.2230  0.1631
 2773SOL    HW119781   4.520   1.188   6.955  0.0605  0.5227  0.0525
 2773SOL    HW219782   4.594   1.075   6.880  1.0277  0.6990  0.3728
 2774SOL     OW19783   0.087   1.006   2.824 -0.0169 -0.1564  0.3277
 2774SOL    HW119784   0.099   1.062   2.747 -3.1489 -0.9551 -0.7721
 2774SOL    HW219785   4.718   1.022   2.846 -0.5610  1.9337 -3.4356
 2775SOL     OW19786   0.061   1.007  14.367 -0.2763 -0.4723 -0.0968
 2775SOL    HW119787   0.050   0.945  14.295  0.6647 -1.2502  0.4226
 2775SOL    HW219788   0.016   0.973  14.444  0.5979  0.6048  0.8805
 2776SOL     OW19789   1.314   2.996   4.836  0.1929  0.6247  0.2234
 2776SOL    HW119790   1.226   3.003   4.875  0.4002 -0.3282  0.8706
 2776SOL    HW219791   1.333   2.902   4.841 -0.7705  0.4322  0.3775
 2777SOL     OW19792   3.954   1.940   7.406 -0.3368  0.2970  0.3274
 2777SOL    HW119793   3.921   1.894   7.483 -0.4856 -0.2665 -0.0686
 2777SOL    HW219794   3.923   1.880   7.337 -0.4719 -0.8189  1.3544
 2778SOL     OW19795   1.160   3.011   6.111  0.4888 -0.4402 -0.1187
 2778SOL    HW119796   1.187   2.978   6.196  4.0216  0.8488 -0.7230
 2778SOL    HW219797   1.096   2.948   6.079 -1.0584  1.3539 -0.5791
 2779SOL     OW19798   4.099   1.896   2.616 -0.0603  0.0848 -0.7177
 2779SOL    HW119799   4.125   1.811   2.651 -0.0829  0.1105 -0.6370
 2779SOL    HW219800   4.009   1.884   2.585  0.0426  1.6484 -1.6275
 2780SOL     OW19801   1.004   0.692   9.644  0.7651  0.1095 -0.1916
 2780SOL    HW119802   1.080   0.734   9.685 -0.1185  2.0495 -0.5165
 2780SOL    HW219803   0.970   0.763   9.588  1.6278 -1.3971 -2.6498
 2781SOL     OW19804   1.660   2.189   9.987 -0.2317 -0.3410 -0.4826
 2781SOL    HW119805   1.581   2.199   9.934 -1.6813  0.2579  1.7850
 2781SOL    HW219806   1.705   2.271   9.965  0.9260 -0.8948 -0.1886
 2782SOL     OW19807   0.160   4.398   5.650 -0.6773  0.0063 -0.4945
 2782SOL    HW119808   0.164   4.384   5.744 -1.3457  0.8768 -0.3489
 2782SOL    HW219809   0.068   4.399   5.625 -0.4002 -3.2551 -1.7441
 2783SOL     OW19810   2.978   4.407   7.598  0.1520 -0.2300 -0.5737
 2783SOL    HW119811   2.922   4.405   7.676 -1.6533  2.0724 -1.8114
 2783SOL    HW219812   3.050   4.465   7.623 -1.1430  0.0140  2.6469
 2784SOL     OW19813   3.001   4.671   2.505  0.1541 -0.5631 -0.1708
 2784SOL    HW119814   2.949   0.013   2.551  1.2258  0.5079 -0.4894
 2784SOL    HW219815   2.977   4.598   2.561  1.5382 -1.2706 -0.4982
 2785SOL     OW19816   2.391   2.544   7.202 -0.4896  0.1255 -0.3649
 2785SOL    HW119817   2.428   2.462   7.231  0.1064  0.9460  1.1608
 2785SOL    HW219818   2.427   2.610   7.262 -1.9361  1.1849 -0.6646
 2786SOL     OW19819   1.822   3.711   3.633 -0.1880  0.0695  0.3474
 2786SOL    HW119820   1.783   3.656   3.565 -1.0491 -0.7869  1.5334
 2786SOL    HW219821   1.912   3.677   3.632  0.3492  1.5746 -3.3839
 2787SOL     OW19822   4.336   3.429   4.656 -0.1769 -0.3160  0.6166
 2787SOL    HW119823   4.357   3.522   4.660  0.0439 -0.3662  0.6582
 2787SOL    HW219824   4.422   3.388   4.644 -0.5332  0.2025 -3.7858
 2788SOL     OW19825   4.367   1.670   0.486 -0.0272 -0.4674 -0.3756
 2788SOL    HW119826   4.439   1.608   0.484  0.4881  0.1147  0.3608
 2788SOL    HW219827   4.332   1.652   0.398  0.4262 -1.1142 -0.4249
 2789SOL     OW19828   0.988   1.312   8.283  0.4529  0.1740 -0.3716
 2789SOL    HW119829   0.950   1.400   8.276 -1.2025 -0.5664 -0.5769
 2789SOL    HW219830   1.075   1.322   8.322 -0.1229  1.6215  0.5574
 2790SOL     OW19831   2.956   2.892   6.148  0.4987 -0.4592  0.3728
 2790SOL    HW119832   2.888   2.943   6.192  0.6676  0.9353 -0.9987
 2790SOL    HW219833   3.011   2.877   6.225  0.5652  0.5145  0.5158
 2791SOL     OW19834   4.570   0.322   3.483  0.7207 -0.7033  0.3951
 2791SOL    HW119835   4.528   0.395   3.528  0.7761 -0.5413  0.1840
 2791SOL    HW219836   4.585   0.259   3.554 -0.6890 -0.4407  0.9278
 2792SOL     OW19837   2.692   3.320  12.733 -0.2020 -0.7309 -0.4398
 2792SOL    HW119838   2.717   3.309  12.641  0.6812 -2.3217 -0.0093
 2792SOL    HW219839   2.770   3.282  12.773  0.5786  0.2752 -0.9664
 2793SOL     OW19840   4.433   0.116  17.142 -0.1315  0.6060 -0.5565
 2793SOL    HW119841   4.371   0.187  17.122  1.3646  1.5982 -1.6343
 2793SOL    HW219842   4.406   0.050  17.079  1.1553  0.4375 -0.9272
 2794SOL     OW19843   2.774   3.612   8.561 -1.0162 -0.1054  0.2297
 2794SOL    HW119844   2.784   3.566   8.478  1.9974 -1.1259  1.1680
 2794SOL    HW219845   2.814   3.551   8.623 -1.7491 -2.1341 -1.2963
 2795SOL     OW19846   0.639   2.278   4.463 -0.4351  0.0588  0.3294
 2795SOL    HW119847   0.615   2.185   4.469 -0.4610  0.0431 -0.0283
 2795SOL    HW219848   0.730   2.266   4.435 -1.3554  2.8374 -3.7117
 2796SOL     OW19849   0.374   2.983   0.322  0.6310 -0.1050  0.0682
 2796SOL    HW119850   0.436   3.055   0.316 -1.6826  1.9183  0.3246
 2796SOL    HW219851   0.346   2.985   0.230 -1.0218  0.6537  0.5827
 2797SOL     OW19852   1.349   0.053   1.853  0.1426 -0.3859  0.1996
 2797SOL    HW119853   1.399   4.716   1.797  0.7497 -2.5587  3.1100
 2797SOL    HW219854   1.390   0.028   1.935  1.8089 -0.2908 -0.5824
 2798SOL     OW19855   1.319   2.475   8.613 -0.3418  0.0787 -0.0258
 2798SOL    HW119856   1.332   2.428   8.695 -3.1920 -0.8885 -0.1542
 2798SOL    HW219857   1.253   2.538   8.643  0.2825  0.3091  0.8621
 2799SOL     OW19858   2.036   1.823   6.987 -0.1420  0.0386  0.5313
 2799SOL    HW119859   2.070   1.872   7.062  2.5832  0.5288 -1.0113
 2799SOL    HW219860   2.111   1.809   6.929 -0.7548 -1.9087  0.2228
 2800SOL     OW19861   1.330   2.020   0.323 -0.0014 -0.1379  0.5998
 2800SOL    HW119862   1.337   1.934   0.364 -3.5045 -0.5498  0.3842
 2800SOL    HW219863   1.269   2.001   0.252 -0.0636 -0.8125  0.8282
 2801SOL     OW19864   1.666   4.449   7.554  0.1363  0.3175  0.3925
 2801SOL    HW119865   1.727   4.521   7.541 -0.1715  0.2578 -1.2936
 2801SOL    HW219866   1.725   4.377   7.577  1.4690  0.9101 -1.1706
 2802SOL     OW19867   2.843   4.510   6.255 -0.4534  0.2069 -0.4832
 2802SOL    HW119868   2.887   4.549   6.331  0.1779  1.8164 -1.6661
 2802SOL    HW219869   2.774   4.576   6.244 -1.1169 -0.2238  1.0925
 2803SOL     OW19870   3.277   2.994   6.241  0.1789  0.2496  0.2877
 2803SOL    HW119871   3.234   2.935   6.303  0.8416 -0.0568  0.4473
 2803SOL    HW219872   3.208   3.060   6.231  0.1678 -0.1269 -2.1664
 2804SOL     OW19873   2.391   0.967   9.932 -0.2977  0.3349  0.3558
 2804SOL    HW119874   2.298   0.969   9.910 -0.5402 -0.3432  1.2788
 2804SOL    HW219875   2.388   1.033  10.001 -1.1867  1.3430 -0.6587
 2805SOL     OW19876   0.478   0.026   4.106 -0.1922 -0.2194 -0.0155
 2805SOL    HW119877   0.564   0.057   4.077 -0.9177  1.0885 -0.7764
 2805SOL    HW219878   0.483   0.011   4.200 -0.0411 -1.1281 -0.1708
 2806SOL     OW19879   1.456   1.202   3.362 -0.2057 -0.1625 -0.4325
 2806SOL    HW119880   1.417   1.289   3.363  0.2998  0.0487  0.6121
 2806SOL    HW219881   1.384   1.139   3.364 -0.7267  0.5446  2.8817
 2807SOL     OW19882   4.237   4.330   0.738 -0.1622  0.0966  0.5418
 2807SOL    HW119883   4.244   4.426   0.742  0.2053  0.0481  1.2142
 2807SOL    HW219884   4.292   4.300   0.811 -0.5642 -0.8006  0.4704
 2808SOL     OW19885   3.155   4.190   4.387 -0.1106 -0.3295 -0.1424
 2808SOL    HW119886   3.238   4.237   4.386 -0.0548 -0.4608 -1.3091
 2808SOL    HW219887   3.151   4.164   4.479  2.1279  0.3318  0.1536
 2809SOL     OW19888   0.108   0.001   5.623  0.3791 -0.1457 -0.6687
 2809SOL    HW119889   0.128   0.082   5.576  1.2077  0.2866  0.4400
 2809SOL    HW219890   0.188   4.674   5.612  1.2344  0.8264  1.0537
 2810SOL     OW19891   2.915   3.097   6.846  0.5360  0.4953  0.0410
 2810SOL    HW119892   2.943   3.016   6.889 -0.7550  0.1085  0.1495
 2810SOL    HW219893   2.987   3.108   6.784  0.6442 -0.5554 -0.0143
 2811SOL     OW19894   1.547   2.545   4.411  0.1809  0.9983 -0.0163
 2811SOL    HW119895   1.612   2.593   4.360  2.9279  0.8090  3.3400
 2811SOL    HW219896   1.473   2.573   4.357  1.6757  2.1239 -1.5002
 2812SOL     OW19897   1.392   4.058  16.241  0.5453 -0.6726 -0.2436
 2812SOL    HW119898   1.356   4.140  16.205  1.8224 -0.6534 -1.4986
 2812SOL    HW219899   1.464   4.044  16.180 -1.4721  2.5009 -3.3696
 2813SOL     OW19900   0.380   1.577   0.740  0.0445 -0.0797  0.4422
 2813SOL    HW119901   0.326   1.569   0.819 -0.6293 -1.4040 -0.1643
 2813SOL    HW219902   0.326   1.627   0.680  0.2262  1.6312  1.6988
 2814SOL     OW19903   0.118   0.879  17.353  0.0406  0.2739 -0.3115
 2814SOL    HW119904   0.157   0.947  17.408 -1.2434  0.5630  0.2363
 2814SOL    HW219905   0.176   0.808  17.380 -2.2988 -1.0626  1.2638
 2815SOL     OW19906   2.878   2.716  17.203  0.3416  0.3512 -0.1582
 2815SOL    HW119907   2.833   2.780  17.260  3.5699  1.4051  1.2299
 2815SOL    HW219908   2.967   2.745  17.222  0.5276 -0.5048  0.2697
 2816SOL     OW19909   1.374   2.088   3.833 -0.2127 -0.1598 -0.1518
 2816SOL    HW119910   1.455   2.041   3.851  0.0390  0.3726  0.1055
 2816SOL    HW219911   1.410   2.173   3.806  0.1945 -0.0263  0.8215
 2817SOL     OW19912   1.364   1.654  15.856  0.0264  0.2021 -0.0025
 2817SOL    HW119913   1.278   1.661  15.816 -0.5887 -0.9670  1.1061
 2817SOL    HW219914   1.401   1.739  15.834  0.9977 -0.3237 -0.4347
 2818SOL     OW19915   1.883   0.885  15.345  0.1042  0.1955 -0.1978
 2818SOL    HW119916   1.860   0.905  15.436 -3.0236  0.7926 -1.1330
 2818SOL    HW219917   1.978   0.899  15.348  0.3962 -1.6704 -0.4440
 2819SOL     OW19918   0.829   0.830   9.074  0.1626 -0.4731 -0.0825
 2819SOL    HW119919   0.850   0.799   8.986 -0.0355  0.1529 -0.3477
 2819SOL    HW219920   0.901   0.789   9.122  0.6629  0.1390 -0.3120
 2820SOL     OW19921   1.773   0.027  10.455  0.0386 -0.0316  0.1127
 2820SOL    HW119922   1.836   0.071  10.511 -0.1275 -1.0584  1.0966
 2820SOL    HW219923   1.771   4.669  10.505 -1.3508  1.3908  2.3798
 2821SOL     OW19924   1.492   0.771  16.980  0.3155  0.0010 -0.4966
 2821SOL    HW119925   1.422   0.831  17.006 -0.4064 -0.7784 -0.6616
 2821SOL    HW219926   1.521   0.752  17.070 -0.6961 -0.4347 -0.2644
 2822SOL     OW19927   0.602   2.276   1.607  0.4437 -0.3421 -0.1629
 2822SOL    HW119928   0.640   2.233   1.531  0.5286 -1.1753  0.3480
 2822SOL    HW219929   0.576   2.211   1.673 -0.4462 -0.7962 -0.9616
 2823SOL     OW19930   0.957   0.616   8.256  0.5774 -0.0530  0.6714
 2823SOL    HW119931   1.048   0.643   8.242  0.1344  1.4021  0.6113
 2823SOL    HW219932   0.962   0.560   8.334 -1.6121  0.7103  1.3727
 2824SOL     OW19933   2.246   0.138  13.243  0.4553  0.0940  0.6643
 2824SOL    HW119934   2.245   0.096  13.329  2.0524  1.9589  1.6108
 2824SOL    HW219935   2.313   0.092  13.191  2.0103  2.9153  0.1600
 2825SOL     OW19936   3.217   1.988   9.922  0.3781  0.1420 -0.5489
 2825SOL    HW119937   3.231   2.061   9.862 -0.6110  0.6026 -0.2088
 2825SOL    HW219938   3.147   1.945   9.873  0.9866 -0.8023 -0.5834
 2826SOL     OW19939   0.703   3.548   4.875 -0.0527  0.3528  0.2699
 2826SOL    HW119940   0.759   3.472   4.858 -1.2226 -0.7929  1.5744
 2826SOL    HW219941   0.635   3.553   4.808 -1.1668 -0.2401  1.3528
 2827SOL     OW19942   2.483   4.224  12.867 -0.3909  0.0713  0.3323
 2827SOL    HW119943   2.538   4.216  12.946  0.3082 -1.9958 -0.3649
 2827SOL    HW219944   2.414   4.162  12.891 -0.1271 -0.3226  0.0611
 2828SOL     OW19945   4.251   4.717  11.148  0.1880  0.1325 -0.1207
 2828SOL    HW119946   4.207   4.661  11.212  1.7454  1.6647  2.3267
 2828SOL    HW219947   4.181   0.058  11.138 -1.2439 -1.5896 -1.1616
 2829SOL     OW19948   3.067   2.040   2.371  0.4919  0.5568  0.1403
 2829SOL    HW119949   3.115   1.957   2.373 -0.5236 -0.0098  1.0085
 2829SOL    HW219950   3.130   2.098   2.414 -0.4031  3.4307 -2.4357
 2830SOL     OW19951   1.121   4.391   9.549 -0.8003 -0.2686 -0.1072
 2830SOL    HW119952   1.169   4.317   9.512  0.9559 -0.2688  2.1540
 2830SOL    HW219953   1.173   4.411   9.627 -2.6677  1.0030  0.8115
 2831SOL     OW19954   3.632   1.163   2.403  0.4392 -0.2416  0.5592
 2831SOL    HW119955   3.665   1.214   2.477  0.2425  1.7959 -0.7554
 2831SOL    HW219956   3.563   1.114   2.447 -1.0272  2.0062  0.7547
 2832SOL     OW19957   3.388   2.494   5.595  0.6420  0.3464  0.0309
 2832SOL    HW119958   3.400   2.571   5.539 -0.9247  0.7273  0.2094
 2832SOL    HW219959   3.442   2.423   5.563  4.1292  2.8057  0.4748
 2833SOL     OW19960   2.498   2.866   4.602 -0.2834  0.0906 -0.7064
 2833SOL    HW119961   2.586   2.899   4.583  0.7557 -2.2003  0.1921
 2833SOL    HW219962   2.473   2.914   4.682 -1.7222 -2.0406  0.1216
 2834SOL     OW19963   2.988   3.881   4.682  0.0226 -0.0439 -0.4609
 2834SOL    HW119964   2.950   3.890   4.770  0.0591 -3.4481 -0.0814
 2834SOL    HW219965   2.909   3.876   4.627 -0.7593  0.0804  0.6343
 2835SOL     OW19966   4.533   4.641  11.200 -0.1556 -0.4119  0.2709
 2835SOL    HW119967   4.554   4.688  11.281  0.9262  1.4370 -1.1046
 2835SOL    HW219968   4.448   4.676  11.173  0.0875  0.1631  0.2563
 2836SOL     OW19969   2.316   0.175   7.295  0.0841  0.2112 -0.2392
 2836SOL    HW119970   2.240   0.192   7.239  1.4817 -0.8354 -2.4517
 2836SOL    HW219971   2.345   0.260   7.329  1.6636  0.3646 -1.9816
 2837SOL     OW19972   2.002   2.485   8.271 -0.2011  0.4469  0.4713
 2837SOL    HW119973   1.968   2.572   8.288  0.6186  1.0040 -0.7690
 2837SOL    HW219974   2.071   2.504   8.208 -1.5574  1.2177 -0.7700
 2838SOL     OW19975   0.055   3.611   4.035  0.2040 -0.6469  0.1639
 2838SOL    HW119976   4.694   3.604   3.989  0.3536  0.4795 -0.2943
 2838SOL    HW219977   0.091   3.695   4.004 -1.3653  0.7237  2.0351
 2839SOL     OW19978   0.847   1.038   4.142  0.5565 -0.0849 -0.0421
 2839SOL    HW119979   0.751   1.031   4.149  0.4255  1.8040 -0.0671
 2839SOL    HW219980   0.874   1.066   4.229  0.0543  1.3915 -0.3670
 2840SOL     OW19981   0.556   0.479   0.816 -0.2061 -0.8067  0.1893
 2840SOL    HW119982   0.527   0.393   0.785 -1.7836 -0.7298  1.4237
 2840SOL    HW219983   0.518   0.485   0.904  1.3841  3.5176  0.5692
 2841SOL     OW19984   1.241   4.267  10.306  0.0915 -0.2557  0.4674
 2841SOL    HW119985   1.302   4.194  10.314  0.1533 -0.1504  0.9275
 2841SOL    HW219986   1.266   4.324  10.379 -1.2734 -1.5291  1.9326
 2842SOL     OW19987   0.138   0.626   4.152 -0.4464  0.4862 -0.2705
 2842SOL    HW119988   0.204   0.693   4.136  0.3841 -0.2600  0.0593
 2842SOL    HW219989   0.154   0.612   4.246  2.9011 -1.0923 -1.0839
 2843SOL     OW19990   3.815   3.010   8.333 -0.0084 -0.3289  0.6803
 2843SOL    HW119991   3.804   2.987   8.425 -3.0698 -2.0362 -0.1197
 2843SOL    HW219992   3.849   2.936   8.284  1.1215  0.4926  0.2047
 2844SOL     OW19993   0.686   1.377   7.217  0.2682  0.1972  0.3872
 2844SOL    HW119994   0.666   1.294   7.261  0.1858  0.0853  0.1365
 2844SOL    HW219995   0.778   1.372   7.191  0.0664  1.0873 -0.4862
 2845SOL     OW19996   4.518   1.571   5.477  0.7709  0.7308  0.2104
 2845SOL    HW119997   4.575   1.613   5.412  1.5771  0.7810  0.9494
 2845SOL    HW219998   4.522   1.626   5.555  0.8125  0.0136  0.7143
 2846SOL     OW19999   2.173   3.391   1.999 -0.3619  0.2468 -0.3665
 2846SOL    HW120000   2.083   3.367   2.018 -0.0978 -1.1062 -0.8530
 2846SOL    HW220001   2.176   3.376   1.905 -2.1740  0.5629 -0.4600
 2847SOL     OW20002   4.163   0.577   6.152 -0.7662  0.0292  0.4430
 2847SOL    HW120003   4.235   0.531   6.107 -0.9220 -0.0288  0.2533
 2847SOL    HW220004   4.197   0.579   6.242 -0.1968 -1.6265  0.2644
 2848SOL     OW20005   1.348   0.828   2.475  0.4275 -0.2042  0.0098
 2848SOL    HW120006   1.375   0.818   2.384  1.4327 -0.7877  0.3722
 2848SOL    HW220007   1.262   0.868   2.465 -0.4143 -2.2741 -1.1802
 2849SOL     OW20008   3.051   0.244   0.079  0.2361  0.6859  0.2865
 2849SOL    HW120009   3.079   0.311   0.017 -3.4906 -0.3260 -2.5511
 2849SOL    HW220010   3.041   0.165   0.026 -0.6246 -0.3153  1.9334
 2850SOL     OW20011   3.619   4.590  14.314 -0.1100 -0.0429 -0.1016
 2850SOL    HW120012   3.605   4.509  14.363  0.0920 -0.7953 -1.2895
 2850SOL    HW220013   3.609   4.664  14.374 -1.4653 -0.6972  0.4866
 2851SOL     OW20014   2.393   1.528  17.671  0.1875 -0.1156  0.9482
 2851SOL    HW120015   2.399   1.616   0.013 -1.3851  0.6217 -0.5388
 2851SOL    HW220016   2.482   1.506  17.644  0.3742  1.5588  0.1716
 2852SOL     OW20017   4.257   4.637   3.020 -0.3717  0.0036  0.4417
 2852SOL    HW120018   4.229   4.614   2.932 -0.3775 -2.6627  1.1389
 2852SOL    HW220019   4.340   4.681   2.999  0.3607 -1.6816 -0.2077
 2853SOL     OW20020   0.440   0.545   0.120 -0.5721 -0.5341 -0.2312
 2853SOL    HW120021   0.492   0.573   0.194 -0.4884 -0.3217 -0.3719
 2853SOL    HW220022   0.466   0.606   0.051  0.9952 -1.2271 -0.2521
 2854SOL     OW20023   0.341   2.136   5.951 -0.3395  0.0179 -0.0174
 2854SOL    HW120024   0.350   2.045   5.979  0.7762 -0.2125 -1.1483
 2854SOL    HW220025   0.406   2.183   6.003 -0.2928 -1.5503  1.3155
 2855SOL     OW20026   2.199   4.485   2.807 -0.2664  0.4498  0.0309
 2855SOL    HW120027   2.179   4.397   2.839  1.8685 -0.1014 -0.1055
 2855SOL    HW220028   2.198   4.477   2.712  0.7839 -0.3716  0.0863
 2856SOL     OW20029   0.837   1.682   2.965  0.4431  0.6090  0.1660
 2856SOL    HW120030   0.880   1.763   2.990  0.0537  1.1244 -0.8285
 2856SOL    HW220031   0.913   1.632   2.936 -0.8047 -0.0862 -1.9176
 2857SOL     OW20032   0.998   2.732   7.967 -0.3512 -0.5920 -0.5058
 2857SOL    HW120033   0.965   2.729   8.057  1.3975  0.2222  0.1724
 2857SOL    HW220034   0.981   2.824   7.949 -2.2988 -1.4266 -2.8941
 2858SOL     OW20035   1.009   2.364   9.096  0.0711 -0.3235  0.1064
 2858SOL    HW120036   0.920   2.395   9.114  0.2380  1.6529 -2.2907
 2858SOL    HW220037   1.015   2.311   9.175  1.0603 -1.1475 -0.5220
 2859SOL     OW20038   3.356   3.659   0.951  0.5093 -0.0435  0.5024
 2859SOL    HW120039   3.393   3.747   0.953  2.5809 -0.8322 -2.8012
 2859SOL    HW220040   3.262   3.677   0.955  0.1080 -1.8762 -0.4698
 2860SOL     OW20041   2.444   3.926   4.021 -0.2792 -0.4051 -0.0924
 2860SOL    HW120042   2.363   3.875   4.021 -2.0066  2.3168  0.1607
 2860SOL    HW220043   2.499   3.867   4.071  1.1751  0.5214 -0.5974
 2861SOL     OW20044   0.151   2.297   0.306 -0.1731  0.6735 -0.2023
 2861SOL    HW120045   0.161   2.318   0.213 -0.1880 -0.3578 -0.4391
 2861SOL    HW220046   0.157   2.385   0.343 -1.0706  0.5911  0.1327
 2862SOL     OW20047   1.329   2.908   2.430 -0.0232 -0.7408 -0.3607
 2862SOL    HW120048   1.310   2.874   2.343  0.6502  3.1887 -2.0471
 2862SOL    HW220049   1.294   2.830   2.474  1.1791  0.5817  2.9103
 2863SOL     OW20050   1.003   3.646   5.869 -0.3735  0.4835 -0.2136
 2863SOL    HW120051   1.082   3.650   5.922  0.1689  0.2652 -1.0090
 2863SOL    HW220052   1.018   3.560   5.831  1.0149  0.9324 -0.6766
 2864SOL     OW20053   4.236   2.428  15.099  0.2902  0.0068  0.3887
 2864SOL    HW120054   4.199   2.500  15.048 -1.5027 -1.2900 -0.1445
 2864SOL    HW220055   4.308   2.417  15.038  0.4503  0.1008  0.5625
 2865SOL     OW20056   3.406   3.152  10.094  0.0343 -0.1343 -0.3117
 2865SOL    HW120057   3.310   3.148  10.093 -0.0623  1.7762  1.1876
 2865SOL    HW220058   3.410   3.182  10.185 -2.3445  0.8634 -0.5332
 2866SOL     OW20059   1.607   0.228   1.715 -0.5170  0.4445  0.4611
 2866SOL    HW120060   1.661   0.150   1.715 -0.4969  0.4612  0.9902
 2866SOL    HW220061   1.552   0.207   1.639 -0.1126  1.6137 -0.1509
 2867SOL     OW20062   2.620   1.896   6.537  0.1023  0.4154  0.1964
 2867SOL    HW120063   2.531   1.928   6.523  0.1660  1.3011  1.8020
 2867SOL    HW220064   2.608   1.819   6.483  1.7240  0.2979 -0.0020
 2868SOL     OW20065   4.228   4.158   4.782 -0.2607  0.4614  0.5990
 2868SOL    HW120066   4.295   4.104   4.823  0.3737  0.7197 -0.0966
 2868SOL    HW220067   4.161   4.094   4.759  0.7278 -0.9256  1.6461
 2869SOL     OW20068   3.538   2.862  17.652  0.1006  0.3097 -0.3763
 2869SOL    HW120069   3.534   2.958  17.645 -1.7358  0.2255 -0.4520
 2869SOL    HW220070   3.621   2.847   0.002 -0.2088 -1.6591 -0.4480
 2870SOL     OW20071   4.224   3.979   7.014 -0.7323 -0.3960  0.0639
 2870SOL    HW120072   4.225   4.016   6.925 -0.5512 -1.0567 -0.2135
 2870SOL    HW220073   4.316   3.996   7.035 -0.6421 -1.1639  0.2958
 2871SOL     OW20074   3.333   1.644  15.174 -0.2642  0.2452 -0.3484
 2871SOL    HW120075   3.302   1.734  15.185 -1.0731  0.2924 -2.8749
 2871SOL    HW220076   3.273   1.594  15.229 -0.6790  0.4250 -0.6369
 2872SOL     OW20077   0.536   0.114  11.549  0.3286  0.5076  0.2888
 2872SOL    HW120078   0.612   0.170  11.531  1.1823 -0.7412  0.0714
 2872SOL    HW220079   0.574   0.026  11.548 -1.4917 -0.2828  2.0745
 2873SOL     OW20080   1.070   2.783  10.181  0.3761 -0.4570 -0.3803
 2873SOL    HW120081   1.084   2.847  10.111  0.3492  1.1459  1.0721
 2873SOL    HW220082   1.007   2.714  10.160 -0.4413  0.0634  0.3593
 2874SOL     OW20083   3.249   4.375  14.831  0.0516  0.1896 -0.4172
 2874SOL    HW120084   3.165   4.355  14.790 -1.4097  1.6617  1.8512
 2874SOL    HW220085   3.267   4.451  14.775  0.1806 -0.3336 -1.0839
 2875SOL     OW20086   1.171   1.771   7.751 -0.5533  0.1093 -0.6683
 2875SOL    HW120087   1.238   1.828   7.788 -0.1449  0.4294 -1.8822
 2875SOL    HW220088   1.202   1.695   7.800  1.6353  1.8207  0.5920
 2876SOL     OW20089   0.850   3.554   0.998  0.2169 -0.5826  0.0952
 2876SOL    HW120090   0.873   3.528   0.909  2.0461  0.0606  0.3755
 2876SOL    HW220091   0.756   3.554   0.984  0.1968  0.2177  0.1916
 2877SOL     OW20092   1.195   4.344   4.627 -0.7147 -0.8592 -0.0849
 2877SOL    HW120093   1.273   4.367   4.677 -0.9388  0.4582 -0.3183
 2877SOL    HW220094   1.140   4.297   4.690  1.1308 -0.9202  1.4874
 2878SOL     OW20095   0.920   2.991   7.940  0.3441  0.0164 -0.1022
 2878SOL    HW120096   0.920   3.086   7.929  0.5952  0.0445  0.1592
 2878SOL    HW220097   0.871   2.980   8.021 -0.6566  1.6778 -0.4989
 2879SOL     OW20098   0.527   0.855   2.754 -0.0618  0.1232 -0.4362
 2879SOL    HW120099   0.493   0.828   2.839  1.7001  0.2123  0.3108
 2879SOL    HW220100   0.439   0.860   2.716 -0.2914 -0.2503  0.0489
 2880SOL     OW20101   1.605   0.549   8.881 -0.2165  0.1603 -0.5747
 2880SOL    HW120102   1.670   0.583   8.942  0.7509 -1.4031 -0.7270
 2880SOL    HW220103   1.530   0.554   8.939 -0.6142  0.9900 -1.1663
 2881SOL     OW20104   1.483   2.786   7.874  0.3034 -0.7108  0.4618
 2881SOL    HW120105   1.524   2.722   7.816  1.8530  1.5628 -0.9549
 2881SOL    HW220106   1.401   2.742   7.896  0.7396 -2.1742 -0.7901
 2882SOL     OW20107   2.559   2.744  10.134 -0.9864  0.4611  0.1652
 2882SOL    HW120108   2.549   2.837  10.110 -1.1147  0.6405  0.9001
 2882SOL    HW220109   2.588   2.753  10.225  2.6669 -0.2224 -0.9310
 2883SOL     OW20110   2.339   3.807   5.690 -0.0977  0.4983  0.4801
 2883SOL    HW120111   2.306   3.739   5.749  0.3367 -0.4135 -0.3392
 2883SOL    HW220112   2.428   3.781   5.669 -0.7731 -1.8441  0.5561
 2884SOL     OW20113   0.423   2.232   5.661  0.9634 -0.1043  0.0654
 2884SOL    HW120114   0.512   2.266   5.664  0.5296  0.9726  0.5866
 2884SOL    HW220115   0.407   2.209   5.752 -1.2278 -0.1006 -0.3188
 2885SOL     OW20116   3.548   4.427   7.303  0.8474 -0.0797 -0.2964
 2885SOL    HW120117   3.591   4.381   7.375  1.2824  0.0541 -0.4729
 2885SOL    HW220118   3.454   4.416   7.318  0.8023  0.5893 -0.0897
 2886SOL     OW20119   2.505   4.640   9.127  0.0047  0.0590  0.0090
 2886SOL    HW120120   2.563   4.621   9.054 -1.8100 -0.4729 -1.2979
 2886SOL    HW220121   2.423   4.661   9.081 -0.2671 -0.1454  0.4031
 2887SOL     OW20122   2.942   0.115   0.570 -0.1845 -0.3922  0.1601
 2887SOL    HW120123   2.958   0.022   0.588 -0.6383 -0.5007  0.0120
 2887SOL    HW220124   2.977   0.126   0.482  1.9769 -0.4878  1.0088
 2888SOL     OW20125   1.134   1.017   4.766  0.0507  0.2773 -0.0526
 2888SOL    HW120126   1.088   1.073   4.828  1.8332  0.6988  0.8960
 2888SOL    HW220127   1.190   1.081   4.723 -1.0510 -0.2244 -2.2148
 2889SOL     OW20128   0.784   0.240   7.750  0.4277 -0.1721  0.1169
 2889SOL    HW120129   0.759   0.321   7.705  1.4960  0.2053  0.1994
 2889SOL    HW220130   0.842   0.265   7.821  0.9917 -3.1776  0.7042
 2890SOL     OW20131   0.768   4.683  16.310  0.2612  0.0257 -0.0810
 2890SOL    HW120132   0.739   4.701  16.400  1.5872 -2.3374  0.8173
 2890SOL    HW220133   0.863   4.693  16.314  0.1224  1.6420 -0.8456
 2891SOL     OW20134   0.599   0.330  15.377 -0.4134 -0.3297 -0.4058
 2891SOL    HW120135   0.573   0.240  15.358 -1.8194 -0.8242  3.7906
 2891SOL    HW220136   0.536   0.380  15.324  0.2876 -0.3412 -1.2454
 2892SOL     OW20137   1.923   2.349  12.255  0.1255  0.0109  0.3156
 2892SOL    HW120138   1.908   2.427  12.202 -0.4141  0.9547  1.8464
 2892SOL    HW220139   1.927   2.277  12.192 -0.8880  0.9473 -0.8157
 2893SOL     OW20140   0.642   3.356  16.166  0.7532 -0.4923  0.0555
 2893SOL    HW120141   0.691   3.309  16.232  0.1942 -0.1500  0.7131
 2893SOL    HW220142   0.601   3.281  16.123 -0.7780 -0.0587  0.7583
 2894SOL     OW20143   2.307   2.751   1.845 -0.2994  0.3070 -0.3859
 2894SOL    HW120144   2.322   2.686   1.914 -2.5749 -1.4890 -1.5459
 2894SOL    HW220145   2.366   2.718   1.777 -1.3106 -2.3276  0.0060
 2895SOL     OW20146   2.046   3.302   1.162  0.0641  0.3077 -0.3790
 2895SOL    HW120147   2.062   3.324   1.254 -3.5727  0.3143  0.2823
 2895SOL    HW220148   2.103   3.356   1.108 -0.7520  0.5680 -0.9892
 2896SOL     OW20149   2.273   0.421  12.219 -0.4173 -0.5704  0.3723
 2896SOL    HW120150   2.368   0.421  12.221 -0.3604  1.5281 -1.5836
 2896SOL    HW220151   2.260   0.401  12.126  2.4501 -1.0104  0.0776
 2897SOL     OW20152   3.787   4.616  11.292  0.3652 -0.2438  0.2580
 2897SOL    HW120153   3.829   4.619  11.206  2.6336  0.0468  1.3679
 2897SOL    HW220154   3.788   4.708  11.320  0.7481  0.8334 -3.2340
 2898SOL     OW20155   1.043   1.432   4.762 -0.0952  0.0271  0.5233
 2898SOL    HW120156   1.056   1.526   4.748  2.0872 -0.3492  0.0520
 2898SOL    HW220157   1.122   1.401   4.719  1.4565  4.5487  0.0600
 2899SOL     OW20158   1.908   4.425   8.211  0.1971  0.5391  0.2994
 2899SOL    HW120159   1.835   4.409   8.152  0.1092  0.8620  0.3217
 2899SOL    HW220160   1.918   4.333   8.235 -0.5891  0.5174  0.5417
 2900SOL     OW20161   2.105   2.219   0.817  0.2326 -0.2881  0.3260
 2900SOL    HW120162   2.112   2.284   0.887 -0.8519 -2.2909  2.2920
 2900SOL    HW220163   2.058   2.270   0.751 -0.0173  1.7893  2.1139
 2901SOL     OW20164   1.706   1.203   3.528 -0.3490 -0.1311 -0.7005
 2901SOL    HW120165   1.617   1.234   3.506  0.9259  2.2260 -2.6347
 2901SOL    HW220166   1.705   1.108   3.515 -0.8278  0.0288 -1.8397
 2902SOL     OW20167   4.588   0.095   1.299  0.5110  0.2849  0.5783
 2902SOL    HW120168   4.655   0.029   1.319  0.5954  0.4671  0.9029
 2902SOL    HW220169   4.586   0.136   1.385  0.9670  0.5736  0.4555
 2903SOL     OW20170   1.875   2.917   3.726  0.3097 -0.0079  0.3713
 2903SOL    HW120171   1.793   2.874   3.699  0.6492  1.2252 -2.5917
 2903SOL    HW220172   1.851   2.939   3.816 -0.5046  0.8065 -0.0459
 2904SOL     OW20173   3.274   2.139   6.469  0.0812  0.5320 -0.0422
 2904SOL    HW120174   3.205   2.093   6.517  0.9882  0.1459  0.8859
 2904SOL    HW220175   3.341   2.082   6.507 -2.0738 -3.3698 -2.0185
 2905SOL     OW20176   2.600   2.923   4.965 -0.1700 -0.2393  0.5794
 2905SOL    HW120177   2.566   2.951   5.050  0.0840 -0.8834  0.8899
 2905SOL    HW220178   2.523   2.941   4.910 -1.1837  0.3285  2.1829
 2906SOL     OW20179   3.441   0.003   6.611 -0.4834 -0.1637 -0.3496
 2906SOL    HW120180   3.403   0.082   6.573  1.2191  0.9665  0.2588
 2906SOL    HW220181   3.527   4.723   6.569 -1.1257  0.9781 -1.7572
 2907SOL     OW20182   0.910   0.746   4.973 -0.0741  0.5210  0.9873
 2907SOL    HW120183   0.990   0.765   4.925 -1.5960  1.4966 -1.1915
 2907SOL    HW220184   0.853   0.810   4.930 -1.2943  0.7315  2.9217
 2908SOL     OW20185   1.624   3.920   7.665  0.8592  0.0767  0.3594
 2908SOL    HW120186   1.622   3.900   7.758 -1.6915 -4.1318 -0.5969
 2908SOL    HW220187   1.615   3.831   7.632 -0.7957  0.9521 -1.5642
 2909SOL     OW20188   2.376   1.053  10.265  0.2320  0.3382  0.6324
 2909SOL    HW120189   2.282   1.072  10.258  0.7823  1.4592 -3.5703
 2909SOL    HW220190   2.402   1.141  10.294  0.8299  0.1649  0.6196
 2910SOL     OW20191   3.827   3.049   2.654  0.0081 -0.2738 -0.1484
 2910SOL    HW120192   3.922   3.062   2.656  0.1520 -1.0922 -1.8120
 2910SOL    HW220193   3.807   2.989   2.582 -0.7279 -0.0188 -0.1566
 2911SOL     OW20194   1.184   0.832   4.441  0.2537 -0.0152  0.2078
 2911SOL    HW120195   1.200   0.902   4.378 -1.4743 -0.2189 -0.4597
 2911SOL    HW220196   1.265   0.836   4.491 -0.9847  2.0603  2.0548
 2912SOL     OW20197   0.490   2.617  14.503 -0.0928 -0.2487  0.0594
 2912SOL    HW120198   0.398   2.588  14.507 -0.7403  1.8052  0.1643
 2912SOL    HW220199   0.482   2.695  14.448 -2.4442 -1.4306 -1.3182
 2913SOL     OW20200   1.247   1.684   2.317 -0.5919 -0.5171  0.6331
 2913SOL    HW120201   1.171   1.676   2.375 -0.8400 -4.0209 -0.1786
 2913SOL    HW220202   1.276   1.593   2.321 -0.2032 -0.3622  1.2187
 2914SOL     OW20203   0.792   1.898   8.131  0.3994 -0.1479  0.0566
 2914SOL    HW120204   0.778   1.805   8.149 -0.6263 -0.0462 -0.2134
 2914SOL    HW220205   0.813   1.940   8.215  2.3516  2.3708 -1.7003
 2915SOL     OW20206   3.287   4.165   2.300  0.0063 -0.0673  0.0431
 2915SOL    HW120207   3.240   4.244   2.275 -0.8262 -0.4373  0.4300
 2915SOL    HW220208   3.366   4.203   2.337 -0.8054 -0.7462  2.4770
 2916SOL     OW20209   3.332   4.254   0.696  0.3559  0.1576 -0.1096
 2916SOL    HW120210   3.389   4.330   0.710  1.9642 -0.8291 -1.2703
 2916SOL    HW220211   3.350   4.197   0.771  1.7491 -1.7424 -1.8956
 2917SOL     OW20212   0.334   1.382   2.683 -0.5637 -0.2111  0.2419
 2917SOL    HW120213   0.374   1.295   2.686  1.5364  0.8096  1.5775
 2917SOL    HW220214   0.243   1.360   2.702 -0.3447 -0.6752  0.7481
 2918SOL     OW20215   4.393   2.029  14.477 -0.1518 -0.1828  0.3757
 2918SOL    HW120216   4.315   2.071  14.514 -1.3064 -1.9296 -0.0686
 2918SOL    HW220217   4.353   1.957  14.428  0.7458  0.2960 -1.0533
 2919SOL     OW20218   0.199   4.107   6.910 -0.0347 -0.0187 -0.0894
 2919SOL    HW120219   0.121   4.157   6.935 -0.2786 -0.2015 -0.4881
 2919SOL    HW220220   0.265   4.137   6.973  0.3838 -0.4094 -0.3376
 2920SOL     OW20221   4.426   0.568   3.522 -0.1749  0.5443 -0.0418
 2920SOL    HW120222   4.348   0.567   3.467 -0.2864 -2.5449  0.2165
 2920SOL    HW220223   4.387   0.604   3.602  2.4769  1.8828  0.6582
 2921SOL     OW20224   3.878   3.715   2.252  0.1852 -0.1416 -0.1215
 2921SOL    HW120225   3.833   3.630   2.249 -0.9032  0.4087  0.8671
 2921SOL    HW220226   3.903   3.710   2.344  0.5816 -0.8809 -0.2691
 2922SOL     OW20227   2.267   4.358  14.217 -0.6260  0.3639 -0.7080
 2922SOL    HW120228   2.185   4.398  14.245 -1.5139 -0.9359 -1.4673
 2922SOL    HW220229   2.317   4.401  14.287 -1.7380  2.2597 -1.0672
 2923SOL     OW20230   1.106   1.820   2.734  0.1246  0.3607 -0.6009
 2923SOL    HW120231   1.173   1.857   2.677  0.1501  0.0107 -0.8015
 2923SOL    HW220232   1.028   1.811   2.679  0.2804  1.5763 -1.0150
 2924SOL     OW20233   1.970   3.391   6.965 -0.0826  0.1268  0.2847
 2924SOL    HW120234   1.942   3.307   6.928 -0.9436  0.6811 -0.3284
 2924SOL    HW220235   1.893   3.448   6.960 -0.4688 -0.2340  2.2546
 2925SOL     OW20236   2.326   3.223   2.172  0.0942 -0.1430  0.7121
 2925SOL    HW120237   2.251   3.265   2.129 -1.1096 -0.6086  2.3431
 2925SOL    HW220238   2.282   3.216   2.257  1.5633 -1.2910  1.3917
 2926SOL     OW20239   3.647   0.364   8.454  0.4756 -0.2134  0.8187
 2926SOL    HW120240   3.551   0.364   8.456  0.4395 -1.5006 -0.5061
 2926SOL    HW220241   3.655   0.421   8.377  0.8717  1.0572  1.8062
 2927SOL     OW20242   3.887   0.046   3.082 -0.3120 -0.5048  0.0919
 2927SOL    HW120243   3.838   4.697   3.121 -2.3978  1.3729  0.9246
 2927SOL    HW220244   3.899   0.011   2.993 -0.9583  0.0135 -0.1995
 2928SOL     OW20245   2.477   4.378   5.628  0.4177  0.1900  0.2913
 2928SOL    HW120246   2.481   4.345   5.717  1.0443  1.2803  0.6577
 2928SOL    HW220247   2.560   4.349   5.590 -0.5440 -1.4488 -0.5628
 2929SOL     OW20248   0.258   3.172  12.193 -0.2700  0.0869  0.1843
 2929SOL    HW120249   0.353   3.182  12.184  0.1462 -2.8588  1.2644
 2929SOL    HW220250   0.247   3.140  12.282 -1.2241 -1.3989 -0.4553
 2930SOL     OW20251   3.340   3.104  16.931  0.1958  0.3804 -0.0840
 2930SOL    HW120252   3.420   3.123  16.883 -1.1287  0.6212 -2.1734
 2930SOL    HW220253   3.323   3.184  16.981  0.3694 -1.0313  2.2543
 2931SOL     OW20254   3.522   2.569   2.598  0.1657  0.2129  0.1483
 2931SOL    HW120255   3.493   2.653   2.562  0.2819  0.6682  1.1123
 2931SOL    HW220256   3.444   2.514   2.585  1.7970 -1.9043 -0.7357
 2932SOL     OW20257   4.645   3.572   9.452 -0.1435  0.2255  0.4156
 2932SOL    HW120258   4.685   3.611   9.530 -1.4116 -0.2483  1.2972
 2932SOL    HW220259   4.625   3.652   9.404  0.7028 -0.9947 -1.9811
 2933SOL     OW20260   1.074   1.205  13.208 -0.1054  0.4979  0.0896
 2933SOL    HW120261   1.022   1.215  13.128 -0.5336 -1.7259  0.0780
 2933SOL    HW220262   1.087   1.297  13.231  2.5820 -0.1611  1.1130
 2934SOL     OW20263   3.655   1.362  16.210  0.2385 -0.8260  0.1205
 2934SOL    HW120264   3.697   1.400  16.288  0.1649 -0.3428 -0.0738
 2934SOL    HW220265   3.656   1.428  16.141 -1.2120 -1.0661 -0.1317
 2935SOL     OW20266   0.509   0.652   5.210 -0.1040 -0.3813 -0.1512
 2935SOL    HW120267   0.458   0.612   5.139  1.8098 -3.4976  0.2261
 2935SOL    HW220268   0.591   0.602   5.216 -1.4541 -2.3431  1.9352
 2936SOL     OW20269   0.239   0.594   2.208  0.4188  0.3199 -0.1136
 2936SOL    HW120270   0.186   0.618   2.131  1.4072  1.0474 -0.5702
 2936SOL    HW220271   0.207   0.659   2.271 -1.8048 -1.3587  0.4831
 2937SOL     OW20272   3.892   3.902   6.292  0.0263 -0.0594 -0.0975
 2937SOL    HW120273   3.943   3.971   6.249 -0.5819 -0.2223 -1.0662
 2937SOL    HW220274   3.952   3.866   6.358  0.7791  2.8317  0.7926
 2938SOL     OW20275   4.204   0.587   7.227  0.0376 -0.2645  0.1775
 2938SOL    HW120276   4.134   0.631   7.275  0.2735 -0.7308  0.9525
 2938SOL    HW220277   4.154   0.519   7.182 -2.6630 -0.3432  3.2675
 2939SOL     OW20278   0.693   4.062   7.804 -0.2354  0.1188  0.1295
 2939SOL    HW120279   0.762   4.082   7.866  0.3582 -1.3663 -0.0367
 2939SOL    HW220280   0.740   3.994   7.756  0.7109 -0.5342  1.9913
 2940SOL     OW20281   3.336   3.332   8.215 -0.0923  0.4580 -0.3066
 2940SOL    HW120282   3.388   3.293   8.144  1.3023 -0.6424  1.3074
 2940SOL    HW220283   3.396   3.396   8.253  0.8152 -2.0491  2.3974
 2941SOL     OW20284   1.351   1.809   9.767 -0.1322  0.1124  0.1818
 2941SOL    HW120285   1.274   1.853   9.733 -0.8202 -0.2716  1.2498
 2941SOL    HW220286   1.361   1.746   9.696 -0.7394  3.1977 -2.6281
 2942SOL     OW20287   2.958   3.977   6.428  0.1610 -0.7176 -0.2382
 2942SOL    HW120288   3.035   4.008   6.476  0.2113 -1.3939  0.1176
 2942SOL    HW220289   2.989   3.989   6.338  2.9252  2.7862  1.1943
 2943SOL     OW20290   3.657   2.298   8.229 -0.0303  0.1701  0.0926
 2943SOL    HW120291   3.686   2.243   8.157  0.4560 -2.0436  1.9740
 2943SOL    HW220292   3.598   2.354   8.179 -0.5318  0.1027  0.6124
 2944SOL     OW20293   4.350   2.157   7.755 -0.0949  0.0929 -0.1757
 2944SOL    HW120294   4.278   2.102   7.724 -0.3612 -0.1946  0.9718
 2944SOL    HW220295   4.323   2.238   7.712  1.0762  0.5469 -0.0648
 2945SOL     OW20296   0.673   1.267   3.965  0.1982 -0.5701 -0.3848
 2945SOL    HW120297   0.716   1.198   3.914 -1.0955 -0.1805 -2.0018
 2945SOL    HW220298   0.745   1.295   4.020 -1.0921 -0.6272  1.3508
 2946SOL     OW20299   0.852   1.093  15.245 -0.6872 -0.6924  0.3817
 2946SOL    HW120300   0.925   1.039  15.276  1.6830  2.0164 -0.4699
 2946SOL    HW220301   0.794   1.031  15.202 -0.9145  0.4344 -0.9480
 2947SOL     OW20302   0.873   4.299   3.311  0.0751 -0.5221 -0.4230
 2947SOL    HW120303   0.825   4.257   3.383 -0.2868 -1.7903 -1.4225
 2947SOL    HW220304   0.815   4.373   3.292 -0.0694 -0.4124  0.4332
 2948SOL     OW20305   2.738   4.287   3.852  0.5850  0.4163  0.0251
 2948SOL    HW120306   2.709   4.199   3.830  0.5449  0.0676  1.4361
 2948SOL    HW220307   2.723   4.326   3.766 -0.9396 -1.8494 -0.7333
 2949SOL     OW20308   1.692   1.826   7.229  0.0499  0.3903  0.6478
 2949SOL    HW120309   1.785   1.844   7.242 -0.0700  1.1968  0.3736
 2949SOL    HW220310   1.673   1.780   7.311  0.2848  1.9399  1.5721
 2950SOL     OW20311   0.014   4.454   6.245 -0.2722 -0.3312 -0.5422
 2950SOL    HW120312   4.711   4.385   6.306  0.8102 -0.2705 -0.0148
 2950SOL    HW220313   0.093   4.414   6.209  1.2277  0.4711  1.8671
 2951SOL     OW20314   3.039   2.953  10.595 -0.2038  0.2073  0.7425
 2951SOL    HW120315   3.018   2.890  10.526  2.9757  0.9325 -0.8474
 2951SOL    HW220316   3.133   2.940  10.587 -0.3267  0.5503 -1.2324
 2952SOL     OW20317   1.323   4.633   4.716  0.0293 -0.1294  0.1607
 2952SOL    HW120318   1.392   4.587   4.668 -1.3184 -0.8338 -1.0708
 2952SOL    HW220319   1.301   4.704   4.655  0.5506 -1.1086 -1.1638
 2953SOL     OW20320   3.474   1.714  14.938 -0.2355  0.0068  0.0416
 2953SOL    HW120321   3.449   1.668  15.018  0.5316 -1.9476 -0.8601
 2953SOL    HW220322   3.418   1.792  14.939  0.6069  0.6185  0.0522
 2954SOL     OW20323   1.940   3.581   5.830  0.4493  0.0683 -0.1776
 2954SOL    HW120324   1.919   3.596   5.923  1.1728 -1.5497  0.2365
 2954SOL    HW220325   1.885   3.650   5.792  2.2465  1.5833 -0.0072
 2955SOL     OW20326   3.236   0.573   8.400  0.2483 -0.2053 -0.3955
 2955SOL    HW120327   3.279   0.490   8.421 -0.4605  0.0773  2.2091
 2955SOL    HW220328   3.255   0.578   8.306 -0.3599 -1.5879 -0.5935
 2956SOL     OW20329   2.699   1.867   1.244  0.2832  0.2268 -0.2979
 2956SOL    HW120330   2.724   1.776   1.259 -0.7427  0.1872  1.2083
 2956SOL    HW220331   2.605   1.868   1.225 -0.0432 -1.5532  1.1410
 2957SOL     OW20332   1.263   3.668   5.314  0.7496  0.2092 -0.2467
 2957SOL    HW120333   1.333   3.608   5.341  0.2234 -0.7495 -1.0251
 2957SOL    HW220334   1.248   3.633   5.226  2.2485  1.2169 -0.9122
 2958SOL     OW20335   3.656   1.012  12.970  0.1133 -0.5172 -0.0042
 2958SOL    HW120336   3.715   1.002  13.045 -1.3294  1.4316  1.3916
 2958SOL    HW220337   3.685   0.939  12.915 -0.5753  0.5784 -1.7964
 2959SOL     OW20338   0.666   0.018   0.646  0.2979  0.1418 -0.1931
 2959SOL    HW120339   0.727   4.702   0.708 -1.7800 -1.1111  1.0294
 2959SOL    HW220340   0.728   0.038   0.575  2.3161  2.9623  2.3230
 2960SOL     OW20341   3.116   1.396  12.833 -0.1212 -0.2336 -0.2903
 2960SOL    HW120342   3.069   1.324  12.792  2.0561 -1.5348 -0.4992
 2960SOL    HW220343   3.193   1.401  12.775  1.3299 -2.0466  1.4693
 2961SOL     OW20344   0.481   1.362   8.699 -0.3917  0.1260  0.0461
 2961SOL    HW120345   0.544   1.329   8.635 -1.8344  1.3925 -2.0573
 2961SOL    HW220346   0.424   1.287   8.714  0.7579 -0.5352  1.0610
 2962SOL     OW20347   2.087   1.373   8.736 -0.6153  0.0845 -0.2420
 2962SOL    HW120348   2.173   1.394   8.772 -2.0506  0.2073  3.0573
 2962SOL    HW220349   2.079   1.278   8.728 -1.0623  0.1542 -0.6051
 2963SOL     OW20350   0.766   0.685   7.334  0.1979 -0.4378  0.4045
 2963SOL    HW120351   0.777   0.741   7.410  2.4971 -0.6418  0.2396
 2963SOL    HW220352   0.715   0.745   7.280 -1.2046 -0.4182  1.7632
 2964SOL     OW20353   1.441   0.357   2.257 -0.1724  0.5532 -0.6276
 2964SOL    HW120354   1.364   0.325   2.304  1.0653  0.9569  1.6876
 2964SOL    HW220355   1.521   0.323   2.298 -0.4861  1.1065  0.4337
 2965SOL     OW20356   2.274   0.487   5.953  0.3548 -0.1547 -0.1437
 2965SOL    HW120357   2.270   0.396   5.924 -2.6630  0.1150 -0.5209
 2965SOL    HW220358   2.287   0.525   5.866 -3.0158  0.9664 -0.1325
 2966SOL     OW20359   1.198   1.290   1.295  0.1983 -0.2416 -0.2262
 2966SOL    HW120360   1.221   1.246   1.213  0.4942  1.9458 -1.3236
 2966SOL    HW220361   1.110   1.322   1.278 -0.0478 -0.3160  0.8728
 2967SOL     OW20362   0.271   4.614   5.895  0.1002  0.3057 -0.0121
 2967SOL    HW120363   0.306   4.551   5.832  0.3621 -3.0544  3.5119
 2967SOL    HW220364   0.179   4.607   5.870  0.1819 -0.8563  0.0062
 2968SOL     OW20365   1.148   1.649   8.352  0.2897 -0.1764 -0.1944
 2968SOL    HW120366   1.117   1.660   8.443  2.9947  2.1144  0.4283
 2968SOL    HW220367   1.073   1.630   8.295  1.0887 -0.0969 -1.2557
 2969SOL     OW20368   2.608   1.014   6.392  0.1435  0.1217  0.4618
 2969SOL    HW120369   2.517   1.021   6.421 -0.7225 -3.2662 -1.4817
 2969SOL    HW220370   2.637   0.942   6.448 -2.9353 -0.4596  1.2895
 2970SOL     OW20371   3.592   0.108   7.759 -0.0135  0.4236 -0.0573
 2970SOL    HW120372   3.537   0.040   7.798 -0.5574  2.3531  2.5666
 2970SOL    HW220373   3.554   0.180   7.810 -1.7817 -0.0779 -0.6738
 2971SOL     OW20374   4.008   2.599  17.091  0.8351 -0.2119  0.2742
 2971SOL    HW120375   3.927   2.635  17.054  0.4645 -0.4416  0.8720
 2971SOL    HW220376   3.994   2.599  17.185 -1.5205 -1.7545 -0.0807
 2972SOL     OW20377   3.493   0.667   2.377  0.2289  0.1709  0.2452
 2972SOL    HW120378   3.445   0.693   2.298 -0.3740 -0.5094  0.3876
 2972SOL    HW220379   3.586   0.663   2.354  0.1281 -0.8052  0.0176
 2973SOL     OW20380   1.577   4.272   5.188 -0.0473  0.0385  0.4716
 2973SOL    HW120381   1.490   4.247   5.218  0.7245 -0.5417  2.2266
 2973SOL    HW220382   1.582   4.229   5.103  0.4074  1.3646 -0.1800
 2974SOL     OW20383   0.852   1.263   1.866 -0.1815  0.9841  0.0988
 2974SOL    HW120384   0.765   1.282   1.829 -0.5478 -1.5063 -0.2907
 2974SOL    HW220385   0.811   1.247   1.952 -0.3952 -2.2893 -0.6141
 2975SOL     OW20386   3.218   3.816   1.902 -0.6968 -0.1728 -0.7148
 2975SOL    HW120387   3.281   3.883   1.876 -0.0227 -0.6523 -0.3402
 2975SOL    HW220388   3.207   3.834   1.995  0.0773 -2.6372 -0.1431
 2976SOL     OW20389   3.621   3.076   5.846 -0.4505  0.1632  0.3642
 2976SOL    HW120390   3.558   3.149   5.851 -2.0175 -1.1320 -0.2890
 2976SOL    HW220391   3.582   3.021   5.778 -0.5119 -0.1651  0.6604
 2977SOL     OW20392   0.889   2.347  14.931  0.3206 -0.1322 -0.6248
 2977SOL    HW120393   0.948   2.273  14.914  0.7065  0.2748 -1.0583
 2977SOL    HW220394   0.814   2.292  14.953 -1.1346  2.4334  0.8725
 2978SOL     OW20395   1.153   3.925   4.168 -0.0583  0.2352 -0.6136
 2978SOL    HW120396   1.180   4.016   4.164  1.4399 -0.1064  1.5490
 2978SOL    HW220397   1.187   3.898   4.083  2.4677  0.8527  0.2123
 2979SOL     OW20398   0.473   0.651   8.829 -0.5568 -0.6640  0.2976
 2979SOL    HW120399   0.438   0.720   8.774 -2.5762 -1.3825  0.6758
 2979SOL    HW220400   0.400   0.589   8.822 -0.9315 -0.1406 -0.3643
 2980SOL     OW20401   4.290   1.382   5.800 -0.7692  0.1597 -0.6556
 2980SOL    HW120402   4.382   1.367   5.819 -1.1271  1.2907  2.0129
 2980SOL    HW220403   4.274   1.470   5.764 -0.6761 -0.0348 -1.1758
 2981SOL     OW20404   0.402   3.043   4.906 -0.4111  0.3825  0.6562
 2981SOL    HW120405   0.495   3.020   4.911 -0.6921 -1.3248 -2.0104
 2981SOL    HW220406   0.389   3.044   4.811 -0.5728 -3.0557  0.6434
 2982SOL     OW20407   1.652   1.733   1.755 -0.3470  0.1341 -0.3490
 2982SOL    HW120408   1.588   1.699   1.692 -0.3150  0.2662 -0.4532
 2982SOL    HW220409   1.711   1.780   1.697 -1.5759  0.3479 -1.4301
 2983SOL     OW20410   3.687   4.012   2.749 -0.1890 -0.0575 -0.1601
 2983SOL    HW120411   3.721   3.924   2.737  1.2348  0.3179  1.1519
 2983SOL    HW220412   3.679   4.050   2.662  0.0266  2.0804  0.7358
 2984SOL     OW20413   0.196   0.965   4.087 -0.2785  0.5559  0.2380
 2984SOL    HW120414   0.272   0.906   4.089 -0.9242 -0.2581  0.9487
 2984SOL    HW220415   0.185   0.961   4.182 -1.8882  0.5575  0.0586
 2985SOL     OW20416   0.209   3.911   8.678 -0.2875 -0.4249 -0.1379
 2985SOL    HW120417   0.140   3.952   8.730 -0.6609 -0.8919 -0.2696
 2985SOL    HW220418   0.152   3.844   8.641 -1.8235  0.9691 -0.3433
 2986SOL     OW20419   2.408   2.005   3.744  0.3538 -0.2495 -0.0505
 2986SOL    HW120420   2.381   1.952   3.670  0.8143 -1.5288  0.6897
 2986SOL    HW220421   2.449   2.080   3.701  1.8546 -1.1717 -0.2387
 2987SOL     OW20422   0.125   4.486   1.994 -0.3847  0.0713  0.2095
 2987SOL    HW120423   0.078   4.404   1.980  0.2095  0.0850 -1.8642
 2987SOL    HW220424   0.067   4.542   2.046  0.5301  0.4205  0.8783
 2988SOL     OW20425   1.394   3.962   1.960 -0.2754  0.1276  0.0162
 2988SOL    HW120426   1.366   3.877   1.928 -0.5019 -0.1366  0.9064
 2988SOL    HW220427   1.486   3.939   1.972  0.0607  0.2195 -2.5443
 2989SOL     OW20428   0.070   4.708   4.723 -0.1375  0.3898 -0.6292
 2989SOL    HW120429   4.711   4.705   4.674  0.2696 -0.1971 -1.2721
 2989SOL    HW220430   0.045   4.682   4.812  2.5822  3.2369  0.9826
 2990SOL     OW20431   0.064   4.257  11.171  0.1862 -0.5860  0.3822
 2990SOL    HW120432   0.005   4.332  11.166 -0.1035 -0.7056  2.1930
 2990SOL    HW220433   0.032   4.203  11.243  1.8403 -0.9227  0.8443
 2991SOL     OW20434   2.878   2.295   7.326  0.0267  0.3139 -0.2135
 2991SOL    HW120435   2.846   2.326   7.411  1.2760  1.9583 -0.3357
 2991SOL    HW220436   2.907   2.205   7.343 -0.8512 -0.1512 -1.1775
 2992SOL     OW20437   1.948   1.368   3.009 -0.0247  0.5126 -0.2372
 2992SOL    HW120438   1.978   1.458   2.996  2.6310 -0.1581  1.2882
 2992SOL    HW220439   1.861   1.383   3.046  0.3576  0.1157  0.8221
 2993SOL     OW20440   0.545   2.303   2.792 -0.1205 -0.5381  0.0634
 2993SOL    HW120441   0.462   2.349   2.792  0.2459  0.1050 -1.7942
 2993SOL    HW220442   0.590   2.360   2.731 -0.5855 -0.4384 -0.1797
 2994SOL     OW20443   3.271   2.836   5.866 -0.3984 -0.5981  0.4593
 2994SOL    HW120444   3.238   2.766   5.811  1.8830 -0.7138 -0.7492
 2994SOL    HW220445   3.185   2.878   5.875  0.2937  1.0253 -0.5200
 2995SOL     OW20446   3.605   4.117   3.264 -0.5012  0.3098  0.1524
 2995SOL    HW120447   3.587   4.041   3.209 -0.6087  0.1595  0.3979
 2995SOL    HW220448   3.521   4.161   3.251 -1.0613 -0.7315  0.2401
 2996SOL     OW20449   4.508   4.318  16.407 -0.0585 -0.0854 -0.3194
 2996SOL    HW120450   4.413   4.325  16.415  0.2084  0.9165  1.8699
 2996SOL    HW220451   4.520   4.308  16.312 -1.9653  0.1614 -0.5886
 2997SOL     OW20452   4.297   0.570  11.106 -1.0453 -0.3356 -0.4952
 2997SOL    HW120453   4.307   0.490  11.156  0.0402  0.1263  0.0112
 2997SOL    HW220454   4.249   0.618  11.174  0.7338  0.7136  0.0122
 2998SOL     OW20455   3.304   3.076  13.660  0.4218 -0.6752 -0.2696
 2998SOL    HW120456   3.321   2.990  13.620 -1.3284 -0.0621 -2.3421
 2998SOL    HW220457   3.389   3.109  13.633  0.5058 -0.0496  0.7704
 2999SOL     OW20458   3.780   2.441   1.716  0.2209  0.4096 -0.6382
 2999SOL    HW120459   3.717   2.469   1.782  1.4091  0.5376  0.4273
 2999SOL    HW220460   3.732   2.438   1.633 -3.7231  1.3037  1.6190
 3000SOL     OW20461   2.650   4.553   5.837 -0.0657 -0.3464  0.3191
 3000SOL    HW120462   2.603   4.623   5.792 -0.5277 -0.7250  0.2193
 3000SOL    HW220463   2.581   4.507   5.885 -0.6938  0.6797  0.4001
 3001SOL     OW20464   3.416   1.638   9.466 -0.2265  0.1546 -0.5178
 3001SOL    HW120465   3.335   1.637   9.415 -0.5302 -1.1892 -0.0026
 3001SOL    HW220466   3.474   1.577   9.420 -1.8828 -0.7035 -1.4802
 3002SOL     OW20467   3.914   0.387   1.448  0.1072 -0.2840 -0.3481
 3002SOL    HW120468   3.869   0.466   1.479  0.5914 -0.8107  1.6320
 3002SOL    HW220469   3.993   0.393   1.501 -0.6101 -0.1555  0.7095
 3003SOL     OW20470   4.209   1.215   7.810  0.3966 -0.4944  0.0117
 3003SOL    HW120471   4.119   1.185   7.819  1.5639 -3.9001  0.3282
 3003SOL    HW220472   4.220   1.237   7.903 -4.5241 -1.4477  0.7967
 3004SOL     OW20473   1.242   3.803   6.600 -0.1933 -0.1285 -0.4730
 3004SOL    HW120474   1.322   3.784   6.648 -0.8265  0.3275  0.7712
 3004SOL    HW220475   1.244   3.740   6.529 -2.2476 -0.7880  0.0419
 3005SOL     OW20476   1.971   3.035  14.631  0.3310  0.3431  0.1756
 3005SOL    HW120477   2.018   3.085  14.565 -2.3212  0.3241 -1.6868
 3005SOL    HW220478   2.024   2.955  14.637 -1.2161 -0.7538 -0.9472
 3006SOL     OW20479   3.999   1.075   8.655 -0.0501 -0.0947 -0.5851
 3006SOL    HW120480   3.911   1.052   8.683  0.6625 -0.5249  1.2994
 3006SOL    HW220481   4.050   1.000   8.687 -0.1294  0.2176  0.2599
 3007SOL     OW20482   3.925   1.632  13.590  0.0929  0.1723  0.6189
 3007SOL    HW120483   3.837   1.641  13.553 -0.0380 -1.9492  0.4332
 3007SOL    HW220484   3.921   1.539  13.612  0.5318 -0.1294 -0.5789
 3008SOL     OW20485   1.427   4.654   5.991  0.7676 -0.0075 -0.2182
 3008SOL    HW120486   1.512   4.690   6.015  1.2191 -0.2639 -1.4298
 3008SOL    HW220487   1.366   4.719   5.955  0.3592  0.7427  1.8498
 3009SOL     OW20488   2.825   1.992   0.354 -0.5482 -0.0282 -0.1117
 3009SOL    HW120489   2.730   1.991   0.344 -0.6726  1.4357  0.9216
 3009SOL    HW220490   2.838   1.907   0.394  0.1976  0.5440  0.8617
 3010SOL     OW20491   4.455   2.016   8.132  0.1031  0.0922 -0.1085
 3010SOL    HW120492   4.504   2.069   8.194 -0.1817 -1.2653  1.2828
 3010SOL    HW220493   4.509   2.022   8.053 -3.4178  3.4945 -2.3070
 3011SOL     OW20494   2.092   2.528  17.421 -0.0946  0.3470  0.2462
 3011SOL    HW120495   2.122   2.447  17.462  3.2074  1.6665  0.4630
 3011SOL    HW220496   2.082   2.584  17.497 -2.7145  2.4876 -1.6792
 3012SOL     OW20497   0.652   2.843   8.580 -0.1196  0.3074 -0.1928
 3012SOL    HW120498   0.712   2.843   8.506  0.2464 -0.5238  0.1071
 3012SOL    HW220499   0.643   2.752   8.607 -1.3260  0.2230 -0.9325
 3013SOL     OW20500   3.958   2.732   3.347 -0.1950  0.0599 -0.2147
 3013SOL    HW120501   3.895   2.742   3.276  0.4284 -1.7437 -1.0134
 3013SOL    HW220502   4.014   2.806   3.323 -1.2746 -0.0464 -3.0084
 3014SOL     OW20503   1.189   0.987   8.363  0.5681  0.3968 -0.2400
 3014SOL    HW120504   1.240   1.025   8.434  0.9865 -0.6250  0.0135
 3014SOL    HW220505   1.116   0.955   8.417  1.7639 -0.4567  0.8494
 3015SOL     OW20506   3.376   1.070   2.548 -0.0718  0.5186  0.0440
 3015SOL    HW120507   3.426   1.057   2.629 -0.8027  4.0573  1.0619
 3015SOL    HW220508   3.307   1.005   2.556  1.1523 -0.9766 -1.7812
 3016SOL     OW20509   1.948   2.258  10.816  0.8299 -0.0384 -0.0812
 3016SOL    HW120510   2.042   2.244  10.800  0.7150 -1.2469  0.2576
 3016SOL    HW220511   1.964   2.312  10.893 -0.4945  0.6281 -0.2802
 3017SOL     OW20512   1.937   4.257   9.805  0.1610 -0.4402 -0.0748
 3017SOL    HW120513   2.032   4.255   9.809  0.1636 -1.1827 -0.5283
 3017SOL    HW220514   1.916   4.231   9.895 -0.1026  0.5459  0.1471
 3018SOL     OW20515   0.253   3.560   1.192 -0.3525 -0.0288  0.2218
 3018SOL    HW120516   0.278   3.486   1.136  0.0900  0.2083  0.1019
 3018SOL    HW220517   0.335   3.589   1.231 -0.6489  0.1055  0.7408
 3019SOL     OW20518   3.706   2.244  13.959  0.2684  0.4364  0.2960
 3019SOL    HW120519   3.735   2.295  14.035 -0.7317 -1.3979  1.8918
 3019SOL    HW220520   3.693   2.160  14.003 -0.2276  0.9228  1.0818
 3020SOL     OW20521   4.277   0.720   4.001  0.1629 -0.0565  0.2442
 3020SOL    HW120522   4.191   0.748   4.032  0.3825  1.0980 -0.2224
 3020SOL    HW220523   4.328   0.775   4.059 -0.8162  2.2449 -1.0787
 3021SOL     OW20524   1.139   3.751  13.838 -0.0138 -0.0041  0.1583
 3021SOL    HW120525   1.141   3.838  13.798 -4.2427  0.7645  1.6196
 3021SOL    HW220526   1.125   3.775  13.930 -1.0171 -1.2515  0.3304
 3022SOL     OW20527   4.514   2.256   2.039 -0.0998  0.1998 -0.4302
 3022SOL    HW120528   4.514   2.174   2.089  0.4178 -0.4837 -1.5298
 3022SOL    HW220529   4.587   2.293   2.088  0.2487 -1.6346  0.4555
 3023SOL     OW20530   0.673   0.667   3.095  0.2041  0.2659  0.1589
 3023SOL    HW120531   0.655   0.654   3.188  0.9699 -3.5020 -0.1968
 3023SOL    HW220532   0.768   0.665   3.087  0.1037  1.0431 -1.2493
 3024SOL     OW20533   1.085   2.208   5.926 -0.1662 -0.3582 -0.3600
 3024SOL    HW120534   1.007   2.263   5.937  0.6935  0.6031  0.9764
 3024SOL    HW220535   1.083   2.140   5.994 -1.6747  0.1444  0.0879
 3025SOL     OW20536   0.005   4.655   9.363 -0.0543 -1.0468 -0.3528
 3025SOL    HW120537   0.091   4.664   9.321  0.4333 -3.4579  0.1564
 3025SOL    HW220538   4.713   0.016   9.406 -1.7552 -0.4777 -2.0686
 3026SOL     OW20539   3.049   4.611  16.336  0.1786  0.2977 -0.0981
 3026SOL    HW120540   2.973   4.629  16.280  2.0314  2.4463 -1.9358
 3026SOL    HW220541   3.075   4.701  16.354 -0.2990 -0.0542  2.3983
 3027SOL     OW20542   2.829   2.229   5.792 -0.3651 -0.9030 -0.3573
 3027SOL    HW120543   2.875   2.154   5.830  0.2400 -0.8364 -0.9705
 3027SOL    HW220544   2.872   2.307   5.827  0.3432 -1.5918  0.3195
 3028SOL     OW20545   2.696   4.409   5.412  0.4417  0.1820  0.4409
 3028SOL    HW120546   2.689   4.354   5.334 -0.0550  0.3995  0.3277
 3028SOL    HW220547   2.775   4.463   5.404  1.0141 -0.3019  2.8348
 3029SOL     OW20548   4.181   1.292   8.210  0.4185  0.2793  0.4541
 3029SOL    HW120549   4.114   1.357   8.229  1.5832  1.4275  0.6858
 3029SOL    HW220550   4.126   1.223   8.174 -1.0527  0.3823  2.4902
 3030SOL     OW20551   0.565   3.818   2.496 -0.2967 -0.0091 -0.0817
 3030SOL    HW120552   0.615   3.874   2.556 -0.0767 -0.4087  0.1095
 3030SOL    HW220553   0.611   3.836   2.414  0.0622 -0.4177  0.0285
 3031SOL     OW20554   3.163   0.792  12.923 -0.0676 -0.0022  0.4179
 3031SOL    HW120555   3.189   0.808  13.013  0.5064 -1.0052  0.4331
 3031SOL    HW220556   3.203   0.870  12.884 -1.0439  0.0459 -0.5181
 3032SOL     OW20557   1.241   1.696   2.951 -0.3695 -0.0461  0.1858
 3032SOL    HW120558   1.301   1.645   2.897  0.4633  1.2971 -0.1488
 3032SOL    HW220559   1.188   1.742   2.886  0.5846 -1.4081 -1.5343
 3033SOL     OW20560   1.130   2.632  15.799 -0.7769  0.4489  0.3594
 3033SOL    HW120561   1.085   2.549  15.814  1.3469 -0.9091 -0.8992
 3033SOL    HW220562   1.077   2.697  15.845  2.5987  1.6422  2.5383
 3034SOL     OW20563   1.757   1.631   5.191  0.1500  0.0528  0.1140
 3034SOL    HW120564   1.842   1.587   5.201  0.5932  0.8727 -0.0688
 3034SOL    HW220565   1.704   1.552   5.205  0.0320 -0.2841 -2.2451
 3035SOL     OW20566   0.646   3.341   5.644 -0.0428  0.2762  0.0758
 3035SOL    HW120567   0.566   3.379   5.606  0.8799  1.5398 -0.6181
 3035SOL    HW220568   0.709   3.401   5.604 -1.5743  0.7034 -1.7131
 3036SOL     OW20569   1.032   0.369   2.380 -0.0719 -0.0786 -0.0413
 3036SOL    HW120570   1.021   0.447   2.434  0.3012  0.7776 -1.2086
 3036SOL    HW220571   1.085   0.315   2.439  1.7326 -0.7952 -2.3410
 3037SOL     OW20572   0.555   2.609   8.264  0.4375  0.4384  0.3445
 3037SOL    HW120573   0.536   2.691   8.311 -2.0276  0.7394 -1.1452
 3037SOL    HW220574   0.623   2.579   8.324 -1.4921 -3.4110  0.6213
 3038SOL     OW20575   1.783   0.153   3.866  0.2507  0.0151 -0.0297
 3038SOL    HW120576   1.764   0.059   3.859  0.3194  0.0024 -0.0512
 3038SOL    HW220577   1.877   0.144   3.882  0.1263 -1.2436  0.0078
 3039SOL     OW20578   0.861   4.694   4.738  0.0216  0.1139  1.0001
 3039SOL    HW120579   0.907   4.704   4.654 -1.6541 -1.8702 -0.1519
 3039SOL    HW220580   0.923   4.645   4.792  1.8845 -0.9044 -2.0716
 3040SOL     OW20581   0.839   4.245  10.424  0.3009 -0.3246 -0.1497
 3040SOL    HW120582   0.772   4.186  10.388  1.8285 -2.1528  0.0270
 3040SOL    HW220583   0.812   4.260  10.514 -0.1239 -0.0877 -0.3149
 3041SOL     OW20584   4.672   2.428   5.756  0.1639  0.3621  0.1587
 3041SOL    HW120585   0.007   2.504   5.759  1.4209 -0.6502  1.9548
 3041SOL    HW220586   4.593   2.468   5.792  0.1577 -1.0570  1.7418
 3042SOL     OW20587   2.266   2.716   4.821 -0.1235  0.7359  0.6943
 3042SOL    HW120588   2.239   2.671   4.742  1.0967 -0.3906  0.9066
 3042SOL    HW220589   2.234   2.660   4.892 -1.7531  1.0763  0.2178
 3043SOL     OW20590   3.551   2.463   1.548  0.7003 -0.3690  0.3251
 3043SOL    HW120591   3.540   2.558   1.553 -0.6501 -0.5091 -0.0994
 3043SOL    HW220592   3.467   2.438   1.510 -0.7756  2.3410  1.8198
 3044SOL     OW20593   2.120   0.851   2.588 -0.0160 -0.1801  0.0315
 3044SOL    HW120594   2.072   0.895   2.518 -1.8479 -0.5066  1.0913
 3044SOL    HW220595   2.186   0.919   2.606 -1.9612  1.1382  2.2524
 3045SOL     OW20596   3.482   3.048  15.531  0.0360  0.2450  0.0237
 3045SOL    HW120597   3.433   3.076  15.608 -1.2937  1.0353 -1.1067
 3045SOL    HW220598   3.533   2.978  15.573  0.1379  0.1304 -0.2860
 3046SOL     OW20599   2.148   1.061   1.975 -0.5527 -0.1680 -0.3455
 3046SOL    HW120600   2.062   1.033   1.943 -0.5821  0.3565 -0.7270
 3046SOL    HW220601   2.183   0.977   2.004  0.8342  0.9968  1.3057
 3047SOL     OW20602   1.253   3.647  16.535 -0.4923  0.1985  0.4817
 3047SOL    HW120603   1.316   3.619  16.601  1.5924  0.6853 -1.2743
 3047SOL    HW220604   1.284   3.735  16.512  1.4333 -0.2390  1.3923
 3048SOL     OW20605   2.192   1.537   8.237  0.2662  0.3544  0.3907
 3048SOL    HW120606   2.106   1.577   8.227  1.1165  2.0970  0.0178
 3048SOL    HW220607   2.167   1.451   8.269 -4.1838  0.5578 -2.4806
 3049SOL     OW20608   1.316   1.672   3.666 -0.4750  0.0901  0.2045
 3049SOL    HW120609   1.347   1.756   3.699  0.4077  0.0563 -0.5210
 3049SOL    HW220610   1.257   1.699   3.596  0.7031  2.3905  0.0850
 3050SOL     OW20611   4.069   3.556   3.805 -0.7387 -0.3275  0.7706
 3050SOL    HW120612   4.128   3.528   3.875 -0.6740  0.5249  1.0562
 3050SOL    HW220613   4.001   3.493   3.829  0.0352 -1.4631 -0.0162
 3051SOL     OW20614   2.213   1.242  16.808  0.5412 -0.6210  0.1103
 3051SOL    HW120615   2.297   1.287  16.809  0.4915 -0.5113 -1.1430
 3051SOL    HW220616   2.154   1.316  16.816  2.5534  1.2404 -2.2207
 3052SOL     OW20617   4.123   4.271   3.035  0.1105  0.2720 -0.1196
 3052SOL    HW120618   4.051   4.276   2.972  0.1486 -1.2934 -0.3050
 3052SOL    HW220619   4.194   4.321   2.997  1.0902 -0.7858  0.2972
 3053SOL     OW20620   4.130   4.382   4.146 -0.4511 -0.6875 -0.4278
 3053SOL    HW120621   4.042   4.343   4.145 -0.0552 -1.4832 -2.4722
 3053SOL    HW220622   4.168   4.303   4.185  1.9802  0.9743  0.5760
 3054SOL     OW20623   2.331   3.037   1.877  0.0989  0.4765  0.3333
 3054SOL    HW120624   2.324   3.012   1.969  0.1016  2.8402  0.9704
 3054SOL    HW220625   2.314   2.950   1.840 -0.8843 -0.0128  1.9389
 3055SOL     OW20626   3.363   0.118  17.297  0.1974  0.2446 -0.5057
 3055SOL    HW120627   3.280   0.162  17.279  0.3169  0.3626 -0.7675
 3055SOL    HW220628   3.355   0.097  17.390  0.8694  1.3618 -0.1996
 3056SOL     OW20629   3.366   3.692   6.569  0.4010  0.4811  0.0055
 3056SOL    HW120630   3.456   3.716   6.589  0.3267 -0.4974  1.5484
 3056SOL    HW220631   3.365   3.721   6.478  1.6549  1.4895  0.3261
 3057SOL     OW20632   0.420   3.039  10.184 -0.0339 -0.1690  0.0121
 3057SOL    HW120633   0.379   3.126  10.187 -0.0241 -0.1160 -1.2649
 3057SOL    HW220634   0.483   3.066  10.117  1.6281 -1.3717  1.1026
 3058SOL     OW20635   2.685   0.928   5.090  0.3590 -0.0420 -0.0589
 3058SOL    HW120636   2.598   0.900   5.118 -0.0498  0.3414 -0.9407
 3058SOL    HW220637   2.736   0.937   5.170 -0.7117  0.5356  0.5567
 3059SOL     OW20638   2.583   1.803  14.345 -0.4004  0.6208  0.3788
 3059SOL    HW120639   2.548   1.891  14.357  2.2924  1.7498 -0.0500
 3059SOL    HW220640   2.647   1.817  14.275 -1.6461 -0.7836 -1.0360
 3060SOL     OW20641   0.568   4.142   4.349  0.4065  0.1059 -0.0879
 3060SOL    HW120642   0.641   4.111   4.295 -1.8192 -2.7057 -1.4540
 3060SOL    HW220643   0.542   4.233   4.331 -0.5693 -0.1598  0.0124
 3061SOL     OW20644   3.495   1.980  14.360  0.0647  0.3670 -0.4818
 3061SOL    HW120645   3.478   1.888  14.339 -2.8380  0.1446  2.7922
 3061SOL    HW220646   3.413   2.026  14.382  0.3311  0.0265  1.2304
 3062SOL     OW20647   1.174   4.184   0.422 -0.3947 -0.1238 -0.2151
 3062SOL    HW120648   1.249   4.141   0.462 -0.9708  1.0288  2.1181
 3062SOL    HW220649   1.141   4.103   0.385 -2.8324 -0.4163  2.6049
 3063SOL     OW20650   4.104   3.344  11.103  0.0114  0.0973  0.0502
 3063SOL    HW120651   4.137   3.269  11.053 -1.5951 -0.2689 -0.4449
 3063SOL    HW220652   4.081   3.288  11.177  0.5403 -1.0629 -0.6646
 3064SOL     OW20653   1.330   1.571   6.035 -0.3275  0.2619  0.4592
 3064SOL    HW120654   1.264   1.507   6.009  1.6690 -1.8152  0.5310
 3064SOL    HW220655   1.348   1.624   5.957 -1.2467 -0.2365 -0.0867
 3065SOL     OW20656   1.370   3.531   0.652  0.2908  0.0163 -0.0052
 3065SOL    HW120657   1.299   3.502   0.709  1.6851 -0.4800  1.4680
 3065SOL    HW220658   1.443   3.485   0.693 -0.7722 -1.2591  0.4725
 3066SOL     OW20659   1.276   1.852  10.834  0.1209  0.1039  0.1915
 3066SOL    HW120660   1.370   1.865  10.816  0.2430 -0.0807  0.7030
 3066SOL    HW220661   1.244   1.942  10.832  0.6630  0.3210  1.0095
 3067SOL     OW20662   4.092   1.681   7.009 -0.5762  0.2781 -0.0634
 3067SOL    HW120663   4.038   1.661   6.932  1.6703  0.4495 -1.6989
 3067SOL    HW220664   4.149   1.746   6.969  0.5904  0.5809  2.0918
 3068SOL     OW20665   2.304   3.907   1.854  0.4600 -0.3744  0.5350
 3068SOL    HW120666   2.218   3.904   1.813  1.4090 -0.4354 -1.4188
 3068SOL    HW220667   2.347   3.834   1.809  0.2467 -0.2500  0.1313
 3069SOL     OW20668   4.629   1.111   2.480  0.0622  0.1891  0.6413
 3069SOL    HW120669   4.721   1.091   2.467 -0.4051 -2.0340  0.7139
 3069SOL    HW220670   4.650   1.201   2.505  2.9183 -0.0677 -0.9163
 3070SOL     OW20671   3.266   4.548   6.250  0.5858  0.0599  0.5690
 3070SOL    HW120672   3.334   4.562   6.184  0.5226  1.5233  0.8161
 3070SOL    HW220673   3.201   4.499   6.199  1.8951  1.1543 -2.1249
 3071SOL     OW20674   1.456   4.292  14.406  0.2804  0.0161  0.1190
 3071SOL    HW120675   1.504   4.341  14.339 -1.0820 -1.4615 -1.9585
 3071SOL    HW220676   1.364   4.318  14.398  0.2819  0.1809  0.6688
 3072SOL     OW20677   3.092   1.778   8.729 -0.4256 -0.5412  0.4953
 3072SOL    HW120678   3.012   1.829   8.742 -0.1037  0.0679  0.0876
 3072SOL    HW220679   3.159   1.827   8.777 -0.1965 -1.1384  0.7856
 3073SOL     OW20680   1.629   3.773   7.236  0.5843 -0.3137 -0.2799
 3073SOL    HW120681   1.615   3.843   7.172  0.7902 -0.7732 -0.8248
 3073SOL    HW220682   1.559   3.715   7.207 -0.3921  0.8557 -0.2562
 3074SOL     OW20683   2.766   4.186  17.353  0.5279 -0.0896  0.0052
 3074SOL    HW120684   2.744   4.114  17.412 -2.0461  1.3701  0.7899
 3074SOL    HW220685   2.683   4.229  17.331  0.4598  0.0758  0.6008
 3075SOL     OW20686   2.319   4.645  15.364 -0.6240 -0.4098 -0.0462
 3075SOL    HW120687   2.297   4.559  15.327  1.4582  0.1172 -2.4639
 3075SOL    HW220688   2.307   4.700  15.287 -0.1042  1.5792  1.2840
 3076SOL     OW20689   3.943   3.398   6.488 -0.6007  0.3389  0.0105
 3076SOL    HW120690   3.959   3.316   6.442 -0.3420  1.0501 -1.1794
 3076SOL    HW220691   3.929   3.376   6.580  1.6227 -0.4847  0.1518
 3077SOL     OW20692   1.801   4.319   0.082  0.1741  0.2353 -0.6686
 3077SOL    HW120693   1.762   4.391   0.032 -0.5000  0.8791  0.7952
 3077SOL    HW220694   1.775   4.246   0.026  1.7559  0.7508 -2.1065
 3078SOL     OW20695   1.425   0.900   7.614  0.0645 -0.3710  0.4236
 3078SOL    HW120696   1.335   0.871   7.600  0.7265 -0.4523 -3.4713
 3078SOL    HW220697   1.406   0.965   7.682 -0.3430 -1.0197  0.9316
 3079SOL     OW20698   3.734   3.878   4.376  0.4786  0.5864  0.2714
 3079SOL    HW120699   3.782   3.947   4.422  0.0130  0.0156  1.6051
 3079SOL    HW220700   3.699   3.921   4.297 -2.7900 -2.1358  0.2052
 3080SOL     OW20701   1.560   2.510   8.433  0.1829 -0.1002  0.3604
 3080SOL    HW120702   1.510   2.535   8.511 -1.4453  0.5068 -0.8587
 3080SOL    HW220703   1.616   2.441   8.468 -1.7194 -1.5520  0.5611
 3081SOL     OW20704   1.174   1.723   0.183 -0.9322  0.6488 -0.5391
 3081SOL    HW120705   1.238   1.763   0.125 -0.2592 -0.2933 -0.4342
 3081SOL    HW220706   1.182   1.633   0.152  0.9625  0.7924 -0.4248
 3082SOL     OW20707   2.804   3.932   4.510  0.2595 -0.5031 -0.1154
 3082SOL    HW120708   2.807   4.023   4.538 -0.5446  0.2281 -2.4555
 3082SOL    HW220709   2.800   3.933   4.414 -0.8254  0.4684 -0.0594
 3083SOL     OW20710   0.838   3.368   8.449  0.0748  0.1886 -0.1418
 3083SOL    HW120711   0.828   3.292   8.391 -1.7510  0.1199  0.2435
 3083SOL    HW220712   0.908   3.329   8.501  0.0281  1.8459  1.1591
 3084SOL     OW20713   3.887   4.525   4.485  0.7002 -0.2969  0.6221
 3084SOL    HW120714   3.951   4.481   4.541 -0.3316 -0.2607  1.8545
 3084SOL    HW220715   3.839   4.456   4.439 -0.0050 -0.3777  1.4558
 3085SOL     OW20716   3.650   1.693   6.127  0.5167 -0.3107 -0.2042
 3085SOL    HW120717   3.663   1.601   6.102  3.6415  0.1262 -0.2161
 3085SOL    HW220718   3.698   1.736   6.057  2.9307 -1.2312  0.8715
 3086SOL     OW20719   2.091   2.001   6.529 -0.1500 -0.4404  0.3330
 3086SOL    HW120720   2.057   2.085   6.498 -0.4041 -1.2059 -1.4752
 3086SOL    HW220721   2.139   2.023   6.609  0.6440  1.1790 -0.5847
 3087SOL     OW20722   2.298   3.111   6.909 -0.4861 -0.4862  0.1038
 3087SOL    HW120723   2.311   3.202   6.934  1.4818 -1.3029  2.0290
 3087SOL    HW220724   2.359   3.113   6.835  0.3556  0.3964  0.8263
 3088SOL     OW20725   2.973   1.574   1.730 -0.1806  0.7824 -0.6729
 3088SOL    HW120726   2.988   1.481   1.748 -0.8117  1.7276  4.7706
 3088SOL    HW220727   3.062   1.604   1.749  0.0743  0.3268 -1.1467
 3089SOL     OW20728   3.637   0.483   8.204 -0.6453  0.1112 -0.3078
 3089SOL    HW120729   3.565   0.529   8.162 -0.1694  0.8931 -0.2577
 3089SOL    HW220730   3.697   0.488   8.129 -0.5005 -0.2119 -0.2184
 3090SOL     OW20731   3.197   1.999   8.053 -0.0063  0.1872  0.4128
 3090SOL    HW120732   3.249   2.036   7.982 -1.1096 -2.4902 -1.7740
 3090SOL    HW220733   3.253   2.015   8.129  0.2831  0.8468  0.0603
 3091SOL     OW20734   0.402   1.538  10.298 -0.7410 -0.2709  0.2327
 3091SOL    HW120735   0.322   1.564  10.343 -0.4143  2.7564 -0.9387
 3091SOL    HW220736   0.444   1.623  10.310 -0.2398 -0.4350 -0.3382
 3092SOL     OW20737   0.334   1.791   3.562  0.0625  0.1542  0.4152
 3092SOL    HW120738   0.336   1.848   3.485 -0.2457  0.6388  0.7688
 3092SOL    HW220739   0.370   1.717   3.513 -0.2338 -0.6947  1.4579
 3093SOL     OW20740   2.209   1.512  12.125 -0.3751  0.0975 -0.0235
 3093SOL    HW120741   2.292   1.559  12.135 -0.0536 -0.3482 -0.5869
 3093SOL    HW220742   2.216   1.474  12.038  0.9893  0.7577 -0.2027
 3094SOL     OW20743   4.127   3.470   4.489  0.9607  0.0578  0.3363
 3094SOL    HW120744   4.121   3.554   4.533 -1.7918  0.1194 -0.1659
 3094SOL    HW220745   4.201   3.435   4.539  0.3312  0.4219  1.4993
 3095SOL     OW20746   0.299   4.665   7.732  0.8612 -0.3514 -0.0388
 3095SOL    HW120747   0.369   4.720   7.696  0.6766 -0.5314 -0.6621
 3095SOL    HW220748   0.342   4.659   7.818 -0.5777 -0.4914  0.6758
 3096SOL     OW20749   0.798   0.937   4.828  0.2468  0.1442 -0.3208
 3096SOL    HW120750   0.725   0.886   4.793 -0.3891  1.6563 -1.1949
 3096SOL    HW220751   0.791   0.997   4.755  0.4748 -1.1025 -1.3713
 3097SOL     OW20752   3.590   0.850   5.360 -0.0158 -0.5736  0.0245
 3097SOL    HW120753   3.606   0.812   5.446 -0.5744 -1.1198 -0.1113
 3097SOL    HW220754   3.663   0.908   5.341 -0.8697  0.4799 -0.0002
 3098SOL     OW20755   2.672   0.675   7.696  0.6191 -1.0019 -0.3533
 3098SOL    HW120756   2.582   0.645   7.682 -0.1571  0.8187  0.6434
 3098SOL    HW220757   2.730   0.613   7.653  1.8607 -0.8804  1.1334
 3099SOL     OW20758   1.146   4.341   8.107  0.2882  0.6540 -0.5468
 3099SOL    HW120759   1.126   4.279   8.177 -1.2428  1.3543 -0.3505
 3099SOL    HW220760   1.154   4.413   8.170  1.9324 -0.2064  0.2399
 3100SOL     OW20761   2.987   1.097  13.404  0.3780  0.4152 -0.8043
 3100SOL    HW120762   3.012   1.043  13.479 -2.9397 -0.0737 -0.0263
 3100SOL    HW220763   2.893   1.079  13.404  0.5838 -0.6571  0.3710
 3101SOL     OW20764   2.800   3.831   7.477 -0.4716 -0.0650 -0.4864
 3101SOL    HW120765   2.707   3.813   7.483 -0.5831  1.2937  1.7102
 3101SOL    HW220766   2.809   3.923   7.502  2.4476 -0.4868  0.1061
 3102SOL     OW20767   0.063   0.088   6.643  0.1212  0.2231  0.0931
 3102SOL    HW120768   0.114   0.012   6.615 -0.8127 -0.3318 -0.0944
 3102SOL    HW220769   0.126   0.160   6.635  2.0867 -1.6498 -0.9995
 3103SOL     OW20770   2.108   2.279   1.360 -0.5897 -0.1566 -0.0227
 3103SOL    HW120771   2.093   2.310   1.449  0.9573 -0.0649  0.2105
 3103SOL    HW220772   2.201   2.256   1.366 -0.0339  2.3212  0.7435
 3104SOL     OW20773   4.057   2.933   7.451 -0.1361  0.4509 -0.0575
 3104SOL    HW120774   3.968   2.960   7.473 -0.2505  1.1381 -1.3094
 3104SOL    HW220775   4.110   2.999   7.497  0.8018 -1.8194  2.0891
 3105SOL     OW20776   4.271   4.659   6.919  0.0159  0.4698  0.3695
 3105SOL    HW120777   4.321   4.674   7.000 -0.2961 -0.6841  0.7813
 3105SOL    HW220778   4.183   4.639   6.951  0.2052  0.7011  1.0523
 3106SOL     OW20779   2.787   1.634   9.712  0.0183 -0.0413  0.2411
 3106SOL    HW120780   2.744   1.557   9.750  0.6789 -0.8994 -0.7491
 3106SOL    HW220781   2.815   1.668   9.797  0.3253 -1.7342  0.8188
 3107SOL     OW20782   0.250   4.325   4.384 -0.6783  0.6757 -0.0493
 3107SOL    HW120783   0.239   4.284   4.470 -0.9518 -1.1865 -0.9699
 3107SOL    HW220784   0.343   4.347   4.377 -1.0348  2.4214  0.7417
 3108SOL     OW20785   1.733   1.085   8.315 -0.3836  0.6088  0.4710
 3108SOL    HW120786   1.726   1.023   8.242 -1.2918 -0.6395  1.6103
 3108SOL    HW220787   1.665   1.059   8.377  1.6789 -2.3906  1.4996
 3109SOL     OW20788   2.458   2.194   2.460  0.1949  0.5276 -0.0392
 3109SOL    HW120789   2.540   2.244   2.454  0.0788  0.5657 -1.2975
 3109SOL    HW220790   2.484   2.107   2.491 -1.5805 -0.2954 -0.8851
 3110SOL     OW20791   1.194   0.359   7.978  0.1072  0.5925  0.3077
 3110SOL    HW120792   1.111   0.351   8.025 -1.0587 -3.9492 -2.6504
 3110SOL    HW220793   1.166   0.313   7.899  0.7812 -1.1858  1.1055
 3111SOL     OW20794   1.228   1.248   4.619  0.3860  0.4405 -0.7462
 3111SOL    HW120795   1.224   1.260   4.524 -0.0086  2.2713 -0.5104
 3111SOL    HW220796   1.296   1.307   4.651 -0.4894  0.0513  1.8502
 3112SOL     OW20797   1.131   3.280   9.925 -0.8004  0.0562 -0.2887
 3112SOL    HW120798   1.137   3.220   9.851 -0.5272 -0.8185  0.4458
 3112SOL    HW220799   1.067   3.342   9.891 -1.7730 -0.3573  0.7821
 3113SOL     OW20800   4.570   4.629   4.593  0.4110 -0.2875 -0.7408
 3113SOL    HW120801   4.503   4.693   4.619  1.1851  0.9088 -1.7383
 3113SOL    HW220802   4.583   4.653   4.502  0.2903  0.5443 -0.5384
 3114SOL     OW20803   3.739   2.200   1.206  0.4385 -0.0422  0.6980
 3114SOL    HW120804   3.737   2.155   1.290  0.0743 -0.6488  0.3621
 3114SOL    HW220805   3.738   2.293   1.229 -1.7608  0.5317 -1.6207
 3115SOL     OW20806   0.512   4.432   5.410  0.6463 -0.0124  0.4529
 3115SOL    HW120807   0.449   4.361   5.398  0.0398  0.3311  1.6551
 3115SOL    HW220808   0.565   4.421   5.490  0.5036 -0.3639  0.4981
 3116SOL     OW20809   4.717   3.914   2.450  0.2626  0.2627 -0.4704
 3116SOL    HW120810   0.012   3.990   2.505 -0.5993 -0.1104  0.3236
 3116SOL    HW220811   4.626   3.938   2.434  0.2199 -0.8498 -1.9503
 3117SOL     OW20812   3.752   2.491   0.043 -0.1984  0.2757 -0.7386
 3117SOL    HW120813   3.825   2.483  17.678 -0.2703  1.3826 -0.9703
 3117SOL    HW220814   3.785   2.431   0.110  2.0136  0.1847 -1.9028
 3118SOL     OW20815   2.247   3.791   6.376  0.3554 -0.3245 -0.4036
 3118SOL    HW120816   2.300   3.850   6.430  1.0637 -1.9329  0.6775
 3118SOL    HW220817   2.273   3.815   6.288 -2.5782  1.3512 -0.7787
 3119SOL     OW20818   4.084   4.543  11.348  0.1791 -0.3462 -0.2306
 3119SOL    HW120819   4.075   4.455  11.385 -0.0941 -0.4408 -0.5152
 3119SOL    HW220820   3.995   4.578  11.355  2.1982  4.8603 -0.7609
 3120SOL     OW20821   3.766   0.712   2.293 -0.0178  0.3758 -0.3437
 3120SOL    HW120822   3.775   0.802   2.260  0.3948  0.5701  0.2952
 3120SOL    HW220823   3.722   0.664   2.223 -2.3247 -0.9439  2.0118
 3121SOL     OW20824   1.786   2.602   5.537 -0.3466 -0.0800  0.2563
 3121SOL    HW120825   1.832   2.529   5.494 -1.4108  0.6104 -2.0871
 3121SOL    HW220826   1.851   2.670   5.520  0.1362 -0.5498  0.2407
 3122SOL     OW20827   4.671   4.188   5.192 -0.1359  0.0333  0.4258
 3122SOL    HW120828   4.646   4.276   5.219  0.4480  0.5183 -0.5987
 3122SOL    HW220829   4.592   4.135   5.204  0.7398 -1.0773  1.2608
 3123SOL     OW20830   0.104   3.126   4.077  0.0049 -0.1102 -0.7411
 3123SOL    HW120831   0.053   3.113   3.997  1.2231  1.7402 -1.8127
 3123SOL    HW220832   0.138   3.210   4.045 -1.2585  1.0573  0.9795
 3124SOL     OW20833   2.630   2.037  12.027  0.1637 -0.3478 -0.1229
 3124SOL    HW120834   2.543   2.075  12.035 -0.4224 -1.9076  0.9000
 3124SOL    HW220835   2.606   1.944  12.027 -1.2580  0.0249 -0.4797
 3125SOL     OW20836   3.458   2.885   4.527 -0.2933  0.2208  0.4533
 3125SOL    HW120837   3.395   2.914   4.593  1.4920  1.4498  1.6066
 3125SOL    HW220838   3.406   2.878   4.448 -0.8609 -0.5855  0.8959
 3126SOL     OW20839   0.172   2.539   3.583 -0.0673  1.0282 -0.3054
 3126SOL    HW120840   0.229   2.525   3.658 -1.2094  0.2105  0.4304
 3126SOL    HW220841   0.202   2.473   3.520 -0.2447 -1.2638  1.9769
 3127SOL     OW20842   1.760   4.467   9.312 -0.6609  0.0035  0.6307
 3127SOL    HW120843   1.767   4.409   9.237 -1.8524 -0.6782  1.0377
 3127SOL    HW220844   1.840   4.451   9.361 -1.3727 -0.8978  1.4978
 3128SOL     OW20845   0.469   4.552   3.547 -0.2189 -0.0145  0.6618
 3128SOL    HW120846   0.418   4.532   3.469  0.9077 -0.6026  0.0764
 3128SOL    HW220847   0.396   4.530   3.605 -0.9516  0.1283 -0.2058
 3129SOL     OW20848   3.607   0.392   2.316  0.6649  0.1256 -0.2573
 3129SOL    HW120849   3.568   0.320   2.265 -0.7605  0.0410  0.9406
 3129SOL    HW220850   3.531   0.397   2.374 -0.2896  2.0383 -1.6755
 3130SOL     OW20851   3.418   3.482  16.836  0.4664  0.3547 -0.2012
 3130SOL    HW120852   3.442   3.401  16.791  1.1045  0.1352  0.5344
 3130SOL    HW220853   3.362   3.449  16.906  1.0948 -1.5367 -0.5931
 3131SOL     OW20854   2.573   2.379   3.189 -0.2384 -0.0604 -0.2474
 3131SOL    HW120855   2.591   2.353   3.279  0.6307 -0.2634 -0.4804
 3131SOL    HW220856   2.478   2.379   3.186 -0.2445  0.7717 -0.0298
 3132SOL     OW20857   0.527   0.983   7.716  0.4044 -0.0431  0.0646
 3132SOL    HW120858   0.577   1.049   7.764  0.2324 -2.2395  3.3274
 3132SOL    HW220859   0.434   1.000   7.731  0.3236 -2.0777  1.9500
 3133SOL     OW20860   2.919   4.373   8.012  0.2449  0.3977 -0.4583
 3133SOL    HW120861   2.923   4.358   8.107 -1.6608 -1.4588 -0.6667
 3133SOL    HW220862   3.004   4.340   7.983 -0.4109 -2.6641  1.0916
 3134SOL     OW20863   4.604   1.156   3.818 -0.3180  0.1075 -0.0676
 3134SOL    HW120864   4.590   1.097   3.745 -0.3134 -1.4832  1.2297
 3134SOL    HW220865   4.617   1.091   3.887 -0.0850  1.5310  1.2382
 3135SOL     OW20866   1.875   2.048  11.825  0.1486 -0.0112  0.3058
 3135SOL    HW120867   1.797   2.051  11.769  1.0269 -1.5369 -1.0045
 3135SOL    HW220868   1.875   1.954  11.845  0.1253 -0.8194 -3.4658
 3136SOL     OW20869   1.546   2.316   7.791 -0.0068  0.3667 -0.1746
 3136SOL    HW120870   1.591   2.345   7.712 -0.7354 -3.3942 -1.9537
 3136SOL    HW220871   1.612   2.263   7.835  0.0918  0.8642  0.2859
 3137SOL     OW20872   4.413   1.549   6.447 -0.5120 -0.0800 -0.0108
 3137SOL    HW120873   4.341   1.491   6.420 -0.3638  0.1596 -0.9158
 3137SOL    HW220874   4.421   1.598   6.366 -1.4370 -1.5189 -0.9720
 3138SOL     OW20875   3.222   1.204   6.251 -0.1952  0.2852 -0.8843
 3138SOL    HW120876   3.155   1.262   6.287  1.2721  0.3969  1.6441
 3138SOL    HW220877   3.300   1.259   6.252  0.5651 -0.7883 -1.0699
 3139SOL     OW20878   2.894   3.382  15.570 -1.1410 -0.4167 -0.5267
 3139SOL    HW120879   2.944   3.358  15.648 -0.5851 -0.4458 -0.8866
 3139SOL    HW220880   2.970   3.424  15.529  0.4424 -1.6399  1.1301
 3140SOL     OW20881   1.870   1.235   8.060  0.0888 -0.5780 -0.5863
 3140SOL    HW120882   1.831   1.147   8.056 -2.1585  0.2907  2.0231
 3140SOL    HW220883   1.803   1.288   8.017  0.1085  0.4401  0.6376
 3141SOL     OW20884   4.455   4.592   9.624 -0.2605 -0.0715 -0.9955
 3141SOL    HW120885   4.484   4.662   9.565 -0.0655  0.5885 -0.1296
 3141SOL    HW220886   4.515   4.521   9.602  1.3153  1.2584 -1.0223
 3142SOL     OW20887   3.426   3.860   0.594 -0.3029  0.2614 -0.3750
 3142SOL    HW120888   3.495   3.819   0.542 -0.2773  0.6902 -0.6764
 3142SOL    HW220889   3.354   3.865   0.532 -1.0139 -3.7815  0.0797
 3143SOL     OW20890   3.402   2.272   3.160  0.1131  0.1882 -0.5939
 3143SOL    HW120891   3.376   2.357   3.197  1.0765  0.5682 -0.7900
 3143SOL    HW220892   3.349   2.285   3.081 -1.2818 -0.6428  0.2065
 3144SOL     OW20893   1.902   1.343  11.460 -0.7875  0.3987  0.5256
 3144SOL    HW120894   1.883   1.250  11.451  1.4759 -0.1498  1.3265
 3144SOL    HW220895   1.971   1.346  11.393 -3.0065  1.8477 -1.6751
 3145SOL     OW20896   3.638   3.792  12.616  0.3117  0.2507  0.2902
 3145SOL    HW120897   3.631   3.697  12.607  0.3511  0.2761 -0.0117
 3145SOL    HW220898   3.697   3.820  12.546 -1.5243  0.6992 -1.0595
 3146SOL     OW20899   3.468   1.257   7.434  0.6850 -0.1741  0.2628
 3146SOL    HW120900   3.396   1.293   7.382  0.5774  0.1330  0.6295
 3146SOL    HW220901   3.544   1.306   7.404  0.2016  0.6219  0.3464
 3147SOL     OW20902   1.257   0.589   8.896 -0.5982  0.7339 -0.1512
 3147SOL    HW120903   1.199   0.595   8.820 -2.2571 -0.9724  0.9512
 3147SOL    HW220904   1.271   0.494   8.893 -2.2645  0.3881  2.2292
 3148SOL     OW20905   0.172   4.201   4.135 -0.1345 -0.4995  0.0397
 3148SOL    HW120906   0.176   4.212   4.230 -1.8686 -1.0884  0.1779
 3148SOL    HW220907   0.156   4.291   4.108 -1.6245 -0.6825  0.3221
 3149SOL     OW20908   1.653   2.000   2.982  0.1415 -0.2084  0.2939
 3149SOL    HW120909   1.597   1.984   3.058 -1.5391  1.8098 -0.4977
 3149SOL    HW220910   1.700   1.917   2.979 -1.2867 -1.0209  0.4963
 3150SOL     OW20911   0.786   3.863   8.339  0.4246 -0.3049  0.1870
 3150SOL    HW120912   0.693   3.859   8.359  1.4783 -3.7051  4.3178
 3150SOL    HW220913   0.795   3.937   8.278 -2.6056 -0.3773 -0.3439
 3151SOL     OW20914   2.086   1.001   4.755  0.0904  0.4541  0.4322
 3151SOL    HW120915   2.018   0.983   4.690  0.3622 -0.3721  0.3785
 3151SOL    HW220916   2.028   1.039   4.820 -1.0291  0.2408 -0.4418
 3152SOL     OW20917   0.849   3.800   1.079 -0.9133 -0.3049  0.4829
 3152SOL    HW120918   0.943   3.813   1.068 -1.5959  1.9648 -2.5822
 3152SOL    HW220919   0.842   3.706   1.059  1.3360 -0.3814  0.0684
 3153SOL     OW20920   3.941   1.983   6.475 -0.3050  0.0213 -0.2364
 3153SOL    HW120921   4.005   2.017   6.412  0.3857 -2.0452 -0.6436
 3153SOL    HW220922   3.891   1.918   6.426  0.5652 -1.0218  0.2699
 3154SOL     OW20923   2.188   2.085   9.029 -0.0203 -0.0212  0.5673
 3154SOL    HW120924   2.199   2.124   8.942  0.5734 -1.5242 -0.0252
 3154SOL    HW220925   2.272   2.040   9.040 -0.0062  0.6430  3.1203
 3155SOL     OW20926   3.947   3.441   6.078  0.3577 -0.0955 -0.4872
 3155SOL    HW120927   4.000   3.448   6.157  0.8337 -0.4497 -0.7754
 3155SOL    HW220928   3.872   3.493   6.107  0.2398 -0.6160  0.1511
 3156SOL     OW20929   2.636   2.466   2.252  0.0810 -0.0618  0.4034
 3156SOL    HW120930   2.689   2.429   2.323 -1.1177  0.0272  1.3542
 3156SOL    HW220931   2.658   2.559   2.258  0.7295 -0.3051  1.8986
 3157SOL     OW20932   3.565   1.688   5.298  0.0207 -0.4041 -0.2030
 3157SOL    HW120933   3.602   1.641   5.372  0.9324 -1.1754 -1.1531
 3157SOL    HW220934   3.473   1.663   5.294  0.1935 -0.6805 -2.5260
 3158SOL     OW20935   4.028   0.721   4.682 -0.2237 -0.0198 -0.7461
 3158SOL    HW120936   4.092   0.791   4.667 -0.5102  0.4557  0.2395
 3158SOL    HW220937   3.953   0.779   4.698  0.9305  1.4427 -0.6356
 3159SOL     OW20938   2.001   4.669   4.399  0.4870 -0.3410  0.2683
 3159SOL    HW120939   2.095   4.678   4.418  0.5936 -1.1354  0.0851
 3159SOL    HW220940   1.984   0.038   4.416  2.0455  0.1790 -0.9453
 3160SOL     OW20941   0.030   2.055   0.343  0.2186  0.1826  0.2918
 3160SOL    HW120942   0.096   2.123   0.335 -0.5837  1.1104  1.6400
 3160SOL    HW220943   0.074   2.000   0.278  0.5087 -0.7701  1.2714
 3161SOL     OW20944   1.581   3.771   0.480 -0.3901 -0.1755 -0.1681
 3161SOL    HW120945   1.660   3.819   0.454  0.1116 -0.6869  0.4228
 3161SOL    HW220946   1.606   3.748   0.570 -0.2551 -0.4611 -0.2784
 3162SOL     OW20947   3.961   1.504   5.980 -0.6310 -0.1812  0.0284
 3162SOL    HW120948   3.915   1.472   5.903 -1.6273  0.8598  0.1869
 3162SOL    HW220949   4.000   1.422   6.010 -0.7569  0.3275  1.5828
 3163SOL     OW20950   2.955   1.534   8.793 -0.8284 -0.3176 -0.1691
 3163SOL    HW120951   2.901   1.571   8.863  0.6434  0.8401  0.3590
 3163SOL    HW220952   3.011   1.611   8.779 -1.5942  0.1210 -0.8104
 3164SOL     OW20953   4.438   0.604   4.872  0.4591 -0.6998 -0.2370
 3164SOL    HW120954   4.469   0.671   4.933 -0.0977 -1.6508  1.0850
 3164SOL    HW220955   4.347   0.593   4.902  0.3590 -0.8436 -0.5981
 3165SOL     OW20956   2.139   1.377   4.576 -0.6413  0.2738  0.0995
 3165SOL    HW120957   2.159   1.292   4.537 -1.7986 -0.8659  1.9977
 3165SOL    HW220958   2.193   1.381   4.655  0.3358  0.9855 -0.5978
 3166SOL     OW20959   0.503   3.683  11.036  0.0004 -0.3884  0.2886
 3166SOL    HW120960   0.474   3.772  11.015  0.2809 -0.4198 -0.2319
 3166SOL    HW220961   0.583   3.701  11.085  0.6729 -0.3954 -0.7934
 3167SOL     OW20962   3.210   2.732   2.031 -0.0800  0.5625  0.5037
 3167SOL    HW120963   3.302   2.711   2.015 -0.4880 -1.9081  1.3149
 3167SOL    HW220964   3.173   2.645   2.048 -0.1772  0.3803 -0.6573
 3168SOL     OW20965   4.642   2.083   7.619  0.6460  0.1125  0.4095
 3168SOL    HW120966   4.717   2.035   7.652 -0.1410 -1.9668 -0.8531
 3168SOL    HW220967   4.578   2.013   7.612 -0.6463  1.0115  3.2747
 3169SOL     OW20968   2.576   1.875   6.793  0.4621 -0.1263  0.4061
 3169SOL    HW120969   2.575   1.946   6.858  1.5382  0.0479  0.2455
 3169SOL    HW220970   2.594   1.907   6.705  1.0598  0.5369  0.7641
 3170SOL     OW20971   2.197   0.449   5.165  1.0972 -0.0327  0.0926
 3170SOL    HW120972   2.213   0.424   5.074 -1.7966 -3.2998  0.4828
 3170SOL    HW220973   2.244   0.376   5.203 -0.5268 -1.1757 -0.0803
 3171SOL     OW20974   2.944   1.793  15.191 -0.3314  0.4005 -0.2259
 3171SOL    HW120975   2.918   1.743  15.113 -3.1201  1.5884 -0.0298
 3171SOL    HW220976   2.996   1.861  15.147  0.0400  0.2347 -0.0485
 3172SOL     OW20977   1.605   1.002   4.966 -0.0396  0.9055  0.1101
 3172SOL    HW120978   1.542   0.929   4.963  1.4519 -0.3532 -0.2126
 3172SOL    HW220979   1.537   1.070   4.973 -1.0813 -0.2685  1.5289
 3173SOL     OW20980   3.136   2.813   4.099  0.5872  0.2903 -0.2102
 3173SOL    HW120981   3.201   2.879   4.074  1.0902 -0.1610 -0.0984
 3173SOL    HW220982   3.056   2.862   4.081  0.2495 -0.2033 -0.0549
 3174SOL     OW20983   0.100   2.027  16.564 -0.5429 -0.1428  0.0822
 3174SOL    HW120984   0.052   1.944  16.565 -1.8659  0.6339  1.4793
 3174SOL    HW220985   0.098   2.044  16.470  2.7722  0.9159  0.2131
 3175SOL     OW20986   1.295   1.056   6.064 -0.3559  0.8959  1.1245
 3175SOL    HW120987   1.330   1.137   6.027  0.0680  0.1484 -0.1074
 3175SOL    HW220988   1.330   0.994   5.999 -2.6820  0.5269  0.1882
 3176SOL     OW20989   0.572   2.044  10.982  0.3201  0.3202  0.2292
 3176SOL    HW120990   0.525   1.987  11.042  0.8141 -0.8535 -0.5067
 3176SOL    HW220991   0.496   2.078  10.934 -0.7510 -1.0160  0.9874
 3177SOL     OW20992   0.569   2.090   1.785  0.4484 -0.4838 -0.3607
 3177SOL    HW120993   0.585   1.998   1.761  0.5089 -1.3453  3.0562
 3177SOL    HW220994   0.614   2.083   1.868 -1.0952  2.8731  0.7635
 3178SOL     OW20995   4.443   1.039  14.147 -0.9099  0.0779  0.1434
 3178SOL    HW120996   4.408   1.014  14.061  0.2702  1.5307 -0.7587
 3178SOL    HW220997   4.509   0.970  14.157 -0.5832  0.5874  1.4404
 3179SOL     OW20998   3.072   0.817  10.533 -0.0814  0.4359  0.3797
 3179SOL    HW120999   3.011   0.745  10.549 -0.0275  0.3369  0.1493
 3179SOL    HW221000   3.125   0.806  10.612  0.5053 -0.7762 -0.1854
 3180SOL     OW21001   2.096   3.308  14.729 -0.3852  0.5130  0.0434
 3180SOL    HW121002   2.109   3.259  14.648 -0.6552  0.9139 -0.2445
 3180SOL    HW221003   2.144   3.387  14.705  1.7145 -0.8278 -0.1333
 3181SOL     OW21004   2.323   0.538   3.128 -0.5928  0.5820  0.2618
 3181SOL    HW121005   2.303   0.454   3.086  2.1243 -0.1443  0.4253
 3181SOL    HW221006   2.237   0.576   3.113 -1.5039 -1.6075 -0.1488
 3182SOL     OW21007   4.416   4.457   2.644 -0.3644  0.2742  0.5377
 3182SOL    HW121008   4.409   4.420   2.732 -0.3344  0.8015  0.7565
 3182SOL    HW221009   4.323   4.458   2.621 -0.1830  2.1771 -0.1076
 3183SOL     OW21010   2.769   0.855  17.050  0.0659  0.1377  0.2601
 3183SOL    HW121011   2.712   0.794  17.097  2.6625 -0.8961  2.0697
 3183SOL    HW221012   2.833   0.794  17.012 -0.2044  1.5993 -2.5838
 3184SOL     OW21013   3.922   3.997   5.637  0.1122 -0.1171  0.1916
 3184SOL    HW121014   3.870   4.005   5.717 -1.3594  0.9349 -0.8688
 3184SOL    HW221015   3.854   3.951   5.587  0.1494  2.3289 -2.1060
 3185SOL     OW21016   1.459   3.372   2.418 -0.0602  0.0467 -0.1089
 3185SOL    HW121017   1.500   3.369   2.504 -2.3085 -2.4117  0.8860
 3185SOL    HW221018   1.507   3.448   2.386 -0.8685  0.1557 -1.0535
 3186SOL     OW21019   1.999   0.768   7.326 -0.4023 -0.1105 -0.5256
 3186SOL    HW121020   1.976   0.835   7.390  1.0973  0.4777 -0.6180
 3186SOL    HW221021   1.922   0.770   7.269 -0.2204 -0.7076 -0.7935
 3187SOL     OW21022   3.227   0.388  16.496  0.0958  0.2093  0.4835
 3187SOL    HW121023   3.297   0.419  16.553  0.1692 -1.9711  1.5501
 3187SOL    HW221024   3.266   0.309  16.458 -0.2133  0.5039 -0.4428
 3188SOL     OW21025   3.465   0.590   6.841  0.0706  0.0231 -0.1344
 3188SOL    HW121026   3.402   0.520   6.826 -1.7234  1.5495  0.3714
 3188SOL    HW221027   3.407   0.647   6.892 -0.1500 -0.5076  0.2088
 3189SOL     OW21028   2.440   4.308  13.225  0.3432  0.1110  0.0822
 3189SOL    HW121029   2.493   4.241  13.182  0.4075  0.3998 -0.2910
 3189SOL    HW221030   2.362   4.255  13.239  0.2090  0.1393 -0.5861
 3190SOL     OW21031   3.116   4.708   3.198 -0.2345  0.3294  0.3702
 3190SOL    HW121032   3.036   4.656   3.194  0.0211 -0.0240 -0.1943
 3190SOL    HW221033   3.077   0.064   3.162 -1.3232 -0.2652  0.2443
 3191SOL     OW21034   4.467   3.286   2.378 -0.3296  0.1272  0.4412
 3191SOL    HW121035   4.396   3.302   2.315 -0.6891  0.5651  0.9662
 3191SOL    HW221036   4.493   3.373   2.408 -1.9666  0.7656 -0.0273
 3192SOL     OW21037   1.534   4.573  10.358 -0.2373 -0.5478 -0.6377
 3192SOL    HW121038   1.523   4.665  10.381  1.5065 -0.3288 -0.6243
 3192SOL    HW221039   1.441   4.555  10.350 -0.0112 -1.8117 -0.4777
 3193SOL     OW21040   1.390   1.251  12.929  0.0959 -0.0297 -0.0284
 3193SOL    HW121041   1.369   1.273  12.839 -2.2704 -0.5113  0.4040
 3193SOL    HW221042   1.347   1.321  12.978 -0.0615  0.5416 -0.9890
 3194SOL     OW21043   3.303   2.209   8.370 -0.1931  0.1442 -0.5232
 3194SOL    HW121044   3.394   2.196   8.398 -0.5857 -1.5310 -0.0509
 3194SOL    HW221045   3.276   2.117   8.365  0.7059 -0.3089  2.9117
 3195SOL     OW21046   1.022   3.381  15.507  0.0193 -0.1963 -0.1570
 3195SOL    HW121047   1.001   3.470  15.479  1.3122  0.9008  2.3983
 3195SOL    HW221048   0.968   3.386  15.586 -0.0184 -2.7449 -0.0197
 3196SOL     OW21049   2.703   3.282   8.919  0.3155  0.0976  0.8316
 3196SOL    HW121050   2.724   3.220   8.849 -0.3464  0.3776  0.3824
 3196SOL    HW221051   2.670   3.347   8.857  1.5155 -0.7088 -0.6776
 3197SOL     OW21052   2.205   3.718   1.472  0.6776 -0.0148 -0.0632
 3197SOL    HW121053   2.209   3.775   1.395 -0.2174  1.3761  0.9163
 3197SOL    HW221054   2.280   3.661   1.455  1.2097  1.3912 -2.3829
 3198SOL     OW21055   1.367   2.695  14.052  0.3155 -0.0639  0.0470
 3198SOL    HW121056   1.326   2.616  14.017  0.5339 -0.1357 -0.0451
 3198SOL    HW221057   1.342   2.754  13.981  1.9188  1.7652  0.9895
 3199SOL     OW21058   1.846   2.313   2.880 -0.3178 -0.1510 -0.4302
 3199SOL    HW121059   1.752   2.315   2.863 -0.5788  0.5796  1.0672
 3199SOL    HW221060   1.873   2.380   2.818  0.3968 -0.0002  0.0476
 3200SOL     OW21061   2.732   3.912  14.502 -0.2872  0.0260  0.0286
 3200SOL    HW121062   2.703   3.943  14.588 -0.1833 -1.4444  0.6044
 3200SOL    HW221063   2.825   3.891  14.517 -0.3842 -1.0825 -0.9933
 3201SOL     OW21064   3.259   3.568  14.468 -0.2277  0.1108 -0.8347
 3201SOL    HW121065   3.207   3.521  14.402  1.0855  0.5972 -2.2125
 3201SOL    HW221066   3.347   3.532  14.462 -0.1534  0.3660 -1.3051
 3202SOL     OW21067   2.472   1.199   7.473 -0.9458  0.1911  0.3591
 3202SOL    HW121068   2.471   1.205   7.569 -0.7826  0.3948  0.3495
 3202SOL    HW221069   2.386   1.229   7.443 -1.7455 -2.5882 -0.1201
 3203SOL     OW21070   1.049   0.302  10.403 -0.1707  0.0833  0.1098
 3203SOL    HW121071   1.090   0.216  10.403 -0.3498 -0.0007  0.9496
 3203SOL    HW221072   0.957   0.285  10.422 -0.1773 -1.0371 -0.9254
 3204SOL     OW21073   2.307   0.673   6.365 -0.9483  0.1636 -0.2932
 3204SOL    HW121074   2.263   0.738   6.420 -1.8852 -0.6233 -0.0948
 3204SOL    HW221075   2.357   0.614   6.421 -0.7314  0.8325  0.2221
 3205SOL     OW21076   2.648   2.976  13.912  0.1263 -0.5109  0.0120
 3205SOL    HW121077   2.647   2.883  13.935 -1.8116  0.0293  2.0996
 3205SOL    HW221078   2.592   3.022  13.974 -2.2281 -1.3075 -1.5167
 3206SOL     OW21079   1.495   4.219   6.068 -0.8355  0.7743  0.0157
 3206SOL    HW121080   1.478   4.299   6.117  2.4339  0.0013  2.4486
 3206SOL    HW221081   1.512   4.249   5.979  2.9441  0.5209  0.6176
 3207SOL     OW21082   2.750   1.098   6.080 -0.2044  0.0368 -0.1463
 3207SOL    HW121083   2.797   1.179   6.101 -1.4488  1.0561 -1.3073
 3207SOL    HW221084   2.699   1.126   6.004 -2.9360  1.0189  2.0376
 3208SOL     OW21085   0.939   1.246   2.809 -0.8863  0.4534  0.8964
 3208SOL    HW121086   1.026   1.269   2.842 -0.2955 -1.1139  0.4635
 3208SOL    HW221087   0.937   1.290   2.725  1.6546 -2.4585 -0.7057
 3209SOL     OW21088   3.102   2.040   0.864 -0.6385 -0.1970  0.1767
 3209SOL    HW121089   3.131   2.051   0.954 -0.0118 -1.3722  0.1076
 3209SOL    HW221090   3.074   1.949   0.857  0.1122 -0.2682 -1.9846
 3210SOL     OW21091   2.494   0.277   9.028 -0.0193 -0.2873  0.2205
 3210SOL    HW121092   2.563   0.231   9.076 -0.6188 -0.4091  0.9646
 3210SOL    HW221093   2.493   0.221   8.951 -1.1379  0.6778 -0.4684
 3211SOL     OW21094   3.594   3.646  14.516 -0.3375 -0.1932  0.4240
 3211SOL    HW121095   3.618   3.554  14.501  0.4550  0.0241  0.3624
 3211SOL    HW221096   3.531   3.626  14.585 -0.8193 -0.3936 -0.0639
 3212SOL     OW21097   1.051   2.210   7.946  0.9064 -0.6538 -0.1670
 3212SOL    HW121098   0.982   2.145   7.960  1.2673 -1.2641 -1.2187
 3212SOL    HW221099   0.998   2.262   7.885  0.5221 -1.8224 -0.8310
 3213SOL     OW21100   2.988   4.632   6.739  0.5370  0.1844 -0.7985
 3213SOL    HW121101   3.064   4.618   6.796  0.4123 -0.8380 -0.8888
 3213SOL    HW221102   2.935   4.562   6.778 -1.4550  2.2669  0.2458
 3214SOL     OW21103   2.945   1.205   3.095 -0.7361 -0.0785 -0.0764
 3214SOL    HW121104   2.981   1.159   3.019  0.8651  1.7877 -0.4551
 3214SOL    HW221105   3.016   1.266   3.115 -0.5366 -0.4725  0.4191
 3215SOL     OW21106   2.655   0.729   7.958  0.4535 -0.2398 -0.1425
 3215SOL    HW121107   2.742   0.769   7.962 -0.2036  1.3170 -1.2561
 3215SOL    HW221108   2.655   0.708   7.864  4.4351 -1.7293  0.1927
 3216SOL     OW21109   2.521   0.009   5.153 -0.3403 -0.2730  0.4856
 3216SOL    HW121110   2.482   0.082   5.106 -3.5119 -0.6401  2.5208
 3216SOL    HW221111   2.455   4.663   5.154 -0.0598 -0.5934 -3.3120
 3217SOL     OW21112   0.563   3.590  14.642 -0.0212  0.0924 -0.2219
 3217SOL    HW121113   0.557   3.561  14.551 -0.6217 -1.5920  0.3364
 3217SOL    HW221114   0.642   3.642  14.653 -0.5351  1.2044 -1.8567
 3218SOL     OW21115   1.205   4.120   6.665 -0.3770  0.2224  0.1428
 3218SOL    HW121116   1.216   4.035   6.621 -0.0113  0.2727  0.1437
 3218SOL    HW221117   1.110   4.131   6.662 -0.3499  0.4721  0.2151
 3219SOL     OW21118   4.064   0.392  11.112 -0.0940 -0.3678  0.0537
 3219SOL    HW121119   4.048   0.452  11.039 -2.5423  0.4671  1.2598
 3219SOL    HW221120   4.109   0.453  11.171  2.3250 -0.0994 -2.0444
 3220SOL     OW21121   1.205   0.469   4.143  0.1604 -0.0933 -0.1710
 3220SOL    HW121122   1.246   0.433   4.064  0.4946 -1.5642  0.6857
 3220SOL    HW221123   1.144   0.397   4.159  0.3005 -0.3499 -0.7678
 3221SOL     OW21124   2.962   0.486   3.520  0.4147 -0.0468  0.5583
 3221SOL    HW121125   2.991   0.491   3.611  0.9197  0.6592  0.3591
 3221SOL    HW221126   2.872   0.518   3.529  0.3055 -0.4359  0.8544
 3222SOL     OW21127   4.664   0.938   3.982 -0.4203 -0.1223 -0.2089
 3222SOL    HW121128   0.024   0.956   4.025 -0.2144 -0.7623 -0.3359
 3222SOL    HW221129   4.687   0.866   3.924 -0.8333 -1.5385  1.4039
 3223SOL     OW21130   3.059   3.357   3.421  0.2374  0.0408  0.4586
 3223SOL    HW121131   3.131   3.396   3.471  0.6277 -2.6299  1.9409
 3223SOL    HW221132   3.059   3.399   3.335 -0.8891 -1.4721 -0.2750
 3224SOL     OW21133   1.730   2.726   3.218 -0.3818  0.4321 -0.0763
 3224SOL    HW121134   1.720   2.817   3.191  1.6248  0.6318 -0.1667
 3224SOL    HW221135   1.766   2.704   3.132  1.3602 -0.7660  0.9619
 3225SOL     OW21136   0.895   0.204   9.429  0.1581  0.2803  0.5876
 3225SOL    HW121137   0.896   0.270   9.499  1.0196 -0.8696  1.6729
 3225SOL    HW221138   0.854   0.135   9.481 -1.2982 -0.3574 -1.4461
 3226SOL     OW21139   3.231   0.549  12.222 -0.2851  0.1463 -0.8785
 3226SOL    HW121140   3.233   0.643  12.243 -0.2958  0.3806 -1.9468
 3226SOL    HW221141   3.211   0.517  12.310  1.9560  1.8954  0.2602
 3227SOL     OW21142   0.963   0.492   9.312 -0.0004  0.0523  0.3254
 3227SOL    HW121143   0.955   0.472   9.405  1.1442 -0.0537  0.4081
 3227SOL    HW221144   1.047   0.450   9.292  0.4988  0.7452  0.9652
 3228SOL     OW21145   0.618   4.599   2.516 -0.0352  0.4467 -0.0519
 3228SOL    HW121146   0.529   4.636   2.517 -0.7472 -1.2367 -1.6481
 3228SOL    HW221147   0.603   4.524   2.459  0.8210  1.3746 -1.4755
 3229SOL     OW21148   2.861   2.732   5.807  0.1371 -0.5890 -0.6787
 3229SOL    HW121149   2.785   2.742   5.865  0.9557 -1.7907  0.5886
 3229SOL    HW221150   2.813   2.715   5.726 -1.7139  0.6985  0.1477
 3230SOL     OW21151   3.706   3.980  14.220  0.4905  0.2042 -0.0955
 3230SOL    HW121152   3.616   3.970  14.191 -0.0594 -0.9368  1.9684
 3230SOL    HW221153   3.715   4.075  14.214 -0.6182  0.3152  0.0421
 3231SOL     OW21154   2.350   0.751   4.427 -0.3052  0.0866  0.6217
 3231SOL    HW121155   2.418   0.701   4.472  0.5613  0.2727 -0.4537
 3231SOL    HW221156   2.381   0.840   4.444  3.0269 -0.3823 -2.9225
 3232SOL     OW21157   4.417   0.726   9.380 -0.5050  0.5601  0.4319
 3232SOL    HW121158   4.383   0.664   9.445  0.8852 -0.4156  0.2282
 3232SOL    HW221159   4.504   0.734   9.419 -0.0284  0.9179 -0.7078
 3233SOL     OW21160   3.359   3.564   9.932 -0.3622  0.1928  0.7425
 3233SOL    HW121161   3.324   3.650   9.952 -1.3146 -0.2901  1.1686
 3233SOL    HW221162   3.321   3.547   9.846  1.2747 -0.1639  0.0901
 3234SOL     OW21163   0.447   0.932   8.726  0.5287 -0.2621  0.8130
 3234SOL    HW121164   0.502   0.933   8.805  2.9154  1.0292 -0.8558
 3234SOL    HW221165   0.468   1.019   8.692  2.6565 -0.8235  0.6251
 3235SOL     OW21166   1.094   0.825   1.964 -0.0982  0.2888 -0.2735
 3235SOL    HW121167   1.157   0.766   2.005 -0.2558  0.4346  0.1821
 3235SOL    HW221168   1.042   0.848   2.041 -0.7842 -3.2192  0.2833
 3236SOL     OW21169   0.255   0.259   2.498  0.5069  0.0813 -0.2386
 3236SOL    HW121170   0.196   0.266   2.573  0.2518  0.2405 -0.4532
 3236SOL    HW221171   0.338   0.284   2.539  0.5539  2.4315 -1.7806
 3237SOL     OW21172   0.168   4.443   1.710 -0.1899  0.1588  0.4430
 3237SOL    HW121173   0.138   4.374   1.769  1.8732 -2.2508 -1.3610
 3237SOL    HW221174   0.085   4.480   1.680 -0.0947 -0.5833 -0.7012
 3238SOL     OW21175   3.368   2.232   5.324  0.5071 -0.3510  0.2906
 3238SOL    HW121176   3.326   2.252   5.240  0.8094 -0.3230  0.1478
 3238SOL    HW221177   3.455   2.209   5.292 -0.4660  0.4380 -2.9610
 3239SOL     OW21178   1.810   2.930   9.796  0.3315 -0.4182 -0.2363
 3239SOL    HW121179   1.836   2.993   9.864 -1.2130  0.4435 -0.4409
 3239SOL    HW221180   1.898   2.912   9.764  0.5494 -0.8432  0.5902
 3240SOL     OW21181   3.980   0.744   7.275 -0.0930 -0.0389  0.3392
 3240SOL    HW121182   3.884   0.742   7.268 -0.1472 -0.8215  1.3777
 3240SOL    HW221183   3.996   0.838   7.275  0.9468 -0.2201  0.3399
 3241SOL     OW21184   3.646   4.175  17.600 -0.3109  0.6692  0.1449
 3241SOL    HW121185   3.677   4.086  17.585 -1.6920  0.1171  0.5575
 3241SOL    HW221186   3.710   4.212  17.660 -0.9461  2.3999 -0.2163
 3242SOL     OW21187   2.835   0.170   2.572 -0.3692  0.0522  0.6568
 3242SOL    HW121188   2.837   0.257   2.533  1.2624 -0.3934 -0.2299
 3242SOL    HW221189   2.741   0.154   2.581 -0.1309 -1.4218  0.5903
 3243SOL     OW21190   3.944   1.222  10.776  0.3172  0.3369  0.1823
 3243SOL    HW121191   3.882   1.156  10.745 -0.2054 -0.6639  3.3601
 3243SOL    HW221192   3.884   1.293  10.796 -2.3675 -1.7518 -0.3461
 3244SOL     OW21193   3.791   3.662   6.205 -0.8535  0.0534  0.3282
 3244SOL    HW121194   3.814   3.746   6.244  2.8154  0.6024 -3.0206
 3244SOL    HW221195   3.712   3.641   6.253 -1.2671  1.0990  0.1223
 3245SOL     OW21196   0.087   3.651  14.033 -0.2398  0.1274  0.7455
 3245SOL    HW121197   0.062   3.609  14.115  1.8344 -0.9744  0.8135
 3245SOL    HW221198   0.003   3.650  13.986  0.2993  1.1374 -0.2570
 3246SOL     OW21199   3.371   0.263   6.466  0.4367  0.3170 -0.2611
 3246SOL    HW121200   3.359   0.296   6.377  2.1627 -1.6925 -1.2560
 3246SOL    HW221201   3.453   0.307   6.487 -0.1134  1.7850 -1.2284
 3247SOL     OW21202   0.815   2.487   7.247 -0.3810  0.1023 -0.4787
 3247SOL    HW121203   0.835   2.571   7.205 -0.7491  0.3569 -0.1452
 3247SOL    HW221204   0.901   2.449   7.265 -0.5580 -0.4024 -0.7153
 3248SOL     OW21205   4.418   3.065   9.754  0.1786  0.5310  1.0485
 3248SOL    HW121206   4.451   3.154   9.772  0.1438  0.6572  0.4680
 3248SOL    HW221207   4.351   3.059   9.822 -0.3637 -0.7027  0.3991
 3249SOL     OW21208   2.103   3.630   1.075 -0.2220 -0.0327 -0.4722
 3249SOL    HW121209   2.142   3.717   1.065 -3.5924  1.4809 -0.4658
 3249SOL    HW221210   2.170   3.574   1.037  1.3882  1.0106  0.8438
 3250SOL     OW21211   0.146   2.862  13.046  0.4590  0.1157  0.2762
 3250SOL    HW121212   0.239   2.853  13.067  1.0993  2.3672 -1.5572
 3250SOL    HW221213   0.159   2.857  12.951  1.9144 -0.3658  0.5030
 3251SOL     OW21214   2.947   1.348  13.309 -0.1851 -0.1085 -0.0420
 3251SOL    HW121215   2.875   1.371  13.367  0.2112 -3.5567  1.8777
 3251SOL    HW221216   2.971   1.258  13.335 -0.9957 -0.3862 -0.2609
 3252SOL     OW21217   2.236   1.140  15.125 -0.0991  0.4386 -0.0534
 3252SOL    HW121218   2.162   1.166  15.180 -1.1600 -4.2562  0.7758
 3252SOL    HW221219   2.286   1.221  15.130  0.5456 -0.1696  3.0983
 3253SOL     OW21220   3.948   1.573   5.601 -0.5988 -0.7329  0.1268
 3253SOL    HW121221   3.915   1.640   5.541  1.3581  0.1936  0.0711
 3253SOL    HW221222   3.882   1.562   5.669  0.1156 -4.6908  0.1948
 3254SOL     OW21223   2.827   2.314   9.963 -0.0506  0.2326 -0.0212
 3254SOL    HW121224   2.750   2.331  10.017 -0.0898  0.8384 -0.2701
 3254SOL    HW221225   2.818   2.219   9.964 -0.0490  0.2112 -1.4598
 3255SOL     OW21226   0.102   1.033   2.060 -0.3483 -0.5750 -0.2592
 3255SOL    HW121227   0.025   0.979   2.042  0.3478 -1.9303  0.7708
 3255SOL    HW221228   0.106   1.039   2.155  0.7405 -1.8659 -0.2179
 3256SOL     OW21229   4.708   3.997   2.129 -0.4991 -0.1586  0.6268
 3256SOL    HW121230   4.620   4.030   2.144 -0.0451  0.7280  1.3633
 3256SOL    HW221231   4.693   3.964   2.041  1.5173 -0.5032  0.4056
 3257SOL     OW21232   1.774   1.473   2.451 -0.0821 -0.3046 -0.3721
 3257SOL    HW121233   1.838   1.542   2.468 -1.0840  1.2040 -2.6018
 3257SOL    HW221234   1.825   1.392   2.449  1.3083  0.5840 -0.7524
 3258SOL     OW21235   0.741   3.593   9.163 -0.2155 -0.5321  0.5405
 3258SOL    HW121236   0.710   3.662   9.103 -2.9832 -0.3736  2.1441
 3258SOL    HW221237   0.758   3.646   9.241 -2.2613  1.3890 -0.3109
 3259SOL     OW21238   1.680   3.644   2.533 -0.1451 -0.3326  0.2047
 3259SOL    HW121239   1.755   3.663   2.590 -2.4480  1.8642  2.5458
 3259SOL    HW221240   1.632   3.580   2.585  1.1889  0.1173  2.0261
 3260SOL     OW21241   1.786   1.062   8.640 -0.3065  0.1230  0.5934
 3260SOL    HW121242   1.716   1.115   8.601  0.8708  0.9625 -0.3391
 3260SOL    HW221243   1.813   1.117   8.713 -1.0401  1.5949 -0.2605
 3261SOL     OW21244   4.437   2.729   6.735  0.8541 -0.6995 -0.5956
 3261SOL    HW121245   4.399   2.786   6.802 -0.6642  0.4572 -2.4285
 3261SOL    HW221246   4.435   2.782   6.656  0.3690 -1.3411 -1.0150
 3262SOL     OW21247   0.709   0.166  11.202  0.2153  0.3059 -0.0766
 3262SOL    HW121248   0.657   0.232  11.157 -0.7566 -0.0831  0.4657
 3262SOL    HW221249   0.706   0.200  11.292  3.1809 -1.3842  0.6634
 3263SOL     OW21250   0.534   0.990  16.114  0.4346 -0.1015 -0.1453
 3263SOL    HW121251   0.565   0.899  16.118 -0.5497 -0.5308 -2.4673
 3263SOL    HW221252   0.515   0.995  16.021  1.8223 -0.5883 -0.4513
 3264SOL     OW21253   2.139   0.834   6.512 -0.2172 -0.2970  0.4462
 3264SOL    HW121254   2.111   0.759   6.565 -1.2214 -0.9659 -1.0363
 3264SOL    HW221255   2.050   0.869   6.512 -0.5739 -1.1965  0.4896
 3265SOL     OW21256   2.039   1.197  15.315 -0.5784 -0.0267 -0.6651
 3265SOL    HW121257   1.966   1.229  15.262 -1.1877  1.7300  1.2172
 3265SOL    HW221258   2.029   1.244  15.398  1.8748 -0.6601 -0.0331
 3266SOL     OW21259   1.074   4.152   7.525 -0.5378 -0.6273 -0.1120
 3266SOL    HW121260   1.088   4.239   7.488  3.2816 -0.7829  0.9985
 3266SOL    HW221261   1.158   4.135   7.567 -2.6848 -2.7297  3.3265
 3267SOL     OW21262   1.636   0.750  15.799  0.6677  1.1730 -0.2803
 3267SOL    HW121263   1.635   0.750  15.894 -0.2397  1.3388 -0.2873
 3267SOL    HW221264   1.557   0.695  15.791  0.2012  2.2514 -3.0777
 3268SOL     OW21265   3.870   3.046   5.050  0.1295 -0.0399  0.5306
 3268SOL    HW121266   3.917   3.022   4.971  0.9915  0.0477  1.0207
 3268SOL    HW221267   3.781   3.023   5.022  0.0964  1.1065 -0.2903
 3269SOL     OW21268   2.143   3.881   8.452  0.0577 -0.0067  0.0019
 3269SOL    HW121269   2.131   3.795   8.410 -1.2991 -0.1301  0.6335
 3269SOL    HW221270   2.187   3.922   8.378  5.1665 -1.1741  2.4320
 3270SOL     OW21271   4.582   0.473   4.435  0.0125  0.3302 -0.1615
 3270SOL    HW121272   4.565   0.525   4.356 -1.8950 -0.0711 -0.0265
 3270SOL    HW221273   4.551   0.387   4.405  1.3486 -0.3388  0.3957
 3271SOL     OW21274   0.308   0.222  13.747 -0.0055 -0.6789 -0.3300
 3271SOL    HW121275   0.311   0.237  13.653  2.1688  0.9076  0.0046
 3271SOL    HW221276   0.394   0.259  13.766 -0.7868  0.5191  0.8606
 3272SOL     OW21277   4.573   1.106   8.414 -0.6972 -0.0492 -0.6253
 3272SOL    HW121278   4.519   1.070   8.344  0.2687 -0.0867 -1.3478
 3272SOL    HW221279   4.510   1.169   8.449  0.2015  0.3075  0.3281
 3273SOL     OW21280   0.469   1.724   5.716 -0.4027 -0.2246  0.3556
 3273SOL    HW121281   0.465   1.804   5.664 -0.2703  0.0878  0.8237
 3273SOL    HW221282   0.511   1.754   5.796 -0.6429  0.0344  0.3847
 3274SOL     OW21283   2.722   2.533   3.033 -0.2024 -0.2458 -0.1344
 3274SOL    HW121284   2.663   2.478   3.084  0.6647  0.8142  2.0046
 3274SOL    HW221285   2.670   2.555   2.956 -1.4277  3.0185  1.5840
 3275SOL     OW21286   1.088   1.373   2.591  0.0801 -0.2670 -0.1127
 3275SOL    HW121287   1.014   1.434   2.583 -1.1269 -2.0130 -2.3349
 3275SOL    HW221288   1.117   1.363   2.500 -0.9071  2.3698 -0.7250
 3276SOL     OW21289   2.835   0.923   3.202 -0.0033 -0.0756 -0.4164
 3276SOL    HW121290   2.859   0.839   3.241  1.1276 -0.4182 -1.8347
 3276SOL    HW221291   2.800   0.974   3.274 -1.3184 -2.0343  0.3339
 3277SOL     OW21292   1.718   0.507   4.537  0.3657 -0.2458 -0.3462
 3277SOL    HW121293   1.688   0.593   4.505 -0.1322  0.1656  1.2065
 3277SOL    HW221294   1.808   0.510   4.504  0.9534 -1.9932  1.1069
 3278SOL     OW21295   2.740   1.016   2.447  0.0080 -0.1932 -0.3682
 3278SOL    HW121296   2.668   0.965   2.485  1.2907 -1.6670  0.0733
 3278SOL    HW221297   2.728   0.987   2.357 -0.8737  2.5867 -1.1580
 3279SOL     OW21298   0.547   3.322   3.344 -0.5173  0.3067  0.3628
 3279SOL    HW121299   0.585   3.393   3.395  0.5598 -0.7776  1.0750
 3279SOL    HW221300   0.524   3.255   3.409 -1.3683 -1.4532 -1.7507
 3280SOL     OW21301   2.526   3.365  13.342 -0.3206  0.4809 -0.0273
 3280SOL    HW121302   2.464   3.292  13.345 -0.1353  0.2252 -2.5146
 3280SOL    HW221303   2.506   3.394  13.253 -3.2786  0.1738  0.5364
 3281SOL     OW21304   3.393   2.813   2.540  0.3645  0.1469 -0.1978
 3281SOL    HW121305   3.305   2.837   2.570 -0.2624 -1.4606 -0.7362
 3281SOL    HW221306   3.443   2.851   2.612  1.9029 -0.3848 -0.9749
 3282SOL     OW21307   0.861   1.462  12.348 -0.1377  0.0363  0.1246
 3282SOL    HW121308   0.827   1.509  12.271  0.3055 -1.5665 -1.0473
 3282SOL    HW221309   0.929   1.519  12.383 -0.7717 -0.0838  1.5178
 3283SOL     OW21310   3.425   2.200   6.850 -0.4616  0.4521  0.1985
 3283SOL    HW121311   3.444   2.125   6.906 -0.2960  2.7441  3.1779
 3283SOL    HW221312   3.463   2.167   6.768 -1.7372 -1.3049  0.3201
 3284SOL     OW21313   3.360   1.667   8.237  0.3182  0.4956  0.0389
 3284SOL    HW121314   3.309   1.706   8.166  0.1996  1.0159  0.4139
 3284SOL    HW221315   3.411   1.600   8.190  0.4796  1.4170 -1.0917
 3285SOL     OW21316   0.283   4.707  16.828 -0.0444 -0.2174 -0.6069
 3285SOL    HW121317   0.369   4.669  16.847  0.4341  0.5082 -1.3220
 3285SOL    HW221318   0.292   0.031  16.746  0.5488  0.8881  0.0910
 3286SOL     OW21319   2.133   0.585   3.772 -0.0625  0.0603  0.1098
 3286SOL    HW121320   2.153   0.660   3.716  2.5869  2.0396  3.7240
 3286SOL    HW221321   2.067   0.623   3.831  1.7189  1.3239  1.2927
 3287SOL     OW21322   2.249   1.902   0.423  0.3492 -0.0140  0.0938
 3287SOL    HW121323   2.223   1.930   0.511  1.8734  0.6305  0.3487
 3287SOL    HW221324   2.178   1.924   0.363  0.6938 -0.1634 -0.3628
 3288SOL     OW21325   2.873   0.328   4.999 -0.2990  0.1403  0.2243
 3288SOL    HW121326   2.866   0.251   5.056  0.1753 -0.1829 -0.1528
 3288SOL    HW221327   2.781   0.350   4.985  0.0514 -0.5236 -2.9465
 3289SOL     OW21328   4.614   0.963  16.482  0.2236 -0.0611 -0.4559
 3289SOL    HW121329   4.657   0.939  16.565  0.9919  1.8731 -0.2973
 3289SOL    HW221330   4.524   0.933  16.498  0.5374 -0.9696 -0.3845
 3290SOL     OW21331   1.395   2.666  15.828  0.1462  0.2012  0.3294
 3290SOL    HW121332   1.304   2.649  15.806  0.2079  1.9810 -1.2540
 3290SOL    HW221333   1.437   2.605  15.768 -2.5580 -2.4066  1.0797
 3291SOL     OW21334   4.513   4.003  11.226 -0.2255 -0.2721 -0.0705
 3291SOL    HW121335   4.561   3.930  11.266 -0.3071  0.0136  0.5300
 3291SOL    HW221336   4.444   4.009  11.291 -0.2669  0.0502 -0.1449
 3292SOL     OW21337   0.439   1.784   0.110  0.8796  0.3964 -0.0235
 3292SOL    HW121338   0.451   1.876   0.135 -1.6874  0.6085  0.4863
 3292SOL    HW221339   0.524   1.768   0.069  0.4911 -0.0305 -0.6722
 3293SOL     OW21340   2.995   4.659  14.813  0.4350  0.0591  0.5502
 3293SOL    HW121341   2.948   4.663  14.730 -1.4284  2.1096  1.7061
 3293SOL    HW221342   3.078   4.700  14.787  0.8018 -1.9499 -1.4790
 3294SOL     OW21343   1.081   0.201   8.376 -0.4326 -0.7316  0.0350
 3294SOL    HW121344   1.046   0.116   8.401 -0.0289 -0.9067  0.0093
 3294SOL    HW221345   1.171   0.179   8.351 -0.3431 -0.4125  0.0769
 3295SOL     OW21346   0.643   1.187   7.859  0.8559  0.0664 -0.3078
 3295SOL    HW121347   0.562   1.238   7.866  2.3918  2.0734  2.7257
 3295SOL    HW221348   0.620   1.112   7.914  0.9564  0.1760 -0.1199
 3296SOL     OW21349   1.602   0.944   1.590 -0.3171  0.4525 -0.2843
 3296SOL    HW121350   1.551   0.872   1.628  0.4818 -0.0803 -0.2276
 3296SOL    HW221351   1.536   1.013   1.588 -0.2048  0.6054  1.1256
 3297SOL     OW21352   3.520   1.107   8.601 -0.3873 -0.2395 -0.5711
 3297SOL    HW121353   3.539   1.104   8.695  0.5153 -1.0665 -0.7832
 3297SOL    HW221354   3.424   1.112   8.605 -0.4112 -1.5211  0.5470
 3298SOL     OW21355   2.329   0.558   7.438  0.2209  0.8063 -0.5550
 3298SOL    HW121356   2.407   0.530   7.390 -0.2212 -2.0188  0.3300
 3298SOL    HW221357   2.270   0.572   7.364 -1.1560 -0.0165  0.4032
 3299SOL     OW21358   3.479   0.590   6.343 -0.0178 -0.2978  0.1197
 3299SOL    HW121359   3.516   0.527   6.405 -0.9939  0.4416  1.4571
 3299SOL    HW221360   3.475   0.673   6.391 -1.2222  1.3660 -2.9114
 3300SOL     OW21361   0.696   2.701   8.064 -0.6335  0.2504 -0.1053
 3300SOL    HW121362   0.636   2.651   8.119  0.4907 -0.2769  0.6319
 3300SOL    HW221363   0.664   2.660   7.983 -0.4389 -1.8612  0.8804
 3301SOL     OW21364   2.382   0.665   7.679 -0.1902  0.3772  0.0952
 3301SOL    HW121365   2.340   0.747   7.655 -1.9626 -0.0384  1.7879
 3301SOL    HW221366   2.357   0.619   7.599  0.4216  0.1812  0.0160
 3302SOL     OW21367   2.416   0.051  10.563  0.1396  0.8087 -0.1159
 3302SOL    HW121368   2.498   0.085  10.526  0.4504 -1.8109 -1.8283
 3302SOL    HW221369   2.387   0.139  10.587 -1.0486  0.1535  0.8474
 3303SOL     OW21370   3.418   3.459  17.268 -0.3044  0.5222 -0.6587
 3303SOL    HW121371   3.431   3.431  17.359  1.0684 -0.8009 -1.2661
 3303SOL    HW221372   3.508   3.476  17.239  0.1510  1.8305  1.5172
 3304SOL     OW21373   2.647   0.285  10.729 -0.6874 -0.1045 -0.3954
 3304SOL    HW121374   2.573   0.346  10.720  0.3659  1.4011  1.0998
 3304SOL    HW221375   2.625   0.237  10.809  0.4642 -1.0579 -0.6516
 3305SOL     OW21376   3.149   2.487   1.171 -0.1092 -0.0466  0.2990
 3305SOL    HW121377   3.066   2.440   1.174  0.0169 -0.2727  0.2443
 3305SOL    HW221378   3.146   2.558   1.234 -2.5856  0.2442 -0.1292
 3306SOL     OW21379   1.483   4.057  11.080  0.6638 -0.1553  1.0017
 3306SOL    HW121380   1.504   3.974  11.036 -0.9701  0.8621 -1.7335
 3306SOL    HW221381   1.437   4.030  11.159  0.5626 -0.4454  0.8432
 3307SOL     OW21382   2.554   0.494   1.507 -0.6473 -0.1921  0.2377
 3307SOL    HW121383   2.607   0.471   1.430  1.1937 -0.9378  1.7478
 3307SOL    HW221384   2.478   0.536   1.466  1.6202  2.9574 -0.7298
 3308SOL     OW21385   1.677   3.948   2.703  0.5976  0.5467 -0.0499
 3308SOL    HW121386   1.698   3.901   2.622  4.5076  1.4937  0.4013
 3308SOL    HW221387   1.644   4.035   2.678 -2.7804 -1.0890 -1.2874
 3309SOL     OW21388   1.420   3.431   6.933  0.4670  0.3248  0.0690
 3309SOL    HW121389   1.403   3.349   6.980  0.5135  1.1087  1.4435
 3309SOL    HW221390   1.373   3.426   6.849 -1.3017 -0.3931  1.0897
 3310SOL     OW21391   2.899   2.236  11.507 -0.1501  0.7452 -0.8163
 3310SOL    HW121392   2.988   2.269  11.495  0.2256  0.1613  0.4152
 3310SOL    HW221393   2.888   2.209  11.416  1.1271  0.5187 -0.8973
 3311SOL     OW21394   1.651   1.906  17.598  1.1328  0.0414  0.2591
 3311SOL    HW121395   1.585   1.975  17.597  1.5532  0.4301 -0.1208
 3311SOL    HW221396   1.652   1.895  17.503 -1.0687 -0.1699  0.2393
 3312SOL     OW21397   3.647   2.627  17.283 -0.5522 -0.7802 -0.3547
 3312SOL    HW121398   3.740   2.635  17.304 -0.2487 -1.1231 -1.5655
 3312SOL    HW221399   3.642   2.541  17.242 -1.7242 -0.0283 -1.8040
 3313SOL     OW21400   2.948   3.885   6.739  0.0251 -0.3673  0.1206
 3313SOL    HW121401   3.034   3.910   6.704 -0.2160 -0.3277 -0.4488
 3313SOL    HW221402   2.916   3.971   6.763  0.6393 -0.4170  1.1040
 3314SOL     OW21403   2.033   3.682   2.620 -0.2567  0.1495  0.2138
 3314SOL    HW121404   2.054   3.766   2.661 -0.5652 -0.7904  2.2820
 3314SOL    HW221405   2.010   3.714   2.533  0.2107  1.2758  0.4962
 3315SOL     OW21406   0.848   0.557   1.997 -0.2573  0.5321 -0.8533
 3315SOL    HW121407   0.807   0.569   1.912  0.0554 -0.2465 -1.1118
 3315SOL    HW221408   0.939   0.581   1.980  0.0650  0.7754  1.2392
 3316SOL     OW21409   4.240   1.461  12.931  0.0473 -0.5742  0.4584
 3316SOL    HW121410   4.166   1.404  12.912 -1.6617  2.0978 -0.8845
 3316SOL    HW221411   4.299   1.397  12.971 -1.1699 -2.0595 -0.1300
 3317SOL     OW21412   0.470   3.163  15.649  0.0143 -0.4419  0.5019
 3317SOL    HW121413   0.542   3.167  15.711  0.7805  1.9447 -0.5431
 3317SOL    HW221414   0.508   3.119  15.573  1.2480  1.9897 -0.2791
 3318SOL     OW21415   3.756   3.131  15.357  0.1626 -0.0280  0.4240
 3318SOL    HW121416   3.721   3.212  15.320 -0.1362 -0.3097  0.0898
 3318SOL    HW221417   3.684   3.098  15.411  0.2625 -2.0520 -0.6634
 3319SOL     OW21418   3.429   0.679   2.637  0.4400  0.0839  0.1632
 3319SOL    HW121419   3.442   0.677   2.543 -3.1558  0.9519 -0.3569
 3319SOL    HW221420   3.365   0.751   2.646  1.8962  1.0968  2.3758
 3320SOL     OW21421   2.600   1.359  12.211 -0.6194  0.2678  0.6386
 3320SOL    HW121422   2.524   1.347  12.267 -0.4600 -0.0513  0.7870
 3320SOL    HW221423   2.628   1.442  12.248 -0.8141  0.5280  0.2028
 3321SOL     OW21424   3.576   0.689  12.647  0.2432  0.1828  0.2771
 3321SOL    HW121425   3.618   0.696  12.561 -0.6147 -2.8493 -0.4147
 3321SOL    HW221426   3.648   0.730  12.695  0.9289 -1.1428  0.3794
 3322SOL     OW21427   4.614   3.059   2.374  0.0529 -0.1100  0.2385
 3322SOL    HW121428   4.545   3.006   2.413  1.0651 -1.9133 -0.3999
 3322SOL    HW221429   4.579   3.148   2.368 -2.6270 -1.0058  3.1025
 3323SOL     OW21430   1.654   1.574   8.347  0.5496 -0.0055  0.1883
 3323SOL    HW121431   1.727   1.512   8.337  0.2455 -0.2705 -0.3645
 3323SOL    HW221432   1.641   1.577   8.442  1.6205 -2.6056  0.4336
 3324SOL     OW21433   4.302   1.221   4.982 -0.3330 -0.4211 -0.4236
 3324SOL    HW121434   4.352   1.196   5.060  0.5471  1.2352 -0.4442
 3324SOL    HW221435   4.220   1.252   5.021  0.5180 -0.2162  1.2193
 3325SOL     OW21436   1.793   0.025   9.211  0.4231  0.2008  0.4103
 3325SOL    HW121437   1.880   4.714   9.232  0.8720  0.7283 -0.5847
 3325SOL    HW221438   1.744   4.692   9.270 -1.2464 -0.8420 -2.0006
 3326SOL     OW21439   0.216   2.853  12.784  0.0557 -0.1550 -0.5462
 3326SOL    HW121440   0.189   2.908  12.711  0.0733  0.0184 -0.4229
 3326SOL    HW221441   0.308   2.833  12.767  0.2270  0.6333 -0.5387
 3327SOL     OW21442   3.456   1.894  14.056 -0.5529 -0.7763  0.3391
 3327SOL    HW121443   3.361   1.903  14.059 -0.4022 -0.0636  3.0840
 3327SOL    HW221444   3.470   1.804  14.088 -0.4868 -1.1231 -0.6637
 3328SOL     OW21445   1.684   0.928   9.422  0.8953  0.6526  0.4326
 3328SOL    HW121446   1.758   0.875   9.392  0.3445  1.0126 -1.5442
 3328SOL    HW221447   1.694   1.005   9.366 -2.6793 -1.5008 -3.0464
 3329SOL     OW21448   1.694   4.665  17.353 -0.2630  0.2294 -0.1564
 3329SOL    HW121449   1.665   4.668  17.262  0.9490  1.8600 -0.4830
 3329SOL    HW221450   1.621   4.708  17.398 -1.4734 -0.0097 -1.8509
 3330SOL     OW21451   0.143   1.964   6.069  0.2740 -0.7986  0.7148
 3330SOL    HW121452   0.214   1.927   6.122 -0.2605  1.1535  2.7997
 3330SOL    HW221453   0.100   2.005   6.143 -0.6719 -0.4814 -0.0233
 3331SOL     OW21454   4.494   4.554   7.325  0.0850 -0.0046 -0.8119
 3331SOL    HW121455   4.587   4.545   7.344 -0.2180 -1.0172  0.1765
 3331SOL    HW221456   4.454   4.521   7.405 -1.5703 -1.5358 -2.2786
 3332SOL     OW21457   4.523   0.731   6.524 -0.0362  0.0458 -0.1000
 3332SOL    HW121458   4.588   0.685   6.578 -1.4596  1.0397  2.4447
 3332SOL    HW221459   4.557   0.820   6.537 -1.5060  0.6937 -0.6729
 3333SOL     OW21460   0.114   1.975   9.313  0.4057 -0.4169 -0.0963
 3333SOL    HW121461   0.145   2.044   9.372 -0.3888  1.1213 -1.4818
 3333SOL    HW221462   0.019   1.985   9.315  0.2661 -1.9818  1.1311
 3334SOL     OW21463   1.679   1.822   7.687 -0.1767  0.7423 -0.0095
 3334SOL    HW121464   1.620   1.844   7.615  0.2282 -1.2591 -0.9763
 3334SOL    HW221465   1.632   1.849   7.765 -1.1698 -2.5141  0.5123
 3335SOL     OW21466   2.024   0.672   4.011  0.1796 -0.2954 -0.1979
 3335SOL    HW121467   1.970   0.662   4.089  2.2960 -2.4579  0.9750
 3335SOL    HW221468   2.111   0.676   4.050 -0.7086 -0.0362  1.7311
 3336SOL     OW21469   0.485   1.134   2.670  0.2446  0.2665  0.2682
 3336SOL    HW121470   0.403   1.100   2.636  0.1397  0.9320 -0.1331
 3336SOL    HW221471   0.532   1.053   2.694 -0.8270 -0.7060 -0.9155
 3337SOL     OW21472   3.572   2.564  15.254 -0.4423  0.2199 -0.0385
 3337SOL    HW121473   3.584   2.643  15.200  0.5585  0.6705  0.8450
 3337SOL    HW221474   3.479   2.571  15.276 -0.0608  1.1115  1.2741
 3338SOL     OW21475   3.791   3.893   4.726 -0.2683 -0.8383  0.0753
 3338SOL    HW121476   3.814   3.949   4.652  0.0354  0.3126  1.0443
 3338SOL    HW221477   3.730   3.957   4.765  1.3649  0.2006  0.9219
 3339SOL     OW21478   0.096   4.158   3.484  0.7685  0.3973 -0.0577
 3339SOL    HW121479   0.121   4.098   3.554 -2.2019  0.4230  1.0111
 3339SOL    HW221480   0.002   4.175   3.487  0.6248 -0.5247  0.6918
 3340SOL     OW21481   3.718   4.315  13.411 -0.4348 -0.0605  0.6846
 3340SOL    HW121482   3.689   4.253  13.479 -0.2041 -1.2775 -0.3423
 3340SOL    HW221483   3.654   4.295  13.342 -1.4545 -1.7381  2.0904
 3341SOL     OW21484   2.674   0.495   7.080  0.0474 -0.4780 -0.4963
 3341SOL    HW121485   2.688   0.441   7.002  1.3765  0.7277 -1.0899
 3341SOL    HW221486   2.601   0.540   7.038 -1.7938 -0.6018  2.5885
 3342SOL     OW21487   1.751   4.155   9.503  0.1447 -0.4807  0.0552
 3342SOL    HW121488   1.724   4.098   9.430  1.7826  0.3327 -1.1814
 3342SOL    HW221489   1.827   4.116   9.545 -0.0145  1.5056  2.2013
 3343SOL     OW21490   4.080   0.489   0.023 -0.3231 -0.0623  0.4505
 3343SOL    HW121491   4.163   0.445   0.041  0.6751  1.2384 -1.0192
 3343SOL    HW221492   4.116   0.567  17.678 -0.1012 -0.6420 -0.4584
 3344SOL     OW21493   1.249   4.666   7.984 -0.1589  0.8122 -0.2583
 3344SOL    HW121494   1.283   4.719   7.911  0.1776  0.7903 -0.1149
 3344SOL    HW221495   1.158   4.655   7.956 -0.5787 -0.4299  1.6164
 3345SOL     OW21496   1.704   0.619   3.688  0.4478 -0.6467 -0.0467
 3345SOL    HW121497   1.738   0.532   3.709 -0.7557 -1.5048 -1.6224
 3345SOL    HW221498   1.717   0.664   3.772  0.6599  0.9346 -0.9182
 3346SOL     OW21499   4.335   3.826   8.383 -0.1797  0.3138 -0.5346
 3346SOL    HW121500   4.312   3.750   8.329 -1.2597  0.4900 -0.3352
 3346SOL    HW221501   4.273   3.814   8.455 -0.2452 -1.9965 -0.9794
 3347SOL     OW21502   0.048   3.879   6.860  0.2277  0.0188 -0.7689
 3347SOL    HW121503   0.087   3.823   6.927  0.7012  1.5344  0.2250
 3347SOL    HW221504   0.097   3.961   6.872  1.5680 -1.0108  0.8016
 3348SOL     OW21505   2.445   1.232   2.800 -0.0744  0.3676 -0.0710
 3348SOL    HW121506   2.362   1.185   2.795 -0.0788  0.2898  0.7585
 3348SOL    HW221507   2.488   1.222   2.715 -1.9634 -1.3512 -0.8402
 3349SOL     OW21508   4.061   0.384   5.067 -0.3246 -0.2600 -0.2294
 3349SOL    HW121509   4.112   0.442   5.011  2.4359 -3.6459 -1.1762
 3349SOL    HW221510   4.007   0.445   5.118 -0.1965 -0.6929  0.4206
 3350SOL     OW21511   0.813   1.912   7.150 -1.0487  0.2788  0.3155
 3350SOL    HW121512   0.856   1.988   7.112  0.2354  0.8013  2.7687
 3350SOL    HW221513   0.854   1.911   7.237 -0.6594 -0.7851  0.1196
 3351SOL     OW21514   1.327   1.313  15.017 -0.8315  0.6052 -0.6662
 3351SOL    HW121515   1.274   1.374  14.965  1.1340  0.5749 -2.6927
 3351SOL    HW221516   1.267   1.267  15.075 -1.5121 -0.6770 -2.3886
 3352SOL     OW21517   2.634   0.152   7.533  0.2015  0.7148  0.1590
 3352SOL    HW121518   2.698   0.098   7.579  1.5547  2.8998  0.8288
 3352SOL    HW221519   2.567   0.165   7.600  1.4840 -1.3792  1.8563
 3353SOL     OW21520   1.857   0.472   1.492 -0.9206 -0.4655 -0.0596
 3353SOL    HW121521   1.949   0.494   1.509 -0.5357 -1.9388 -0.1852
 3353SOL    HW221522   1.825   0.558   1.466 -0.9188 -0.7344 -0.9581
 3354SOL     OW21523   0.811   3.129   4.214 -0.1870 -0.4202  0.5649
 3354SOL    HW121524   0.787   3.073   4.141  1.1630  0.1208 -0.2881
 3354SOL    HW221525   0.818   3.060   4.280 -0.1008  1.9031  2.9921
 3355SOL     OW21526   0.638   4.411   5.054 -0.2764  0.1914 -0.4819
 3355SOL    HW121527   0.655   4.505   5.061 -1.8257  0.3075  1.9798
 3355SOL    HW221528   0.711   4.380   5.001 -0.5382 -0.7299 -0.3113
 3356SOL     OW21529   3.866   2.530   6.500  0.0408  0.3665  0.3424
 3356SOL    HW121530   3.954   2.556   6.528  0.1429  1.4530 -0.9941
 3356SOL    HW221531   3.860   2.551   6.407  1.9390 -0.2237  0.0820
 3357SOL     OW21532   1.503   3.821  16.337 -0.4064  0.0649  0.5102
 3357SOL    HW121533   1.436   3.888  16.349  0.7245  1.4256 -0.7959
 3357SOL    HW221534   1.519   3.841  16.245 -1.1987 -0.1120  0.3360
 3358SOL     OW21535   2.283   1.030   4.139  0.1330 -0.1060 -0.0667
 3358SOL    HW121536   2.364   1.019   4.091  0.9623 -0.6999  1.4606
 3358SOL    HW221537   2.282   1.123   4.162 -0.0434 -0.2361  0.4503
 3359SOL     OW21538   4.628   1.537   5.126  0.0842 -0.2684  0.1197
 3359SOL    HW121539   4.689   1.463   5.129  0.7552  0.2298 -1.3269
 3359SOL    HW221540   4.642   1.566   5.036  2.9262  0.5410  0.8272
 3360SOL     OW21541   2.916   0.433   2.568  0.4019 -0.2837  0.0073
 3360SOL    HW121542   2.866   0.496   2.516  1.1933 -0.7284 -1.2868
 3360SOL    HW221543   2.932   0.486   2.646 -0.9352  1.8362 -1.1748
 3361SOL     OW21544   3.756   4.354  14.101 -0.2575  0.7903 -0.3288
 3361SOL    HW121545   3.831   4.295  14.100 -1.3003 -0.5287 -0.6956
 3361SOL    HW221546   3.707   4.316  14.174  3.7227 -1.8603  0.9696
 3362SOL     OW21547   3.567   3.339   1.805 -0.7128 -0.4069  0.1982
 3362SOL    HW121548   3.588   3.289   1.726  0.5201 -0.6445  0.6867
 3362SOL    HW221549   3.472   3.330   1.811 -0.8183  0.2216 -0.5206
 3363SOL     OW21550   3.654   4.473   4.922 -0.8195 -0.0125 -0.3859
 3363SOL    HW121551   3.712   4.548   4.934  1.9235 -2.0476 -0.8631
 3363SOL    HW221552   3.658   4.444   5.013 -1.4634 -1.3240 -0.7668
 3364SOL     OW21553   2.543   1.364  16.261 -0.2608 -0.5765  0.3891
 3364SOL    HW121554   2.501   1.331  16.341 -0.1848 -1.0343  0.2350
 3364SOL    HW221555   2.541   1.285  16.207  0.3505  0.1270 -0.6683
 3365SOL     OW21556   2.735   0.380  12.410  0.3784 -0.3233 -0.2034
 3365SOL    HW121557   2.703   0.401  12.323 -1.0770 -2.4294 -0.1566
 3365SOL    HW221558   2.780   0.459  12.442  0.6166 -1.3598  2.0551
 3366SOL     OW21559   4.493   1.452   1.839  0.5038 -0.2425  0.0079
 3366SOL    HW121560   4.547   1.379   1.868  0.7478 -0.2337 -0.4393
 3366SOL    HW221561   4.466   1.435   1.749 -1.2910 -0.3950  0.5586
 3367SOL     OW21562   2.766   4.383   7.148 -0.0293 -0.2718 -0.6303
 3367SOL    HW121563   2.814   4.387   7.231 -0.2664  0.9440 -0.5468
 3367SOL    HW221564   2.816   4.307   7.120 -0.5805 -0.8349 -0.0669
 3368SOL     OW21565   3.811   2.704   9.133 -0.6164 -0.2066  0.3267
 3368SOL    HW121566   3.786   2.678   9.221 -0.8744 -2.6365 -0.4622
 3368SOL    HW221567   3.905   2.689   9.142 -0.9034 -0.4534  2.8992
 3369SOL     OW21568   3.146   0.553   5.842  0.2443 -0.3636 -0.4396
 3369SOL    HW121569   3.230   0.579   5.805  1.1476  1.4907  2.8901
 3369SOL    HW221570   3.138   0.623   5.906  0.2508 -0.2625 -0.5483
 3370SOL     OW21571   4.355   1.222   6.119 -0.6474  0.0105  0.0789
 3370SOL    HW121572   4.383   1.131   6.124  0.2182  0.2296 -0.9067
 3370SOL    HW221573   4.439   1.267   6.128  0.2813 -1.5401 -0.8746
 3371SOL     OW21574   3.447   3.607   0.399  0.1410  0.1793 -0.2250
 3371SOL    HW121575   3.521   3.561   0.436  0.4393  0.3768 -0.5757
 3371SOL    HW221576   3.447   3.586   0.306  3.8295  1.1456 -0.4362
 3372SOL     OW21577   2.323   2.453   2.918  0.3202  0.3129 -0.4918
 3372SOL    HW121578   2.389   2.384   2.915 -0.2093 -0.2965  2.1047
 3372SOL    HW221579   2.260   2.430   2.849  0.2120 -2.4759  0.5097
 3373SOL     OW21580   0.954   3.538   7.676  0.4048 -0.0186 -0.0558
 3373SOL    HW121581   1.038   3.517   7.717 -0.0419  0.6452  1.2011
 3373SOL    HW221582   0.968   3.512   7.585 -1.5408 -0.1976 -0.3014
 3374SOL     OW21583   1.383   0.099  17.666  1.0771 -0.7999 -0.4155
 3374SOL    HW121584   1.296   0.094   0.009  1.2285 -0.2617 -0.0044
 3374SOL    HW221585   1.399   0.192  17.649 -2.3349  0.4131  3.1618
 3375SOL     OW21586   0.881   2.823   8.916 -0.3471  0.6569 -0.2230
 3375SOL    HW121587   0.820   2.771   8.864  0.2658  0.4280 -0.7202
 3375SOL    HW221588   0.949   2.759   8.936  0.8946  1.2394 -2.5398
 3376SOL     OW21589   2.691   2.614   0.868  0.0471 -0.2870 -0.5110
 3376SOL    HW121590   2.606   2.636   0.830  0.7878  0.1404 -1.9555
 3376SOL    HW221591   2.670   2.523   0.890 -2.6762  0.9850  2.0809
 3377SOL     OW21592   4.704   0.410  16.006 -0.0859 -0.2217  0.0525
 3377SOL    HW121593   4.705   0.326  15.959 -1.5024  0.9334 -2.0417
 3377SOL    HW221594   4.669   0.472  15.942 -0.0537  0.4124  0.6556
 3378SOL     OW21595   0.026   3.221   3.652  0.3573  0.3933  0.0492
 3378SOL    HW121596   0.026   3.313   3.626 -2.0406  0.4144  0.1363
 3378SOL    HW221597   0.120   3.208   3.667  0.8777  1.7453 -2.0170
 3379SOL     OW21598   0.948   0.135   3.001  0.6070  0.4487 -0.0811
 3379SOL    HW121599   1.003   0.063   3.031 -0.0021 -1.0931 -2.7273
 3379SOL    HW221600   0.892   0.140   3.078 -0.9636  1.8793 -1.3183
 3380SOL     OW21601   1.755   0.936   6.065 -0.7025 -0.1664 -0.1050
 3380SOL    HW121602   1.778   0.882   5.989  0.1311 -0.3649  0.2844
 3380SOL    HW221603   1.688   0.994   6.029  0.2831  1.0386 -0.0128
 3381SOL     OW21604   0.065   0.694   2.520 -0.4125 -0.3176  0.0233
 3381SOL    HW121605   4.710   0.660   2.476 -0.4268  0.6702 -0.7186
 3381SOL    HW221606   0.092   0.622   2.577 -0.1748 -0.5333 -0.3606
 3382SOL     OW21607   2.166   3.109  16.578  0.0822  0.2236 -0.2898
 3382SOL    HW121608   2.143   3.195  16.613  0.3757  1.0679 -2.2019
 3382SOL    HW221609   2.236   3.086  16.640  0.9432  2.2315 -0.4989
 3383SOL     OW21610   0.715   2.163   1.369 -0.6520  0.1951 -0.2077
 3383SOL    HW121611   0.659   2.137   1.296 -1.6954 -0.2616  0.7500
 3383SOL    HW221612   0.802   2.128   1.351  0.2237  1.7682  0.8466
 3384SOL     OW21613   3.554   4.624  14.769  0.5100  0.2375 -0.2281
 3384SOL    HW121614   3.584   4.570  14.696 -1.1216 -0.7327 -0.1721
 3384SOL    HW221615   3.556   4.568  14.846  0.2040 -0.9153 -1.0569
 3385SOL     OW21616   0.569   1.401   6.260  0.3197  0.0613 -0.5406
 3385SOL    HW121617   0.639   1.433   6.318 -2.3254 -0.5352  2.9838
 3385SOL    HW221618   0.508   1.475   6.262 -2.1168 -1.9642 -0.0705
 3386SOL     OW21619   2.252   1.678   8.515 -0.3087  0.4402  0.3353
 3386SOL    HW121620   2.293   1.595   8.541  0.7299  0.8918  0.1127
 3386SOL    HW221621   2.288   1.681   8.426 -1.6193 -0.8392 -0.2347
 3387SOL     OW21622   2.998   0.312  12.233 -0.8311 -0.4207 -0.3516
 3387SOL    HW121623   3.082   0.281  12.267 -0.6767  0.7192  0.3219
 3387SOL    HW221624   2.943   0.292  12.308 -3.6183  1.9017 -1.7919
 3388SOL     OW21625   1.742   0.633   5.681  0.3410 -0.1734  0.2301
 3388SOL    HW121626   1.737   0.541   5.708 -0.6316  0.0534  0.8393
 3388SOL    HW221627   1.818   0.635   5.624 -0.4119  2.7034 -0.6595
 3389SOL     OW21628   2.922   3.240   5.997  0.1739 -0.6414  0.3173
 3389SOL    HW121629   2.903   3.167   5.938  0.6797 -0.7483  0.2833
 3389SOL    HW221630   2.842   3.258   6.046  1.5205  1.6524  1.6621
 3390SOL     OW21631   2.619   1.098   5.622 -0.4081  0.4054 -0.2627
 3390SOL    HW121632   2.590   1.173   5.673  1.6160  0.5678  0.6245
 3390SOL    HW221633   2.689   1.139   5.571  0.1921  1.5709  1.5023
 3391SOL     OW21634   3.416   3.545   4.284 -0.9301 -0.2692  0.3227
 3391SOL    HW121635   3.368   3.627   4.277  0.3491  0.2096 -3.0814
 3391SOL    HW221636   3.481   3.564   4.351  1.2132  1.3952 -2.2534
 3392SOL     OW21637   4.608   3.069   3.168  0.0163  0.0232 -0.2707
 3392SOL    HW121638   4.693   3.077   3.211  0.6659 -0.6609 -1.4187
 3392SOL    HW221639   4.631   3.015   3.093  1.4173 -0.6235  0.6363
 3393SOL     OW21640   2.483   3.774  17.342  0.5023 -0.7641  0.1503
 3393SOL    HW121641   2.438   3.744  17.421  1.1907 -1.4872  0.2735
 3393SOL    HW221642   2.419   3.823  17.291  1.3756  0.4436  0.2111
 3394SOL     OW21643   0.960   2.233   1.118 -0.5391  1.0019  0.4680
 3394SOL    HW121644   0.957   2.296   1.046  0.3035  1.7096  1.0412
 3394SOL    HW221645   1.009   2.290   1.178 -0.7953  0.0339  1.5869
 3395SOL     OW21646   1.201   2.681  14.310  0.6614 -0.5611  0.0518
 3395SOL    HW121647   1.260   2.664  14.236  0.4201 -1.9235  0.1729
 3395SOL    HW221648   1.230   2.770  14.329  1.0249 -0.6843  0.0914
 3396SOL     OW21649   4.493   3.997   7.383  0.3795 -0.0620  0.7810
 3396SOL    HW121650   4.524   4.078   7.424 -1.4979  1.6324 -1.1435
 3396SOL    HW221651   4.562   3.980   7.318 -0.5219  0.0612 -0.2184
 3397SOL     OW21652   3.684   4.307   2.919  0.1546 -0.1703 -0.6417
 3397SOL    HW121653   3.647   4.360   2.848  0.4451 -0.3510 -0.9326
 3397SOL    HW221654   3.604   4.278   2.962  0.6984 -2.1253 -0.9642
 3398SOL     OW21655   3.835   2.379  10.557  0.4546  0.6050  0.1261
 3398SOL    HW121656   3.836   2.338  10.643 -0.2254  0.3942  0.0322
 3398SOL    HW221657   3.743   2.396  10.542  0.1883 -0.5223  0.4916
 3399SOL     OW21658   0.856   2.615  16.306  0.3241  0.1795  0.4134
 3399SOL    HW121659   0.901   2.544  16.261 -3.8103 -1.3559 -1.2632
 3399SOL    HW221660   0.853   2.691  16.248 -0.5538 -1.0586 -1.1677
 3400SOL     OW21661   0.460   0.256   4.423  0.1606 -0.3065  0.2565
 3400SOL    HW121662   0.410   0.199   4.482  0.6844 -2.4765 -1.3918
 3400SOL    HW221663   0.413   0.339   4.425 -0.3585 -0.6748  3.2801
 3401SOL     OW21664   0.774   4.612   2.296  0.0648 -0.0864 -0.1094
 3401SOL    HW121665   0.813   4.528   2.321 -0.6070  0.2155  1.9344
 3401SOL    HW221666   0.838   4.678   2.323  0.6238 -0.1985 -1.1668
 3402SOL     OW21667   4.720   4.537   8.258  0.3957 -0.2246 -0.0085
 3402SOL    HW121668   4.686   4.589   8.330 -1.2208 -1.4130  0.0847
 3402SOL    HW221669   4.643   4.532   8.201  0.1088  0.5511  0.3104
 3403SOL     OW21670   4.185   1.498  14.255  0.0627 -0.7108 -0.5986
 3403SOL    HW121671   4.112   1.483  14.195  2.2738  0.2503 -3.5359
 3403SOL    HW221672   4.153   1.523  14.342  0.5227 -1.9328 -0.0784
 3404SOL     OW21673   1.842   1.274  15.170 -0.0817 -0.3396 -0.3018
 3404SOL    HW121674   1.803   1.354  15.134  2.5664  0.9394 -0.3414
 3404SOL    HW221675   1.777   1.209  15.145 -0.7722  0.4944 -0.6725
 3405SOL     OW21676   2.910   3.078  14.954 -0.2185  0.1656 -0.2119
 3405SOL    HW121677   2.924   3.026  14.875  0.7936 -0.1735  0.2005
 3405SOL    HW221678   2.921   3.169  14.927 -2.3601  0.4172 -0.2418
 3406SOL     OW21679   4.147   2.943   8.275 -0.3749  0.2835 -0.1318
 3406SOL    HW121680   4.212   2.885   8.236 -0.6426  0.4065 -0.7616
 3406SOL    HW221681   4.087   2.956   8.201 -0.9363 -1.4675  0.0161
 3407SOL     OW21682   0.100   0.888   5.107  0.4823  0.4928 -0.2567
 3407SOL    HW121683   0.178   0.921   5.061  1.8838  0.4245  2.0735
 3407SOL    HW221684   0.127   0.906   5.197  4.1735 -1.8830 -0.8933
 3408SOL     OW21685   2.326   2.228  13.216 -0.1715 -0.5941 -0.3162
 3408SOL    HW121686   2.265   2.180  13.272 -1.5766  1.5310 -0.0535
 3408SOL    HW221687   2.379   2.266  13.286  0.8935 -1.1062 -0.8408
 3409SOL     OW21688   2.011   3.276   2.309  0.3633  0.1634  0.4908
 3409SOL    HW121689   2.060   3.315   2.381  1.5504 -1.1116  0.3856
 3409SOL    HW221690   1.973   3.193   2.338  1.7973 -0.2006  1.3459
 3410SOL     OW21691   2.680   3.357   9.605 -0.4050  0.8367  0.1425
 3410SOL    HW121692   2.667   3.423   9.537 -0.4624  1.0255  0.3361
 3410SOL    HW221693   2.705   3.410   9.681 -0.4741 -0.6534  1.2212
 3411SOL     OW21694   0.867   3.528   6.106  0.3357 -0.1057  0.0943
 3411SOL    HW121695   0.944   3.567   6.063 -0.8668  0.0674 -1.9232
 3411SOL    HW221696   0.841   3.467   6.037  1.3183  1.4317 -1.6520
 3412SOL     OW21697   2.992   1.560  10.145 -0.6811  0.0672 -0.0991
 3412SOL    HW121698   3.078   1.603  10.148  0.1322 -1.5064 -1.1669
 3412SOL    HW221699   3.015   1.479  10.191  1.3782  0.7564  0.1087
 3413SOL     OW21700   1.764   4.322   2.861 -0.2734 -0.1555 -0.7426
 3413SOL    HW121701   1.821   4.247   2.845  0.0908  0.1097 -0.6716
 3413SOL    HW221702   1.795   4.349   2.947 -0.3962  1.0586 -1.0803
 3414SOL     OW21703   3.097   0.309   2.393  0.1160  0.5672 -0.0014
 3414SOL    HW121704   3.041   0.296   2.470 -1.3788  0.9316 -1.0240
 3414SOL    HW221705   3.096   0.405   2.389  3.8844  0.5112 -2.0999
 3415SOL     OW21706   3.824   3.530   3.518  0.0403 -0.8026 -0.3280
 3415SOL    HW121707   3.918   3.547   3.515 -0.2325  1.0360  1.6977
 3415SOL    HW221708   3.838   3.438   3.538 -3.1096 -1.0996  0.4275
 3416SOL     OW21709   0.274   2.447  15.152 -0.9185  0.6913 -0.5694
 3416SOL    HW121710   0.200   2.409  15.105 -1.2142  1.2762 -0.5733
 3416SOL    HW221711   0.336   2.467  15.082  2.2262  1.3776  2.4137
 3417SOL     OW21712   4.566   0.494  14.537  0.6219 -0.3101  0.2163
 3417SOL    HW121713   4.566   0.443  14.618  0.3502 -0.7942 -0.0893
 3417SOL    HW221714   4.627   0.446  14.481  1.0520  0.8365 -0.2860
 3418SOL     OW21715   4.352   1.153  10.892 -0.0191 -0.6227  0.2287
 3418SOL    HW121716   4.274   1.209  10.889  0.5351  0.0728 -1.1446
 3418SOL    HW221717   4.341   1.105  10.809  0.9622 -2.8885  1.4034
 3419SOL     OW21718   4.502   3.793   4.111 -0.0754 -0.2295 -0.1625
 3419SOL    HW121719   4.446   3.736   4.164 -0.0626 -1.3308 -1.3367
 3419SOL    HW221720   4.470   3.780   4.021  1.0850 -1.2839 -0.4145
 3420SOL     OW21721   0.063   3.550   0.278  0.3017 -0.1375 -0.3526
 3420SOL    HW121722   4.710   3.501   0.250 -0.6057  1.6468 -0.9947
 3420SOL    HW221723   0.052   3.633   0.232  3.5103  0.5225  0.0584
 3421SOL     OW21724   2.813   2.066   9.336  0.1792 -0.0597  0.4650
 3421SOL    HW121725   2.835   2.039   9.247 -0.8033 -0.3131  0.3007
 3421SOL    HW221726   2.899   2.057   9.378  0.3102  0.5642  0.3282
 3422SOL     OW21727   3.377   0.482  11.697  0.4388 -0.4051 -0.0570
 3422SOL    HW121728   3.454   0.455  11.748  1.4757 -2.0339 -2.4945
 3422SOL    HW221729   3.330   0.541  11.756  1.1907  2.7701 -2.6478
 3423SOL     OW21730   4.253   2.152  11.888 -0.6869  0.3198 -0.6263
 3423SOL    HW121731   4.197   2.150  11.810 -0.9695 -0.3283 -0.4101
 3423SOL    HW221732   4.292   2.067  11.872 -1.1233 -0.0749  0.4515
 3424SOL     OW21733   3.017   0.759   6.442  0.5007  0.0990  0.3586
 3424SOL    HW121734   3.093   0.815   6.455  0.4015 -0.1250  1.9218
 3424SOL    HW221735   3.042   0.679   6.489  0.0178 -0.5579 -0.4913
 3425SOL     OW21736   2.266   1.655   3.070 -0.1195  0.7231  0.4803
 3425SOL    HW121737   2.247   1.564   3.093 -0.9018  1.0803  1.2924
 3425SOL    HW221738   2.325   1.638   2.997  0.1919 -0.2070  0.9493
 3426SOL     OW21739   2.067   4.002   7.156 -0.3675 -0.5629  0.2195
 3426SOL    HW121740   2.084   4.095   7.144 -1.5064 -0.3703  0.1524
 3426SOL    HW221741   1.996   4.010   7.219  1.0128 -2.2529  2.0060
 3427SOL     OW21742   3.525   2.139   4.802 -0.8180 -0.3777  0.0430
 3427SOL    HW121743   3.546   2.232   4.791 -2.2952 -0.2622 -1.7245
 3427SOL    HW221744   3.468   2.137   4.879 -0.7492  0.9475  0.1243
 3428SOL     OW21745   2.679   0.483   6.427 -0.6652  0.4628  0.2928
 3428SOL    HW121746   2.591   0.489   6.463 -0.4462  1.7430  0.6287
 3428SOL    HW221747   2.733   0.484   6.506  1.0753  1.2094 -0.9043
 3429SOL     OW21748   2.287   0.921   5.485 -0.4564 -0.2721 -0.3757
 3429SOL    HW121749   2.335   0.990   5.439  0.0330 -1.0144 -0.9886
 3429SOL    HW221750   2.344   0.898   5.558 -1.3941  0.1147  0.4693
 3430SOL     OW21751   0.478   1.766   0.403  0.3065  0.4899  0.2055
 3430SOL    HW121752   0.394   1.759   0.448  0.1910 -1.0878 -0.2415
 3430SOL    HW221753   0.462   1.808   0.318 -1.5025  0.7880  0.7016
 3431SOL     OW21754   0.772   3.521   7.240 -0.0779  0.0133 -0.5180
 3431SOL    HW121755   0.773   3.441   7.293 -0.8784 -0.4616 -1.2053
 3431SOL    HW221756   0.709   3.503   7.170 -0.5437 -1.2511  0.2214
 3432SOL     OW21757   0.405   4.131   4.868 -0.4046 -0.2201 -0.3843
 3432SOL    HW121758   0.426   4.134   4.962 -0.0237  0.0202 -0.4743
 3432SOL    HW221759   0.470   4.065   4.845  0.3734  0.3310  0.2274
 3433SOL     OW21760   2.525   0.940   7.394 -0.1063  0.3240 -0.7186
 3433SOL    HW121761   2.487   0.887   7.464  1.1142 -0.9540 -1.0197
 3433SOL    HW221762   2.492   1.025   7.425 -0.3334  0.5981 -1.7173
 3434SOL     OW21763   0.100   3.660   6.258  0.1212  0.1861 -0.1965
 3434SOL    HW121764   0.132   3.576   6.224  1.0902  1.2965 -1.9999
 3434SOL    HW221765   0.055   3.634   6.339  1.3614  3.0670  1.4249
 3435SOL     OW21766   2.186   1.334   2.417  0.0259  0.2380 -0.1124
 3435SOL    HW121767   2.148   1.307   2.333  0.8656 -2.0052  0.2352
 3435SOL    HW221768   2.206   1.252   2.463 -0.8507  0.7511  1.1854
 3436SOL     OW21769   3.300   1.678   5.324  0.2586 -0.6336  0.0744
 3436SOL    HW121770   3.280   1.595   5.368 -1.4940 -1.8818 -3.0410
 3436SOL    HW221771   3.216   1.711   5.293  0.1043 -1.5079 -0.4568
 3437SOL     OW21772   1.801   4.172  14.743  0.3248 -0.1438  0.6911
 3437SOL    HW121773   1.726   4.142  14.690  0.8253  0.0488 -0.1265
 3437SOL    HW221774   1.754   4.197  14.822 -1.2301 -0.3781 -0.1445
 3438SOL     OW21775   3.691   2.529   5.780 -0.0826 -0.7253  0.8523
 3438SOL    HW121776   3.774   2.576   5.788 -0.0559 -0.0812 -3.1962
 3438SOL    HW221777   3.634   2.606   5.787  0.8907 -0.3535  4.7526
 3439SOL     OW21778   0.479   1.656   3.363  0.0801  0.0315  0.1290
 3439SOL    HW121779   0.415   1.654   3.291  1.0494  0.0938 -0.7417
 3439SOL    HW221780   0.536   1.732   3.351 -0.7100  0.7994  1.2243
 3440SOL     OW21781   1.686   1.367   9.711 -0.5631  0.4892  0.3997
 3440SOL    HW121782   1.673   1.284   9.666 -0.2077 -0.1306  1.4428
 3440SOL    HW221783   1.596   1.376   9.743 -0.6161  2.8858 -0.4044
 3441SOL     OW21784   0.755   2.631   0.943  0.0405 -0.3298 -0.2275
 3441SOL    HW121785   0.689   2.699   0.936  0.8998  0.6831  1.4279
 3441SOL    HW221786   0.783   2.639   0.852 -2.1256 -1.9091 -1.0150
 3442SOL     OW21787   0.157   2.119   7.353  0.8818  0.2569 -0.4754
 3442SOL    HW121788   0.199   2.041   7.390  0.8458  0.6479  0.3993
 3442SOL    HW221789   0.179   2.174   7.428  0.3781 -1.9165  1.2727
 3443SOL     OW21790   1.165   4.683   4.302 -0.1847  0.2885 -0.0569
 3443SOL    HW121791   1.258   4.673   4.282 -0.0123  3.3733 -0.7228
 3443SOL    HW221792   1.150   4.615   4.368  0.1329  2.6051  2.4248
 3444SOL     OW21793   3.991   2.961   8.037  0.3833 -0.4695 -0.2869
 3444SOL    HW121794   4.010   2.891   7.975  2.5251 -1.0144  0.9788
 3444SOL    HW221795   3.944   3.024   7.982 -3.2746 -2.1089  0.9702
 3445SOL     OW21796   1.346   2.173  14.072  0.1820 -0.2991  0.9015
 3445SOL    HW121797   1.253   2.163  14.088  0.1538 -1.0789  0.2524
 3445SOL    HW221798   1.366   2.080  14.060 -0.1449 -0.3786  0.9857
 3446SOL     OW21799   0.825   3.449  17.009  0.6424 -0.1789 -0.4552
 3446SOL    HW121800   0.816   3.491  17.094 -0.0973  0.4470 -0.8440
 3446SOL    HW221801   0.861   3.515  16.950 -0.9711 -0.1416 -1.3892
 3447SOL     OW21802   3.234   3.128   4.304 -0.1248 -0.6099 -0.2314
 3447SOL    HW121803   3.207   3.216   4.276 -1.3651 -0.3702  1.7465
 3447SOL    HW221804   3.325   3.152   4.323 -0.0683  0.2356 -1.5693
 3448SOL     OW21805   3.488   3.223   4.316 -0.1064 -0.2429 -0.2133
 3448SOL    HW121806   3.492   3.313   4.349 -1.9993 -0.8190  1.6197
 3448SOL    HW221807   3.581   3.203   4.328 -0.1872 -0.6112 -0.2122
 3449SOL     OW21808   4.268   3.086  13.688 -0.1260 -0.2789  0.2697
 3449SOL    HW121809   4.332   3.156  13.703  0.7547 -0.9110 -0.5523
 3449SOL    HW221810   4.245   3.051  13.774  0.1532  0.1302  0.5156
 3450SOL     OW21811   4.508   0.808   5.407  0.4971  0.2589 -0.1496
 3450SOL    HW121812   4.439   0.745   5.424  1.9140 -1.5147 -1.0226
 3450SOL    HW221813   4.569   0.779   5.476  0.4107 -0.4163 -0.3660
 3451SOL     OW21814   2.796   2.913  17.377 -0.0463 -0.2178  0.6148
 3451SOL    HW121815   2.802   2.999  17.419 -1.2017  0.2868 -0.2673
 3451SOL    HW221816   2.825   2.856  17.448  0.4827  1.2663  1.5936
 3452SOL     OW21817   0.107   4.315   5.897 -0.6928  0.4860  0.0577
 3452SOL    HW121818   0.132   4.312   5.990  2.9107  0.8432 -0.8678
 3452SOL    HW221819   0.092   4.222   5.881  0.1378  0.4813 -0.6683
 3453SOL     OW21820   1.267   4.090   6.087  0.1118 -0.2568  0.3084
 3453SOL    HW121821   1.354   4.125   6.103  0.2383 -0.4789  0.1090
 3453SOL    HW221822   1.219   4.171   6.067  2.3105  1.3805  1.7607
 3454SOL     OW21823   1.879   3.849   9.070  0.3591  0.5647 -0.1994
 3454SOL    HW121824   1.815   3.868   9.002 -0.5484  1.7202  0.9620
 3454SOL    HW221825   1.857   3.756   9.081  2.0250  0.2093  0.1682
 3455SOL     OW21826   1.374   1.930   3.067 -0.4909 -0.5934  0.0671
 3455SOL    HW121827   1.377   1.979   2.985 -0.2559  0.5519  0.7565
 3455SOL    HW221828   1.316   1.858   3.042  0.3553 -1.7848  1.5251
 3456SOL     OW21829   4.698   3.081   4.473 -0.2817  0.2655  0.4820
 3456SOL    HW121830   0.041   3.066   4.540  1.6727  1.5701 -1.1533
 3456SOL    HW221831   4.665   2.992   4.455 -0.0707  0.4513 -0.7830
 3457SOL     OW21832   2.424   0.339   4.155  0.2534 -0.4994 -0.0905
 3457SOL    HW121833   2.443   0.260   4.105 -0.6700 -0.2324 -0.8745
 3457SOL    HW221834   2.337   0.374   4.134 -0.2620 -1.2914  0.7027
 3458SOL     OW21835   1.633   1.022  14.020  0.7010  0.5635  0.1564
 3458SOL    HW121836   1.662   0.969  13.946  1.4591  0.3792  0.5801
 3458SOL    HW221837   1.564   0.965  14.054  0.4818 -1.3991 -3.5260
 3459SOL     OW21838   1.234   1.006  11.764  0.4032 -0.0351  0.3480
 3459SOL    HW121839   1.248   0.958  11.682  2.2024  1.3618 -0.1435
 3459SOL    HW221840   1.169   1.072  11.739  0.6447  0.7173  1.7036
 3460SOL     OW21841   2.077   2.391   1.600  0.3660  0.0728  0.1008
 3460SOL    HW121842   2.073   2.486   1.591 -4.0811 -0.0592  1.0008
 3460SOL    HW221843   2.124   2.368   1.680 -0.5324  2.3681  1.2742
 3461SOL     OW21844   3.039   0.868   1.547 -0.5479 -0.4223  0.0185
 3461SOL    HW121845   3.031   0.778   1.515 -2.1878  0.0333 -0.8834
 3461SOL    HW221846   3.004   0.917   1.472  3.5005 -1.2853 -2.4192
 3462SOL     OW21847   0.451   4.495  17.468 -0.1110  0.7001  0.4173
 3462SOL    HW121848   0.475   4.471  17.379  0.8749  0.8283  0.6421
 3462SOL    HW221849   0.537   4.532  17.492  0.2783 -0.0889  0.2395
 3463SOL     OW21850   4.494   2.218  11.389 -0.2064  0.0040 -0.3449
 3463SOL    HW121851   4.505   2.294  11.332  1.5344  0.6736  0.8633
 3463SOL    HW221852   4.562   2.158  11.360 -0.9567 -1.5438  1.0857
 3464SOL     OW21853   3.242   0.889  14.843  0.4526 -0.2211  0.0011
 3464SOL    HW121854   3.242   0.984  14.836  3.3639 -0.2104 -0.1504
 3464SOL    HW221855   3.285   0.858  14.763  0.8145 -2.5140  1.0840
 3465SOL     OW21856   2.846   1.492   5.447  0.2802  0.6003  0.2097
 3465SOL    HW121857   2.929   1.539   5.438  1.5141 -1.6473  0.0085
 3465SOL    HW221858   2.830   1.494   5.541  2.1052 -0.1266  0.5295
 3466SOL     OW21859   4.343   1.184   2.100 -0.3364 -0.0579 -0.0026
 3466SOL    HW121860   4.401   1.123   2.146 -0.3350  0.7080  1.0031
 3466SOL    HW221861   4.395   1.224   2.031  1.3151 -0.0177  1.2850
 3467SOL     OW21862   4.555   2.113   8.516  0.5423  0.0129 -0.0994
 3467SOL    HW121863   4.595   2.029   8.541  0.1812  0.6851  2.7423
 3467SOL    HW221864   4.564   2.165   8.596  0.1810  0.7243 -0.5255
 3468SOL     OW21865   4.009   4.132  14.251  0.1856  0.2567  0.4054
 3468SOL    HW121866   3.967   4.093  14.175 -0.5424  1.1650  0.3462
 3468SOL    HW221867   4.061   4.059  14.284  0.6615  0.7849  0.8250
 3469SOL     OW21868   0.874   2.960   6.731  0.0371 -0.5827  0.2763
 3469SOL    HW121869   0.854   3.054   6.735  2.1089 -0.1906  1.6061
 3469SOL    HW221870   0.793   2.923   6.766 -1.4373 -0.9554 -3.5023
 3470SOL     OW21871   0.830   1.280   5.237  0.0503  0.3566  0.1192
 3470SOL    HW121872   0.873   1.198   5.213 -0.0213 -0.1342  1.6752
 3470SOL    HW221873   0.738   1.253   5.233  1.0294 -3.0054  0.1454
 3471SOL     OW21874   0.031   0.720  12.458  0.0197  0.2402 -0.7508
 3471SOL    HW121875   4.690   0.686  12.521  1.6432 -2.4651 -0.5509
 3471SOL    HW221876   0.088   0.643  12.467 -0.5046  0.1054  1.5878
 3472SOL     OW21877   0.579   0.368   5.185 -0.1635 -0.6250  0.2956
 3472SOL    HW121878   0.500   0.383   5.131 -0.6068  0.4327  1.2397
 3472SOL    HW221879   0.646   0.430   5.154  0.1612 -0.5962  1.0683
 3473SOL     OW21880   4.652   2.791   7.355  0.3725 -0.3891 -0.2355
 3473SOL    HW121881   4.590   2.718   7.347 -0.3009  0.3110 -1.3918
 3473SOL    HW221882   4.692   2.772   7.439 -0.5190 -0.0018  0.2795
 3474SOL     OW21883   1.837   2.275   2.252 -0.1852  0.2260  0.3477
 3474SOL    HW121884   1.759   2.242   2.208 -0.1608 -0.3805  0.7551
 3474SOL    HW221885   1.878   2.195   2.285  2.8269  1.8388  0.4992
 3475SOL     OW21886   0.167   1.316   6.089 -0.1866 -0.3004 -0.0577
 3475SOL    HW121887   0.191   1.272   6.171 -0.1091 -0.6531 -0.2700
 3475SOL    HW221888   0.232   1.271   6.035  1.3259  0.7537  0.8764
 3476SOL     OW21889   4.211   2.461   8.528  0.1754 -0.5861  0.4137
 3476SOL    HW121890   4.261   2.538   8.503  1.0353 -1.0124  0.8309
 3476SOL    HW221891   4.180   2.491   8.614  0.8613  1.3519 -0.0199
 3477SOL     OW21892   2.008   4.561   6.746  0.1829  0.5682  0.3725
 3477SOL    HW121893   1.931   4.617   6.744  0.8686  1.4738 -0.6966
 3477SOL    HW221894   1.968   4.475   6.761 -0.1232  0.6240 -0.1244
 3478SOL     OW21895   4.462   2.354  14.977 -0.0208 -0.0509  0.3270
 3478SOL    HW121896   4.462   2.274  14.924  1.3732  0.2633 -0.1436
 3478SOL    HW221897   4.515   2.410  14.921  2.7385  0.1940  3.1471
 3479SOL     OW21898   0.443   3.291   0.801  0.4937  0.6501  0.4495
 3479SOL    HW121899   0.459   3.351   0.874  1.7789  1.5057 -0.5506
 3479SOL    HW221900   0.354   3.315   0.773  1.0127  3.3061  1.0572
 3480SOL     OW21901   1.841   2.339  17.623 -0.1987  0.3107  0.3938
 3480SOL    HW121902   1.825   2.290  17.542 -0.6578 -1.2733  1.4497
 3480SOL    HW221903   1.762   2.315  17.672  0.0512 -0.7153  0.2907
 3481SOL     OW21904   3.481   1.958  10.000 -0.4815 -0.5237  0.5391
 3481SOL    HW121905   3.480   2.016  10.076  0.3046 -0.3901  0.4467
 3481SOL    HW221906   3.387   1.968   9.982 -0.9764 -1.4439  2.5853
 3482SOL     OW21907   3.127   3.076   1.812 -0.0286  0.2117 -0.4094
 3482SOL    HW121908   3.148   2.994   1.766  0.6498  0.3937 -0.4206
 3482SOL    HW221909   3.034   3.062   1.828  0.1820 -0.0339  0.5848
 3483SOL     OW21910   4.107   4.248   4.499  0.1872 -0.0047  0.7711
 3483SOL    HW121911   4.180   4.294   4.542 -0.0581  1.0253  0.0721
 3483SOL    HW221912   4.148   4.209   4.422 -0.5907 -2.3758  1.5636
 3484SOL     OW21913   3.595   2.371   0.523 -0.3306  0.3114  0.5038
 3484SOL    HW121914   3.638   2.397   0.604  2.4533  0.6781 -1.1100
 3484SOL    HW221915   3.503   2.398   0.531 -0.6696 -0.7507  0.2484
 3485SOL     OW21916   0.477   1.066  15.842  0.3878  0.1796 -0.5259
 3485SOL    HW121917   0.546   1.102  15.787  1.9164 -0.8493  0.7424
 3485SOL    HW221918   0.399   1.120  15.831 -0.0841 -0.4970 -0.5475
 3486SOL     OW21919   1.530   0.428  13.820 -0.0047 -0.4079 -0.4314
 3486SOL    HW121920   1.544   0.335  13.804  0.7860 -0.0535 -1.7765
 3486SOL    HW221921   1.586   0.470  13.755  0.1397 -0.5522 -0.3990
 3487SOL     OW21922   0.124   4.240   6.599  0.1520  0.1490  0.5366
 3487SOL    HW121923   0.081   4.165   6.640 -1.5616  0.6983 -0.2643
 3487SOL    HW221924   0.188   4.198   6.541 -0.5698 -0.5879  0.2786
 3488SOL     OW21925   2.618   2.450  16.722 -0.1005  0.1820 -0.4188
 3488SOL    HW121926   2.690   2.504  16.689  0.9253  0.0333  1.5500
 3488SOL    HW221927   2.644   2.366  16.684  0.8802  0.4340 -0.2954
 3489SOL     OW21928   0.311   0.741  16.165  0.0971 -0.0747  0.1918
 3489SOL    HW121929   0.381   0.698  16.115 -0.2846 -0.7116  0.2066
 3489SOL    HW221930   0.246   0.671  16.166  0.2655 -0.2369 -0.0178
 3490SOL     OW21931   2.850   2.349   1.997  0.1247  0.2340 -0.4237
 3490SOL    HW121932   2.765   2.385   1.974 -1.0409 -1.1547  1.7031
 3490SOL    HW221933   2.832   2.256   2.011  0.4833  0.4393  1.4415
 3491SOL     OW21934   4.426   0.888   8.669  0.4970 -0.1876 -0.1620
 3491SOL    HW121935   4.512   0.847   8.661  0.4274 -0.2263 -0.6825
 3491SOL    HW221936   4.446   0.982   8.664  0.5808 -0.2137 -0.3135
 3492SOL     OW21937   3.343   4.614   5.927 -0.2195  0.4374 -0.0004
 3492SOL    HW121938   3.401   4.631   6.001  2.2461  1.6835 -2.2590
 3492SOL    HW221939   3.364   4.524   5.901 -1.3234 -0.7114  2.9843
 3493SOL     OW21940   0.227   4.590   8.143  0.1654  0.3788  0.0131
 3493SOL    HW121941   0.261   4.613   8.229 -0.8077  1.0037  0.2310
 3493SOL    HW221942   0.150   4.539   8.168  0.2162  0.4886  0.3957
 3494SOL     OW21943   3.733   0.568   7.614  0.5533 -0.4006  0.5268
 3494SOL    HW121944   3.640   0.584   7.629  0.4144 -0.8066  0.0819
 3494SOL    HW221945   3.744   0.497   7.677 -0.7832  0.4027  1.6532
 3495SOL     OW21946   4.048   0.323   6.065 -0.0315  0.2059  0.5909
 3495SOL    HW121947   4.056   0.406   6.112 -1.2926  0.8091 -0.2489
 3495SOL    HW221948   4.133   0.280   6.073 -0.1190  0.0958  0.9303
 3496SOL     OW21949   0.006   0.086   5.291  1.0434  0.1523 -0.3233
 3496SOL    HW121950   4.712   4.720   5.322 -0.8411 -0.1122 -2.1422
 3496SOL    HW221951   4.704   0.141   5.364 -0.2246 -1.3378  0.3773
 3497SOL     OW21952   1.214   1.555   6.278  0.4034  0.2775  0.4214
 3497SOL    HW121953   1.251   1.564   6.191 -0.7329  1.8414  0.0981
 3497SOL    HW221954   1.169   1.471   6.274 -0.4893  0.7360  0.7506
 3498SOL     OW21955   1.670   2.910  15.295  0.6871 -0.0282  0.2428
 3498SOL    HW121956   1.748   2.865  15.261 -0.5995 -1.7072 -0.5494
 3498SOL    HW221957   1.684   3.004  15.288 -1.5546  0.3314  0.4056
 3499SOL     OW21958   3.476   3.517   7.590 -0.0518 -0.7890  0.5777
 3499SOL    HW121959   3.468   3.550   7.679 -0.8755  1.7743 -0.4421
 3499SOL    HW221960   3.443   3.427   7.591 -2.3739  0.0777  2.2506
 3500SOL     OW21961   2.534   0.723   6.203  0.0460  0.4063 -0.3467
 3500SOL    HW121962   2.455   0.702   6.253  0.0152  1.2197 -0.0460
 3500SOL    HW221963   2.533   0.657   6.134 -1.3958 -0.3784  0.4357
 3501SOL     OW21964   3.257   1.740  11.436 -0.3629  0.3417  0.4698
 3501SOL    HW121965   3.206   1.811  11.475 -0.5279 -0.2299  1.2880
 3501SOL    HW221966   3.252   1.683  11.512  3.2119 -1.2164 -0.4656
 3502SOL     OW21967   1.272   4.373   5.551 -0.1468 -0.6127  0.0958
 3502SOL    HW121968   1.251   4.337   5.637 -1.1457  1.3471  0.6849
 3502SOL    HW221969   1.349   4.428   5.563 -1.2728  0.0872  4.0519
 3503SOL     OW21970   0.186   0.929  11.647 -0.1319 -0.1489  0.0747
 3503SOL    HW121971   0.115   0.991  11.663 -0.0067 -0.5829  2.2705
 3503SOL    HW221972   0.256   0.985  11.613  0.2584 -0.8531 -0.2743
 3504SOL     OW21973   2.920   1.531  12.976  0.0378 -0.2787  0.0278
 3504SOL    HW121974   2.994   1.473  12.959  0.2005 -0.0041 -0.1983
 3504SOL    HW221975   2.949   1.564  13.062  0.7322 -1.8493  0.4008
 3505SOL     OW21976   3.520   1.986  15.163 -0.2645  0.1964  0.0396
 3505SOL    HW121977   3.602   2.022  15.195  0.1731 -0.6424 -0.1622
 3505SOL    HW221978   3.524   2.015  15.072 -2.9797  1.5699  0.3469
 3506SOL     OW21979   3.983   0.154   5.607 -0.5050  0.0493 -0.2457
 3506SOL    HW121980   4.011   0.126   5.519  0.0775  1.5060 -0.5232
 3506SOL    HW221981   4.013   0.245   5.615  0.3945 -0.2742  0.1062
 3507SOL     OW21982   0.354   2.801  10.276  0.5077 -0.9262  0.5861
 3507SOL    HW121983   0.389   2.888  10.255 -1.1409 -0.2860  0.4128
 3507SOL    HW221984   0.334   2.807  10.369  1.7373 -0.3108  0.8008
 3508SOL     OW21985   3.771   4.518  13.213 -0.3901  1.1373  0.0442
 3508SOL    HW121986   3.855   4.501  13.170 -0.5140  1.3743 -0.2912
 3508SOL    HW221987   3.777   4.456  13.286 -1.5605 -0.2826 -1.0712
 3509SOL     OW21988   1.098   1.510   0.553 -0.4594  0.0459 -0.0304
 3509SOL    HW121989   1.158   1.508   0.628 -0.4852 -1.7550 -0.0604
 3509SOL    HW221990   1.018   1.546   0.591 -2.0245  0.1485 -3.4443
 3510SOL     OW21991   3.520   0.461   9.686 -0.1850  0.4434  0.6365
 3510SOL    HW121992   3.508   0.552   9.714  0.9614  0.7152  0.2500
 3510SOL    HW221993   3.616   0.458   9.689 -0.1925 -0.7491 -0.5834
 3511SOL     OW21994   4.546   1.288  13.238  0.2603 -0.5830  0.1374
 3511SOL    HW121995   4.543   1.199  13.273  2.0649 -0.8947 -0.5218
 3511SOL    HW221996   4.485   1.286  13.165  1.1283 -1.5413 -0.5615
 3512SOL     OW21997   2.807   3.972  17.665  0.0965  0.5166  0.3016
 3512SOL    HW121998   2.876   4.038  17.677 -1.0804  1.5061  1.5379
 3512SOL    HW221999   2.738   4.030  17.633 -0.3954 -0.5563 -0.5760
 3513SOL     OW22000   4.113   0.975   5.498 -0.0553  0.6339 -0.0455
 3513SOL    HW122001   4.188   1.007   5.548 -0.7318 -2.2172  2.8270
 3513SOL    HW222002   4.043   0.996   5.560 -1.1543 -0.2609 -0.9899
 3514SOL     OW22003   0.129   2.980   8.622  0.1129 -0.1975  0.8796
 3514SOL    HW122004   0.072   2.929   8.680  0.6022  0.7192  2.1578
 3514SOL    HW222005   0.085   3.065   8.629  1.1470  0.2806  1.5110
 3515SOL     OW22006   2.104   0.816   8.648 -0.6768 -0.2901 -0.5405
 3515SOL    HW122007   2.109   0.755   8.722 -0.1118 -0.9151 -1.1030
 3515SOL    HW222008   2.065   0.898   8.679  2.4412  1.4905 -1.3789
 3516SOL     OW22009   1.438   4.289  11.374  0.2261  0.1687 -0.0477
 3516SOL    HW122010   1.402   4.266  11.288 -1.4269 -0.0426  0.7010
 3516SOL    HW222011   1.396   4.228  11.434 -0.5116  1.4425  0.7363
 3517SOL     OW22012   3.295   2.412   1.808  0.0725 -0.2108 -0.0994
 3517SOL    HW122013   3.345   2.479   1.853  0.6701 -0.4579 -0.3985
 3517SOL    HW222014   3.262   2.369   1.887 -0.5875  1.4754  0.5352
 3518SOL     OW22015   4.136   4.402   2.560  0.1287 -0.1872  0.6230
 3518SOL    HW122016   4.052   4.360   2.578 -0.5752  0.2137 -1.7216
 3518SOL    HW222017   4.113   4.487   2.523  3.8213  0.4062 -0.3403
 3519SOL     OW22018   2.918   1.589   6.684 -0.0445  0.2434  0.1304
 3519SOL    HW122019   2.868   1.582   6.603  1.6501  0.0774 -0.8808
 3519SOL    HW222020   3.005   1.596   6.646  0.3387  1.6417  1.2292
 3520SOL     OW22021   0.547   0.070   0.303 -0.5348 -0.5101 -0.0842
 3520SOL    HW122022   0.544   0.100   0.212  3.6230  1.1882  0.3208
 3520SOL    HW222023   0.501   0.138   0.353 -1.2636  0.0222 -1.4634
 3521SOL     OW22024   1.931   1.866   8.774 -0.0899 -0.8624 -0.4752
 3521SOL    HW122025   1.889   1.784   8.801 -0.1546 -1.4233 -2.2938
 3521SOL    HW222026   2.010   1.834   8.731  1.8790  1.1873  1.6166
 3522SOL     OW22027   0.121   0.725   7.155 -1.1056 -0.1943  0.3138
 3522SOL    HW122028   0.149   0.724   7.246  2.3263  0.1334 -0.7388
 3522SOL    HW222029   0.121   0.820   7.145  1.3085 -0.3073 -0.9078
 3523SOL     OW22030   0.991   1.787  10.778 -0.0129  0.4022 -0.3353
 3523SOL    HW122031   1.033   1.702  10.781 -1.7808 -0.4913 -0.4874
 3523SOL    HW222032   1.063   1.840  10.811  1.2606 -1.7310  0.2273
 3524SOL     OW22033   0.072   2.449   4.910 -0.9859  0.4499  0.9918
 3524SOL    HW122034   0.111   2.466   4.825  3.8544 -0.3611  3.0744
 3524SOL    HW222035   4.703   2.451   4.885 -1.7427 -0.3547  3.6899
 3525SOL     OW22036   4.178   1.883  10.175 -0.5950  0.6374 -0.2227
 3525SOL    HW122037   4.139   1.852  10.093 -1.1238 -0.1062  0.3124
 3525SOL    HW222038   4.123   1.960  10.190 -0.1620  1.0575 -0.7891
 3526SOL     OW22039   4.085   1.355   5.526 -0.3984 -0.2131 -0.5269
 3526SOL    HW122040   4.023   1.427   5.537 -0.6278 -0.3844 -0.6982
 3526SOL    HW222041   4.071   1.323   5.616  0.0702 -0.0954 -0.4098
 3527SOL     OW22042   0.033   1.403  16.198  0.2234  0.3486  0.5407
 3527SOL    HW122043   4.715   1.454  16.268 -0.3278 -2.5087  2.3086
 3527SOL    HW222044   0.108   1.367  16.245  2.4050 -0.8322 -3.8672
 3528SOL     OW22045   1.802   3.631   4.398 -0.7408  0.6106  0.2132
 3528SOL    HW122046   1.806   3.591   4.312 -2.5060 -0.1747  0.4808
 3528SOL    HW222047   1.786   3.559   4.459 -1.5540  0.8062  0.2310
 3529SOL     OW22048   3.407   2.452   3.935  0.5228  0.1452 -0.7276
 3529SOL    HW122049   3.378   2.382   3.876 -1.2615  0.0059  0.3325
 3529SOL    HW222050   3.321   2.482   3.964  2.0053  0.9233  2.8899
 3530SOL     OW22051   0.511   3.761   1.115 -0.4749 -0.4341 -0.5367
 3530SOL    HW122052   0.428   3.796   1.083 -0.2802  0.6027  0.0632
 3530SOL    HW222053   0.572   3.831   1.092  0.4755 -0.8944  0.5742
 3531SOL     OW22054   4.132   1.757   4.166  0.0238  0.3159  0.3379
 3531SOL    HW122055   4.128   1.786   4.075 -0.9891  0.9223  0.5715
 3531SOL    HW222056   4.214   1.796   4.198 -1.7776  2.8735  1.8697
 3532SOL     OW22057   4.460   3.596   5.241 -0.4603  0.0058 -0.3029
 3532SOL    HW122058   4.494   3.602   5.330 -0.5195  0.8432 -0.3383
 3532SOL    HW222059   4.535   3.568   5.187  0.0734  0.7798  0.0355
 3533SOL     OW22060   4.579   1.242   4.437 -0.1416 -0.3268 -0.2834
 3533SOL    HW122061   4.579   1.260   4.531 -3.1695  2.0650 -0.7389
 3533SOL    HW222062   4.583   1.332   4.407  2.0592  0.5328  2.5498
 3534SOL     OW22063   1.531   4.206  14.851  0.4673 -0.4748 -0.3227
 3534SOL    HW122064   1.532   4.183  14.943 -0.7758 -1.5263 -0.5739
 3534SOL    HW222065   1.455   4.153  14.825  0.5080 -0.6916  0.0103
 3535SOL     OW22066   3.778   3.940   5.230  0.2589  0.3085 -0.4743
 3535SOL    HW122067   3.849   3.996   5.199  1.4950 -0.6104  0.6868
 3535SOL    HW222068   3.723   3.942   5.152  2.0763  0.1664 -1.7576
 3536SOL     OW22069   0.142   3.276   4.846 -0.2303  0.4045 -0.0013
 3536SOL    HW122070   0.152   3.276   4.751 -0.8724 -0.4561 -0.0670
 3536SOL    HW222071   0.138   3.372   4.851  1.1514  0.5314 -1.1190
 3537SOL     OW22072   2.007   1.486   3.817 -0.4500  0.3660  0.0261
 3537SOL    HW122073   2.051   1.511   3.736 -1.6742 -0.4852 -0.9114
 3537SOL    HW222074   1.920   1.519   3.798 -0.4496  0.4263  0.1346
 3538SOL     OW22075   4.587   0.782   5.049  0.0235  0.2697 -0.4277
 3538SOL    HW122076   4.568   0.868   5.089 -0.7824 -0.3476  0.5311
 3538SOL    HW222077   4.682   0.791   5.048 -0.0235  0.6025 -1.7189
 3539SOL     OW22078   4.614   4.458   0.779 -0.2332 -0.9929  0.5551
 3539SOL    HW122079   4.581   4.435   0.692 -0.3098  2.8673 -0.4426
 3539SOL    HW222080   4.569   4.393   0.832 -1.2074  0.1412  1.1047
 3540SOL     OW22081   3.059   1.687  16.868  0.7110  0.4985 -0.0550
 3540SOL    HW122082   3.086   1.740  16.793  1.1372 -0.5895 -0.6710
 3540SOL    HW222083   3.007   1.620  16.824  4.0283 -2.4275  0.5303
 3541SOL     OW22084   2.318   2.201   5.264  0.0676  0.5995  0.9383
 3541SOL    HW122085   2.410   2.185   5.244 -0.1416  0.2349  0.2712
 3541SOL    HW222086   2.308   2.276   5.205 -1.0377 -0.6861 -0.5104
 3542SOL     OW22087   0.448   4.267  12.882  0.1626  0.1052 -0.2196
 3542SOL    HW122088   0.541   4.248  12.887  0.6076  2.6265  1.2592
 3542SOL    HW222089   0.406   4.192  12.924 -2.4485  0.5019 -2.1093
 3543SOL     OW22090   2.850   1.992   6.882 -0.2579 -0.3602  0.1321
 3543SOL    HW122091   2.841   1.983   6.787  1.9436  1.6557 -0.2689
 3543SOL    HW222092   2.787   2.059   6.907  1.1619  1.3429 -0.8243
 3544SOL     OW22093   4.221   1.607   5.682  0.0412 -0.0501 -0.2212
 3544SOL    HW122094   4.144   1.592   5.627  0.0712 -0.5753 -0.1133
 3544SOL    HW222095   4.241   1.696   5.653 -0.7365 -0.1068 -0.9397
 3545SOL     OW22096   1.840   1.710   1.202  0.1675 -0.0917 -0.6617
 3545SOL    HW122097   1.917   1.655   1.202 -0.2101 -0.6167 -0.2416
 3545SOL    HW222098   1.848   1.748   1.114 -1.5143  1.8858  0.0203
 3546SOL     OW22099   1.873   1.114   6.293 -0.2212  0.5052 -0.2673
 3546SOL    HW122100   1.839   1.063   6.219  1.5636 -1.3440  0.1887
 3546SOL    HW222101   1.800   1.173   6.311 -0.2339  0.3955  0.0387
 3547SOL     OW22102   3.895   2.137   5.066 -0.2114 -0.0295 -0.3990
 3547SOL    HW122103   3.989   2.145   5.051 -0.3921 -1.4627 -2.3074
 3547SOL    HW222104   3.880   2.231   5.077  0.3021  0.1570 -1.2964
 3548SOL     OW22105   0.672   3.483  14.377  0.2695 -0.1708  0.1070
 3548SOL    HW122106   0.629   3.532  14.307 -1.0350 -2.0961 -0.4364
 3548SOL    HW222107   0.735   3.429  14.330  1.3220  0.7153  0.5042
 3549SOL     OW22108   2.293   0.458   3.562 -0.2112 -0.9642  0.8030
 3549SOL    HW122109   2.332   0.526   3.507 -3.1520 -0.9797 -1.3138
 3549SOL    HW222110   2.232   0.509   3.614 -0.4906 -1.6355  1.1390
 3550SOL     OW22111   3.681   2.839   0.941 -0.5725 -0.4826 -0.2518
 3550SOL    HW122112   3.653   2.930   0.943 -1.9474 -0.8518 -2.6129
 3550SOL    HW222113   3.741   2.839   0.866  0.1817  0.5686  0.3495
 3551SOL     OW22114   1.973   4.315  16.694 -0.5883 -0.3681  0.1541
 3551SOL    HW122115   1.906   4.363  16.744 -0.3091  0.0417  0.1312
 3551SOL    HW222116   1.912   4.270  16.635 -2.4298 -0.5626  2.1958
 3552SOL     OW22117   0.472   1.160   9.290 -0.1634  0.2011 -0.6189
 3552SOL    HW122118   0.462   1.247   9.251  1.0447  0.7777  0.3848
 3552SOL    HW222119   0.521   1.168   9.371  2.5747 -1.4137 -2.1053
 3553SOL     OW22120   2.665   1.610  12.297  0.4199  0.6340 -0.3854
 3553SOL    HW122121   2.632   1.667  12.367 -2.2875  0.0220 -1.1867
 3553SOL    HW222122   2.752   1.649  12.291  1.3578 -1.7884 -2.4014
 3554SOL     OW22123   2.655   2.161   4.693 -0.0350  0.4416  0.2032
 3554SOL    HW122124   2.602   2.160   4.613 -0.3534 -2.1925  0.4648
 3554SOL    HW222125   2.706   2.242   4.693 -0.4705  0.7228  0.8927
 3555SOL     OW22126   4.174   0.700  17.552 -0.2563  0.1268 -0.0642
 3555SOL    HW122127   4.251   0.680  17.500  0.4249  1.1878  0.5377
 3555SOL    HW222128   4.200   0.771  17.611 -1.4694  0.5647 -0.0484
 3556SOL     OW22129   3.568   3.875   2.418  0.1284  0.1444  0.0923
 3556SOL    HW122130   3.572   3.783   2.446  1.9927 -0.3598 -1.8536
 3556SOL    HW222131   3.488   3.867   2.367  1.0232 -0.4846 -1.2116
 3557SOL     OW22132   4.262   1.478   3.898 -1.2807 -0.5184  0.0041
 3557SOL    HW122133   4.252   1.568   3.866  3.0698  0.0181  0.2140
 3557SOL    HW222134   4.341   1.452   3.851 -1.7824  0.2704 -1.2926
 3558SOL     OW22135   1.154   3.901  16.166  0.6744  0.2134 -0.1268
 3558SOL    HW122136   1.225   3.959  16.195  0.6386  0.4615 -0.5443
 3558SOL    HW222137   1.214   3.829  16.146  0.2774  0.3324 -1.7646
 3559SOL     OW22138   3.484   2.319  17.293 -0.5609  0.1048  0.5201
 3559SOL    HW122139   3.520   2.354  17.211  0.7533  0.1164  1.1120
 3559SOL    HW222140   3.427   2.246  17.269  0.9978 -1.4249  1.5400
 3560SOL     OW22141   0.519   0.473  11.512  0.7853 -1.0589  0.4657
 3560SOL    HW122142   0.606   0.434  11.500  1.4468  1.0790 -1.8568
 3560SOL    HW222143   0.504   0.500  11.422  1.6533 -0.2478  0.5585
 3561SOL     OW22144   0.023   2.549  12.255  0.6574  0.0748 -0.3980
 3561SOL    HW122145   0.018   2.470  12.309 -2.9794  0.0904 -0.7226
 3561SOL    HW222146   0.022   2.618  12.321 -2.5318 -0.2828 -0.0898
 3562SOL     OW22147   3.996   3.346   4.280  0.3212  0.2046 -0.1606
 3562SOL    HW122148   4.037   3.387   4.356 -1.3516  0.5490  0.5467
 3562SOL    HW222149   4.079   3.307   4.250  1.6984  0.8831  2.7497
 3563SOL     OW22150   3.041   3.208   0.368  0.1718 -0.0365  0.4428
 3563SOL    HW122151   3.020   3.121   0.403  0.0846 -0.5202 -0.8095
 3563SOL    HW222152   2.960   3.256   0.382  0.6406  0.9294 -0.2095
 3564SOL     OW22153   0.234   1.761   0.581 -0.2021 -0.3136 -0.4254
 3564SOL    HW122154   0.183   1.694   0.536  0.1265 -1.6670  1.1943
 3564SOL    HW222155   0.164   1.826   0.589  2.2542  2.0995  1.5586
 3565SOL     OW22156   1.671   0.310   2.392  0.5248  0.0674 -0.0397
 3565SOL    HW122157   1.662   0.354   2.476  1.1107  0.6191 -0.2620
 3565SOL    HW222158   1.750   0.260   2.412  0.1727 -0.8225 -0.9065
 3566SOL     OW22159   3.644   0.719   6.671 -0.2653 -0.3355 -0.3975
 3566SOL    HW122160   3.600   0.665   6.737  0.9717 -0.4536  0.3232
 3566SOL    HW222161   3.575   0.781   6.645  0.3386  0.5011  0.0031
 3567SOL     OW22162   2.292   3.621   5.879  0.0501 -0.4328  0.0018
 3567SOL    HW122163   2.347   3.627   5.957 -2.8444  1.1363  1.9207
 3567SOL    HW222164   2.216   3.573   5.912 -0.3986  1.3632  1.5932
 3568SOL     OW22165   0.129   2.641   5.813  0.0393  0.4407  0.3376
 3568SOL    HW122166   0.165   2.730   5.806  4.1039 -1.4237 -2.4165
 3568SOL    HW222167   0.191   2.580   5.774 -0.1900  0.4017  0.0294
 3569SOL     OW22168   2.534   1.903  16.037 -0.3094 -0.0043 -0.5279
 3569SOL    HW122169   2.512   1.983  15.989  0.0943  0.5562  0.2214
 3569SOL    HW222170   2.546   1.927  16.129  0.1854  1.2201 -0.9234
 3570SOL     OW22171   1.131   0.708   6.591 -0.4073  0.2337  0.6873
 3570SOL    HW122172   1.176   0.727   6.509  1.2424  0.5557  1.6618
 3570SOL    HW222173   1.046   0.670   6.570 -0.9162  0.6066  2.0391
 3571SOL     OW22174   4.286   3.961   8.821  0.4015  0.3401  0.2369
 3571SOL    HW122175   4.193   3.984   8.821  0.4736  0.5747  2.3520
 3571SOL    HW222176   4.326   4.045   8.843 -0.5340  0.5956  0.9623
 3572SOL     OW22177   1.766   3.645   4.103  0.0908 -0.9002 -0.9355
 3572SOL    HW122178   1.788   3.734   4.075  0.3859 -0.5189  0.5056
 3572SOL    HW222179   1.705   3.611   4.037 -2.0172  0.5379  0.2768
 3573SOL     OW22180   2.386   1.514   2.819  0.0916 -0.1513 -0.3352
 3573SOL    HW122181   2.362   1.421   2.826  0.1051 -0.0477  1.0928
 3573SOL    HW222182   2.338   1.547   2.743  0.1603 -0.0889 -0.3510
 3574SOL     OW22183   1.566   1.638  16.770  0.2232  0.1618 -0.0495
 3574SOL    HW122184   1.544   1.624  16.863 -2.2781 -0.3443 -0.7180
 3574SOL    HW222185   1.612   1.722  16.774  1.4203 -0.6340  3.2827
 3575SOL     OW22186   3.359   4.637   3.949 -0.7023 -0.1046  0.0242
 3575SOL    HW122187   3.433   4.576   3.955 -0.4430  0.5494  3.1716
 3575SOL    HW222188   3.291   4.583   3.989 -0.7883 -0.0414 -0.0374
 3576SOL     OW22189   2.512   0.002   7.910  0.1972  0.4027  0.6255
 3576SOL    HW122190   2.602   0.035   7.908  0.8298 -1.4734 -2.8563
 3576SOL    HW222191   2.475   0.071   7.854  0.7341 -0.0506 -0.2966
 3577SOL     OW22192   4.050   1.438   3.065 -0.8357  0.1307  0.1308
 3577SOL    HW122193   4.132   1.474   3.032 -0.4465 -1.3083 -0.5071
 3577SOL    HW222194   4.066   1.431   3.159  1.4920  1.1917 -0.1982
 3578SOL     OW22195   4.060   1.517   4.868  0.1281  0.0787 -0.4572
 3578SOL    HW122196   4.021   1.593   4.826 -0.6653  1.1839  2.2533
 3578SOL    HW222197   4.125   1.566   4.918 -1.2985  0.6260  0.8628
 3579SOL     OW22198   1.161   4.334   3.403  0.0548  0.1038 -0.0385
 3579SOL    HW122199   1.152   4.261   3.465 -0.7290 -1.1893 -1.6737
 3579SOL    HW222200   1.080   4.326   3.353  0.1687 -2.8109  0.2719
 3580SOL     OW22201   0.125   1.868   5.528  0.3144 -0.0549 -0.1992
 3580SOL    HW122202   0.126   1.772   5.533  0.3546 -0.0632 -0.3641
 3580SOL    HW222203   0.068   1.883   5.604 -0.9400  1.0000 -1.3430
 3581SOL     OW22204   3.646   2.986   3.726  0.5914  0.2323  0.0413
 3581SOL    HW122205   3.603   3.036   3.656 -1.0836 -3.2692 -1.3996
 3581SOL    HW222206   3.690   3.059   3.770 -0.3768  1.0839 -0.4020
 3582SOL     OW22207   4.140   1.290   6.004  0.6258 -0.6629  0.1136
 3582SOL    HW122208   4.218   1.272   6.056 -1.1467 -0.6851  2.7856
 3582SOL    HW222209   4.188   1.316   5.925  0.7949 -1.4715 -0.0469
 3583SOL     OW22210   1.518   0.373  17.666  0.2752 -0.4940  0.6709
 3583SOL    HW122211   1.586   0.433  17.638  1.2310 -1.9445 -0.1541
 3583SOL    HW222212   1.570   0.306   0.015  0.3028 -1.0862 -0.2544
 3584SOL     OW22213   2.744   4.095  14.280 -0.4302  0.5043 -0.1329
 3584SOL    HW122214   2.687   4.076  14.355 -1.1556 -0.3723 -0.8919
 3584SOL    HW222215   2.674   4.098  14.214 -0.1745  3.4422 -0.2408
 3585SOL     OW22216   2.561   3.968   0.961 -0.1190 -0.0911  0.1846
 3585SOL    HW122217   2.638   3.987   1.014  0.1574 -0.9638  0.1089
 3585SOL    HW222218   2.516   4.051   0.948 -1.7978 -1.1314 -0.7783
 3586SOL     OW22219   1.501   0.155   6.899  0.2414 -0.1779  0.4042
 3586SOL    HW122220   1.459   0.073   6.874 -0.4923  0.4187 -0.3258
 3586SOL    HW222221   1.453   0.219   6.846 -1.7664 -0.3280  2.0209
 3587SOL     OW22222   1.236   0.736   2.741  0.1626 -0.1341  0.0075
 3587SOL    HW122223   1.298   0.718   2.671  0.0982  0.5062 -0.2114
 3587SOL    HW222224   1.200   0.648   2.740  1.6638 -0.7403 -1.4507
 3588SOL     OW22225   3.568   4.487   3.997  0.1888  0.2313 -0.1747
 3588SOL    HW122226   3.534   4.431   4.067  0.9594  0.2841  0.2366
 3588SOL    HW222227   3.640   4.519   4.051 -0.6613  0.7806  0.6474
 3589SOL     OW22228   3.814   4.244   1.078 -0.1115  0.2157 -0.0652
 3589SOL    HW122229   3.849   4.317   1.026 -0.5604  0.9343  0.6497
 3589SOL    HW222230   3.732   4.231   1.031 -0.5796  1.1800  0.4735
 3590SOL     OW22231   0.779   4.142   7.505  0.4537 -0.2401 -0.4687
 3590SOL    HW122232   0.873   4.127   7.510  0.0900 -1.9450  1.1323
 3590SOL    HW222233   0.763   4.186   7.589 -0.9050 -3.0955  0.7663
 3591SOL     OW22234   1.636   0.818   2.929  0.5057 -0.6054 -0.1953
 3591SOL    HW122235   1.660   0.897   2.976 -0.5362 -0.8827  0.7938
 3591SOL    HW222236   1.554   0.856   2.896 -1.1558 -1.5896  2.8395
 3592SOL     OW22237   2.010   4.175   2.240  0.0328  0.1461 -0.3568
 3592SOL    HW122238   1.919   4.155   2.223 -0.1708  1.2521 -0.5897
 3592SOL    HW222239   2.044   4.089   2.264  0.5397  0.4286 -0.0473
 3593SOL     OW22240   4.326   4.575  13.502 -0.2580 -0.3536 -0.0683
 3593SOL    HW122241   4.375   4.497  13.527  1.3512  0.8579  0.5985
 3593SOL    HW222242   4.258   4.538  13.446 -2.8404  2.3120  1.3260
 3594SOL     OW22243   4.123   2.397   4.741 -0.3728  0.5489  0.1418
 3594SOL    HW122244   4.133   2.304   4.721  0.4797  0.8157 -0.6661
 3594SOL    HW222245   4.100   2.402   4.834  0.1854 -1.3206  0.3752
 3595SOL     OW22246   3.165   1.563   6.514  0.5465 -0.3854  0.1572
 3595SOL    HW122247   3.223   1.505   6.466  1.1094 -0.6779  1.1827
 3595SOL    HW222248   3.211   1.646   6.508 -1.1569  0.6625  1.3787
 3596SOL     OW22249   0.555   1.114   8.555  0.1245  0.0657  0.3012
 3596SOL    HW122250   0.544   1.125   8.460  1.5831 -0.1366  0.1069
 3596SOL    HW222251   0.640   1.071   8.561  0.5269  0.6295 -1.2335
 3597SOL     OW22252   2.602   2.917   2.972 -0.6358  0.1982  0.0938
 3597SOL    HW122253   2.515   2.879   2.957 -0.8674 -0.3731  2.9437
 3597SOL    HW222254   2.589   3.010   2.955  1.0506  0.3511 -0.4042
 3598SOL     OW22255   0.985   3.251   7.965  0.1988 -0.9061  0.3970
 3598SOL    HW122256   0.936   3.307   8.024  3.4765  1.4387  0.8858
 3598SOL    HW222257   0.934   3.264   7.885 -1.6584 -1.0101  1.5774
 3599SOL     OW22258   0.542   2.941   2.984  0.1149 -0.4514  0.3979
 3599SOL    HW122259   0.554   2.846   2.988 -0.9713 -0.5847  0.5131
 3599SOL    HW222260   0.593   2.956   3.063 -1.3331 -0.2503  1.2914
 3600SOL     OW22261   0.135   2.900   1.688 -0.3413 -0.3062  0.4799
 3600SOL    HW122262   0.195   2.826   1.686 -1.4568 -1.2117  0.2026
 3600SOL    HW222263   0.075   2.871   1.757  0.5715 -0.6614  1.1193
 3601SOL     OW22264   1.877   4.538   0.999  0.6946  0.5718  0.1372
 3601SOL    HW122265   1.789   4.553   0.965  0.1748 -0.0215  1.2204
 3601SOL    HW222266   1.861   4.486   1.078  1.3225  2.0742  1.2424
 3602SOL     OW22267   2.166   4.455   2.507  0.4380  0.1767 -0.3051
 3602SOL    HW122268   2.130   4.370   2.533 -0.0268  0.5919  0.4107
 3602SOL    HW222269   2.147   4.435   2.415  0.5684 -0.6097 -0.1644
 3603SOL     OW22270   1.235   0.563   5.571 -0.1567  0.2530  0.2587
 3603SOL    HW122271   1.303   0.590   5.509 -1.4644  0.7692 -0.9779
 3603SOL    HW222272   1.153   0.604   5.541  0.3382  0.4055 -0.9060
 3604SOL     OW22273   1.716   4.052   9.934 -0.0971 -0.2158 -0.2225
 3604SOL    HW122274   1.636   4.014   9.970 -1.0262  0.2630 -1.7802
 3604SOL    HW222275   1.732   4.121   9.999 -0.1882 -0.3341 -0.0746
 3605SOL     OW22276   1.861   3.001   7.874 -0.0897  0.2985 -0.1912
 3605SOL    HW122277   1.927   2.944   7.835 -1.0135  0.0938 -1.4826
 3605SOL    HW222278   1.816   2.952   7.944  1.7027 -1.4622 -0.2880
 3606SOL     OW22279   3.476   2.353   7.115  0.2753  0.1868  0.0341
 3606SOL    HW122280   3.526   2.302   7.051  0.4397  0.1384  0.2018
 3606SOL    HW222281   3.497   2.441   7.082 -1.2181 -0.0040 -1.3802
 3607SOL     OW22282   1.745   1.971  12.728  0.2556  0.1982  0.5486
 3607SOL    HW122283   1.750   2.064  12.752 -1.5326 -0.0742  2.0125
 3607SOL    HW222284   1.790   1.968  12.643  3.7765 -0.0381  2.4535
 3608SOL     OW22285   3.499   2.626  12.110  0.0324 -0.1745  0.2290
 3608SOL    HW122286   3.412   2.624  12.149 -0.6167  4.0842 -0.9250
 3608SOL    HW222287   3.532   2.698  12.164  0.9981 -0.4255 -0.0264
 3609SOL     OW22288   4.424   1.035  13.335 -0.1017  0.3411  0.6949
 3609SOL    HW122289   4.343   1.049  13.385  0.5760  2.5390  1.1596
 3609SOL    HW222290   4.453   0.945  13.351  2.3430  1.6095  3.3780
 3610SOL     OW22291   1.184   0.898  16.812 -0.3826  0.0697  0.0911
 3610SOL    HW122292   1.191   0.834  16.883 -0.4306 -0.3859 -0.3175
 3610SOL    HW222293   1.201   0.976  16.865  2.0289 -0.0949 -0.4099
 3611SOL     OW22294   1.545   2.021   3.272  0.7277 -0.1800  0.1629
 3611SOL    HW122295   1.461   1.995   3.233 -0.5117  1.0915  1.9311
 3611SOL    HW222296   1.555   2.109   3.236  0.2003  1.2394  3.4026
 3612SOL     OW22297   1.158   1.038   1.427  0.0205  0.3570  0.2783
 3612SOL    HW122298   1.201   1.118   1.395  0.8256  0.4410  1.5770
 3612SOL    HW222299   1.235   0.982   1.435 -0.1078 -0.0693 -1.4601
 3613SOL     OW22300   4.685   0.873  16.770 -0.0059  0.1436  0.1457
 3613SOL    HW122301   4.690   0.941  16.837 -0.0986 -1.0351  1.3448
 3613SOL    HW222302   0.011   0.800  16.807  0.2277  0.3656  0.2721
 3614SOL     OW22303   2.768   3.788   3.316  0.2657  0.0535 -0.2739
 3614SOL    HW122304   2.836   3.734   3.357 -2.2831 -0.7537  2.9281
 3614SOL    HW222305   2.686   3.744   3.338 -0.0630  0.6505 -0.3050
 3615SOL     OW22306   3.922   1.194   6.127  0.4118 -0.1862 -0.0035
 3615SOL    HW122307   3.918   1.250   6.205 -0.9585  1.4193 -1.2349
 3615SOL    HW222308   4.001   1.226   6.085  0.1653  0.9094  0.3684
 3616SOL     OW22309   2.298   2.902   3.714 -0.1162 -0.1824 -0.2467
 3616SOL    HW122310   2.322   2.992   3.695  0.7879 -0.2495  0.6133
 3616SOL    HW222311   2.384   2.860   3.710 -0.7634 -1.5095 -0.5556
 3617SOL     OW22312   4.065   1.320   2.406  0.3729  0.4992 -0.4949
 3617SOL    HW122313   4.083   1.234   2.445  0.9641  1.1877  0.7819
 3617SOL    HW222314   4.140   1.366   2.444  0.0206  1.6779 -1.2247
 3618SOL     OW22315   1.697   0.910   3.569  0.0483  0.4746 -0.1306
 3618SOL    HW122316   1.738   0.825   3.585 -0.4432  0.1229 -0.7416
 3618SOL    HW222317   1.636   0.888   3.499  0.2604 -1.4834  0.3051
 3619SOL     OW22318   3.645   0.719   4.766  0.8134 -0.4393 -0.3203
 3619SOL    HW122319   3.676   0.667   4.692 -1.7027 -0.3215 -1.4574
 3619SOL    HW222320   3.723   0.747   4.814  1.3561 -1.0282 -0.8694
 3620SOL     OW22321   1.613   2.023   8.311  0.2982 -0.3820  0.2050
 3620SOL    HW122322   1.700   1.996   8.339  0.2645  1.0029  1.6308
 3620SOL    HW222323   1.557   1.949   8.334  1.4201 -0.8890  1.2509
 3621SOL     OW22324   1.481   3.933   3.412  0.2219 -0.1117 -0.1196
 3621SOL    HW122325   1.478   3.883   3.493 -0.2851  0.5478  0.2672
 3621SOL    HW222326   1.402   3.985   3.425  0.6472  0.6413 -0.4907
 3622SOL     OW22327   2.692   0.452  17.128  0.0670 -0.2238  0.5155
 3622SOL    HW122328   2.625   0.383  17.135 -0.4150  0.2182  0.2871
 3622SOL    HW222329   2.757   0.411  17.185 -0.1528 -2.0771 -0.5397
 3623SOL     OW22330   1.972   4.079   0.304 -0.1521  0.6856 -0.4588
 3623SOL    HW122331   1.964   4.004   0.246  1.7734  1.4301 -1.6724
 3623SOL    HW222332   2.045   4.127   0.264 -0.7852  3.1876  1.3640
 3624SOL     OW22333   1.756   1.657   8.842 -0.5265 -0.4858 -0.1367
 3624SOL    HW122334   1.702   1.721   8.889 -0.1845 -0.4658  0.2305
 3624SOL    HW222335   1.784   1.601   8.915 -0.3471 -2.0146 -1.3868
 3625SOL     OW22336   1.329   1.665   6.638 -0.3517 -0.3163  0.3025
 3625SOL    HW122337   1.402   1.656   6.698  0.1685  3.3473  0.2337
 3625SOL    HW222338   1.377   1.645   6.557  0.0704  0.5352  0.3416
 3626SOL     OW22339   3.234   3.387   0.299  0.1345  0.2785 -0.6305
 3626SOL    HW122340   3.199   3.442   0.369 -1.1605 -0.5533 -0.6128
 3626SOL    HW222341   3.178   3.310   0.306  0.2764  0.0968 -1.5238
 3627SOL     OW22342   3.911   0.358   3.807  0.1384  0.4056  0.3084
 3627SOL    HW122343   3.926   0.374   3.900 -2.0311 -2.0802  1.0713
 3627SOL    HW222344   3.825   0.397   3.795 -0.9126 -1.5709  1.4370
 3628SOL     OW22345   2.593   2.329   0.396  0.6173 -0.0982  0.3743
 3628SOL    HW122346   2.636   2.414   0.390 -0.1116 -0.0145 -3.5317
 3628SOL    HW222347   2.655   2.283   0.453  0.0530  0.4760  1.4569
 3629SOL     OW22348   3.690   2.810   5.422 -0.4245  0.2166  0.6100
 3629SOL    HW122349   3.708   2.896   5.384 -2.7936  0.6591  0.5089
 3629SOL    HW222350   3.600   2.792   5.396 -1.0787  1.9335  1.6578
 3630SOL     OW22351   0.686   3.183   2.415  0.2448 -0.3051 -0.3641
 3630SOL    HW122352   0.605   3.158   2.370  1.2293 -2.8913 -0.6862
 3630SOL    HW222353   0.672   3.274   2.443 -4.0755 -1.1032  0.1122
 3631SOL     OW22354   4.317   2.584   0.983  0.3685  0.4676  0.0314
 3631SOL    HW122355   4.262   2.506   0.992 -0.4358  1.3673  2.7972
 3631SOL    HW222356   4.380   2.569   1.053  1.7424  2.2809 -0.8016
 3632SOL     OW22357   1.544   1.493   9.444  0.1146  0.0173 -0.0654
 3632SOL    HW122358   1.616   1.494   9.507  0.0819 -0.0262 -0.0272
 3632SOL    HW222359   1.472   1.530   9.495  0.0397 -1.1520  0.6798
 3633SOL     OW22360   0.012   0.903   8.445 -0.0959 -0.2242 -0.2250
 3633SOL    HW122361   4.669   0.971   8.434  1.3171  0.9648 -1.4141
 3633SOL    HW222362   4.677   0.829   8.459 -0.6215  0.2397  0.0012
 3634SOL     OW22363   0.913   0.398  11.244 -0.5047  0.1030  0.7290
 3634SOL    HW122364   0.901   0.481  11.196  1.2290 -0.0260  0.0823
 3634SOL    HW222365   0.933   0.336  11.174 -1.2464 -1.0534  1.5584
 3635SOL     OW22366   4.123   4.650  12.694 -0.2259  0.6269  0.3872
 3635SOL    HW122367   4.032   4.674  12.711 -0.7396  0.6357 -2.4319
 3635SOL    HW222368   4.147   4.635  12.786 -0.2673 -0.5468  0.2051
 3636SOL     OW22369   3.707   4.655   6.527 -0.1411  0.1081  0.1830
 3636SOL    HW122370   3.739   4.655   6.618  0.1315 -1.3572  0.0914
 3636SOL    HW222371   3.731   4.567   6.498 -1.4573 -0.3571  0.5239
 3637SOL     OW22372   3.838   2.676   8.512 -0.5975 -0.1592  0.1461
 3637SOL    HW122373   3.915   2.670   8.568  1.9011 -0.5474 -3.3396
 3637SOL    HW222374   3.798   2.753   8.551 -0.3922 -0.7144  1.4642
 3638SOL     OW22375   0.240   0.495   0.849  0.4379  0.0261 -0.5395
 3638SOL    HW122376   0.302   0.481   0.921  1.8671  0.5073 -1.6850
 3638SOL    HW222377   0.156   0.474   0.890  1.7669 -3.2946  0.5132
 3639SOL     OW22378   4.292   3.135   9.521 -0.5107 -0.5817  0.0440
 3639SOL    HW122379   4.330   3.081   9.452  3.1410  0.3091  1.3250
 3639SOL    HW222380   4.335   3.099   9.599 -0.4856 -0.7843 -0.0641
 3640SOL     OW22381   1.790   3.892   1.419 -0.6033  0.1554  0.1819
 3640SOL    HW122382   1.856   3.824   1.412 -1.4587 -0.4272 -2.0995
 3640SOL    HW222383   1.771   3.894   1.513  0.1797 -1.9686  0.3711
 3641SOL     OW22384   2.418   1.493   6.806  0.2092  0.4834  0.5155
 3641SOL    HW122385   2.412   1.508   6.901  0.9428 -1.5959  0.8971
 3641SOL    HW222386   2.511   1.509   6.789  1.1050 -3.7581  1.3386
 3642SOL     OW22387   0.587   1.105   3.649 -0.3792  0.3152  0.7534
 3642SOL    HW122388   0.577   1.039   3.581  0.2664  0.9229  0.0631
 3642SOL    HW222389   0.597   1.180   3.590 -0.3870  0.0312  0.3902
 3643SOL     OW22390   0.944   4.459   6.669  0.7414 -0.2532 -0.2350
 3643SOL    HW122391   0.877   4.478   6.604  0.5517 -0.7100 -0.1706
 3643SOL    HW222392   0.928   4.379   6.719 -0.4051 -0.6190 -1.2095
 3644SOL     OW22393   3.534   4.462   5.538 -0.0587 -0.1214 -0.5261
 3644SOL    HW122394   3.452   4.414   5.548 -0.2173  0.3150  0.2301
 3644SOL    HW222395   3.593   4.395   5.573  0.0215  0.8108  1.0774
 3645SOL     OW22396   1.265   1.141   3.654  0.0448 -0.0994  0.0169
 3645SOL    HW122397   1.219   1.221   3.631  1.9344  1.0764  0.2774
 3645SOL    HW222398   1.246   1.092   3.574 -1.2856 -2.6299  1.8832
 3646SOL     OW22399   2.766   1.585   6.482 -0.1400 -0.1590  0.2505
 3646SOL    HW122400   2.719   1.645   6.425  1.3455  0.0186 -0.7831
 3646SOL    HW222401   2.727   1.501   6.458 -1.0067 -0.2807  2.0934
 3647SOL     OW22402   4.155   4.434   5.594 -0.2148 -0.3549  0.0191
 3647SOL    HW122403   4.093   4.499   5.627 -0.1228 -0.2669  0.0179
 3647SOL    HW222404   4.195   4.398   5.673 -2.9545 -0.0379  1.5335
 3648SOL     OW22405   2.761   0.127  14.974 -0.0880 -0.6755 -0.1711
 3648SOL    HW122406   2.698   0.128  14.902 -1.1781 -2.7416  0.7334
 3648SOL    HW222407   2.712   0.186  15.030 -0.4527  0.0667 -1.2688
 3649SOL     OW22408   1.917   0.663  15.168  0.1553 -0.1895 -0.5048
 3649SOL    HW122409   1.844   0.611  15.132 -0.0505  0.0026 -0.3667
 3649SOL    HW222410   1.874   0.749  15.173  0.4764 -0.0911  0.4792
 3650SOL     OW22411   0.099   0.022   1.812  0.1684  0.3186  0.1545
 3650SOL    HW122412   0.112   0.115   1.796  0.9549  0.4906  1.7753
 3650SOL    HW222413   0.013   0.025   1.855  0.2399  3.0040  0.0637
 3651SOL     OW22414   4.248   3.311   8.143  0.2811 -0.4302 -0.1467
 3651SOL    HW122415   4.305   3.305   8.066 -1.8228  0.9559 -1.8088
 3651SOL    HW222416   4.172   3.359   8.110  0.4972 -1.4332 -2.0872
 3652SOL     OW22417   3.047   3.095   8.731 -0.4766 -0.0484  0.0632
 3652SOL    HW122418   2.955   3.067   8.733 -0.4908  0.0522  1.1160
 3652SOL    HW222419   3.050   3.151   8.809  0.0190 -1.3862  1.0044
 3653SOL     OW22420   1.961   1.664   8.253 -0.1901 -0.1291 -0.2546
 3653SOL    HW122421   1.889   1.610   8.285  1.0411 -1.9449 -0.5958
 3653SOL    HW222422   1.913   1.731   8.205  0.1941  0.6316  0.4141
 3654SOL     OW22423   3.275   0.466  14.845  0.2306 -0.5070  0.2448
 3654SOL    HW122424   3.218   0.537  14.814  0.7292 -0.2128 -0.0057
 3654SOL    HW222425   3.339   0.474  14.775  0.1071  0.3158  0.2179
 3655SOL     OW22426   0.674   3.703   1.766 -0.5635 -0.2955 -0.0073
 3655SOL    HW122427   0.768   3.691   1.775 -0.2418  1.5514 -1.0096
 3655SOL    HW222428   0.650   3.616   1.733  0.1124 -0.6808  0.5273
 3656SOL     OW22429   3.452   1.895   3.610 -0.5424 -0.0603 -0.3365
 3656SOL    HW122430   3.506   1.974   3.614 -1.2067  0.4992 -2.4171
 3656SOL    HW222431   3.467   1.864   3.521 -1.4695 -2.6585  0.4286
 3657SOL     OW22432   1.572   1.605  17.022  0.0297 -0.9170 -0.1133
 3657SOL    HW122433   1.585   1.677  17.084  1.1871 -1.9168  0.8137
 3657SOL    HW222434   1.548   1.531  17.077 -4.5497  0.7106  0.0169
 3658SOL     OW22435   0.777   3.876   9.644 -0.1718  0.1631 -0.2814
 3658SOL    HW122436   0.818   3.821   9.710 -3.6524 -2.5682 -0.3601
 3658SOL    HW222437   0.840   3.946   9.631 -0.4936  0.3423 -0.8550
 3659SOL     OW22438   3.220   3.391   4.201 -0.7278 -0.3906 -0.4532
 3659SOL    HW122439   3.297   3.428   4.244 -0.6473 -0.6874 -0.3410
 3659SOL    HW222440   3.216   3.435   4.116  1.4866 -1.5160 -1.1517
 3660SOL     OW22441   2.982   1.638   3.166 -0.6667 -0.2727 -0.6315
 3660SOL    HW122442   2.977   1.593   3.081  0.2048 -1.0363 -0.2821
 3660SOL    HW222443   3.052   1.590   3.210  0.2310  1.7083  0.0839
 3661SOL     OW22444   2.001   3.846  16.763 -1.0383 -0.0049 -0.1196
 3661SOL    HW122445   1.945   3.886  16.697  0.7340  1.1515 -0.9211
 3661SOL    HW222446   1.953   3.763  16.765 -2.5564  0.9019  0.3992
 3662SOL     OW22447   3.829   2.334  13.693 -0.0940  0.1390  0.4205
 3662SOL    HW122448   3.895   2.283  13.741 -0.2165 -1.9761 -1.6432
 3662SOL    HW222449   3.814   2.398  13.762 -0.9641  0.7547 -0.3407
 3663SOL     OW22450   0.237   2.989   3.129  0.2179  0.1373 -0.1111
 3663SOL    HW122451   0.190   2.907   3.112  1.2567 -0.0955 -1.9350
 3663SOL    HW222452   0.189   3.019   3.206 -1.1540  1.8889 -1.6627
 3664SOL     OW22453   0.494   2.630  13.262  0.0480  0.6553  0.1598
 3664SOL    HW122454   0.573   2.662  13.217  0.7318  1.1913  1.7254
 3664SOL    HW222455   0.421   2.659  13.208  0.0826  0.0450 -0.2130
 3665SOL     OW22456   0.627   0.638   7.824 -0.1293  0.2083  0.0795
 3665SOL    HW122457   0.717   0.635   7.856 -0.2991  0.8407  0.6094
 3665SOL    HW222458   0.573   0.664   7.899  2.2818  1.1292  1.4700
 3666SOL     OW22459   3.281   4.016  10.501  0.3649  0.5399  0.4262
 3666SOL    HW122460   3.277   4.097  10.451 -0.1736  0.9417  1.1228
 3666SOL    HW222461   3.370   4.024  10.534  0.3460  0.8289  0.4069
 3667SOL     OW22462   0.353   0.906   7.967 -0.1243 -0.0483 -0.0643
 3667SOL    HW122463   0.442   0.924   7.999 -0.2306 -2.7727  1.8528
 3667SOL    HW222464   0.294   0.956   8.023 -0.3909 -0.3616 -0.0618
 3668SOL     OW22465   1.172   0.654   7.935  0.0560  0.0524 -0.3014
 3668SOL    HW122466   1.192   0.560   7.937  0.2023  0.0703 -0.9222
 3668SOL    HW222467   1.262   0.687   7.936  0.4675 -1.1249  1.4312
 3669SOL     OW22468   2.489   1.461   7.772 -0.6722  0.5059  0.3655
 3669SOL    HW122469   2.403   1.482   7.735 -1.2295  0.6896  1.7581
 3669SOL    HW222470   2.470   1.389   7.833 -1.9007  0.2033 -0.3695
 3670SOL     OW22471   1.849   1.505   9.063  0.4443 -0.1167  0.1627
 3670SOL    HW122472   1.880   1.417   9.084 -0.2562  0.1816  2.4039
 3670SOL    HW222473   1.830   1.527   9.154  0.7494  0.2335  0.1451
 3671SOL     OW22474   2.959   1.928   9.114 -0.3449  0.0596 -0.2938
 3671SOL    HW122475   3.023   1.913   9.184  1.0643  3.1825 -0.8889
 3671SOL    HW222476   2.991   2.004   9.063 -0.5286 -0.5945 -1.3832
 3672SOL     OW22477   4.542   3.495   3.816 -0.4174 -0.4746  0.2139
 3672SOL    HW122478   4.521   3.426   3.878 -1.2644  0.1043  0.5793
 3672SOL    HW222479   4.622   3.472   3.769 -1.2980 -2.2368 -0.4225
 3673SOL     OW22480   1.475   3.196   8.392 -0.2342  0.4525 -0.0226
 3673SOL    HW122481   1.483   3.226   8.483  0.0094  0.4091 -0.0295
 3673SOL    HW222482   1.380   3.201   8.390 -0.2547  0.7201  1.6888
 3674SOL     OW22483   2.088   1.722   9.045  0.1853  0.1317  0.1392
 3674SOL    HW122484   2.154   1.710   9.113  0.1634 -1.1099 -0.0530
 3674SOL    HW222485   2.012   1.676   9.080 -0.2393  0.8895  0.2275
 3675SOL     OW22486   1.775   3.673   2.827  0.1512 -0.4680 -0.2969
 3675SOL    HW122487   1.769   3.743   2.762 -2.1937 -0.8011 -0.4290
 3675SOL    HW222488   1.691   3.679   2.873  0.4389  1.9523 -0.1377
 3676SOL     OW22489   1.344   4.490   3.643 -0.0665  0.0041 -0.1660
 3676SOL    HW122490   1.270   4.432   3.624 -0.5871  0.6093  0.0198
 3676SOL    HW222491   1.397   4.438   3.704 -0.7781 -1.0996 -0.4747
 3677SOL     OW22492   4.246   1.347   6.353 -0.9791 -0.0714  0.7608
 3677SOL    HW122493   4.242   1.353   6.257 -0.3432  0.7248  0.7755
 3677SOL    HW222494   4.288   1.264   6.374  0.5473  0.2545 -0.9547
 3678SOL     OW22495   4.241   3.220   4.219 -0.2435  0.0283 -0.0477
 3678SOL    HW122496   4.316   3.173   4.255 -0.7614 -1.4205 -0.8308
 3678SOL    HW222497   4.228   3.183   4.132  4.2975  0.0410 -0.7115
 3679SOL     OW22498   1.488   1.437   3.656 -0.5883  0.1005  0.0143
 3679SOL    HW122499   1.415   1.490   3.688 -1.4016 -1.4605  0.7332
 3679SOL    HW222500   1.436   1.367   3.615 -0.2536 -0.5848  0.7644
 3680SOL     OW22501   4.089   3.819   0.231  0.5093 -0.5066  0.6755
 3680SOL    HW122502   4.093   3.882   0.304  0.1251  0.1300  0.1508
 3680SOL    HW222503   4.116   3.738   0.274  1.0590 -1.9327 -2.3910
 3681SOL     OW22504   2.533   3.046  13.677 -0.2767 -0.3188  0.1947
 3681SOL    HW122505   2.447   3.072  13.711 -0.9728 -0.5752 -1.3740
 3681SOL    HW222506   2.576   3.022  13.760  0.8023 -1.6343 -0.7496
 3682SOL     OW22507   4.045   1.513   3.356  0.5149  0.4709  0.0255
 3682SOL    HW122508   3.985   1.470   3.417  0.6516 -0.3018 -0.3928
 3682SOL    HW222509   3.991   1.589   3.333  0.6088  0.8218  0.9514
 3683SOL     OW22510   1.659   2.489  10.861 -0.0086 -0.6212 -0.4358
 3683SOL    HW122511   1.626   2.577  10.880  2.2248  0.2764 -0.7165
 3683SOL    HW222512   1.741   2.505  10.815 -0.3002 -0.4848 -0.8995
 3684SOL     OW22513   1.081   3.513   5.021 -0.0738  0.0409 -0.4787
 3684SOL    HW122514   1.155   3.467   4.982 -0.2175 -0.4650 -0.1562
 3684SOL    HW222515   1.007   3.455   5.000  0.3793 -0.8634  0.4093
 3685SOL     OW22516   3.086   3.250  14.813 -0.3715 -0.0797  0.8739
 3685SOL    HW122517   3.143   3.305  14.759  1.0438 -2.3281  0.0587
 3685SOL    HW222518   3.153   3.185  14.833 -0.2084 -0.9888 -2.6537
 3686SOL     OW22519   1.174   4.556   5.362 -0.1388 -0.5317 -0.0389
 3686SOL    HW122520   1.207   4.621   5.424  1.1709 -0.7982 -0.4559
 3686SOL    HW222521   1.196   4.473   5.405  1.2271  1.2423  2.6580
 3687SOL     OW22522   0.657   4.130   5.496  0.0299 -0.2265 -0.3967
 3687SOL    HW122523   0.634   4.073   5.569 -1.5507  1.2850  0.2825
 3687SOL    HW222524   0.680   4.067   5.428 -0.0402 -1.3113  0.5790
 3688SOL     OW22525   1.905   3.455  11.526  0.5234 -0.0240  0.4573
 3688SOL    HW122526   1.954   3.448  11.444 -0.3000  0.5388 -0.0852
 3688SOL    HW222527   1.906   3.549  11.544  4.2937 -0.5278  2.7059
 3689SOL     OW22528   1.590   4.672   0.077 -0.2564  0.7013 -0.2995
 3689SOL    HW122529   1.513   4.712   0.037 -1.5490 -1.2072  0.2603
 3689SOL    HW222530   1.554   4.590   0.110  1.5765  1.5048  3.7533
 3690SOL     OW22531   3.515   2.745   6.459 -0.1555  0.0879 -0.1931
 3690SOL    HW122532   3.529   2.652   6.441  1.9745  0.6515 -1.3899
 3690SOL    HW222533   3.588   2.783   6.410  1.1217 -0.8792  0.9447
 3691SOL     OW22534   4.457   2.549  11.588  0.2387 -0.0508 -0.1580
 3691SOL    HW122535   4.409   2.610  11.643  2.8102  1.1415  0.7789
 3691SOL    HW222536   4.460   2.477  11.651  1.0926 -1.4648 -1.8012
 3692SOL     OW22537   4.061   0.497  17.236  0.4047  0.1410  0.1649
 3692SOL    HW122538   4.091   0.436  17.303 -2.9324 -0.5729  0.9818
 3692SOL    HW222539   3.967   0.483  17.245  0.1000  2.8439  1.2839
 3693SOL     OW22540   4.241   4.318  16.453 -0.0639  0.2537  0.4709
 3693SOL    HW122541   4.247   4.363  16.538  0.7595  0.4687  0.3039
 3693SOL    HW222542   4.152   4.284  16.450  0.7103 -1.8709  1.2388
 3694SOL     OW22543   0.495   0.133   8.341 -0.0305  0.1265 -0.4036
 3694SOL    HW122544   0.420   0.192   8.333 -1.5694 -1.8948 -0.9950
 3694SOL    HW222545   0.572   0.187   8.322  0.8605 -0.9586  0.1096
 3695SOL     OW22546   4.401   0.033   7.152 -0.2093  0.1411 -0.1974
 3695SOL    HW122547   4.444   4.677   7.183 -0.6491 -0.9169 -2.3098
 3695SOL    HW222548   4.448   0.101   7.200  0.2570  0.2670 -0.8264
 3696SOL     OW22549   3.074   2.245  10.074  0.3445 -0.5534 -0.3138
 3696SOL    HW122550   3.144   2.289  10.025 -0.0593 -1.1268 -1.4186
 3696SOL    HW222551   2.995   2.275  10.029 -1.3275 -0.5960  2.6030
 3697SOL     OW22552   0.053   4.202   1.877  0.2857  0.1823  0.3360
 3697SOL    HW122553   0.017   4.114   1.867  1.7798 -0.2464 -1.5115
 3697SOL    HW222554   0.110   4.193   1.953 -0.8121 -1.3876  0.9594
 3698SOL     OW22555   3.944   1.042   0.739  0.0569  0.5070 -0.2736
 3698SOL    HW122556   3.861   0.996   0.748 -0.2511  1.2374  0.5905
 3698SOL    HW222557   3.951   1.081   0.826  2.4682  2.7665 -1.4639
 3699SOL     OW22558   1.348   4.291   2.902 -0.4020  0.4802  0.0833
 3699SOL    HW122559   1.311   4.308   2.989  0.4089 -3.8755  1.2833
 3699SOL    HW222560   1.425   4.238   2.926  0.6259  2.6663  1.6492
 3700SOL     OW22561   0.489   1.012  11.614 -0.3554  0.0059 -0.2563
 3700SOL    HW122562   0.530   1.076  11.555  0.4850  0.2168  0.5623
 3700SOL    HW222563   0.446   1.069  11.678 -1.2523 -1.4800  0.4533
 3701SOL     OW22564   1.355   0.152   4.017 -0.0423 -0.1167  0.3403
 3701SOL    HW122565   1.443   0.190   4.011  0.0028 -0.3459 -0.4421
 3701SOL    HW222566   1.306   0.231   3.994  0.5762  0.4303  0.9020
 3702SOL     OW22567   0.903   3.246   6.648  0.1798  0.0809 -0.0756
 3702SOL    HW122568   0.919   3.339   6.630 -0.5822  0.5463  1.6809
 3702SOL    HW222569   0.985   3.233   6.695  0.4434  1.0780 -0.2559
 3703SOL     OW22570   2.449   1.234   3.594 -0.5672 -0.4430 -0.3893
 3703SOL    HW122571   2.501   1.314   3.585 -0.6436 -0.6258 -2.4499
 3703SOL    HW222572   2.402   1.257   3.675 -1.2615 -2.1229 -0.3157
 3704SOL     OW22573   0.361   2.496  14.254  0.1112  0.0404 -0.3574
 3704SOL    HW122574   0.280   2.541  14.278 -0.6100 -1.2998 -0.2558
 3704SOL    HW222575   0.332   2.405  14.259  2.0431 -0.6064 -0.8389
 3705SOL     OW22576   0.346   2.101  17.667 -0.3104 -0.2687  0.4305
 3705SOL    HW122577   0.269   2.075   0.021  1.0260 -3.0033  1.0732
 3705SOL    HW222578   0.372   2.016  17.629 -1.4914 -0.6429  0.4716
 3706SOL     OW22579   0.856   3.536   0.225  0.7972  0.1152 -0.0427
 3706SOL    HW122580   0.857   3.630   0.209  0.5450 -0.0819 -1.1914
 3706SOL    HW222581   0.774   3.534   0.275  1.5769  2.0233  1.3215
 3707SOL     OW22582   4.299   1.218   9.022 -0.4777  0.3149 -0.2363
 3707SOL    HW122583   4.368   1.280   9.046 -0.0089 -0.6083  0.8095
 3707SOL    HW222584   4.242   1.271   8.966  0.2226  0.8935 -0.4101
 3708SOL     OW22585   1.593   4.386  14.651  0.0706 -0.1307 -0.7272
 3708SOL    HW122586   1.577   4.307  14.703 -1.6550 -0.0524 -1.1373
 3708SOL    HW222587   1.583   4.351  14.563 -0.0949  0.6811 -1.0332
 3709SOL     OW22588   3.675   0.755   7.858  0.0555  0.2285 -0.1568
 3709SOL    HW122589   3.668   0.844   7.826 -1.2773  0.9178  2.0268
 3709SOL    HW222590   3.584   0.729   7.874  0.0776  0.1335 -0.1811
 3710SOL     OW22591   1.986   3.018   8.466  0.3388  0.4025  0.1734
 3710SOL    HW122592   2.080   3.000   8.476  0.7464  2.4066  0.0750
 3710SOL    HW222593   1.981   3.112   8.446 -0.6865  0.3143  0.0311
 3711SOL     OW22594   1.196   2.674   2.951 -0.9281  0.1124  0.1824
 3711SOL    HW122595   1.147   2.755   2.954 -2.2456 -0.7477  2.0664
 3711SOL    HW222596   1.282   2.710   2.974 -0.1990 -0.1694 -2.1233
 3712SOL     OW22597   0.647   2.577  13.706 -0.2333  0.1781 -0.1488
 3712SOL    HW122598   0.732   2.621  13.716 -0.6175  0.8117  0.3051
 3712SOL    HW222599   0.607   2.593  13.791 -0.0107 -0.2666  0.0384
 3713SOL     OW22600   4.646   2.110  14.949 -0.0458 -0.4018  0.3029
 3713SOL    HW122601   4.589   2.063  15.010  0.2168  0.6329  1.3315
 3713SOL    HW222602   4.604   2.090  14.865 -0.5115  2.2177 -0.0865
 3714SOL     OW22603   0.591   2.539   9.423 -0.0052  0.0320 -0.3635
 3714SOL    HW122604   0.645   2.601   9.472 -0.4615 -1.2011  1.6814
 3714SOL    HW222605   0.530   2.600   9.380 -2.5160  0.1072  3.3059
 3715SOL     OW22606   1.976   2.360   5.438 -0.2560 -0.0249  0.0051
 3715SOL    HW122607   1.993   2.268   5.420 -0.0762  0.2426 -1.2148
 3715SOL    HW222608   2.037   2.364   5.512 -0.4901 -1.5574  0.2796
 3716SOL     OW22609   3.165   2.887   2.284 -0.0017 -0.1026 -0.1900
 3716SOL    HW122610   3.166   2.967   2.231 -1.6046  0.2624  0.3348
 3716SOL    HW222611   3.198   2.824   2.219 -2.4506 -1.9178  0.3388
 3717SOL     OW22612   1.320   0.385   3.893 -0.1984 -0.3069  0.1115
 3717SOL    HW122613   1.414   0.400   3.905  0.0571 -1.6847 -0.2186
 3717SOL    HW222614   1.309   0.383   3.798  2.8277  1.9713 -0.2839
 3718SOL     OW22615   4.267   3.885  12.859 -0.3854  0.1195  0.4473
 3718SOL    HW122616   4.188   3.843  12.894 -2.2557  1.0694 -2.6845
 3718SOL    HW222617   4.317   3.814  12.900  0.7157 -0.2803 -1.6273
 3719SOL     OW22618   4.382   2.815   5.683 -0.1342 -0.1538 -0.7306
 3719SOL    HW122619   4.313   2.770   5.633 -0.5316  0.1782 -0.4805
 3719SOL    HW222620   4.449   2.828   5.616  0.0689  0.5524 -0.3786
 3720SOL     OW22621   3.397   0.626   5.715  0.3453  0.4321 -0.1825
 3720SOL    HW122622   3.454   0.557   5.747  1.1860  1.3216  0.2298
 3720SOL    HW222623   3.467   0.687   5.692  0.2021  0.3253 -0.9091
 3721SOL     OW22624   0.086   4.138   2.321  0.0575 -0.0038 -0.2512
 3721SOL    HW122625   0.012   4.112   2.267 -0.5295 -0.9565  1.0059
 3721SOL    HW222626   0.142   4.185   2.260  0.6434  0.2165  0.4489
 3722SOL     OW22627   4.056   1.843  13.463  0.4121  0.4697 -0.1290
 3722SOL    HW122628   4.006   1.779  13.514 -0.9264  0.6243 -1.2816
 3722SOL    HW222629   4.073   1.791  13.385 -0.7813 -1.3109  0.8092
 3723SOL     OW22630   2.064   0.946   5.992  0.1350  0.2963 -0.1400
 3723SOL    HW122631   2.030   0.875   5.938  0.4464 -0.8171  1.1307
 3723SOL    HW222632   1.989   0.952   6.051 -0.9228 -0.4811 -1.4054
 3724SOL     OW22633   1.115   0.930   3.095  0.2956 -0.3077 -0.1238
 3724SOL    HW122634   1.141   1.021   3.100  2.3027 -0.9745  1.3521
 3724SOL    HW222635   1.111   0.920   3.000  1.2234 -2.4049  0.0625
 3725SOL     OW22636   1.516   2.953   4.308  0.2171  0.2829  0.0659
 3725SOL    HW122637   1.579   3.023   4.292  1.1505 -0.1900  1.6340
 3725SOL    HW222638   1.577   2.879   4.306 -0.6066 -0.3996  0.2413
 3726SOL     OW22639   4.622   3.235   0.317  0.1155  0.7515  0.4771
 3726SOL    HW122640   4.607   3.323   0.282 -0.5255  0.5319  0.1883
 3726SOL    HW222641   4.710   3.222   0.283  0.0160  2.0172 -0.2609
 3727SOL     OW22642   2.128   0.405   4.608 -0.1993  0.3766 -0.4011
 3727SOL    HW122643   2.165   0.467   4.671 -3.1579 -1.4998  3.1752
 3727SOL    HW222644   2.083   0.352   4.674  0.5616 -0.4418 -0.5271
 3728SOL     OW22645   1.529   2.025   0.580 -0.1146 -0.0617 -0.4207
 3728SOL    HW122646   1.568   1.957   0.525 -0.8984 -1.0442  0.2654
 3728SOL    HW222647   1.438   1.996   0.586 -0.0438  0.4259  3.0808
 3729SOL     OW22648   1.970   3.965   3.763  0.1012  0.0271  0.4262
 3729SOL    HW122649   2.048   3.910   3.755 -0.2576 -0.1479 -1.8360
 3729SOL    HW222650   1.952   3.962   3.857 -1.5632 -0.4033  0.0880
 3730SOL     OW22651   3.263   4.526   7.737  0.2911 -0.1567  0.3504
 3730SOL    HW122652   3.321   4.568   7.800  1.0536  0.7378 -0.9466
 3730SOL    HW222653   3.257   4.433   7.758 -0.0811  0.4091  2.7745
 3731SOL     OW22654   2.489   2.289  11.332  0.5827  0.2831  0.6926
 3731SOL    HW122655   2.502   2.267  11.425 -1.7610 -0.3140  0.8741
 3731SOL    HW222656   2.563   2.347  11.314  0.1206  0.2388 -1.2947
 3732SOL     OW22657   2.641   1.420   1.629  0.1977  0.3025  0.2273
 3732SOL    HW122658   2.564   1.440   1.682 -0.1822 -0.3080 -0.1075
 3732SOL    HW222659   2.623   1.334   1.591  0.1231 -0.2427  1.5262
 3733SOL     OW22660   4.170   2.518  15.713  0.2685 -0.1839 -0.2307
 3733SOL    HW122661   4.237   2.487  15.773  1.4668  0.6096 -1.1509
 3733SOL    HW222662   4.214   2.595  15.677  3.0999 -1.1129  1.2803
 3734SOL     OW22663   1.056   2.766  16.603 -0.7534  0.1655 -0.3735
 3734SOL    HW122664   1.033   2.858  16.609  0.4018  0.3172  1.8233
 3734SOL    HW222665   1.095   2.765  16.515  0.2485  0.4179  0.0744
 3735SOL     OW22666   2.643   0.869  12.321 -0.1975 -0.5555  0.1214
 3735SOL    HW122667   2.691   0.944  12.287 -0.1257  0.0524  1.5488
 3735SOL    HW222668   2.696   0.789  12.319  1.2190  0.4273 -0.8973
 3736SOL     OW22669   1.897   4.390   5.640  0.1062 -0.4167 -0.5343
 3736SOL    HW122670   1.985   4.364   5.615  0.9861  1.4554  0.5728
 3736SOL    HW222671   1.859   4.389   5.553 -1.1594  0.6697 -0.0083
 3737SOL     OW22672   1.582   3.422   7.412  0.5891 -0.0686 -0.3982
 3737SOL    HW122673   1.644   3.372   7.467 -0.8778  0.0338  1.3491
 3737SOL    HW222674   1.498   3.388   7.443 -0.1142  1.8812 -0.2043
 3738SOL     OW22675   2.822   3.643   3.680  0.6214  0.2669  0.4210
 3738SOL    HW122676   2.831   3.598   3.596  2.2908  0.6089  0.4247
 3738SOL    HW222677   2.884   3.590   3.730  1.1400  3.7300  3.4439
 3739SOL     OW22678   0.302   4.191   7.480 -0.1561  0.0853 -0.3048
 3739SOL    HW122679   0.363   4.177   7.553 -0.4374  1.3716  0.1726
 3739SOL    HW222680   0.309   4.286   7.486 -0.0561 -0.0188  1.2736
 3740SOL     OW22681   2.872   4.286   0.572  0.6161 -0.1078  0.1111
 3740SOL    HW122682   2.886   4.343   0.648  0.4678 -2.2700  1.7861
 3740SOL    HW222683   2.921   4.334   0.506  1.7045 -1.5710 -0.1457
 3741SOL     OW22684   2.135   2.050   7.140  0.1615 -0.5846  0.2706
 3741SOL    HW122685   2.044   2.066   7.165  0.3178  0.5555  0.1093
 3741SOL    HW222686   2.142   2.111   7.067  0.2471 -1.1557 -0.1890
 3742SOL     OW22687   2.258   1.821   5.723  0.2554 -0.6334  0.1268
 3742SOL    HW122688   2.211   1.904   5.732 -0.5561 -1.0807 -0.0070
 3742SOL    HW222689   2.336   1.855   5.767 -0.6483  2.3181 -0.5397
 3743SOL     OW22690   0.293   3.453  12.308  0.3542  0.0145 -0.1171
 3743SOL    HW122691   0.337   3.368  12.317  1.3101  0.4524 -0.6981
 3743SOL    HW222692   0.362   3.510  12.341  0.9355 -0.1676 -1.0151
 3744SOL     OW22693   1.584   3.737  13.991 -0.1039  0.2685 -0.3465
 3744SOL    HW122694   1.530   3.666  14.024  0.0873 -0.6661 -2.0140
 3744SOL    HW222695   1.591   3.791  14.069 -0.4661  2.0601 -1.5516
 3745SOL     OW22696   3.536   3.295   1.160 -0.0046 -0.2835 -0.0602
 3745SOL    HW122697   3.601   3.326   1.223 -0.0389  0.9351 -0.6078
 3745SOL    HW222698   3.539   3.361   1.091 -0.1056  0.1376  0.3347
 3746SOL     OW22699   2.393   3.424  15.901  0.1308 -0.4423 -0.3844
 3746SOL    HW122700   2.449   3.394  15.829 -1.2718 -1.7075 -0.9510
 3746SOL    HW222701   2.334   3.485  15.857  0.7481  0.0781 -0.4977
 3747SOL     OW22702   2.445   2.690   4.383 -0.3617 -0.1710 -0.1342
 3747SOL    HW122703   2.396   2.749   4.326 -1.2496 -0.1397  0.6732
 3747SOL    HW222704   2.444   2.730   4.470 -0.1614  0.9262 -0.6351
 3748SOL     OW22705   0.233   4.192   5.196 -0.1233 -0.0929 -0.1169
 3748SOL    HW122706   0.258   4.226   5.282  1.3004 -1.6581  0.0781
 3748SOL    HW222707   0.139   4.181   5.213 -0.0728 -0.7434 -0.2577
 3749SOL     OW22708   1.853   1.239   2.317  1.0483  0.0208 -0.0520
 3749SOL    HW122709   1.802   1.235   2.236  4.0877 -0.8950 -1.9169
 3749SOL    HW222710   1.941   1.243   2.280  1.2594  2.2493  0.6631
 3750SOL     OW22711   2.466   0.384   8.580  0.4664  0.0366 -0.2997
 3750SOL    HW122712   2.494   0.418   8.665 -2.4258  0.8827  0.3074
 3750SOL    HW222713   2.545   0.375   8.526  0.9561 -2.9851  0.8877
 3751SOL     OW22714   1.464   1.064  11.056  0.1534  0.0120  0.3210
 3751SOL    HW122715   1.505   1.115  10.986  2.6596 -1.8973  0.4018
 3751SOL    HW222716   1.457   1.139  11.115 -0.7348 -1.1948  1.7457
 3752SOL     OW22717   2.986   2.700   0.507 -0.4605 -0.2124  0.4319
 3752SOL    HW122718   2.976   2.628   0.569 -2.0166 -1.8577 -1.7360
 3752SOL    HW222719   3.051   2.665   0.446  0.6972  1.7072  0.5558
 3753SOL     OW22720   3.531   0.139  15.403  0.6938 -0.4428  0.4116
 3753SOL    HW122721   3.463   0.203  15.385  0.3400 -0.8597  0.2500
 3753SOL    HW222722   3.488   0.080  15.464 -1.0833  1.7336  1.2494
 3754SOL     OW22723   2.350   0.846  14.511  0.0571 -0.0867  0.2858
 3754SOL    HW122724   2.269   0.865  14.560  0.2739 -0.2929  0.7276
 3754SOL    HW222725   2.364   0.917  14.448 -0.3917 -0.1115  0.1591
 3755SOL     OW22726   2.111   0.813   3.587  0.1207  0.0856 -0.0602
 3755SOL    HW122727   2.058   0.891   3.605  0.6305  0.4896 -0.3184
 3755SOL    HW222728   2.048   0.771   3.527 -1.4744 -1.0276  2.4057
 3756SOL     OW22729   2.112   3.167   5.631  0.7449  0.3715 -0.0476
 3756SOL    HW122730   2.128   3.257   5.660  0.7564  0.1098  0.7698
 3756SOL    HW222731   2.145   3.173   5.542  3.7287 -1.3504  0.9192
 3757SOL     OW22732   3.236   4.644  12.663  0.4092 -0.0080 -0.2199
 3757SOL    HW122733   3.155   4.669  12.618  0.9016 -1.5394 -1.9662
 3757SOL    HW222734   3.284   0.003  12.669 -1.1728  0.6252  3.2703
 3758SOL     OW22735   1.496   3.181  10.207 -0.2772  0.3030 -0.1291
 3758SOL    HW122736   1.473   3.242  10.137 -1.5217 -0.8996 -0.7562
 3758SOL    HW222737   1.504   3.103  10.152  3.1152  1.3371 -1.1363
 3759SOL     OW22738   0.064   0.003   1.056  0.0648 -0.0398  0.3132
 3759SOL    HW122739   0.100   0.066   1.119  0.3214 -0.5848  0.7085
 3759SOL    HW222740   4.699   0.037   1.049  0.2819 -0.5946 -4.7996
 3760SOL     OW22741   0.109   2.299   0.003  0.0504  0.6968  0.0304
 3760SOL    HW122742   0.182   2.292  17.637  1.1206  0.8930  1.2712
 3760SOL    HW222743   0.041   2.243  17.662 -0.4312  0.1228  1.7845
 3761SOL     OW22744   4.128   2.636  14.944  0.1632  0.0598  0.0172
 3761SOL    HW122745   4.186   2.586  14.887  0.2217 -0.8319  0.8666
 3761SOL    HW222746   4.138   2.728  14.917  2.0861 -0.0316  0.3836
 3762SOL     OW22747   4.651   0.752  10.393 -0.4460 -0.2786 -0.4257
 3762SOL    HW122748   4.619   0.752  10.484  1.8672 -0.7275  0.3933
 3762SOL    HW222749   4.709   0.827  10.394 -2.2697  1.1392 -0.4579
 3763SOL     OW22750   1.349   4.710   9.545 -0.2066 -0.2958 -0.3082
 3763SOL    HW122751   1.372   4.621   9.573 -1.3749 -1.1426 -2.0776
 3763SOL    HW222752   1.268   4.721   9.596 -1.1710 -0.1072 -1.9009
 3764SOL     OW22753   0.462   1.893   6.118 -0.1971 -0.3930 -0.1574
 3764SOL    HW122754   0.500   1.819   6.165 -0.8872 -0.7275 -0.1331
 3764SOL    HW222755   0.536   1.922   6.065 -1.5598  0.6788 -1.4814
 3765SOL     OW22756   0.579   2.965   8.826 -0.4767  0.1902  0.4691
 3765SOL    HW122757   0.586   2.931   8.737 -2.6174 -1.4127  0.9139
 3765SOL    HW222758   0.487   2.942   8.843 -0.8448  1.3275  0.0687
 3766SOL     OW22759   4.221   2.571   3.837  0.3140 -0.4524  0.1581
 3766SOL    HW122760   4.220   2.497   3.898 -0.8296 -1.4434 -1.0540
 3766SOL    HW222761   4.200   2.642   3.898  0.4004  1.5983 -2.2131
 3767SOL     OW22762   1.656   0.643   5.225 -0.2694  0.7392  0.5693
 3767SOL    HW122763   1.739   0.678   5.192  0.6514 -0.1364  1.9416
 3767SOL    HW222764   1.625   0.714   5.283  0.6528  1.0361  0.7033
 3768SOL     OW22765   3.941   4.441   1.279 -0.5476 -0.6062  0.3458
 3768SOL    HW122766   3.997   4.393   1.218  1.0975  1.7612  0.0257
 3768SOL    HW222767   3.857   4.394   1.275 -0.5010 -0.5928 -0.7956
 3769SOL     OW22768   2.938   1.112  15.956 -0.4591  0.1657 -0.5344
 3769SOL    HW122769   2.949   1.021  15.930 -1.5994 -0.5592  1.5161
 3769SOL    HW222770   2.852   1.129  15.916 -0.2167 -0.0990 -1.1711
 3770SOL     OW22771   2.956   1.856   8.122  0.1193 -0.1847 -0.3442
 3770SOL    HW122772   3.039   1.885   8.084  0.4514 -0.5698  0.0908
 3770SOL    HW222773   2.979   1.854   8.215 -0.1303  0.2615 -0.2776
 3771SOL     OW22774   3.008   3.436  14.004  0.1858  0.6531 -0.2101
 3771SOL    HW122775   2.916   3.426  14.030  0.0271  3.4121  0.3901
 3771SOL    HW222776   3.007   3.469  13.914 -3.2512 -0.5054 -0.6098
 3772SOL     OW22777   1.513   1.617  11.706 -0.6199  0.4123 -0.8257
 3772SOL    HW122778   1.547   1.690  11.654  0.7346  0.1945 -0.2562
 3772SOL    HW222779   1.515   1.664  11.789  0.5893  1.7013 -1.5944
 3773SOL     OW22780   2.917   0.199   8.239  0.2499  0.0084 -0.1106
 3773SOL    HW122781   2.933   0.117   8.193  0.9497  0.0044  0.1431
 3773SOL    HW222782   2.986   0.187   8.304  1.3154 -1.4814 -1.5291
 3774SOL     OW22783   3.668   0.572   0.365  0.1593  0.4703  0.5265
 3774SOL    HW122784   3.573   0.566   0.366  0.3156 -1.8593  1.4393
 3774SOL    HW222785   3.680   0.620   0.283 -1.3218 -0.9853 -0.5264
 3775SOL     OW22786   1.194   2.112  11.544 -0.2141 -0.0706  0.1282
 3775SOL    HW122787   1.172   2.112  11.451  0.1215  1.6878  0.0570
 3775SOL    HW222788   1.109   2.092  11.583 -0.1091  1.0900  0.9355
 3776SOL     OW22789   4.449   2.137   5.626  0.1479 -0.2010  0.1947
 3776SOL    HW122790   4.395   2.188   5.686  0.5604  0.9254 -0.3796
 3776SOL    HW222791   4.498   2.211   5.590  2.8556 -2.7980 -1.4700
 3777SOL     OW22792   0.817   0.409   2.919  0.1156  0.0187 -0.4584
 3777SOL    HW122793   0.729   0.396   2.955 -0.8169  2.7819 -1.7700
 3777SOL    HW222794   0.817   0.335   2.858  0.0117 -1.0108  0.7797
 3778SOL     OW22795   3.449   2.873   7.513  0.2490 -0.7010  0.1996
 3778SOL    HW122796   3.422   2.900   7.601 -2.6583  0.3906 -1.0428
 3778SOL    HW222797   3.539   2.904   7.505 -0.2637  1.3339  2.2183
 3779SOL     OW22798   2.156   2.476   4.248  0.2627 -0.5366 -0.3384
 3779SOL    HW122799   2.138   2.550   4.306 -2.9879 -0.1916 -1.7644
 3779SOL    HW222800   2.143   2.523   4.165 -0.2835  0.0920  0.1035
 3780SOL     OW22801   3.792   1.754  14.153  0.5690  0.2511  0.0827
 3780SOL    HW122802   3.781   1.816  14.081 -0.8417 -1.2425 -0.9968
 3780SOL    HW222803   3.709   1.757  14.199 -0.2175  1.9607 -1.4249
 3781SOL     OW22804   1.043   4.346   3.093  0.3684 -0.2458  0.5303
 3781SOL    HW122805   1.094   4.265   3.095 -1.3503 -1.2374  2.6875
 3781SOL    HW222806   0.974   4.322   3.154  0.1386 -0.2443  0.2724
 3782SOL     OW22807   3.672   2.420   6.711  0.1804 -0.4680 -0.0849
 3782SOL    HW122808   3.588   2.403   6.669 -0.3243  0.2056  0.6568
 3782SOL    HW222809   3.725   2.452   6.638 -2.5506  2.6811 -0.6883
 3783SOL     OW22810   4.106   0.137   4.166  0.2361 -0.1824  1.0269
 3783SOL    HW122811   4.159   0.137   4.087 -0.2843 -0.6404  0.6729
 3783SOL    HW222812   4.054   0.057   4.152  1.5276 -0.2739 -3.1392
 3784SOL     OW22813   3.681   4.303   3.569  0.2689 -0.4954  0.3732
 3784SOL    HW122814   3.769   4.268   3.554  0.3952  1.3652 -3.2772
 3784SOL    HW222815   3.699   4.395   3.588 -0.0043  0.0650 -2.0824
 3785SOL     OW22816   2.213   4.581   6.594  0.3249 -0.1733  0.4128
 3785SOL    HW122817   2.140   4.538   6.639  0.1225  0.0006  0.2531
 3785SOL    HW222818   2.189   4.670   6.619  1.4575  0.7544 -1.7934
 3786SOL     OW22819   0.471   1.805   0.911 -0.0202  0.3897 -0.4570
 3786SOL    HW122820   0.441   1.754   0.835 -2.2250  2.0020 -0.6832
 3786SOL    HW222821   0.513   1.875   0.861 -1.2401 -0.3764 -2.5507
 3787SOL     OW22822   0.847   4.463   1.306 -0.6579  0.4610  0.7047
 3787SOL    HW122823   0.830   4.427   1.219 -0.1723  1.1825  0.3015
 3787SOL    HW222824   0.822   4.389   1.360  0.8242 -0.8924 -0.4669
 3788SOL     OW22825   1.331   3.330  10.408 -0.0829 -0.1272  0.2869
 3788SOL    HW122826   1.339   3.356  10.316  3.5442  0.2262  0.7100
 3788SOL    HW222827   1.410   3.374  10.440 -0.0695 -0.5016  0.7745
 3789SOL     OW22828   2.329   4.140   6.250  0.0290  0.0210  0.8280
 3789SOL    HW122829   2.409   4.190   6.263  0.3096  0.0335 -0.9922
 3789SOL    HW222830   2.260   4.207   6.259 -0.8906 -0.4988 -2.3350
 3790SOL     OW22831   3.053   1.775   4.326  0.3832  0.0049 -0.1546
 3790SOL    HW122832   3.014   1.841   4.383  2.5447  0.4928  0.7633
 3790SOL    HW222833   3.005   1.796   4.246  0.9876 -0.4645 -0.6360
 3791SOL     OW22834   0.000   2.370   9.787  0.1726 -0.4048 -0.1176
 3791SOL    HW122835   0.044   2.393   9.869 -0.1136 -1.9548  0.4551
 3791SOL    HW222836   0.068   2.362   9.720  1.2126  2.1224  0.6036
 3792SOL     OW22837   3.545   0.550  13.299  1.0475  0.3744  0.0157
 3792SOL    HW122838   3.449   0.556  13.300  1.1306  1.4542  1.2688
 3792SOL    HW222839   3.568   0.599  13.378  0.2038  0.9776 -0.1127
 3793SOL     OW22840   0.604   0.995  13.213  0.1460 -0.1167 -0.0348
 3793SOL    HW122841   0.651   1.059  13.267 -1.6406  0.2482  1.0733
 3793SOL    HW222842   0.634   1.020  13.126  3.0653 -2.7994  0.2116
 3794SOL     OW22843   2.008   2.616   7.878  0.0022 -0.1250 -0.5311
 3794SOL    HW122844   2.059   2.627   7.958  0.7529 -1.4304 -0.8136
 3794SOL    HW222845   1.924   2.581   7.907 -0.0590  0.6880  0.2531
 3795SOL     OW22846   0.762   1.543   6.408  0.5196  0.1338 -0.6347
 3795SOL    HW122847   0.840   1.597   6.418 -1.3190  2.3793  1.6826
 3795SOL    HW222848   0.691   1.601   6.379 -0.7225 -1.5551 -0.9263
 3796SOL     OW22849   4.051   2.165   3.684  0.1049 -0.0387  0.2936
 3796SOL    HW122850   4.037   2.231   3.752  0.5281  0.6215 -0.2640
 3796SOL    HW222851   3.960   2.157   3.655  0.9909  1.8564 -3.0149
 3797SOL     OW22852   4.345   0.810   9.138 -0.2524  0.0087 -0.3130
 3797SOL    HW122853   4.378   0.766   9.215 -0.1236  0.1924 -0.2630
 3797SOL    HW222854   4.356   0.747   9.066 -3.0324 -1.2899  0.3944
 3798SOL     OW22855   0.555   0.345  13.714 -0.5380 -0.3443 -0.5295
 3798SOL    HW122856   0.600   0.399  13.779 -2.4902 -0.9288  1.2979
 3798SOL    HW222857   0.498   0.407  13.669  0.9316  1.1210 -0.3593
 3799SOL     OW22858   4.380   4.254   2.860 -0.1065 -0.2422 -0.3028
 3799SOL    HW122859   4.383   4.213   2.947 -1.4466 -1.1187 -0.6573
 3799SOL    HW222860   4.474   4.253   2.844 -0.3270 -2.7029 -1.4974
 3800SOL     OW22861   0.987   3.161  13.522 -0.0384 -0.5517  0.7136
 3800SOL    HW122862   1.082   3.161  13.518 -0.0999 -0.6469 -0.8432
 3800SOL    HW222863   0.960   3.083  13.474  1.6896  0.3866 -1.7496
 3801SOL     OW22864   2.532   4.661   1.883  0.3690 -0.4494 -0.7956
 3801SOL    HW122865   2.482   4.684   1.961  0.2401 -0.6739 -0.8122
 3801SOL    HW222866   2.620   4.696   1.901  0.5012 -1.9232  1.3800
 3802SOL     OW22867   0.113   3.201   5.658 -0.7777  0.4680 -0.5915
 3802SOL    HW122868   0.050   3.167   5.594 -0.4334 -0.0060 -0.6770
 3802SOL    HW222869   0.060   3.277   5.683 -1.1076 -0.4769  1.5147
 3803SOL     OW22870   0.352   4.667   2.428  0.1207  0.4718 -0.3734
 3803SOL    HW122871   0.305   0.019   2.464  1.3481  0.6106  0.9409
 3803SOL    HW222872   0.302   4.598   2.471  1.5803 -0.8599 -0.7936
 3804SOL     OW22873   3.734   2.260  15.587 -0.0481  0.4781 -0.3842
 3804SOL    HW122874   3.699   2.340  15.549  0.0929 -0.4692 -2.5186
 3804SOL    HW222875   3.828   2.278  15.593 -0.1259  0.8433 -0.2677
 3805SOL     OW22876   2.477   2.584   8.455  0.5406  0.3114 -0.1637
 3805SOL    HW122877   2.546   2.517   8.460  0.9580  0.9127  2.0865
 3805SOL    HW222878   2.437   2.567   8.540 -0.1910 -0.5619 -0.6791
 3806SOL     OW22879   1.757   2.997   5.722  0.1963 -0.3923  0.0741
 3806SOL    HW122880   1.705   3.048   5.783  0.0485 -0.1829 -0.2261
 3806SOL    HW222881   1.837   2.988   5.774 -1.2911 -1.0650  2.2196
 3807SOL     OW22882   0.347   2.004   6.547  0.2311 -0.1620  0.0441
 3807SOL    HW122883   0.406   2.079   6.555 -0.2165  0.1111  0.7863
 3807SOL    HW222884   0.362   1.962   6.632  2.0100 -2.2064 -1.2919
 3808SOL     OW22885   4.592   0.297   8.428  0.2271  0.0694  0.4419
 3808SOL    HW122886   4.677   0.322   8.466  1.2124 -4.2102  1.0209
 3808SOL    HW222887   4.576   0.376   8.377  1.3916  0.9187  1.3798
 3809SOL     OW22888   1.730   0.298   6.834 -0.2460 -0.4296 -0.3787
 3809SOL    HW122889   1.640   0.291   6.866  0.0909  1.5430  0.9377
 3809SOL    HW222890   1.730   0.390   6.808 -1.3952 -1.2144 -3.1803
 3810SOL     OW22891   1.113   3.922   0.759  0.5395 -0.5084  0.0624
 3810SOL    HW122892   1.193   3.890   0.717  0.8765  1.1089 -0.5503
 3810SOL    HW222893   1.124   3.876   0.843  0.2828 -0.6659  0.0088
 3811SOL     OW22894   0.904   2.457   7.879 -0.1021  0.3021  0.1946
 3811SOL    HW122895   0.813   2.478   7.859 -0.0870  0.2997  0.1194
 3811SOL    HW222896   0.947   2.539   7.856  1.5012 -0.3697  0.7446
 3812SOL     OW22897   3.237   1.030  12.819 -0.1718  0.2936 -0.2352
 3812SOL    HW122898   3.301   1.088  12.860 -1.0162  2.8188 -2.5010
 3812SOL    HW222899   3.263   1.055  12.731  0.9213  1.6406  0.4708
 3813SOL     OW22900   1.973   1.080   3.143  0.3496 -0.3673 -0.5197
 3813SOL    HW122901   1.878   1.085   3.149  0.3976  1.6199 -1.1968
 3813SOL    HW222902   1.977   1.149   3.076  0.3663 -0.8209 -0.9825
 3814SOL     OW22903   0.731   4.485  16.113  0.3254  0.1939 -0.3858
 3814SOL    HW122904   0.639   4.468  16.094  0.5398  0.3692 -1.5990
 3814SOL    HW222905   0.732   4.540  16.191  1.3940 -0.0005 -0.2606
 3815SOL     OW22906   0.643   2.845   9.081 -0.0879  0.5984  0.2410
 3815SOL    HW122907   0.609   2.874   8.996  0.1968 -1.9191 -0.7272
 3815SOL    HW222908   0.723   2.800   9.054 -2.1261 -2.6764 -0.3105
 3816SOL     OW22909   4.691   0.448   5.500  0.0776  0.2254 -0.2106
 3816SOL    HW122910   4.616   0.393   5.478  0.6558 -1.6570  2.5385
 3816SOL    HW222911   0.035   0.380   5.495 -0.3492 -0.0499 -2.4933
 3817SOL     OW22912   2.771   2.915   7.115 -0.1317 -0.9639 -0.0513
 3817SOL    HW122913   2.710   2.984   7.088  0.5543 -0.2824  0.1642
 3817SOL    HW222914   2.779   2.940   7.207 -3.0708 -0.1523 -0.0018
 3818SOL     OW22915   2.045   0.952   4.218 -0.0787 -0.7416 -0.1292
 3818SOL    HW122916   2.000   0.982   4.139  2.2818  2.3253 -0.3081
 3818SOL    HW222917   2.134   0.964   4.186  0.3139 -1.9045  0.5515
 3819SOL     OW22918   0.628   3.085  11.897 -0.5633 -0.7594 -0.1558
 3819SOL    HW122919   0.580   3.003  11.899 -4.5014  1.5208 -0.4657
 3819SOL    HW222920   0.597   3.128  11.976  1.3043  0.2834 -0.0061
 3820SOL     OW22921   0.257   3.381  14.227  0.2188 -0.3959 -0.8872
 3820SOL    HW122922   0.172   3.422  14.242 -0.7171 -2.8196  0.3848
 3820SOL    HW222923   0.227   3.303  14.181  0.3293 -0.8878 -0.1362
 3821SOL     OW22924   3.176   4.094   7.070  0.3913 -0.2556  0.2385
 3821SOL    HW122925   3.194   4.000   7.065  1.1502  0.0677 -3.1227
 3821SOL    HW222926   3.226   4.133   6.998 -0.7154  0.1135 -0.3254
 3822SOL     OW22927   0.106   3.348   6.230  0.6391  0.4163 -0.4369
 3822SOL    HW122928   0.014   3.356   6.251 -0.1470 -0.9438 -3.2549
 3822SOL    HW222929   0.097   3.307   6.143  0.6933 -0.7511  0.1037
 3823SOL     OW22930   3.827   1.618   4.586  0.7235  0.8733  0.0488
 3823SOL    HW122931   3.824   1.686   4.653 -1.1613  0.7645  0.0607
 3823SOL    HW222932   3.754   1.641   4.528  0.0731 -1.4893 -0.0967
 3824SOL     OW22933   1.190   2.781   4.278  0.0484  0.5868 -0.0958
 3824SOL    HW122934   1.251   2.711   4.253 -0.1971 -0.0314  1.0523
 3824SOL    HW222935   1.127   2.776   4.206  0.3304 -0.1650 -0.2966
 3825SOL     OW22936   3.429   2.596  16.933  0.1652 -0.2840 -0.0248
 3825SOL    HW122937   3.402   2.672  16.984  0.8595  0.4898 -0.8119
 3825SOL    HW222938   3.427   2.632  16.844 -1.3558 -1.1580 -0.3511
 3826SOL     OW22939   3.457   3.564   8.318  0.4716 -0.6671  0.1248
 3826SOL    HW122940   3.553   3.571   8.310  0.5187 -0.3189  1.0642
 3826SOL    HW222941   3.431   3.655   8.307 -0.1422 -1.0515 -1.5653
 3827SOL     OW22942   3.554   1.639   1.387 -0.4622  0.5962 -0.3080
 3827SOL    HW122943   3.469   1.609   1.353 -0.0237  0.0402 -0.9097
 3827SOL    HW222944   3.546   1.722   1.341 -1.5795  1.0185  0.6353
 3828SOL     OW22945   1.889   2.167   7.166  0.5279 -0.0833 -0.2415
 3828SOL    HW122946   1.854   2.225   7.098  0.3193 -0.1477 -0.1858
 3828SOL    HW222947   1.934   2.235   7.217  0.5287  0.2404 -0.6636
 3829SOL     OW22948   0.992   1.669   6.923 -0.3534  0.1981 -0.4473
 3829SOL    HW122949   1.071   1.665   6.978 -0.1084 -0.7384 -0.8805
 3829SOL    HW222950   0.922   1.670   6.988  1.5137 -2.7693  1.5849
 3830SOL     OW22951   1.616   4.501  10.104  0.0619  0.3004  0.4880
 3830SOL    HW122952   1.642   4.592  10.095  0.9425  0.0319  0.3451
 3830SOL    HW222953   1.589   4.497  10.196 -0.8671 -1.4957  0.1447
 3831SOL     OW22954   4.052   4.017  10.318  0.1205 -0.2930  0.3205
 3831SOL    HW122955   4.102   3.963  10.257  1.4595 -0.4910  1.5889
 3831SOL    HW222956   4.113   4.025  10.392 -0.5656 -1.1864  0.9787
 3832SOL     OW22957   0.057   4.472   3.198 -0.0745  0.0577 -0.2547
 3832SOL    HW122958   0.010   4.512   3.125  0.4676 -0.7464 -1.0443
 3832SOL    HW222959   0.058   4.383   3.164  3.6216  0.6205 -1.6726
 3833SOL     OW22960   1.611   3.744  15.744 -0.3783 -0.2663  0.8029
 3833SOL    HW122961   1.614   3.835  15.774 -1.9730  0.5145 -1.3965
 3833SOL    HW222962   1.518   3.727  15.758 -0.4180  0.3848  1.2922
 3834SOL     OW22963   2.773   3.972   9.867  0.1018 -0.5024  0.9258
 3834SOL    HW122964   2.685   3.936   9.872  0.7652 -2.4892 -1.3336
 3834SOL    HW222965   2.807   3.934   9.786 -1.8427  1.2818 -0.7228
 3835SOL     OW22966   1.756   0.716   8.326  0.1493 -0.1666 -0.2240
 3835SOL    HW122967   1.777   0.763   8.407 -0.1849 -1.2332  0.4846
 3835SOL    HW222968   1.766   0.626   8.357  0.9844  0.4338  1.2340
 3836SOL     OW22969   1.874   3.673  10.493 -0.0752 -0.2695 -0.4491
 3836SOL    HW122970   1.820   3.647  10.568  0.8703 -1.1985 -0.0872
 3836SOL    HW222971   1.932   3.734  10.538  0.0624 -0.0514 -0.9288
 3837SOL     OW22972   2.974   2.039  12.387 -0.2207 -0.3473 -0.3720
 3837SOL    HW122973   2.916   2.110  12.415  1.2992  0.6182  0.3253
 3837SOL    HW222974   2.991   1.993  12.469  3.7757  1.0564 -0.3770
 3838SOL     OW22975   0.062   1.949   3.644 -0.0856 -0.0184  0.0962
 3838SOL    HW122976   0.033   1.900   3.721 -0.1620  0.0245  0.0941
 3838SOL    HW222977   0.138   1.894   3.623  0.3197  0.3230  0.6492
 3839SOL     OW22978   1.023   2.206  17.101 -0.1803  0.0400 -0.0883
 3839SOL    HW122979   0.993   2.297  17.091  1.3334  0.5424  0.0625
 3839SOL    HW222980   1.063   2.180  17.019 -1.5797 -2.1405 -0.0934
 3840SOL     OW22981   3.199   3.196   5.875 -0.0051 -0.3096  0.8660
 3840SOL    HW122982   3.166   3.205   5.785  2.0943  1.7561  0.2961
 3840SOL    HW222983   3.155   3.113   5.892 -1.1936  0.2774  0.6479
 3841SOL     OW22984   2.048   1.579   4.439  0.2081  0.1536  0.2748
 3841SOL    HW122985   2.096   1.505   4.477  1.4443  0.7832 -0.0478
 3841SOL    HW222986   2.120   1.641   4.452 -0.4266  1.0983 -0.7712
 3842SOL     OW22987   3.370   3.361   6.584 -0.2619 -0.0906  0.1142
 3842SOL    HW122988   3.464   3.379   6.584 -0.4700  1.0378  3.3115
 3842SOL    HW222989   3.343   3.376   6.493 -1.6378 -2.8334  0.0736
 3843SOL     OW22990   2.649   4.628   6.991  0.0895 -0.5198 -0.2209
 3843SOL    HW122991   2.625   4.556   7.049 -0.8321  0.4181  0.5741
 3843SOL    HW222992   2.599   4.704   7.022 -0.4314 -0.7295 -0.5315
 3844SOL     OW22993   1.822   1.322   1.535  0.1525  0.2731  0.0852
 3844SOL    HW122994   1.744   1.305   1.588 -0.9320  1.8544 -0.9978
 3844SOL    HW222995   1.858   1.234   1.524 -2.4216 -0.8399  0.3560
 3845SOL     OW22996   2.072   3.351   6.068 -0.6826 -0.5449  0.5217
 3845SOL    HW122997   2.027   3.429   6.100 -0.4748  1.0907 -3.1860
 3845SOL    HW222998   2.003   3.284   6.068 -0.9460 -0.2719  0.5624
 3846SOL     OW22999   3.839   2.236   3.441 -0.2748 -0.2344  0.2349
 3846SOL    HW123000   3.904   2.284   3.389  0.0398 -0.4609  0.4180
 3846SOL    HW223001   3.798   2.319   3.465  2.3452  1.8281 -2.2936
 3847SOL     OW23002   2.382   4.196   8.133 -0.4469 -0.0555  0.4666
 3847SOL    HW123003   2.421   4.109   8.121  0.2520  0.3442 -0.1388
 3847SOL    HW223004   2.307   4.157   8.178 -1.3129  0.8901 -0.1598
 3848SOL     OW23005   1.915   2.019   3.661 -0.3184 -0.3861  0.4936
 3848SOL    HW123006   1.862   2.087   3.702  0.6362  0.5809  0.1430
 3848SOL    HW223007   1.864   2.014   3.579  0.9156 -0.0657 -0.2910
 3849SOL     OW23008   2.536   2.453   5.348  0.5536 -0.2875  0.1939
 3849SOL    HW123009   2.607   2.391   5.328  0.3481 -0.3826 -0.2356
 3849SOL    HW223010   2.473   2.434   5.278  0.6531 -1.4036  0.4005
 3850SOL     OW23011   1.098   4.316   2.782 -0.6076 -0.5232 -0.1570
 3850SOL    HW123012   1.111   4.265   2.701 -0.0289 -0.5388 -0.0548
 3850SOL    HW223013   1.188   4.318   2.814 -0.8523  1.1463  0.4244
 3851SOL     OW23014   4.336   4.273   7.377 -0.3052  0.2945 -0.2846
 3851SOL    HW123015   4.313   4.354   7.422  0.4426  1.2800 -1.6671
 3851SOL    HW223016   4.408   4.251   7.436  0.5480  0.9307 -1.0900
 3852SOL     OW23017   0.280   2.212   7.565  0.1445  0.3457  0.0883
 3852SOL    HW123018   0.365   2.251   7.548  0.0591  0.5439  0.1205
 3852SOL    HW223019   0.268   2.230   7.658 -1.2318 -0.3066  0.0431
 3853SOL     OW23020   0.632   0.011  12.949  0.4356 -0.2978  0.3814
 3853SOL    HW123021   0.713   0.061  12.956 -0.5268  1.3268 -0.0490
 3853SOL    HW223022   0.663   4.651  12.984  2.4995  0.8994  1.4278
 3854SOL     OW23023   0.546   3.442   6.672  1.1040 -0.2308 -0.1539
 3854SOL    HW123024   0.496   3.467   6.750  0.7762  0.1744 -0.4913
 3854SOL    HW223025   0.596   3.519   6.645 -1.4329  0.6929 -2.2600
 3855SOL     OW23026   0.115   0.439   5.229  0.4948 -0.2576 -0.4540
 3855SOL    HW123027   0.023   0.465   5.238  0.5240  1.0503 -3.7184
 3855SOL    HW223028   0.133   0.378   5.300  0.0165  1.4966  1.1985
 3856SOL     OW23029   3.345   4.605   5.023 -0.1285 -0.4038  0.5142
 3856SOL    HW123030   3.352   4.510   5.035 -0.0560 -0.4374  0.2084
 3856SOL    HW223031   3.414   4.638   5.081  0.7892  0.7460 -1.2298
 3857SOL     OW23032   0.777   3.329   2.861  0.1845 -0.0473 -0.0552
 3857SOL    HW123033   0.831   3.404   2.838 -0.9967  0.3219 -1.6261
 3857SOL    HW223034   0.768   3.349   2.954 -0.1298  1.9257 -0.5143
 3858SOL     OW23035   2.915   1.008   5.273 -0.4979 -0.5212  0.8137
 3858SOL    HW123036   2.982   0.939   5.273 -0.7552 -0.7878 -0.8780
 3858SOL    HW223037   2.962   1.076   5.224 -0.2068 -0.2289  1.4925
 3859SOL     OW23038   1.107   2.067  11.256 -0.2842 -0.0375 -0.7533
 3859SOL    HW123039   1.084   1.999  11.193 -2.9327  1.3060 -1.2396
 3859SOL    HW223040   1.156   2.130  11.203  2.0303 -0.5449  0.7795
 3860SOL     OW23041   3.609   0.383   5.796 -0.1685  1.0213 -0.0531
 3860SOL    HW123042   3.579   0.383   5.887  1.1107 -1.1562  0.3592
 3860SOL    HW223043   3.660   0.302   5.799 -0.6186  0.7669  0.9194
 3861SOL     OW23044   2.755   2.435   4.662  0.2655 -0.5283 -0.3233
 3861SOL    HW123045   2.697   2.488   4.609  0.0049 -1.0223 -0.5375
 3861SOL    HW223046   2.780   2.502   4.725 -0.8359  0.3033 -0.7883
 3862SOL     OW23047   3.105   2.002  10.195  0.3942 -0.2392  0.0303
 3862SOL    HW123048   3.079   2.088  10.165  0.3963 -0.6390 -1.1163
 3862SOL    HW223049   3.141   1.983  10.108 -1.3120 -2.3683 -0.2193
 3863SOL     OW23050   0.050   0.145   5.918 -0.2866  0.3857 -0.3447
 3863SOL    HW123051   0.014   0.096   5.993 -2.8569 -0.2354 -1.9747
 3863SOL    HW223052   0.028   0.096   5.839 -1.0201  0.1982 -0.0254
 3864SOL     OW23053   0.380   4.494  16.471  0.5710 -0.2983  0.5821
 3864SOL    HW123054   0.344   4.548  16.400  0.0580  0.6523  1.5625
 3864SOL    HW223055   0.393   4.410  16.428 -2.4139 -0.3475 -0.2419
 3865SOL     OW23056   0.408   4.113   5.692 -0.0744 -0.7242  0.8169
 3865SOL    HW123057   0.490   4.102   5.741  0.0679 -2.4837  0.1742
 3865SOL    HW223058   0.349   4.048   5.729 -1.3409 -0.4368 -0.7066
 3866SOL     OW23059   4.215   0.381   0.427 -0.5998 -0.6066  0.1890
 3866SOL    HW123060   4.288   0.435   0.456 -1.2190  0.0418  0.5450
 3866SOL    HW223061   4.249   0.293   0.409 -0.1028  0.0449 -1.9636
 3867SOL     OW23062   0.313   1.008  16.247  0.8370  0.3789 -0.6326
 3867SOL    HW123063   0.392   1.035  16.199  1.0989 -0.0828 -0.4581
 3867SOL    HW223064   0.294   0.924  16.205  1.0809 -1.0610  2.1432
 3868SOL     OW23065   4.261   1.585   7.199  0.1921 -0.3593  0.1823
 3868SOL    HW123066   4.206   1.627   7.133  1.7028  2.6412  0.8301
 3868SOL    HW223067   4.215   1.615   7.278  1.1665  1.1827  0.1538
 3869SOL     OW23068   1.473   1.691  16.143  0.0836  0.8276  0.2834
 3869SOL    HW123069   1.498   1.774  16.101 -0.0977  2.1288  2.7202
 3869SOL    HW223070   1.399   1.676  16.085 -1.7277  0.0924  2.8258
 3870SOL     OW23071   4.114   1.621   2.647  0.4878  0.2933  0.0304
 3870SOL    HW123072   4.132   1.528   2.631 -1.3051  0.2053 -1.5777
 3870SOL    HW223073   4.020   1.622   2.628  0.7430  1.0667 -1.2095
 3871SOL     OW23074   0.025   2.711   7.120  0.0296 -0.1779  0.2566
 3871SOL    HW123075   4.663   2.700   7.078 -1.2787 -1.3366  3.2736
 3871SOL    HW223076   0.008   2.749   7.206 -1.9986  1.0779 -0.6929
 3872SOL     OW23077   1.625   1.032   3.881 -0.3664  0.1078  0.3626
 3872SOL    HW123078   1.601   1.061   3.793  0.2723  0.9142  0.4518
 3872SOL    HW223079   1.541   1.029   3.926  0.7076 -0.9924  2.2838
 3873SOL     OW23080   0.317   2.972   7.194 -0.1490 -0.0415 -0.6112
 3873SOL    HW123081   0.237   2.998   7.240  1.2812 -0.1823  1.9543
 3873SOL    HW223082   0.286   2.947   7.107 -1.0094 -0.2586 -0.2381
 3874SOL     OW23083   4.399   2.078   4.522  0.3232  0.6821  0.2029
 3874SOL    HW123084   4.318   2.082   4.471  0.5794  0.3877 -0.2217
 3874SOL    HW223085   4.372   2.034   4.603 -1.3157 -0.0986 -0.7726
 3875SOL     OW23086   0.007   0.011   2.770 -0.0384 -0.1836  0.3647
 3875SOL    HW123087   0.029   0.068   2.696 -0.9722  1.4398  1.3713
 3875SOL    HW223088   0.094   4.723   2.810  0.5112 -1.1049 -1.0496
 3876SOL     OW23089   1.490   2.143  14.747  0.4640 -0.5214 -0.3489
 3876SOL    HW123090   1.404   2.129  14.709  1.4637  2.3623 -3.6637
 3876SOL    HW223091   1.536   2.069  14.708 -1.3541 -2.2280  0.7972
 3877SOL     OW23092   4.722   3.981   6.599 -0.1344 -0.4858 -0.4518
 3877SOL    HW123093   0.067   3.930   6.556 -0.7003 -2.0080  0.4570
 3877SOL    HW223094   0.002   3.946   6.688 -1.1195 -0.4048 -0.3804
 3878SOL     OW23095   0.146   3.895  16.457  0.0720 -0.3184 -0.2202
 3878SOL    HW123096   0.104   3.811  16.440 -0.9309 -0.2291  1.7968
 3878SOL    HW223097   0.174   3.888  16.549 -1.1985  0.5936  0.2377
 3879SOL     OW23098   3.486   4.395   8.517  0.2256 -0.1496 -0.1901
 3879SOL    HW123099   3.497   4.300   8.509 -0.2158 -0.1065 -1.2333
 3879SOL    HW223100   3.397   4.409   8.550 -0.3864 -1.9306 -1.0534
 3880SOL     OW23101   0.359   4.103  11.754  0.2827 -0.5940 -0.1064
 3880SOL    HW123102   0.264   4.116  11.751  0.5645  1.8704  1.6726
 3880SOL    HW223103   0.364   4.019  11.799  0.4996 -0.9771 -0.8523
 3881SOL     OW23104   3.873   0.138   1.384  0.7958  0.3993 -0.4509
 3881SOL    HW123105   3.900   0.165   1.297 -0.4280  1.8362 -0.3878
 3881SOL    HW223106   3.862   0.223   1.427 -0.3972  1.6273 -3.1806
 3882SOL     OW23107   2.472   0.488  10.766  0.4528  0.6806  0.3350
 3882SOL    HW123108   2.448   0.532  10.848 -2.7620  1.2406 -0.9339
 3882SOL    HW223109   2.389   0.484  10.720  1.4230 -4.1742 -0.9111
 3883SOL     OW23110   3.810   0.265   4.508 -0.7198  0.5557  0.1525
 3883SOL    HW123111   3.751   0.224   4.570 -1.1603  2.3031  0.8872
 3883SOL    HW223112   3.866   0.323   4.560 -0.1866  1.3539 -1.2834
 3884SOL     OW23113   0.364   3.207   8.890  0.2525 -0.1631 -0.0085
 3884SOL    HW123114   0.452   3.216   8.927 -0.8911  0.5313  2.5505
 3884SOL    HW223115   0.339   3.125   8.933 -0.6292 -0.0187 -0.2473
 3885SOL     OW23116   4.320   0.067   9.278  0.5262  0.6401 -0.0820
 3885SOL    HW123117   4.371   0.000   9.232  1.5659  2.2949 -1.3105
 3885SOL    HW223118   4.281   0.113   9.204  0.1550 -0.7999 -0.7798
 3886SOL     OW23119   3.944   1.150   2.194 -0.1260 -0.1107 -0.5154
 3886SOL    HW123120   4.001   1.207   2.245  1.2742 -2.1645  0.2335
 3886SOL    HW223121   3.886   1.206   2.142 -0.4015  1.3565  1.3781
 3887SOL     OW23122   4.379   2.130   2.922  0.0103 -0.0252 -0.9607
 3887SOL    HW123123   4.440   2.194   2.960 -1.6961  0.9477  0.1473
 3887SOL    HW223124   4.290   2.154   2.949  0.6147  1.2419 -0.0717
 3888SOL     OW23125   0.590   2.987   3.269  0.4250  0.6206 -0.2158
 3888SOL    HW123126   0.607   3.051   3.337 -0.3120  0.6468 -0.0540
 3888SOL    HW223127   0.522   2.929   3.304  1.2560 -0.5131 -0.4539
 3889SOL     OW23128   1.076   2.351   3.455  0.6100 -0.6747  0.0759
 3889SOL    HW123129   0.996   2.327   3.408  1.3624 -0.1753 -1.4967
 3889SOL    HW223130   1.067   2.444   3.435 -1.4981 -0.8777  0.1214
 3890SOL     OW23131   2.318   0.840   0.822  0.5930 -0.2582 -0.1148
 3890SOL    HW123132   2.254   0.903   0.790  0.8483 -1.3686 -2.8123
 3890SOL    HW223133   2.390   0.896   0.852  1.3217 -0.0170 -2.2955
 3891SOL     OW23134   3.185   4.279   6.048  0.8012 -0.7074 -0.0923
 3891SOL    HW123135   3.161   4.186   6.037 -1.0947 -0.6379  3.2017
 3891SOL    HW223136   3.239   4.290   5.970  0.8673 -0.5279 -0.0188
 3892SOL     OW23137   4.234   2.915   5.064 -0.0768 -0.1373 -0.1625
 3892SOL    HW123138   4.178   2.950   4.995 -2.8687 -1.6646  1.2969
 3892SOL    HW223139   4.296   2.983   5.088  0.5623 -0.9840  0.5807
 3893SOL     OW23140   0.175   1.295   7.432  0.2511  0.4478  0.0867
 3893SOL    HW123141   0.205   1.377   7.472  0.6674  0.0231  0.6462
 3893SOL    HW223142   0.260   1.269   7.395 -0.1184  0.6546 -0.9224
 3894SOL     OW23143   2.897   1.858   2.153  0.4117 -0.5651 -0.0365
 3894SOL    HW123144   2.906   1.773   2.110  3.5399 -1.1090  1.6593
 3894SOL    HW223145   2.983   1.898   2.141 -0.1150  0.4353 -0.4092
 3895SOL     OW23146   0.687   0.872   4.502  0.0595 -0.1606  0.0978
 3895SOL    HW123147   0.776   0.896   4.528  0.5864 -0.0176 -1.8620
 3895SOL    HW223148   0.710   0.804   4.439 -2.2281 -0.9784  0.1613
 3896SOL     OW23149   1.841   1.775   5.664  0.2799 -0.1632  0.0932
 3896SOL    HW123150   1.894   1.785   5.743  1.7843 -3.6949 -0.4706
 3896SOL    HW223151   1.757   1.792   5.707  0.6771 -0.6414  1.0647
 3897SOL     OW23152   0.300   3.272   3.647  0.1778  0.9261 -0.5632
 3897SOL    HW123153   0.300   3.300   3.739 -0.5095 -0.9229  0.0090
 3897SOL    HW223154   0.284   3.352   3.598  1.9760  1.5889 -0.0704
 3898SOL     OW23155   4.413   4.439   3.403  0.3351 -0.4716  0.2457
 3898SOL    HW123156   4.451   4.444   3.315  1.3338  3.6086  0.9254
 3898SOL    HW223157   4.463   4.507   3.449  0.1208  0.8761 -1.5321
 3899SOL     OW23158   3.996   3.483   8.464 -0.2152 -0.3797  0.4412
 3899SOL    HW123159   3.931   3.421   8.430  1.1930 -1.9183  0.5720
 3899SOL    HW223160   4.081   3.443   8.445  0.3422  1.6205 -1.2237
 3900SOL     OW23161   0.152   0.932  16.449  0.4553  0.3252 -0.4391
 3900SOL    HW123162   0.209   0.941  16.372  1.8193  0.0031  0.5410
 3900SOL    HW223163   0.069   0.971  16.423  0.3766  0.4636  0.0243
 3901SOL     OW23164   2.107   2.977   9.537 -0.8646  0.4906 -0.0095
 3901SOL    HW123165   2.024   3.011   9.505 -1.2441 -2.1413 -1.8124
 3901SOL    HW223166   2.170   3.044   9.512  0.9519 -0.4301  2.0750
 3902SOL     OW23167   2.703   0.092   3.354 -0.2048 -0.0074 -0.4064
 3902SOL    HW123168   2.667   0.042   3.281 -0.4857  0.0235 -0.2865
 3902SOL    HW223169   2.738   0.170   3.309 -1.3573  0.4787 -0.4555
 3903SOL     OW23170   3.456   3.283   5.866  0.3829 -0.0180 -0.2665
 3903SOL    HW123171   3.368   3.251   5.889 -0.4381  0.7117 -2.3984
 3903SOL    HW223172   3.429   3.371   5.839  1.8375  0.8850  1.2297
 3904SOL     OW23173   1.137   0.205   1.207  0.5939  0.3240 -0.3150
 3904SOL    HW123174   1.219   0.252   1.223 -0.0751  1.0073  1.0692
 3904SOL    HW223175   1.091   0.270   1.154 -1.1328 -0.9685 -0.3875
 3905SOL     OW23176   3.473   0.704   3.379 -0.0031 -0.0501  0.0335
 3905SOL    HW123177   3.501   0.627   3.329 -0.1618  0.3169 -0.6290
 3905SOL    HW223178   3.502   0.687   3.468 -1.2395 -1.1119  0.2270
 3906SOL     OW23179   3.197   1.429   3.226  0.1763 -0.2714  0.0783
 3906SOL    HW123180   3.279   1.455   3.268  0.1318  1.6039 -0.9952
 3906SOL    HW223181   3.204   1.335   3.241 -0.2230 -0.2444  0.4597
 3907SOL     OW23182   2.756   4.179   4.670 -0.3632 -0.3358 -0.0418
 3907SOL    HW123183   2.745   4.258   4.721  0.0923  0.4715 -1.1919
 3907SOL    HW223184   2.677   4.162   4.619 -0.8497  1.9199 -0.0205
 3908SOL     OW23185   4.161   0.106   7.238  0.4584  0.1114  0.5896
 3908SOL    HW123186   4.253   0.084   7.253  1.0123  0.7873 -1.8260
 3908SOL    HW223187   4.130   0.024   7.200 -0.8077  0.0314  1.8020
 3909SOL     OW23188   1.882   3.226   3.385 -0.0273 -0.0561  0.4079
 3909SOL    HW123189   1.822   3.184   3.447 -1.7143  3.0357  0.8336
 3909SOL    HW223190   1.965   3.234   3.432 -0.4550 -0.9765  1.3239
 3910SOL     OW23191   1.140   1.170   3.392  0.4944  0.0351 -0.4028
 3910SOL    HW123192   1.081   1.245   3.382  0.7020  0.2293 -0.1582
 3910SOL    HW223193   1.156   1.141   3.302 -2.1012 -1.4353 -0.4061
 3911SOL     OW23194   3.052   1.858   6.282  0.0576  0.1858 -0.5163
 3911SOL    HW123195   3.036   1.792   6.349  0.8872  0.5066 -0.0092
 3911SOL    HW223196   3.006   1.935   6.317  1.0823  1.0383 -1.0486
 3912SOL     OW23197   4.008   2.464   3.721  0.0286  0.8840 -0.1908
 3912SOL    HW123198   3.946   2.535   3.739 -0.0699  0.8260 -0.2974
 3912SOL    HW223199   4.091   2.501   3.750  0.2303 -1.1389  1.7571
 3913SOL     OW23200   4.556   2.666   5.137  0.0611  0.6437  0.5043
 3913SOL    HW123201   4.555   2.653   5.232  0.0971  0.6753  0.5092
 3913SOL    HW223202   4.517   2.584   5.105  2.1009 -0.6069  1.2229
 3914SOL     OW23203   0.329   0.669   5.598 -0.1635 -0.0180  0.2257
 3914SOL    HW123204   0.293   0.751   5.631 -0.6186  0.4246 -1.3699
 3914SOL    HW223205   0.306   0.666   5.505 -2.6556  1.1253  0.7987
 3915SOL     OW23206   1.502   3.734   6.679 -0.2916  0.1048 -0.7195
 3915SOL    HW123207   1.572   3.720   6.744 -0.6108 -0.6776 -0.5351
 3915SOL    HW223208   1.511   3.652   6.629  0.9158  0.2676 -0.7698
 3916SOL     OW23209   1.610   0.742   7.742 -0.0827  0.3029  0.0216
 3916SOL    HW123210   1.564   0.805   7.686  1.7866 -0.2495 -2.1566
 3916SOL    HW223211   1.540   0.719   7.803  0.3021  2.2540  1.1857
 3917SOL     OW23212   0.274   4.365   3.442  0.1476  0.4136  0.3245
 3917SOL    HW123213   0.235   4.448   3.469  1.1910  1.1567 -0.4645
 3917SOL    HW223214   0.212   4.299   3.475  0.5029 -0.2542 -0.3679
 3918SOL     OW23215   3.544   1.285   5.125  0.0141 -0.2175 -0.2106
 3918SOL    HW123216   3.473   1.348   5.110  0.5653  0.2560 -0.8451
 3918SOL    HW223217   3.614   1.330   5.172  0.7162 -0.8433 -0.6630
 3919SOL     OW23218   0.482   2.871   8.350 -0.0669 -0.2981  0.0071
 3919SOL    HW123219   0.482   2.967   8.356  0.9151 -0.2370 -1.0005
 3919SOL    HW223220   0.491   2.850   8.443 -0.3749  0.9815  0.3209
 3920SOL     OW23221   3.447   2.639   5.290  0.1605  0.0050 -0.2412
 3920SOL    HW123222   3.389   2.587   5.346  0.1055  2.5031  2.0092
 3920SOL    HW223223   3.500   2.568   5.255 -0.2914 -0.9531  1.0397
 3921SOL     OW23224   4.514   3.043  16.214  0.5813 -0.1082  0.3050
 3921SOL    HW123225   4.549   3.059  16.126 -0.8530 -1.5291 -0.5366
 3921SOL    HW223226   4.473   2.958  16.201  2.4392 -0.9603  0.0189
 3922SOL     OW23227   1.852   3.785   4.602 -0.3488 -0.5761  0.0340
 3922SOL    HW123228   1.853   3.748   4.514  1.4791  4.1675 -1.9336
 3922SOL    HW223229   1.766   3.825   4.618  0.2353 -0.0748  1.9595
 3923SOL     OW23230   1.040   3.435   7.434 -0.5550 -0.1237 -0.0590
 3923SOL    HW123231   1.106   3.403   7.373 -0.1125  2.6722 -1.0162
 3923SOL    HW223232   0.956   3.438   7.388 -1.0570  2.7929  1.0612
 3924SOL     OW23233   0.628   3.564   6.282  0.7186 -0.2575  0.3776
 3924SOL    HW123234   0.600   3.474   6.296 -1.1987  0.4638  1.0645
 3924SOL    HW223235   0.697   3.550   6.217 -0.4574 -0.0327 -0.9170
 3925SOL     OW23236   2.594   3.546  13.869  0.2988  0.1590  0.0953
 3925SOL    HW123237   2.559   3.629  13.902 -2.6038 -0.7885 -0.5246
 3925SOL    HW223238   2.612   3.502  13.951 -1.9322  0.5161  0.7979
 3926SOL     OW23239   0.800   3.386   5.898  0.2477 -0.1423 -0.1753
 3926SOL    HW123240   0.745   3.403   5.822 -1.0393 -1.0337  0.5575
 3926SOL    HW223241   0.818   3.293   5.884  2.5761  0.6997 -2.7892
 3927SOL     OW23242   2.813   3.010   7.382 -0.0792  0.3184  0.3909
 3927SOL    HW123243   2.791   2.972   7.467  0.4810  2.8551  1.6758
 3927SOL    HW223244   2.871   3.078   7.417  0.4847 -0.1894  0.4494
 3928SOL     OW23245   1.536   3.812  10.995 -0.0977 -0.1151  0.3285
 3928SOL    HW123246   1.626   3.782  10.987  0.8224  2.5275  0.7761
 3928SOL    HW223247   1.486   3.739  10.958 -0.2226  1.4889 -2.6635
 3929SOL     OW23248   1.548   4.199   2.089  0.0325  0.4456  0.2976
 3929SOL    HW123249   1.476   4.220   2.148  0.6400 -1.9635  1.8989
 3929SOL    HW223250   1.501   4.153   2.020  1.0862  0.8354 -0.6756
 3930SOL     OW23251   4.225   0.092   6.186  0.2922 -0.3771 -0.1123
 3930SOL    HW123252   4.261   0.006   6.210  1.0726 -0.2382 -0.8089
 3930SOL    HW223253   4.298   0.149   6.207  0.8352 -0.7502 -0.9890
 3931SOL     OW23254   3.278   0.849   6.445 -0.5218 -0.5403  0.4474
 3931SOL    HW123255   3.317   0.894   6.370 -4.6151 -1.0053 -1.9609
 3931SOL    HW223256   3.327   0.878   6.522 -0.3321  2.4956 -0.8362
 3932SOL     OW23257   3.635   1.058   5.807 -0.7787 -0.0746  0.2368
 3932SOL    HW123258   3.663   1.026   5.893 -0.0583 -0.5653 -0.1781
 3932SOL    HW223259   3.561   1.114   5.832 -0.0426  0.3857  1.3869
 3933SOL     OW23260   0.912   0.607  12.625  0.0238  0.6866  0.2363
 3933SOL    HW123261   0.936   0.556  12.548 -2.4144  1.9845 -1.3726
 3933SOL    HW223262   0.878   0.685  12.583  3.0173  1.6168 -0.4359
 3934SOL     OW23263   0.014   0.759   9.055 -0.0461 -0.1643 -0.3388
 3934SOL    HW123264   4.665   0.716   9.010  1.1032 -0.4079 -1.9686
 3934SOL    HW223265   4.689   0.838   9.081  0.7912  0.0898  0.4453
 3935SOL     OW23266   2.252   4.625   7.400  0.4271 -0.0557 -0.6194
 3935SOL    HW123267   2.297   4.611   7.483  0.4659 -0.6503 -0.7400
 3935SOL    HW223268   2.259   4.720   7.394 -0.0992 -0.0919 -1.8962
 3936SOL     OW23269   2.186   4.477   2.003 -0.2202  0.2441 -0.2894
 3936SOL    HW123270   2.233   4.394   2.006 -2.5454 -1.0311  0.7979
 3936SOL    HW223271   2.215   4.511   1.919 -0.0492  1.1009  0.1144
 3937SOL     OW23272   0.884   2.774   7.448 -0.1926  0.2264 -0.3239
 3937SOL    HW123273   0.937   2.725   7.511  0.8123  0.5208 -0.9310
 3937SOL    HW223274   0.801   2.788   7.493  0.1760 -1.9397  0.9937
 3938SOL     OW23275   3.595   1.137   9.698  0.6803  0.2733  0.4418
 3938SOL    HW123276   3.609   1.203   9.766  2.9219 -0.5446  0.7634
 3938SOL    HW223277   3.527   1.078   9.730 -0.9152  1.8001 -0.1176
 3939SOL     OW23278   1.092   1.177   3.998 -0.0957 -0.2059 -0.1422
 3939SOL    HW123279   1.089   1.238   3.924 -0.7650 -1.1708 -0.9004
 3939SOL    HW223280   1.000   1.153   3.997 -0.1994  0.3717 -3.3925
 3940SOL     OW23281   1.552   0.108   9.694 -0.3319 -0.7127  0.1408
 3940SOL    HW123282   1.499   0.054   9.636 -0.8008  0.0165 -0.1222
 3940SOL    HW223283   1.635   0.115   9.649 -1.0546 -0.9501 -1.2118
 3941SOL     OW23284   2.550   3.726   3.772  0.2514 -0.1786 -0.0487
 3941SOL    HW123285   2.507   3.644   3.795  2.0145 -0.5957  1.7177
 3941SOL    HW223286   2.639   3.692   3.765 -0.9095 -3.0508 -1.1551
 3942SOL     OW23287   1.155   3.574   2.086 -0.0616 -0.6062  0.2660
 3942SOL    HW123288   1.198   3.567   2.001  3.6022 -0.5557  2.0942
 3942SOL    HW223289   1.222   3.519   2.128  1.2807  0.1248 -0.9316
 3943SOL     OW23290   4.670   4.431   9.550 -0.1803 -0.9261 -0.9377
 3943SOL    HW123291   0.031   4.418   9.594 -1.2187 -2.1014  0.7364
 3943SOL    HW223292   4.692   4.473   9.467 -1.6743  1.5109 -0.1028
 3944SOL     OW23293   0.674   1.499   2.033  0.7875 -0.2745  0.2340
 3944SOL    HW123294   0.729   1.575   2.014  0.7550  0.0248  1.3389
 3944SOL    HW223295   0.619   1.522   2.108  2.0753  1.4383  0.6505
 3945SOL     OW23296   0.786   4.333   4.849 -0.5878 -0.4502 -0.3446
 3945SOL    HW123297   0.738   4.252   4.831  1.7463 -2.3454  2.0229
 3945SOL    HW223298   0.866   4.321   4.798 -0.1359 -0.3913  0.3535
 3946SOL     OW23299   2.286   4.516   1.756  0.2615 -0.1214 -0.8189
 3946SOL    HW123300   2.315   4.437   1.710 -1.6418 -1.9658  1.1995
 3946SOL    HW223301   2.371   4.554   1.780  1.4266 -2.2395 -1.5471
 3947SOL     OW23302   2.548   3.337   4.329  0.3373 -0.4127 -0.1922
 3947SOL    HW123303   2.538   3.403   4.398 -0.1369  0.3399 -0.9836
 3947SOL    HW223304   2.587   3.265   4.379  2.1106 -0.7364 -2.0651
 3948SOL     OW23305   2.858   1.224  13.648  0.7499  0.4973 -0.4909
 3948SOL    HW123306   2.910   1.262  13.578 -1.5316  0.5044 -2.1561
 3948SOL    HW223307   2.903   1.141  13.669 -0.6276  0.4786  2.4623
 3949SOL     OW23308   3.697   4.527   0.157 -0.0254  0.2203 -0.0520
 3949SOL    HW123309   3.763   4.558   0.220  0.1774 -0.3708  0.0255
 3949SOL    HW223310   3.624   4.587   0.172 -0.3263  0.6204 -3.2747
 3950SOL     OW23311   2.542   1.321   0.303 -0.0025 -0.5173 -0.0002
 3950SOL    HW123312   2.609   1.268   0.347 -1.2382 -1.8100  0.3396
 3950SOL    HW223313   2.604   1.372   0.251 -1.5652  2.5402  1.1782
 3951SOL     OW23314   1.955   4.280   6.793  0.2890  0.7149  0.2309
 3951SOL    HW123315   1.883   4.221   6.814 -1.3600  2.3856 -0.7896
 3951SOL    HW223316   1.995   4.225   6.726  0.8782 -0.3314  1.4380
 3952SOL     OW23317   0.692   1.470   3.056  0.2636 -0.0121 -0.2765
 3952SOL    HW123318   0.776   1.424   3.061  0.0715 -0.1513  1.8532
 3952SOL    HW223319   0.715   1.531   2.987  2.1195  0.5810  0.8495
 3953SOL     OW23320   0.345   4.660   6.794 -0.2272 -0.2810 -0.1515
 3953SOL    HW123321   0.301   4.601   6.732 -0.1350 -1.7018  1.1647
 3953SOL    HW223322   0.409   4.600   6.832  0.6945  0.9978  0.3095
 3954SOL     OW23323   3.774   2.156   2.273  0.3075 -0.4316 -0.2841
 3954SOL    HW123324   3.740   2.245   2.265 -0.1980 -0.6024 -0.0724
 3954SOL    HW223325   3.726   2.098   2.214  0.9069 -2.4203  1.1787
 3955SOL     OW23326   0.047   3.422   3.110 -0.0521 -0.0640 -0.1438
 3955SOL    HW123327   4.707   3.364   3.068  0.4696 -0.4304 -0.4128
 3955SOL    HW223328   4.720   3.501   3.131  0.6093  0.1795  0.5191
 3956SOL     OW23329   1.432   2.491  15.622 -0.0603  0.1733  0.2171
 3956SOL    HW123330   1.400   2.464  15.536  0.0720  1.1585 -0.1418
 3956SOL    HW223331   1.514   2.443  15.632 -0.4123 -0.7977 -1.4586
 3957SOL     OW23332   1.534   2.540   9.971  0.3134  0.2639 -0.3541
 3957SOL    HW123333   1.524   2.522  10.064 -0.1658 -2.1688 -0.8814
 3957SOL    HW223334   1.573   2.628   9.965 -0.9963  0.7774 -1.4908
 3958SOL     OW23335   3.318   1.008   5.085  0.2914  0.0198  0.0472
 3958SOL    HW123336   3.377   1.051   5.022 -1.1097 -1.6357 -2.4160
 3958SOL    HW223337   3.383   0.961   5.138 -0.5218 -0.6624  0.4400
 3959SOL     OW23338   2.841   1.200  16.204 -0.4609  0.1483  0.1031
 3959SOL    HW123339   2.927   1.183  16.243 -0.7160 -0.9435  0.1899
 3959SOL    HW223340   2.853   1.154  16.121 -2.6934 -0.6003  0.1933
 3960SOL     OW23341   3.518   3.058   1.417 -0.1627 -0.3269  0.2229
 3960SOL    HW123342   3.519   3.101   1.331 -2.8030  0.5365  0.6153
 3960SOL    HW223343   3.430   3.020   1.424 -0.1330 -0.0648  1.9280
 3961SOL     OW23344   3.436   1.564   5.836 -0.1353 -0.2660 -0.8437
 3961SOL    HW123345   3.353   1.544   5.794  0.1722 -0.5336 -1.3298
 3961SOL    HW223346   3.431   1.660   5.827 -1.2285 -0.0888  1.6054
 3962SOL     OW23347   3.914   2.617   7.884  0.4019 -0.2721  0.5230
 3962SOL    HW123348   3.831   2.569   7.881  0.3923 -0.2640  0.6658
 3962SOL    HW223349   3.976   2.549   7.857  1.4758  0.2151  1.7778
 3963SOL     OW23350   3.620   0.077   3.854 -0.3130 -0.3053  0.1105
 3963SOL    HW123351   3.533   0.044   3.878 -0.5435 -0.4411 -0.9159
 3963SOL    HW223352   3.611   0.172   3.858 -0.7228 -0.3486  0.2057
 3964SOL     OW23353   4.567   0.054   3.242  0.3612  0.1567  0.0100
 3964SOL    HW123354   4.538   4.707   3.184 -0.6830 -0.1186  0.8670
 3964SOL    HW223355   4.556   0.009   3.325 -2.3549  2.8795  1.1641
 3965SOL     OW23356   2.681   3.186  16.553  0.2527 -0.1247  0.0570
 3965SOL    HW123357   2.615   3.161  16.488 -1.3881  0.6985  1.3865
 3965SOL    HW223358   2.689   3.281  16.549 -1.8855  0.0694  0.1886
 3966SOL     OW23359   2.728   3.337   3.740  0.0876 -0.4024 -0.1308
 3966SOL    HW123360   2.810   3.375   3.706 -1.0737  1.0621 -1.2950
 3966SOL    HW223361   2.751   3.248   3.767  0.2269 -0.3392 -0.0418
 3967SOL     OW23362   1.773   4.621   8.558  0.2838 -0.3355  0.1917
 3967SOL    HW123363   1.725   4.703   8.570 -0.3886 -0.8279  0.8373
 3967SOL    HW223364   1.861   4.652   8.538 -0.0219  1.1504  1.1320
 3968SOL     OW23365   2.218   2.809   5.187  0.0926  0.1653 -0.2639
 3968SOL    HW123366   2.198   2.719   5.162 -1.1538 -0.4312  2.9151
 3968SOL    HW223367   2.299   2.799   5.239 -0.4868 -1.7050  0.2613
 3969SOL     OW23368   0.558   0.024   2.228  0.5774  0.3333 -0.1995
 3969SOL    HW123369   0.623   4.686   2.262  0.9704  0.6178 -0.4393
 3969SOL    HW223370   0.485   0.009   2.288  0.1990 -1.1049 -1.0231
 3970SOL     OW23371   0.947   2.067   7.645  0.1360 -0.2495 -0.0271
 3970SOL    HW123372   0.918   1.993   7.699 -1.1372  1.0791  1.1237
 3970SOL    HW223373   0.864   2.115   7.648 -1.0417 -2.1475 -2.3252
 3971SOL     OW23374   2.084   1.392   9.392 -0.8893 -0.3217  0.3138
 3971SOL    HW123375   2.179   1.385   9.379 -0.9462  1.6064 -1.1357
 3971SOL    HW223376   2.054   1.301   9.386 -1.7416 -0.0936  1.2637
 3972SOL     OW23377   3.094   0.344  13.911  0.5818  0.2845  0.1256
 3972SOL    HW123378   3.175   0.392  13.928  1.3433 -1.1781  0.6480
 3972SOL    HW223379   3.117   0.309  13.824  0.2824 -1.6635  0.8323
 3973SOL     OW23380   3.181   0.918   4.137  0.1069  0.2420  0.5640
 3973SOL    HW123381   3.228   0.870   4.205  0.0514 -3.7974 -2.2560
 3973SOL    HW223382   3.109   0.858   4.116 -0.1529  0.8838 -0.4194
 3974SOL     OW23383   2.418   0.941   8.548 -0.6169 -0.3976 -0.4286
 3974SOL    HW123384   2.384   0.992   8.475  1.1883 -0.6391 -1.4298
 3974SOL    HW223385   2.476   1.003   8.592 -2.5930  0.2034  1.3532
 3975SOL     OW23386   4.640   3.138   7.688 -0.0210  0.0572 -0.0198
 3975SOL    HW123387   4.628   3.233   7.692 -2.1227 -0.2045  0.2672
 3975SOL    HW223388   4.717   3.137   7.632 -0.0650  1.7356 -0.1196
 3976SOL     OW23389   3.324   2.479   1.411 -0.3687  0.9538 -0.4297
 3976SOL    HW123390   3.336   2.449   1.321 -0.9544 -0.3442 -0.0750
 3976SOL    HW223391   3.255   2.544   1.401  0.5749  2.3254  1.9029
 3977SOL     OW23392   4.264   2.647   4.252  1.1038 -0.1381 -0.0173
 3977SOL    HW123393   4.328   2.578   4.234  1.3728 -0.2423  1.3551
 3977SOL    HW223394   4.300   2.727   4.215  0.3003  0.2980  0.1471
 3978SOL     OW23395   0.201   3.844   6.458  0.1421  0.0666 -0.0950
 3978SOL    HW123396   0.175   3.767   6.408  0.5127 -0.7372  0.9509
 3978SOL    HW223397   0.293   3.821   6.469 -0.5681 -0.3325  5.2163
 3979SOL     OW23398   2.692   4.057   2.815 -0.0701 -0.5183  0.8720
 3979SOL    HW123399   2.734   4.043   2.730  3.9631  3.4632  2.1889
 3979SOL    HW223400   2.627   3.986   2.807 -1.0432  0.4033  0.5077
 3980SOL     OW23401   0.418   4.141   9.255 -0.5293 -0.0156  0.0671
 3980SOL    HW123402   0.360   4.189   9.195  1.3633  0.8225 -1.0624
 3980SOL    HW223403   0.426   4.052   9.220  1.1296  0.5148 -0.8977
 3981SOL     OW23404   4.505   1.805   2.127  0.1282 -0.0547  0.3712
 3981SOL    HW123405   4.572   1.776   2.189  0.7097 -1.1799 -0.7890
 3981SOL    HW223406   4.537   1.755   2.052  1.4507  1.8292 -0.3475
 3982SOL     OW23407   4.439   3.959  15.328  0.2005 -0.5304  0.7351
 3982SOL    HW123408   4.359   4.006  15.303 -0.1738 -2.4145 -1.5989
 3982SOL    HW223409   4.499   4.018  15.282 -0.7963 -0.7696 -0.9074
 3983SOL     OW23410   3.055   3.682   6.443 -0.1163 -0.6264  0.0891
 3983SOL    HW123411   3.002   3.715   6.516 -0.9624  0.2005 -0.9127
 3983SOL    HW223412   3.081   3.598   6.482  1.3862  0.2978  1.0867
 3984SOL     OW23413   2.592   4.708   5.456 -0.0089 -0.5888  0.4695
 3984SOL    HW123414   2.614   4.685   5.365 -2.4960  0.7737 -0.4559
 3984SOL    HW223415   2.681   4.716   5.490 -0.2787 -1.6144  1.4004
 3985SOL     OW23416   3.936   0.337   4.075  0.2973 -0.0695  0.4963
 3985SOL    HW123417   3.895   0.392   4.142 -1.0067 -0.4194 -0.0349
 3985SOL    HW223418   3.982   0.280   4.137  1.8441  0.9156  0.2569
 3986SOL     OW23419   4.416   4.163   5.514 -0.5532 -0.3393  0.3603
 3986SOL    HW123420   4.443   4.084   5.467 -0.8257  0.9544 -2.0072
 3986SOL    HW223421   4.324   4.140   5.527 -0.4471 -0.4942  0.8309
 3987SOL     OW23422   0.727   3.194  16.401 -0.1546  0.0227 -0.5259
 3987SOL    HW123423   0.637   3.160  16.401  0.8561 -2.6324 -1.1581
 3987SOL    HW223424   0.775   3.112  16.393  0.1636 -0.0141  1.6989
 3988SOL     OW23425   4.018   4.645   5.723  0.6095  0.0796  0.0661
 3988SOL    HW123426   3.925   4.630   5.706  0.8193 -0.2697 -0.7557
 3988SOL    HW223427   4.015   0.016   5.715  0.8569 -0.0424 -1.4086
 3989SOL     OW23428   1.644   4.373   8.151  0.4390 -0.0489  0.1723
 3989SOL    HW123429   1.569   4.358   8.093  0.7964 -2.3125  0.2817
 3989SOL    HW223430   1.614   4.330   8.231  1.4551 -3.9348 -1.5375
 3990SOL     OW23431   3.387   2.627  14.824 -0.0624 -0.1161  0.7521
 3990SOL    HW123432   3.482   2.635  14.828  0.1089 -2.7944  1.8991
 3990SOL    HW223433   3.374   2.534  14.808 -0.3005 -0.0356  0.4774
 3991SOL     OW23434   3.702   1.039  16.079 -0.4892  0.4950  0.7909
 3991SOL    HW123435   3.669   1.002  16.161 -0.4401 -0.1867  0.5055
 3991SOL    HW223436   3.792   1.056  16.107  0.3951  1.1144 -2.3846
 3992SOL     OW23437   2.258   0.605   2.786 -0.3347 -0.8819 -0.3927
 3992SOL    HW123438   2.199   0.656   2.842  0.9721  0.2266 -0.0063
 3992SOL    HW223439   2.252   0.641   2.698 -0.4693 -0.4857 -0.2237
 3993SOL     OW23440   0.644   1.993   2.395  0.2994 -0.6092 -0.1611
 3993SOL    HW123441   0.631   2.044   2.475  1.1078 -1.5556  0.5787
 3993SOL    HW223442   0.700   2.046   2.338 -1.5706  1.8156  0.2321
 3994SOL     OW23443   0.515   1.384   1.126 -0.7795  0.4428  0.1765
 3994SOL    HW123444   0.447   1.326   1.160 -1.3821  0.1172 -1.5616
 3994SOL    HW223445   0.487   1.457   1.181 -0.4070  1.0498 -0.4412
 3995SOL     OW23446   3.028   0.173   4.799  0.1944 -0.0204  0.6162
 3995SOL    HW123447   3.031   0.083   4.831  2.0792  0.8979  2.9499
 3995SOL    HW223448   2.938   0.186   4.769 -0.0254  0.0901  1.3328
 3996SOL     OW23449   1.069   3.020  15.148  0.0797  0.0787  0.0957
 3996SOL    HW123450   1.114   3.077  15.211 -2.0008 -1.1320  2.7074
 3996SOL    HW223451   0.982   3.061  15.146  0.3637  0.6022 -1.1976
 3997SOL     OW23452   4.323   0.933  15.413 -0.1552  0.1377 -0.2360
 3997SOL    HW123453   4.350   1.019  15.447  2.2175 -0.5602 -0.3263
 3997SOL    HW223454   4.235   0.947  15.378 -1.4925 -1.5587  2.4933
 3998SOL     OW23455   3.260   1.151   3.223  0.0874  0.6161  0.4598
 3998SOL    HW123456   3.305   1.155   3.307  0.7226  1.0000  0.1004
 3998SOL    HW223457   3.192   1.091   3.251  2.6786 -2.2316  0.5994
 3999SOL     OW23458   0.409   0.390   5.597 -0.4552 -0.2293 -0.6952
 3999SOL    HW123459   0.439   0.380   5.687 -0.6665 -1.7514 -0.7855
 3999SOL    HW223460   0.419   0.484   5.586 -1.6980  0.1339  1.2610
 4000SOL     OW23461   3.298   1.488   6.098 -0.2423 -0.0711  0.4475
 4000SOL    HW123462   3.319   1.574   6.063 -2.9005  0.7595  0.9330
 4000SOL    HW223463   3.236   1.445   6.038 -1.1123  0.9962  0.5943
 4001SOL     OW23464   0.991   2.071   5.692 -0.1367 -0.3008  0.1642
 4001SOL    HW123465   1.016   2.072   5.600  0.2478  0.0915  0.2687
 4001SOL    HW223466   1.052   2.122   5.746 -3.0258  1.5707  1.6782
 4002SOL     OW23467   3.602   0.015  17.492 -0.1309 -0.1046 -0.0920
 4002SOL    HW123468   3.648   0.070  17.429  0.0095 -1.0927 -0.8580
 4002SOL    HW223469   3.529   0.073  17.512  0.0488  0.8384 -2.1781
 4003SOL     OW23470   3.408   4.434   6.792  0.5449 -0.2455  0.3514
 4003SOL    HW123471   3.399   4.461   6.701  1.0161 -0.0846  0.3508
 4003SOL    HW223472   3.375   4.516   6.828  0.4309  0.6645 -1.8451
 4004SOL     OW23473   4.442   2.505  10.214 -0.3790 -0.2347 -0.2077
 4004SOL    HW123474   4.397   2.555  10.282 -0.9347  0.9394 -1.4305
 4004SOL    HW223475   4.435   2.573  10.147  0.2030  1.9512  1.9581
 4005SOL     OW23476   4.001   0.030   9.088 -0.0498  0.3014 -0.1482
 4005SOL    HW123477   3.983   4.718   9.176  0.1026  1.8712  0.5052
 4005SOL    HW223478   4.029   0.118   9.112 -0.2529 -0.2819  2.2630
 4006SOL     OW23479   3.963   0.035   5.228 -0.4861 -0.5718 -0.1658
 4006SOL    HW123480   4.037   0.024   5.288 -1.9526  0.9692  1.9004
 4006SOL    HW223481   4.005   0.073   5.152  3.8004 -1.8947  1.5586
 4007SOL     OW23482   0.553   0.297   6.932  0.1264  0.2655 -0.5188
 4007SOL    HW123483   0.578   0.249   6.853 -0.9112  0.0366 -0.7072
 4007SOL    HW223484   0.606   0.377   6.933  0.8445 -0.2125 -0.0016
 4008SOL     OW23485   1.109   3.230  16.011 -0.1623  0.6197 -0.2210
 4008SOL    HW123486   1.078   3.317  16.037 -1.6924  0.1379 -0.4238
 4008SOL    HW223487   1.130   3.244  15.919  0.0280 -0.5401 -0.3537
 4009SOL     OW23488   0.460   1.809  10.364 -0.1908  0.4362 -0.1704
 4009SOL    HW123489   0.456   1.904  10.357  0.7369  0.4716 -0.1863
 4009SOL    HW223490   0.474   1.815  10.458 -0.8107 -0.3513 -0.0251
 4010SOL     OW23491   4.042   3.255   7.965 -0.0933  0.9554  0.8678
 4010SOL    HW123492   4.134   3.251   7.939  0.1890  2.6053  1.6991
 4010SOL    HW223493   4.015   3.300   7.885 -0.2328 -1.2178 -0.3330
 4011SOL     OW23494   3.111   1.286   8.441 -0.2014  0.3518 -0.2352
 4011SOL    HW123495   3.103   1.380   8.424  1.2197  0.4971 -0.0577
 4011SOL    HW223496   3.021   1.262   8.416 -0.2529 -0.0721  0.3695
 4012SOL     OW23497   1.016   4.520   4.911  0.1850  0.8450  0.2061
 4012SOL    HW123498   1.062   4.603   4.898  0.1122  1.1162  1.6635
 4012SOL    HW223499   1.005   4.522   5.006 -1.6459  1.1119 -0.0171
 4013SOL     OW23500   0.823   3.597   8.292 -0.3398  0.3705  0.6266
 4013SOL    HW123501   0.794   3.678   8.334 -1.5032  0.8717 -1.1486
 4013SOL    HW223502   0.804   3.527   8.354 -2.3584  1.4202  1.2101
 4014SOL     OW23503   0.413   2.792   0.496  0.3581 -0.2478  0.3250
 4014SOL    HW123504   0.388   2.842   0.419  1.0627 -1.3604 -0.6245
 4014SOL    HW223505   0.497   2.750   0.477  0.2149  0.3004 -1.5398
 4015SOL     OW23506   2.604   1.349   4.488  0.1016  0.6254  0.1600
 4015SOL    HW123507   2.585   1.412   4.557  2.6721  1.1240  0.4136
 4015SOL    HW223508   2.615   1.271   4.542 -1.8979 -0.4510 -0.9899
 4016SOL     OW23509   4.571   2.291   2.959  0.3435 -0.2284 -0.9570
 4016SOL    HW123510   4.567   2.369   3.015 -0.8054 -1.5192  0.7323
 4016SOL    HW223511   4.626   2.236   3.015  0.0600 -1.2629 -1.7176
 4017SOL     OW23512   2.542   3.444  13.042  0.4339  0.0614 -0.5114
 4017SOL    HW123513   2.583   3.502  12.978 -0.8063  0.1602 -1.2103
 4017SOL    HW223514   2.464   3.498  13.052  0.0037 -0.5950 -0.3218
 4018SOL     OW23515   2.875   1.948   8.795  0.3051  0.3792 -0.5279
 4018SOL    HW123516   2.884   1.942   8.890 -1.5141 -1.7554 -0.4624
 4018SOL    HW223517   2.829   2.031   8.779  1.1202  0.6380 -1.4846
 4019SOL     OW23518   2.563   2.039  14.075 -0.7509  0.3328 -0.3731
 4019SOL    HW123519   2.475   2.033  14.036 -1.1693  0.7749  0.5027
 4019SOL    HW223520   2.545   2.041  14.169 -0.1525  1.7463 -0.2988
 4020SOL     OW23521   0.938   2.453   0.503 -0.5581 -0.3825 -0.8424
 4020SOL    HW123522   0.999   2.472   0.432 -1.2605  3.3843 -0.4087
 4020SOL    HW223523   0.986   2.380   0.542  3.7249  0.4238 -4.6052
 4021SOL     OW23524   3.280   3.711  14.101  0.0052 -0.6351 -0.0411
 4021SOL    HW123525   3.263   3.623  14.136  1.8043 -1.2869 -0.8024
 4021SOL    HW223526   3.237   3.708  14.015  1.1515 -0.9364 -0.5963
 4022SOL     OW23527   0.350   2.781  16.324  0.1713 -0.2321 -0.0035
 4022SOL    HW123528   0.273   2.823  16.362  1.8143  1.2075  1.8108
 4022SOL    HW223529   0.321   2.725  16.252 -1.3462 -1.1810  1.3412
 4023SOL     OW23530   4.643   3.166  14.666 -0.4082  0.4509  0.3108
 4023SOL    HW123531   4.622   3.174  14.573 -0.5037  0.5738  0.3423
 4023SOL    HW223532   4.640   3.072  14.680 -0.7636  0.6083  1.2916
 4024SOL     OW23533   3.771   4.261   7.219  0.3960  0.5330 -0.0901
 4024SOL    HW123534   3.834   4.285   7.287 -0.9018  1.1027  0.9143
 4024SOL    HW223535   3.756   4.343   7.171  1.1284 -0.3040 -1.7474
 4025SOL     OW23536   0.114   2.712   4.232 -0.4142  0.5096 -0.3226
 4025SOL    HW123537   0.154   2.798   4.238  0.5165  0.1323 -1.2054
 4025SOL    HW223538   0.159   2.665   4.302 -1.3455  0.0400 -0.0324
 4026SOL     OW23539   0.419   3.351   2.598 -0.2854  0.4305  0.0503
 4026SOL    HW123540   0.468   3.282   2.642 -0.6069  0.8560  1.0719
 4026SOL    HW223541   0.435   3.430   2.650  0.4227  0.0562  0.4002
 4027SOL     OW23542   4.273   0.081  11.426 -0.0814 -0.2753 -0.4060
 4027SOL    HW123543   4.234   0.033  11.500  1.1500 -1.3557 -0.4486
 4027SOL    HW223544   4.200   0.078  11.365  0.9023 -0.0038 -1.5967
 4028SOL     OW23545   3.710   0.557   5.370 -0.1940  0.0218 -0.5022
 4028SOL    HW123546   3.675   0.598   5.450  3.1305 -1.3655  1.6524
 4028SOL    HW223547   3.628   0.525   5.333  0.5160 -1.0764 -1.1086
 4029SOL     OW23548   3.425   1.752   4.343 -0.5532  1.0081  0.4479
 4029SOL    HW123549   3.369   1.689   4.388  0.9804  1.2622  2.6831
 4029SOL    HW223550   3.425   1.713   4.255 -2.4167  0.2097  0.7984
 4030SOL     OW23551   0.999   4.552   9.207 -0.0163 -0.2524 -0.0970
 4030SOL    HW123552   1.010   4.635   9.160  1.9996  0.1129  1.0184
 4030SOL    HW223553   1.085   4.533   9.245  0.6890 -1.2776 -2.2468
 4031SOL     OW23554   0.560   2.398   5.288 -0.3957 -0.2613  0.4012
 4031SOL    HW123555   0.487   2.415   5.229 -1.0042  0.4197  1.3623
 4031SOL    HW223556   0.626   2.447   5.239 -0.3353 -1.5884 -0.8155
 4032SOL     OW23557   0.860   2.688   1.187 -0.3818  0.0808  0.3705
 4032SOL    HW123558   0.839   2.703   1.094  1.5225  2.0631  0.2637
 4032SOL    HW223559   0.860   2.595   1.211  0.7147  0.0952  0.4116
 4033SOL     OW23560   1.055   3.273   3.283  0.0653 -0.2120  0.5998
 4033SOL    HW123561   1.043   3.359   3.244  1.1487 -0.5132 -0.3869
 4033SOL    HW223562   1.016   3.291   3.369 -0.3311 -0.8435  0.5594
 4034SOL     OW23563   0.099   0.994   7.124  0.0450 -0.2127 -0.3640
 4034SOL    HW123564   0.023   1.009   7.069  0.5062  0.2786 -0.8702
 4034SOL    HW223565   0.147   1.076   7.115  1.2566 -0.9534 -0.6441
 4035SOL     OW23566   2.233   4.222   7.337  0.0308  0.4886 -0.0315
 4035SOL    HW123567   2.203   4.263   7.257  1.1933 -1.8705 -1.6857
 4035SOL    HW223568   2.307   4.171   7.305  0.0025  0.3953  0.0519
 4036SOL     OW23569   4.488   2.212  16.910  0.3401 -0.4194 -0.0528
 4036SOL    HW123570   4.516   2.222  16.819 -2.2482  3.2387 -0.4309
 4036SOL    HW223571   4.556   2.161  16.955  0.3966  1.3568  1.8362
 4037SOL     OW23572   4.422   2.351   8.731  0.0775  0.2825  0.5052
 4037SOL    HW123573   4.475   2.286   8.777  0.6069  1.2838  1.3169
 4037SOL    HW223574   4.336   2.332   8.767 -0.8359  0.1452 -1.7332
 4038SOL     OW23575   3.165   2.038   1.817 -0.3957  0.4169 -0.4941
 4038SOL    HW123576   3.069   2.035   1.809 -0.4074 -0.5402  0.0680
 4038SOL    HW223577   3.191   2.015   1.728 -1.3223  0.8048 -0.8676
 4039SOL     OW23578   0.640   2.397   7.052  0.5871  0.3407  0.4972
 4039SOL    HW123579   0.622   2.304   7.036  1.2802  0.2142  0.4569
 4039SOL    HW223580   0.686   2.412   7.134 -0.2722  0.7128  0.9160
 4040SOL     OW23581   3.910   1.748   3.343  0.3420  0.2035  0.6602
 4040SOL    HW123582   3.818   1.769   3.358  0.3670  0.3523  0.6061
 4040SOL    HW223583   3.945   1.823   3.293  0.1011  0.9415  1.5962
 4041SOL     OW23584   0.942   2.674   4.108  0.2517 -0.3524  0.3001
 4041SOL    HW123585   0.914   2.737   4.042 -0.4958  0.4381  1.3798
 4041SOL    HW223586   0.982   2.612   4.047  1.1816 -1.0607  1.6282
 4042SOL     OW23587   4.352   3.224  11.281 -0.5193 -0.2993 -0.3375
 4042SOL    HW123588   4.264   3.191  11.265 -0.4999 -0.2251 -0.5967
 4042SOL    HW223589   4.388   3.245  11.195 -1.4965 -0.3879 -0.7691
 4043SOL     OW23590   0.794   4.014   9.197  0.0591 -0.4553  0.1645
 4043SOL    HW123591   0.782   4.080   9.265  2.1451 -0.6479  0.7183
 4043SOL    HW223592   0.862   4.061   9.149 -1.0080  0.8045 -0.1031
 4044SOL     OW23593   0.651   3.951   1.008 -0.0230 -0.1841  0.2925
 4044SOL    HW123594   0.661   4.046   1.003 -0.5129 -0.1873 -0.7542
 4044SOL    HW223595   0.740   3.921   1.025  0.0849 -0.5669 -0.9462
 4045SOL     OW23596   0.954   1.468  16.281 -0.0848  0.3611 -0.0629
 4045SOL    HW123597   1.004   1.490  16.359  2.9192 -0.9608 -1.6344
 4045SOL    HW223598   0.865   1.449  16.312  0.5029 -1.1645  0.7171
 4046SOL     OW23599   2.636   4.010   3.807 -0.1248 -0.1130  0.1470
 4046SOL    HW123600   2.547   4.044   3.811  0.5398  1.5036  0.9146
 4046SOL    HW223601   2.619   3.920   3.836  0.9746 -0.8448 -1.4122
 4047SOL     OW23602   4.652   4.101  15.191 -0.1378  0.3030 -0.1412
 4047SOL    HW123603   4.652   4.150  15.108  0.6875  1.0806  0.3267
 4047SOL    HW223604   0.020   4.099  15.219  0.5701  0.1533 -2.4556
 4048SOL     OW23605   3.318   2.959   1.034  0.2925  0.0392 -0.3865
 4048SOL    HW123606   3.359   2.877   1.004  1.0126  0.4868 -0.6194
 4048SOL    HW223607   3.236   2.958   0.985 -0.4045  1.0661  0.7620
 4049SOL     OW23608   4.272   0.568  10.513 -0.0325  0.6772 -0.7877
 4049SOL    HW123609   4.251   0.628  10.585  1.0061 -0.4832  0.4696
 4049SOL    HW223610   4.306   0.488  10.553 -1.6816 -0.5877 -1.9248
 4050SOL     OW23611   1.289   0.670   7.373 -0.0145 -0.1471  0.7643
 4050SOL    HW123612   1.247   0.726   7.438 -1.3188 -1.7416  1.3098
 4050SOL    HW223613   1.247   0.714   7.298  2.0363 -1.0737 -0.9388
 4051SOL     OW23614   4.199   0.369   3.447  0.4784  0.1727  0.1458
 4051SOL    HW123615   4.170   0.439   3.388  0.7417 -0.3568 -0.6064
 4051SOL    HW223616   4.219   0.299   3.385  0.3806 -0.9916  1.4569
 4052SOL     OW23617   0.087   0.301   4.831  0.5266 -0.3474  0.7531
 4052SOL    HW123618   0.060   0.240   4.900 -0.8411  0.2391  0.7216
 4052SOL    HW223619   0.004   0.334   4.798  0.4736 -0.8141  0.4089
 4053SOL     OW23620   2.282   2.547  14.700  0.3080 -0.1918 -0.0603
 4053SOL    HW123621   2.243   2.502  14.776 -0.0435  0.7179  0.2944
 4053SOL    HW223622   2.206   2.589  14.660 -0.7727  0.6429  2.8956
 4054SOL     OW23623   3.694   2.794  16.239 -0.0637 -0.4011  0.3380
 4054SOL    HW123624   3.621   2.841  16.279 -0.4515  1.1656 -2.1460
 4054SOL    HW223625   3.685   2.705  16.272 -1.3975  0.5612  2.5204
 4055SOL     OW23626   2.986   1.411  11.352 -0.5837 -0.6333 -0.6758
 4055SOL    HW123627   2.922   1.469  11.393  2.5056  1.8841  0.5525
 4055SOL    HW223628   2.932   1.347  11.305 -0.6990 -1.6300  0.8234
 4056SOL     OW23629   2.729   2.072   3.315 -0.4103  0.2295  0.5606
 4056SOL    HW123630   2.796   2.005   3.331  0.4837  0.8485 -0.6296
 4056SOL    HW223631   2.656   2.015   3.292  0.7051 -1.8917  2.2587
 4057SOL     OW23632   4.287   3.731   7.750  0.1067  0.1611  0.2272
 4057SOL    HW123633   4.266   3.639   7.730  3.9462 -0.3104 -1.4756
 4057SOL    HW223634   4.329   3.764   7.671 -0.2771 -0.8256 -0.3947
 4058SOL     OW23635   2.627   0.174  10.465  0.5521 -0.4118  1.1958
 4058SOL    HW123636   2.688   0.196  10.394 -2.1133  0.6213 -0.7709
 4058SOL    HW223637   2.659   0.239  10.528  0.3798  0.5629  0.2762
 4059SOL     OW23638   1.669   0.448   8.416  0.3961  0.0501 -0.1639
 4059SOL    HW123639   1.644   0.431   8.507  2.1804  1.3847  0.5804
 4059SOL    HW223640   1.623   0.379   8.369  0.4096  0.7204 -1.1601
 4060SOL     OW23641   1.886   2.340   6.937  0.0599 -0.4178 -0.2688
 4060SOL    HW123642   1.944   2.399   6.889  0.1330  1.0273  1.5942
 4060SOL    HW223643   1.842   2.406   6.992 -0.1748 -0.9058  0.1351
 4061SOL     OW23644   4.145   4.135   5.551  0.6236 -0.6770 -0.0352
 4061SOL    HW123645   4.130   4.220   5.592 -0.4042  0.4707 -2.7943
 4061SOL    HW223646   4.068   4.080   5.569 -0.5703  0.3954 -1.9872
 4062SOL     OW23647   3.178   0.200   6.956 -0.2292  0.0427 -0.8047
 4062SOL    HW123648   3.141   0.123   6.912 -2.3366  0.5237  0.1246
 4062SOL    HW223649   3.128   0.202   7.037  0.7634 -0.4759 -0.1820
 4063SOL     OW23650   3.814   4.059   3.429 -0.2362 -0.1256  0.3212
 4063SOL    HW123651   3.748   4.092   3.368 -2.3048  2.6559  4.1463
 4063SOL    HW223652   3.889   4.052   3.369  0.7708  0.5540  1.5051
 4064SOL     OW23653   0.964   4.549   8.379  0.1166 -0.5634 -0.1431
 4064SOL    HW123654   1.033   4.510   8.433  0.4627  0.0382 -0.1520
 4064SOL    HW223655   0.892   4.553   8.442 -0.9969 -0.2671 -1.4389
 4065SOL     OW23656   0.485   3.230   8.638 -0.6945  0.4022 -0.0844
 4065SOL    HW123657   0.415   3.204   8.698 -0.6602 -2.9260 -1.4785
 4065SOL    HW223658   0.496   3.323   8.659 -0.9024  0.7423 -1.4465
 4066SOL     OW23659   0.257   0.690   7.381  0.2284  0.2087  0.4497
 4066SOL    HW123660   0.311   0.611   7.388 -0.9019 -0.6088 -0.1406
 4066SOL    HW223661   0.197   0.666   7.451  0.4887 -0.9821  0.2675
 4067SOL     OW23662   2.567   1.990   7.220 -0.2193 -0.3696  0.1951
 4067SOL    HW123663   2.588   1.979   7.313 -1.7536 -0.2529  0.5651
 4067SOL    HW223664   2.580   1.900   7.191 -3.4492  0.0058 -2.4234
 4068SOL     OW23665   1.110   4.585   6.898 -0.8492 -0.2464 -0.2553
 4068SOL    HW123666   1.077   4.512   6.951 -0.8345 -1.3438 -1.7733
 4068SOL    HW223667   1.057   4.582   6.819 -0.2696 -2.5923 -0.5577
 4069SOL     OW23668   3.982   3.198  13.660 -0.0082 -0.0998  0.1104
 4069SOL    HW123669   4.044   3.127  13.677  1.1539  0.8121 -0.2948
 4069SOL    HW223670   3.898   3.155  13.648  0.8221 -1.7796  0.4053
 4070SOL     OW23671   3.030   2.180   7.816  0.0934  0.4596 -0.2550
 4070SOL    HW123672   3.066   2.172   7.904 -0.4031 -0.0238 -0.0921
 4070SOL    HW223673   3.096   2.215   7.758  0.4935 -0.0471 -0.1068
 4071SOL     OW23674   4.217   1.712   5.020 -0.1951  0.5020 -0.3204
 4071SOL    HW123675   4.253   1.647   5.081  1.8213  2.3646  0.4731
 4071SOL    HW223676   4.225   1.794   5.067 -1.0718 -0.4260  1.4389
 4072SOL     OW23677   0.330   0.132   5.272  0.7598 -0.3013  0.7794
 4072SOL    HW123678   0.419   0.118   5.239  0.0037  1.1693 -1.8582
 4072SOL    HW223679   0.287   0.111   5.189 -1.2319  3.9971  0.7262
 4073SOL     OW23680   1.272   3.778  11.693 -0.6709 -0.0707 -1.0883
 4073SOL    HW123681   1.183   3.783  11.657 -1.1951  0.3405  0.2932
 4073SOL    HW223682   1.310   3.842  11.632 -0.2759  0.9558  0.2471
 4074SOL     OW23683   2.659   1.664  10.267 -0.9337 -0.1352  1.0257
 4074SOL    HW123684   2.650   1.575  10.301  1.6389  0.0740  2.2553
 4074SOL    HW223685   2.733   1.695  10.319  0.2254  0.7284 -1.1659
 4075SOL     OW23686   0.626   0.827  11.137 -0.1798  0.7388 -0.0516
 4075SOL    HW123687   0.665   0.809  11.052 -0.4445  1.6329 -0.3657
 4075SOL    HW223688   0.640   0.922  11.138  1.0216  0.5639 -0.4468
 4076SOL     OW23689   1.873   1.766  17.279  0.1210 -0.3712 -0.2319
 4076SOL    HW123690   1.857   1.736  17.190  1.6537  0.3428 -0.7612
 4076SOL    HW223691   1.960   1.808  17.276 -0.7841  1.4884 -0.6330
 4077SOL     OW23692   4.011   1.399   3.792  0.2986 -0.0121 -0.4909
 4077SOL    HW123693   4.084   1.454   3.818 -0.6832  0.6112  0.8974
 4077SOL    HW223694   4.062   1.317   3.793 -0.9321 -0.7928 -1.3384
 4078SOL     OW23695   4.050   1.280   8.859  0.2331 -0.2692 -0.4013
 4078SOL    HW123696   4.067   1.372   8.842 -0.5493 -0.1391 -0.4699
 4078SOL    HW223697   4.005   1.255   8.778  1.1270 -1.1456 -0.6356
 4079SOL     OW23698   3.563   1.596  12.607 -0.9278 -0.2099  0.6171
 4079SOL    HW123699   3.628   1.667  12.609 -1.1909  0.0839 -0.8308
 4079SOL    HW223700   3.545   1.593  12.513  2.0384  0.7180 -0.0011
 4080SOL     OW23701   1.034   4.387   7.092  0.3380 -0.1575 -0.2503
 4080SOL    HW123702   0.970   4.398   7.162  0.6200  2.2550 -0.4024
 4080SOL    HW223703   1.105   4.342   7.140  0.9087 -1.2458 -2.1025
 4081SOL     OW23704   4.139   3.675   6.320 -0.3517 -0.2017  0.6652
 4081SOL    HW123705   4.149   3.657   6.226 -0.2352 -0.1352  0.6650
 4081SOL    HW223706   4.202   3.748   6.321 -0.9724  0.3443 -0.0385
 4082SOL     OW23707   2.287   3.519  16.548  0.8051 -0.0176  0.1909
 4082SOL    HW123708   2.373   3.492  16.516  0.1644 -0.9390 -0.7597
 4082SOL    HW223709   2.288   3.613  16.530  2.1341  0.0040  0.4026
 4083SOL     OW23710   0.755   3.281   7.450  0.2891  0.4119 -0.0753
 4083SOL    HW123711   0.748   3.226   7.372 -0.2098 -0.6645  0.7210
 4083SOL    HW223712   0.669   3.261   7.488 -0.4063  2.8235 -0.3612
 4084SOL     OW23713   0.653   2.782   3.811 -0.3322  0.4421 -0.0323
 4084SOL    HW123714   0.686   2.693   3.824 -1.4862 -0.0314 -0.3157
 4084SOL    HW223715   0.687   2.800   3.723 -0.5661 -0.0626 -0.2309
 4085SOL     OW23716   3.226   2.441   6.035 -0.4354  0.5382  0.6054
 4085SOL    HW123717   3.243   2.357   6.077 -1.6156 -1.0342 -2.1217
 4085SOL    HW223718   3.280   2.507   6.079  0.9548  0.2506 -0.6720
 4086SOL     OW23719   2.376   0.810  15.528  0.2514 -0.4985  0.7441
 4086SOL    HW123720   2.372   0.749  15.602 -1.8730 -1.1161  0.1239
 4086SOL    HW223721   2.380   0.746  15.457  0.3933 -1.0255  1.2266
 4087SOL     OW23722   4.603   1.565   8.153 -0.1135  0.3419  0.9127
 4087SOL    HW123723   4.670   1.584   8.087 -0.5526 -1.9653 -0.1877
 4087SOL    HW223724   4.555   1.648   8.153  0.4822  0.6853  1.5622
 4088SOL     OW23725   3.157   1.021  14.383 -0.2382  0.0891  0.1677
 4088SOL    HW123726   3.114   1.066  14.309 -3.3782  2.8036  3.6434
 4088SOL    HW223727   3.176   1.105  14.425 -0.0188  0.1921 -0.1317
 4089SOL     OW23728   0.841   2.007  11.005  0.0213  0.1147  0.1560
 4089SOL    HW123729   0.844   2.008  10.909 -1.4140 -2.9718  0.0810
 4089SOL    HW223730   0.752   2.041  11.014  0.2836  0.8820 -0.0934
 4090SOL     OW23731   1.948   0.413   5.988 -0.2331  0.1749  0.1650
 4090SOL    HW123732   2.038   0.402   6.019  0.5914  0.4160 -2.1791
 4090SOL    HW223733   1.944   0.398   5.894 -2.5242  1.1222  0.1155
 4091SOL     OW23734   0.975   0.998  13.435  0.1288  0.3538 -0.4083
 4091SOL    HW123735   0.939   1.085  13.417 -0.1366  0.2558 -0.3538
 4091SOL    HW223736   1.013   0.975  13.350 -0.2291  1.0942 -0.7675
 4092SOL     OW23737   1.566   0.822   7.370 -0.2081 -0.7523 -0.1128
 4092SOL    HW123738   1.508   0.843   7.298 -0.9369  1.1101  1.0431
 4092SOL    HW223739   1.511   0.833   7.447 -0.2912 -0.2891 -0.2398
 4093SOL     OW23740   4.609   3.359   2.660  0.0357  0.3724  0.6912
 4093SOL    HW123741   4.685   3.418   2.663  0.3732  0.0270 -0.9115
 4093SOL    HW223742   4.653   3.277   2.636 -0.1389  0.1742  1.0471
 4094SOL     OW23743   3.195   1.922  14.050  0.4435 -0.7665  0.6234
 4094SOL    HW123744   3.173   1.942  13.959  1.0184 -0.3636  0.5786
 4094SOL    HW223745   3.174   1.997  14.105  0.8786 -0.7693  0.7941
 4095SOL     OW23746   0.496   2.381   2.090 -0.0802  0.0072 -0.6002
 4095SOL    HW123747   0.436   2.309   2.109  1.0646 -0.5560  0.8748
 4095SOL    HW223748   0.437   2.454   2.068  1.6473  0.8981 -2.2678
 4096SOL     OW23749   1.150   0.010   6.322  0.3542  0.2811  0.4712
 4096SOL    HW123750   1.205   4.655   6.326  0.3042  0.2929  1.2801
 4096SOL    HW223751   1.071   4.690   6.290 -0.1693  1.4822  0.1623
 4097SOL     OW23752   0.488   2.755   7.511 -0.2726  0.1120  0.2136
 4097SOL    HW123753   0.550   2.682   7.506 -1.0361 -0.6303  1.5700
 4097SOL    HW223754   0.438   2.746   7.430 -0.9014  0.2727  0.5892
 4098SOL     OW23755   3.686   3.540  15.667 -0.1558  0.1389 -0.3719
 4098SOL    HW123756   3.670   3.590  15.747  2.5489 -0.4558  0.5236
 4098SOL    HW223757   3.700   3.450  15.698 -0.6997  0.6173  1.2305
 4099SOL     OW23758   3.176   3.345   4.591 -0.1734 -0.1743  0.5694
 4099SOL    HW123759   3.232   3.417   4.561 -1.2300  1.0004  1.4027
 4099SOL    HW223760   3.238   3.308   4.653  1.0481 -2.3214 -1.9511
 4100SOL     OW23761   2.713   4.672   3.830 -0.2598  0.0928 -0.0196
 4100SOL    HW123762   2.791   4.642   3.784 -1.0889  0.2203 -1.4982
 4100SOL    HW223763   2.695   0.027   3.779 -1.2472  0.8629  1.5297
 4101SOL     OW23764   2.568   2.764  13.583 -0.6034 -0.0466  0.1235
 4101SOL    HW123765   2.523   2.699  13.637 -1.0592 -0.0908 -0.3090
 4101SOL    HW223766   2.524   2.845  13.609  0.3259  0.1804  0.9873
 4102SOL     OW23767   2.705   1.235   7.291 -0.1174 -0.1457  0.2449
 4102SOL    HW123768   2.639   1.195   7.347  0.5472 -0.4140  0.8432
 4102SOL    HW223769   2.751   1.153   7.272  2.2453  0.9775  1.0874
 4103SOL     OW23770   1.069   1.114  16.455  0.2846 -0.0307  0.0991
 4103SOL    HW123771   1.017   1.162  16.519  0.7603  0.7093 -0.0768
 4103SOL    HW223772   1.020   1.109  16.373  0.0877 -1.1608  0.2735
 4104SOL     OW23773   2.257   3.097   1.565  0.4847 -0.6097 -0.5019
 4104SOL    HW123774   2.173   3.116   1.524 -0.1174  0.7702  1.3872
 4104SOL    HW223775   2.256   3.003   1.546 -1.1775 -0.7187  0.0923
 4105SOL     OW23776   4.067   2.740  14.356 -0.2051  0.1691 -0.3488
 4105SOL    HW123777   4.032   2.806  14.416 -1.4455  0.4521 -1.3949
 4105SOL    HW223778   4.101   2.673  14.416 -1.0588 -0.4806 -0.5881
 4106SOL     OW23779   4.601   2.405  15.964  0.5029 -0.2622  0.2460
 4106SOL    HW123780   4.508   2.426  15.954  0.6602 -0.6361 -1.9169
 4106SOL    HW223781   4.639   2.485  16.000  2.9268 -0.9843 -0.6715
 4107SOL     OW23782   1.926   2.732   6.823 -0.4327 -0.0376 -0.5980
 4107SOL    HW123783   1.851   2.772   6.777 -1.1461  0.3862  0.9189
 4107SOL    HW223784   1.987   2.805   6.813  2.5069 -2.3141  1.0342
 4108SOL     OW23785   2.487   0.224  16.092  0.0201  0.2560 -0.4313
 4108SOL    HW123786   2.526   0.310  16.079 -0.4962  0.5957  0.3268
 4108SOL    HW223787   2.567   0.175  16.115  0.0301  1.8635  2.9384
 4109SOL     OW23788   1.297   0.111   3.302  0.5319 -0.0137  0.2569
 4109SOL    HW123789   1.216   0.153   3.332 -0.0074 -0.6506 -0.3148
 4109SOL    HW223790   1.296   0.124   3.207  1.3452  1.3562  0.4388
 4110SOL     OW23791   2.412   2.551   3.406  0.4832 -0.1122  0.2659
 4110SOL    HW123792   2.374   2.507   3.330  2.1092 -3.1888  1.2390
 4110SOL    HW223793   2.469   2.616   3.365 -0.8815  1.5246  0.9981
 4111SOL     OW23794   4.643   0.347   2.982 -0.3936 -0.5264 -0.2136
 4111SOL    HW123795   4.614   0.409   2.915  1.6958  0.3688 -0.2793
 4111SOL    HW223796   4.577   0.355   3.051  0.1244  1.8529  0.0013
 4112SOL     OW23797   0.023   0.608   0.615  0.2068  0.1645 -0.0736
 4112SOL    HW123798   4.687   0.663   0.666 -1.0350 -0.3748 -0.9475
 4112SOL    HW223799   0.097   0.608   0.676 -1.1661  2.5323  1.5904
 4113SOL     OW23800   0.888   0.648  11.142 -0.5121  0.4479 -0.2609
 4113SOL    HW123801   0.871   0.670  11.050  0.5700 -1.7798 -0.9849
 4113SOL    HW223802   0.918   0.731  11.180  1.4938 -0.9519  1.1857
 4114SOL     OW23803   2.627   1.424   9.843 -0.1795  0.0041 -0.3228
 4114SOL    HW123804   2.592   1.484   9.909 -0.7820 -0.0372 -0.5999
 4114SOL    HW223805   2.631   1.347   9.900 -0.3925 -1.1422 -1.8680
 4115SOL     OW23806   1.363   1.793   8.226 -0.0568 -0.1916 -0.1753
 4115SOL    HW123807   1.429   1.776   8.293  0.5079  2.4751 -0.0869
 4115SOL    HW223808   1.288   1.759   8.275  1.8996 -1.8560  1.6797
 4116SOL     OW23809   0.980   3.844   6.330 -0.7608 -0.0957 -0.1536
 4116SOL    HW123810   1.000   3.867   6.421  0.7467 -1.3776 -0.1668
 4116SOL    HW223811   0.925   3.766   6.344 -1.3284  0.2071 -0.6919
 4117SOL     OW23812   2.984   2.479  10.916 -0.0504 -0.4635 -0.6691
 4117SOL    HW123813   2.972   2.417  10.844 -0.6662 -0.5718 -0.4771
 4117SOL    HW223814   3.074   2.509  10.905  0.2827 -1.7410 -1.3911
 4118SOL     OW23815   2.819   2.042  10.049 -0.0716  0.8139  0.1775
 4118SOL    HW123816   2.748   1.990  10.087 -0.7831  1.4348 -0.2968
 4118SOL    HW223817   2.843   2.092  10.127  0.3958 -0.6783  1.0028
 4119SOL     OW23818   4.690   4.528   1.307  0.1113 -0.1694  0.3188
 4119SOL    HW123819   4.645   4.482   1.236  0.0487 -1.0849  0.9455
 4119SOL    HW223820   0.053   4.537   1.268 -0.3859 -0.9362 -0.9702
 4120SOL     OW23821   2.168   4.639   1.274 -0.3534 -0.2250 -0.3091
 4120SOL    HW123822   2.193   4.662   1.364 -1.8581  3.3527 -0.8182
 4120SOL    HW223823   2.128   0.001   1.258  1.2270  0.1288 -2.3009
 4121SOL     OW23824   4.151   3.549   3.533  0.3319  0.0069  0.2235
 4121SOL    HW123825   4.119   3.523   3.620 -0.9987 -0.5840 -0.4437
 4121SOL    HW223826   4.180   3.468   3.490  0.6355  0.1128  0.2259
 4122SOL     OW23827   1.783   0.332   9.208 -0.1991  0.4110  0.0514
 4122SOL    HW123828   1.710   0.348   9.268 -0.2571  1.3632 -0.2686
 4122SOL    HW223829   1.839   0.277   9.261  0.2150 -1.0180 -1.8513
 4123SOL     OW23830   0.334   3.813   5.266 -0.4981  0.5126 -0.1685
 4123SOL    HW123831   0.299   3.901   5.249 -2.0415 -0.3969 -1.7418
 4123SOL    HW223832   0.399   3.838   5.331  1.9085 -2.8815 -1.2651
 4124SOL     OW23833   3.800   1.413   4.289  0.1932  0.8773 -1.0167
 4124SOL    HW123834   3.878   1.466   4.307 -1.2914  3.0636 -1.0192
 4124SOL    HW223835   3.753   1.472   4.231 -1.7780 -0.3998 -0.7333
 4125SOL     OW23836   1.608   2.078  11.703 -0.3137 -0.0446  0.0565
 4125SOL    HW123837   1.573   2.154  11.657 -0.2029 -0.6049 -0.9436
 4125SOL    HW223838   1.573   2.005  11.653  0.6714 -0.5002  0.0420
 4126SOL     OW23839   2.567   1.706   6.333  0.0315  0.0556  0.2243
 4126SOL    HW123840   2.556   1.618   6.297  1.0383  0.1762 -0.3765
 4126SOL    HW223841   2.590   1.758   6.256  0.1684  0.1889  0.3523
 4127SOL     OW23842   4.629   3.639   3.179 -0.0342  0.2537  0.3889
 4127SOL    HW123843   4.533   3.645   3.186 -0.0994  2.9510 -2.9169
 4127SOL    HW223844   4.656   3.629   3.270  0.3039  0.4185  0.3067
 4128SOL     OW23845   4.659   3.741  13.295 -0.3015 -0.0591 -0.0721
 4128SOL    HW123846   0.004   3.748  13.361 -1.1183  0.4327  0.7241
 4128SOL    HW223847   4.662   3.650  13.268 -0.5715 -0.4224  1.1441
 4129SOL     OW23848   1.558   1.881  12.953  0.2470 -0.2029 -0.4692
 4129SOL    HW123849   1.585   1.915  12.867  1.0256  3.5904  1.2503
 4129SOL    HW223850   1.641   1.893  12.999  0.3305  1.0709 -0.9265
 4130SOL     OW23851   4.609   1.989   7.332  0.2601 -0.0073 -0.7109
 4130SOL    HW123852   4.642   1.929   7.265 -2.6650 -0.4364 -1.7630
 4130SOL    HW223853   4.670   2.063   7.335  0.5632 -0.2790 -0.2395
 4131SOL     OW23854   2.678   3.429   8.064 -0.2758 -0.0765  0.3229
 4131SOL    HW123855   2.637   3.349   8.031 -1.5163  0.8991 -0.4976
 4131SOL    HW223856   2.658   3.432   8.158 -0.9493  0.1083  0.1705
 4132SOL     OW23857   2.583   1.204   5.883 -0.6709 -0.4826 -0.2635
 4132SOL    HW123858   2.578   1.297   5.860 -1.3374  0.2135  2.7029
 4132SOL    HW223859   2.507   1.196   5.940 -1.0190  0.3821 -0.6098
 4133SOL     OW23860   0.530   4.020   7.207 -0.4126  0.0901  0.5841
 4133SOL    HW123861   0.474   3.950   7.239  1.2383 -1.3542  0.3434
 4133SOL    HW223862   0.473   4.077   7.155  0.4736  2.8838  2.7488
 4134SOL     OW23863   2.145   4.104   1.322 -0.3023  0.5507  0.0542
 4134SOL    HW123864   2.140   4.184   1.269 -0.7231  1.5699  1.6213
 4134SOL    HW223865   2.228   4.069   1.291 -0.6114  0.6710 -0.9249
 4135SOL     OW23866   1.525   3.985   7.108 -0.1089 -0.0690 -0.2962
 4135SOL    HW123867   1.503   3.976   7.015  0.3237  0.3423 -0.4355
 4135SOL    HW223868   1.572   4.068   7.108  1.1543 -0.7892  1.4146
 4136SOL     OW23869   2.509   1.526   8.921  0.3948 -0.3130 -0.1125
 4136SOL    HW123870   2.436   1.484   8.967  1.8063  0.3929  2.8316
 4136SOL    HW223871   2.578   1.460   8.926  0.1989 -0.6336 -1.7985
 4137SOL     OW23872   1.377   0.633   4.304 -0.1586 -0.2243  0.3172
 4137SOL    HW123873   1.335   0.558   4.261  2.3650 -0.5721 -1.5196
 4137SOL    HW223874   1.298   0.683   4.326 -0.2210  0.3578 -1.1865
 4138SOL     OW23875   1.000   1.708   6.413 -0.1824  0.7210 -0.3630
 4138SOL    HW123876   1.026   1.695   6.504  1.2283 -1.5013 -1.1054
 4138SOL    HW223877   1.085   1.702   6.370  0.0163 -0.4573  0.1859
 4139SOL     OW23878   0.115   1.422   4.000 -0.0552  0.1260  0.5374
 4139SOL    HW123879   0.201   1.390   4.027  0.0152 -0.2825 -0.1692
 4139SOL    HW223880   0.148   1.471   3.925  1.6030 -3.6896 -1.2349
 4140SOL     OW23881   4.598   2.028   9.200 -1.1989 -0.2053 -0.2923
 4140SOL    HW123882   4.603   1.982   9.116  0.5023 -0.0385 -0.2884
 4140SOL    HW223883   4.507   2.053   9.188 -0.6173  1.4007 -1.2900
 4141SOL     OW23884   3.727   1.520  15.161 -0.4493  0.1359  0.7592
 4141SOL    HW123885   3.739   1.583  15.090 -0.4378 -0.8508 -0.1304
 4141SOL    HW223886   3.724   1.579  15.235  2.0906  1.2415 -0.0108
 4142SOL     OW23887   0.908   0.559   3.961  0.4182 -0.3509 -0.2096
 4142SOL    HW123888   0.997   0.593   3.950  1.5678 -3.7255 -1.1038
 4142SOL    HW223889   0.881   0.608   4.039 -1.7094  0.7595 -1.6370
 4143SOL     OW23890   1.591   3.075   1.848 -0.4172 -0.5352 -0.1714
 4143SOL    HW123891   1.602   3.069   1.753  0.0023 -0.5051 -0.1242
 4143SOL    HW223892   1.540   3.154   1.861  0.3703 -0.0261 -0.1731
 4144SOL     OW23893   3.712   2.609   9.393  0.0082 -0.3157 -0.1490
 4144SOL    HW123894   3.774   2.585   9.462  1.7581  1.6811 -1.0044
 4144SOL    HW223895   3.689   2.694   9.430 -1.8195 -0.5654 -0.7483
 4145SOL     OW23896   1.438   1.135   5.308  0.0962 -0.6050  0.8497
 4145SOL    HW123897   1.398   1.105   5.389  0.8322  0.8576  1.7508
 4145SOL    HW223898   1.496   1.210   5.319 -2.8258  1.4756  2.0421
 4146SOL     OW23899   4.598   2.326   7.779  0.1307 -0.1351 -0.4106
 4146SOL    HW123900   4.590   2.260   7.710  0.1601  0.3698 -0.8942
 4146SOL    HW223901   4.661   2.284   7.837  1.4282 -0.8777 -2.3486
 4147SOL     OW23902   4.636   3.437  14.752  0.1676  0.3534 -0.5532
 4147SOL    HW123903   4.626   3.342  14.744  3.6374  0.0843 -1.6555
 4147SOL    HW223904   0.004   3.453  14.775  0.7511 -1.7954 -1.4051
 4148SOL     OW23905   4.133   1.325   7.042  0.3108  0.1764 -0.1504
 4148SOL    HW123906   4.135   1.335   6.947  0.3520 -2.9095 -0.4496
 4148SOL    HW223907   4.213   1.369   7.074  1.5692 -1.6207 -0.8323
 4149SOL     OW23908   0.527   0.184   3.770 -0.3488 -0.5253  0.5345
 4149SOL    HW123909   0.601   0.233   3.735  1.1970 -0.4668  3.9050
 4149SOL    HW223910   0.459   0.251   3.774 -0.5199 -0.5388 -1.9458
 4150SOL     OW23911   3.535   2.352  14.718  0.0703 -0.0131 -0.2896
 4150SOL    HW123912   3.622   2.312  14.714 -0.0936 -0.4253  0.2840
 4150SOL    HW223913   3.556   2.443  14.739  1.4302 -0.1998 -0.8036
 4151SOL     OW23914   1.346   2.336   3.451  0.6272  0.1171 -0.3299
 4151SOL    HW123915   1.251   2.333   3.458  0.7082  0.1174  0.9325
 4151SOL    HW223916   1.356   2.358   3.359  1.7672  0.3498 -0.1564
 4152SOL     OW23917   1.822   1.520   5.572  0.1539 -0.7854  0.5336
 4152SOL    HW123918   1.837   1.525   5.477 -0.0765  0.6277  0.5717
 4152SOL    HW223919   1.830   1.612   5.597 -0.5533  0.5705 -4.2882
 4153SOL     OW23920   1.475   4.653  14.612  0.5882  0.3071 -0.1342
 4153SOL    HW123921   1.505   4.565  14.632 -0.1432 -0.3585 -1.9610
 4153SOL    HW223922   1.461   4.651  14.517 -2.2749 -0.7900  0.3245
 4154SOL     OW23923   2.141   0.312   2.523  0.0272  0.1968  0.2583
 4154SOL    HW123924   2.204   0.293   2.454  0.7999  3.2753  0.1117
 4154SOL    HW223925   2.113   0.402   2.508  0.3010  0.2668  0.1697
 4155SOL     OW23926   3.362   1.030   7.531 -0.0800 -0.3409  0.3020
 4155SOL    HW123927   3.393   1.060   7.616 -0.8297 -2.3289  1.2740
 4155SOL    HW223928   3.383   1.109   7.481 -2.3963 -0.7776 -1.3760
 4156SOL     OW23929   1.528   2.521   3.248  0.1272 -0.0706  0.6593
 4156SOL    HW123930   1.480   2.582   3.305 -0.7672  1.3379 -1.5767
 4156SOL    HW223931   1.615   2.561   3.249  0.1334 -0.1147  1.5388
 4157SOL     OW23932   2.091   0.942   9.659  0.2713  0.0256 -0.1609
 4157SOL    HW123933   2.110   0.961   9.751  1.8281  0.4074 -0.5608
 4157SOL    HW223934   2.032   0.868   9.652  1.9397 -1.2934 -0.2580
 4158SOL     OW23935   4.368   0.423   6.058  0.0478  0.3422 -0.0861
 4158SOL    HW123936   4.438   0.422   5.992 -0.4578 -1.9899 -0.5693
 4158SOL    HW223937   4.415   0.401   6.139  0.7330 -1.4145 -0.9462
 4159SOL     OW23938   1.434   2.781  17.521 -0.2062  0.3081 -0.8632
 4159SOL    HW123939   1.504   2.744  17.469 -0.2229 -0.5983 -0.2317
 4159SOL    HW223940   1.457   2.747  17.608 -0.0895 -0.6299 -1.2718
 4160SOL     OW23941   1.186   3.556   1.783  0.2882 -0.1531 -0.1060
 4160SOL    HW123942   1.147   3.472   1.806  1.4064 -0.5807  0.1848
 4160SOL    HW223943   1.115   3.602   1.737 -0.8337  0.2708  2.0671
 4161SOL     OW23944   2.708   3.059   0.923 -0.2533 -0.3913  0.4330
 4161SOL    HW123945   2.774   3.104   0.975  0.0718 -0.1990 -0.1453
 4161SOL    HW223946   2.659   3.009   0.988  0.7221 -1.7386  0.1352
 4162SOL     OW23947   2.899   4.584   7.834  0.2359 -0.1200  0.0865
 4162SOL    HW123948   2.856   4.662   7.869  2.0971  1.3228 -0.8477
 4162SOL    HW223949   2.872   4.517   7.897 -0.8828  1.4059  1.2440
 4163SOL     OW23950   1.491   4.685   8.776 -0.4449 -0.1586  0.3949
 4163SOL    HW123951   1.493   0.003   8.690 -4.0206 -0.0160  0.3881
 4163SOL    HW223952   1.447   0.034   8.819  2.1151  0.7612  1.4303
 4164SOL     OW23953   3.361   0.864   0.413 -0.3742  0.4151  0.5511
 4164SOL    HW123954   3.382   0.774   0.436 -1.0878 -0.6013 -2.9044
 4164SOL    HW223955   3.333   0.905   0.495 -2.6145 -1.3956  0.6520
 4165SOL     OW23956   4.201   3.136   3.962 -0.0780 -0.3408  0.6034
 4165SOL    HW123957   4.137   3.083   3.915  1.6201 -2.2703  0.4638
 4165SOL    HW223958   4.222   3.202   3.896 -0.2370  0.8641  1.7711
 4166SOL     OW23959   1.550   4.178   9.708  0.2447 -0.2210 -0.1079
 4166SOL    HW123960   1.631   4.161   9.660  2.4634 -1.0391  3.8629
 4166SOL    HW223961   1.584   4.158   9.796 -0.9647  2.0549  0.8795
 4167SOL     OW23962   2.894   1.569   1.042 -0.5716  0.5911 -0.1254
 4167SOL    HW123963   2.933   1.611   1.119 -1.9082  0.3062  0.7232
 4167SOL    HW223964   2.859   1.497   1.095 -0.8561 -0.1627 -1.3358
 4168SOL     OW23965   0.903   3.185   9.383  0.2661  0.2017  0.2017
 4168SOL    HW123966   0.956   3.263   9.391 -1.5280  1.4232  0.2303
 4168SOL    HW223967   0.966   3.146   9.322  1.5139  0.4744  1.3209
 4169SOL     OW23968   4.275   1.102   5.701 -0.2107  0.4015  0.5623
 4169SOL    HW123969   4.284   1.189   5.740 -1.7963  1.3392 -1.1396
 4169SOL    HW223970   4.364   1.091   5.668  0.2102  0.0611  1.8271
 4170SOL     OW23971   2.052   1.264   4.210  0.2963  0.1597  0.1920
 4170SOL    HW123972   2.132   1.310   4.235  1.5620 -0.5596 -2.5699
 4170SOL    HW223973   2.056   1.242   4.117  0.5119  1.2061 -0.0541
 4171SOL     OW23974   4.401   4.401   5.422  0.3182 -0.7191 -0.3467
 4171SOL    HW123975   4.435   4.314   5.444 -1.3207 -1.5758 -1.1529
 4171SOL    HW223976   4.327   4.398   5.483  0.5092  2.9425  0.0536
 4172SOL     OW23977   0.910   0.706   6.247  0.0295  0.4715  0.2255
 4172SOL    HW123978   0.982   0.749   6.201  0.5364 -1.2757 -0.5962
 4172SOL    HW223979   0.884   0.651   6.173  0.9535  2.1263 -1.3275
 4173SOL     OW23980   0.350   1.284   3.105 -0.6006  0.0545  0.3535
 4173SOL    HW123981   0.444   1.269   3.107 -0.2527  2.0851 -1.2069
 4173SOL    HW223982   0.326   1.261   3.195  0.9054  0.8001  0.9283
 4174SOL     OW23983   1.054   3.013  10.957  0.0497  1.2433 -0.7368
 4174SOL    HW123984   1.013   2.933  10.926  1.9485 -0.6567  1.7174
 4174SOL    HW223985   1.011   3.028  11.041  2.0629  0.8647  0.3368
 4175SOL     OW23986   3.675   1.310   8.126 -0.6554 -0.4395 -1.0062
 4175SOL    HW123987   3.625   1.283   8.203 -0.7902 -0.6116 -1.1525
 4175SOL    HW223988   3.649   1.237   8.069 -2.2659 -0.1484 -0.6502
 4176SOL     OW23989   3.246   4.022   7.953  0.0779 -0.0060  0.3683
 4176SOL    HW123990   3.166   3.993   7.998  0.0711 -1.0739 -0.3183
 4176SOL    HW223991   3.240   3.978   7.868 -1.1957 -1.1029  1.0328
 4177SOL     OW23992   1.254   4.410  10.576 -0.3044 -0.1884 -0.2637
 4177SOL    HW123993   1.332   4.448  10.616 -0.9014 -1.8540  2.5065
 4177SOL    HW223994   1.255   4.323  10.616  0.0153 -1.6115 -3.4322
 4178SOL     OW23995   0.205   0.877   5.743  0.1094 -0.6270 -0.0236
 4178SOL    HW123996   0.268   0.926   5.691  0.4633 -1.0674 -0.0008
 4178SOL    HW223997   0.121   0.882   5.696 -0.6839 -2.4974  1.2181
 4179SOL     OW23998   1.529   2.962  15.537  0.3569  0.2189  0.0886
 4179SOL    HW123999   1.483   3.024  15.481 -1.5230 -2.1363 -0.9897
 4179SOL    HW224000   1.596   2.923  15.480  1.3470 -0.1520  1.5111
 4180SOL     OW24001   4.201   2.763  13.582  0.0134  0.0060 -0.1431
 4180SOL    HW124002   4.178   2.700  13.651  2.4008 -1.2508 -0.5249
 4180SOL    HW224003   4.188   2.844  13.632  3.3973  0.3693  0.1644
 4181SOL     OW24004   0.935   2.357   4.390 -0.5242  0.1704  0.0122
 4181SOL    HW124005   0.942   2.263   4.373  2.6035  0.6205 -1.2145
 4181SOL    HW224006   0.970   2.355   4.479 -0.4970 -0.9727 -0.0270
 4182SOL     OW24007   3.336   3.439  15.477  0.4562  0.4702 -0.0240
 4182SOL    HW124008   3.390   3.360  15.478  1.1291  0.9372  1.1961
 4182SOL    HW224009   3.402   3.510  15.479  1.8350 -0.7607 -2.1403
 4183SOL     OW24010   4.604   3.670   4.450  0.2736  0.4010  0.8835
 4183SOL    HW124011   4.598   3.764   4.469  1.2324  0.4359  1.0392
 4183SOL    HW224012   4.697   3.651   4.459  0.4253  0.6087 -0.2473
 4184SOL     OW24013   4.575   4.558   5.294 -0.5840 -0.0049 -0.4283
 4184SOL    HW124014   4.526   4.635   5.265  1.3475  0.8275 -1.5627
 4184SOL    HW224015   4.512   4.501   5.337 -0.7033 -0.5509 -1.3190
 4185SOL     OW24016   3.795   1.783   5.913  0.2395  0.0169 -0.1178
 4185SOL    HW124017   3.879   1.761   5.873  0.6477 -0.8019  1.1659
 4185SOL    HW224018   3.810   1.877   5.922 -0.8492  0.0899  0.9329
 4186SOL     OW24019   4.252   2.524  17.595  0.2050  0.7522 -0.1277
 4186SOL    HW124020   4.344   2.545  17.580  0.6353 -1.0119  0.0663
 4186SOL    HW224021   4.257   2.468  17.672 -2.7531 -0.1131 -0.5506
 4187SOL     OW24022   3.107   1.569   7.777  0.3797  0.0791  0.6113
 4187SOL    HW124023   3.140   1.502   7.717  1.7133  0.4364  0.9417
 4187SOL    HW224024   3.036   1.524   7.824 -0.7962  0.2985 -0.9374
 4188SOL     OW24025   3.152   4.175   0.505 -0.0962  1.0613 -0.3129
 4188SOL    HW124026   3.100   4.256   0.496 -0.8831  0.6933  0.9312
 4188SOL    HW224027   3.211   4.198   0.577 -0.4797 -1.1986  0.7326
 4189SOL     OW24028   2.210   1.141   6.618  0.0091  0.6637 -0.2378
 4189SOL    HW124029   2.136   1.165   6.675  0.4387  1.0550  0.1502
 4189SOL    HW224030   2.260   1.110   6.693  0.9084 -0.4052 -1.2905
 4190SOL     OW24031   3.297   0.608  14.475 -0.1748  0.5470  0.5691
 4190SOL    HW124032   3.334   0.690  14.507 -1.4298  0.2449  2.7760
 4190SOL    HW224033   3.371   0.548  14.487 -1.2229 -0.5115  1.7442
 4191SOL     OW24034   4.578   2.063   9.507 -0.3710 -0.2666  0.5006
 4191SOL    HW124035   4.613   2.150   9.490 -3.0269  0.8093  0.4366
 4191SOL    HW224036   4.555   2.041   9.416  1.1407  0.4503 -0.0448
 4192SOL     OW24037   3.765   2.176   3.019 -0.0669  0.3344 -0.3626
 4192SOL    HW124038   3.679   2.187   2.979  0.8461  2.7841 -1.6272
 4192SOL    HW224039   3.816   2.238   2.967 -0.1668  1.3233  0.7363
 4193SOL     OW24040   3.179   3.918   0.429  0.7985 -0.1653 -0.1154
 4193SOL    HW124041   3.174   4.004   0.469 -0.3285 -2.1900  4.1197
 4193SOL    HW224042   3.205   3.957   0.346  1.5296 -1.1939 -0.3704
 4194SOL     OW24043   2.275   0.826   4.846 -0.1412 -0.2730 -0.2132
 4194SOL    HW124044   2.364   0.850   4.820  1.0229 -1.3717  2.7384
 4194SOL    HW224045   2.227   0.900   4.810  0.9027  0.0445 -0.9404
 4195SOL     OW24046   0.051   2.219   2.170  0.1301  0.5144 -0.0124
 4195SOL    HW124047   0.071   2.312   2.165  0.6772  0.2843 -2.1177
 4195SOL    HW224048   0.060   2.200   2.264  1.4008  2.8547  0.3194
 4196SOL     OW24049   1.149   4.510   0.131  0.1223 -0.4140  0.0344
 4196SOL    HW124050   1.138   4.531   0.038 -2.7103  0.9140  0.6537
 4196SOL    HW224051   1.244   4.502   0.135 -0.0164 -1.5900  0.7333
 4197SOL     OW24052   3.655   3.390   4.563 -0.7571 -0.0596  0.1491
 4197SOL    HW124053   3.682   3.330   4.494 -1.1256  1.5137 -1.3619
 4197SOL    HW224054   3.713   3.460   4.533 -1.5364  0.5185 -0.0119
 4198SOL     OW24055   3.471   0.477   5.304 -0.2296  0.3330 -0.4978
 4198SOL    HW124056   3.385   0.487   5.346 -0.1178 -0.3921 -0.1104
 4198SOL    HW224057   3.450   0.467   5.211  1.6294  2.6425 -1.1523
 4199SOL     OW24058   1.729   1.977   2.329 -0.0995 -0.1632 -0.4424
 4199SOL    HW124059   1.709   1.887   2.305  0.7272 -0.4992  0.1418
 4199SOL    HW224060   1.675   2.026   2.266  1.0739  0.7506 -0.7546
 4200SOL     OW24061   1.935   3.177   4.599 -0.5526 -0.0906 -0.4323
 4200SOL    HW124062   1.997   3.119   4.642 -1.3882  1.3151  2.6276
 4200SOL    HW224063   1.942   3.156   4.506  0.6998 -0.8679 -0.1580
 4201SOL     OW24064   0.976   0.609   7.600  0.3095  0.0357  0.7533
 4201SOL    HW124065   0.939   0.573   7.520 -0.2659  0.8827  0.6443
 4201SOL    HW224066   0.942   0.537   7.653 -0.1229  0.4188  0.9989
 4202SOL     OW24067   0.791   3.174   5.336 -0.3277  0.0362 -0.3059
 4202SOL    HW124068   0.699   3.161   5.310 -0.5311  1.6836 -0.3945
 4202SOL    HW224069   0.831   3.173   5.249  0.1244 -0.2498 -0.0983
 4203SOL     OW24070   1.040   3.613   8.574  0.2102 -0.0821 -0.2725
 4203SOL    HW124071   0.947   3.598   8.591 -0.0870  2.1789  0.1599
 4203SOL    HW224072   1.047   3.571   8.488  0.0269  2.6323 -1.6183
 4204SOL     OW24073   1.700   4.053   0.652  0.1789  0.1091 -0.1210
 4204SOL    HW124074   1.717   4.146   0.637  1.5670  0.1561  1.7942
 4204SOL    HW224075   1.745   4.012   0.579  0.8606  1.1670 -0.2879
 4205SOL     OW24076   4.288   0.153  11.891 -0.1660 -0.4418 -0.2279
 4205SOL    HW124077   4.317   0.241  11.913 -0.0105  0.2481 -3.2226
 4205SOL    HW224078   4.368   0.101  11.899  0.6461  0.7609 -0.5960
 4206SOL     OW24079   1.812   2.184  17.377 -0.0322  0.2531 -0.0457
 4206SOL    HW124080   1.769   2.101  17.360 -2.9449  1.4542  1.5800
 4206SOL    HW224081   1.897   2.167  17.336  0.3855  1.5844  0.2696
 4207SOL     OW24082   0.108   1.772   3.298  0.1940 -0.4527 -0.0422
 4207SOL    HW124083   0.031   1.797   3.350 -0.6772 -0.3221 -1.3815
 4207SOL    HW224084   0.117   1.845   3.237 -1.8182 -0.5497 -0.4650
 4208SOL     OW24085   3.601   2.027   0.721  0.3162 -0.1158  0.0934
 4208SOL    HW124086   3.605   2.087   0.795 -0.7581 -1.0153  0.8985
 4208SOL    HW224087   3.510   1.997   0.717  0.2299 -0.0175  1.2731
 4209SOL     OW24088   3.829   2.839   0.471  0.0745  0.1561 -0.7061
 4209SOL    HW124089   3.805   2.815   0.382  1.8155  0.2901 -1.1933
 4209SOL    HW224090   3.890   2.769   0.493  1.4333  2.1129  1.7266
 4210SOL     OW24091   2.745   1.889  12.599  0.1551 -0.2237  0.2504
 4210SOL    HW124092   2.674   1.836  12.562  1.3291 -1.3123 -0.4653
 4210SOL    HW224093   2.768   1.822  12.663  0.7591 -0.6442 -0.4122
 4211SOL     OW24094   3.394   3.284  10.332 -0.5359  0.1494  0.3063
 4211SOL    HW124095   3.453   3.359  10.333  1.5276 -1.4926  0.0192
 4211SOL    HW224096   3.342   3.290  10.412 -1.3932 -1.5614 -0.1235
 4212SOL     OW24097   4.340   1.903   6.092 -0.3698  0.5623  0.0207
 4212SOL    HW124098   4.396   1.901   6.015  0.8554 -0.9523  0.9490
 4212SOL    HW224099   4.276   1.968   6.064 -0.0175  1.9052  2.2848
 4213SOL     OW24100   2.245   1.827   4.956  0.1270 -0.0348 -0.2142
 4213SOL    HW124101   2.214   1.741   4.985  0.6256 -0.1527 -0.0304
 4213SOL    HW224102   2.339   1.809   4.955  0.8248  3.8799 -2.8376
 4214SOL     OW24103   0.551   2.660   2.984 -0.7142  0.0021  0.3646
 4214SOL    HW124104   0.526   2.677   2.893  0.9009  0.3392 -0.0209
 4214SOL    HW224105   0.471   2.662   3.036 -0.4357  3.9757  0.5806
 4215SOL     OW24106   0.588   4.518   5.942 -0.7274 -0.2013 -0.2936
 4215SOL    HW124107   0.528   4.481   5.878  0.0528 -1.0440 -0.5414
 4215SOL    HW224108   0.587   4.612   5.923  1.2134  0.2545  1.7675
 4216SOL     OW24109   4.300   4.554  17.466  0.2144 -0.0509 -0.3118
 4216SOL    HW124110   4.264   4.500  17.395 -0.2357  0.6946 -0.6549
 4216SOL    HW224111   4.250   4.527  17.543 -0.4007  0.9201 -0.3615
 4217SOL     OW24112   2.469   1.780   7.464 -0.4665  0.0191  0.6835
 4217SOL    HW124113   2.537   1.762   7.529  0.8207 -1.8732 -1.1603
 4217SOL    HW224114   2.392   1.804   7.515 -1.7552  0.0981 -1.2576
 4218SOL     OW24115   2.978   0.691  16.966  0.3154  0.0827 -0.0108
 4218SOL    HW124116   3.010   0.623  17.026  1.1161 -0.0938 -0.6313
 4218SOL    HW224117   3.045   0.758  16.977 -0.8482  1.0740  0.9948
 4219SOL     OW24118   4.316   0.598   5.444  0.0429  0.5554 -0.3991
 4219SOL    HW124119   4.307   0.508   5.476  1.3143  0.7596  0.5506
 4219SOL    HW224120   4.227   0.632   5.439  0.1348  1.1920  1.8846
 4220SOL     OW24121   2.841   4.208   5.202 -0.2160  0.1583 -0.1051
 4220SOL    HW124122   2.864   4.165   5.285 -1.8464 -0.6784 -0.0898
 4220SOL    HW224123   2.929   4.219   5.166  0.3913 -0.0877  1.2905
 4221SOL     OW24124   0.029   1.062   5.483 -0.6581  0.4000  0.3546
 4221SOL    HW124125   0.029   1.095   5.393  0.0548 -2.4875 -0.7132
 4221SOL    HW224126   0.024   1.145   5.530 -2.9370 -0.1889  1.1472
 4222SOL     OW24127   0.102   0.312   4.291  0.2277 -0.2839  0.1659
 4222SOL    HW124128   0.019   0.267   4.280  1.0204 -1.6514 -0.2381
 4222SOL    HW224129   0.168   0.243   4.280 -1.1799 -1.3701 -1.3426
 4223SOL     OW24130   3.395   1.561   6.907 -0.2443  0.1232 -0.1648
 4223SOL    HW124131   3.423   1.489   6.964 -0.4849 -0.6520 -1.0385
 4223SOL    HW224132   3.300   1.564   6.922 -0.0407  0.9908  0.9827
 4224SOL     OW24133   4.105   4.319   4.964 -0.3084  0.0136 -0.5706
 4224SOL    HW124134   4.162   4.378   5.013 -0.0733 -0.9091  0.2660
 4224SOL    HW224135   4.166   4.288   4.898  0.4711  0.1785  0.0772
 4225SOL     OW24136   4.427   2.942   7.012  0.3401  0.1330  0.5278
 4225SOL    HW124137   4.360   2.910   6.952 -1.3023  0.0615  2.4010
 4225SOL    HW224138   4.475   2.868   7.049  3.0361 -0.0342 -3.2478
 4226SOL     OW24139   3.021   3.157   5.391  0.7086  0.0290 -0.6893
 4226SOL    HW124140   2.970   3.237   5.385  1.7719  0.6270 -1.9218
 4226SOL    HW224141   2.954   3.102   5.431  0.1392  0.1425 -1.4754
 4227SOL     OW24142   1.603   3.520  16.580 -0.4030 -0.1574 -0.3107
 4227SOL    HW124143   1.521   3.513  16.630  0.3077 -1.0928  0.7299
 4227SOL    HW224144   1.634   3.430  16.565 -2.2079 -0.8708  0.1812
 4228SOL     OW24145   0.030   0.027   8.838 -0.1588 -0.3409  0.0987
 4228SOL    HW124146   4.702   4.692   8.782  0.9832 -0.7822 -0.5011
 4228SOL    HW224147   0.093   0.067   8.777 -0.8948  0.7840  0.0840
 4229SOL     OW24148   1.355   4.320   8.353  0.2445  0.6196  0.1132
 4229SOL    HW124149   1.260   4.311   8.358  0.1514  2.1795  1.3146
 4229SOL    HW224150   1.375   4.235   8.314 -0.8166 -0.0093  0.9536
 4230SOL     OW24151   4.075   2.232   8.426  0.3413 -0.1801 -0.1489
 4230SOL    HW124152   3.992   2.272   8.452  0.9381  0.8463  0.2050
 4230SOL    HW224153   4.124   2.315   8.427 -0.4606  0.2774  0.7255
 4231SOL     OW24154   1.825   3.638   1.114 -0.5758 -0.2058  0.2605
 4231SOL    HW124155   1.915   3.643   1.084 -0.2527 -0.1791  1.2441
 4231SOL    HW224156   1.833   3.638   1.209 -1.0027 -1.0411  0.3086
 4232SOL     OW24157   2.240   3.420   0.983  0.6055 -0.3262 -0.4585
 4232SOL    HW124158   2.332   3.392   0.981  0.8414  0.4163  0.1144
 4232SOL    HW224159   2.236   3.455   0.894 -1.8868  2.0347  0.6048
 4233SOL     OW24160   1.653   4.210   7.380 -0.1406  0.0434 -0.0292
 4233SOL    HW124161   1.644   4.283   7.319 -0.4948  1.1947  1.4147
 4233SOL    HW224162   1.572   4.162   7.363 -1.6221  1.4130  3.2962
 4234SOL     OW24163   4.432   3.486   1.686  0.6841  0.0731 -0.1341
 4234SOL    HW124164   4.487   3.499   1.608 -0.6373 -0.8874 -1.2269
 4234SOL    HW224165   4.354   3.443   1.651  1.3784 -0.4229 -1.0751
 4235SOL     OW24166   0.848   3.178  15.185  0.2781  0.1939 -0.3036
 4235SOL    HW124167   0.797   3.184  15.104 -1.7617 -0.2938  0.9640
 4235SOL    HW224168   0.847   3.265  15.225 -0.2050 -0.5704  1.3295
 4236SOL     OW24169   1.145   1.426   4.154  0.4399 -0.2472  0.5751
 4236SOL    HW124170   1.187   1.484   4.090 -0.1981 -2.7903 -2.1253
 4236SOL    HW224171   1.110   1.357   4.098  3.3451 -0.5546 -0.8842
 4237SOL     OW24172   0.205   4.035   2.781  0.1146 -0.2233 -0.0921
 4237SOL    HW124173   0.122   4.003   2.747  0.1072  0.4280 -0.6989
 4237SOL    HW224174   0.230   3.951   2.819 -0.6698 -1.5048 -2.4233
 4238SOL     OW24175   4.470   3.058  13.434  0.5055  0.4390 -0.3332
 4238SOL    HW124176   4.486   2.988  13.498  0.7593 -0.0723 -0.9626
 4238SOL    HW224177   4.449   3.135  13.486  0.6791  0.0157  0.3744
 4239SOL     OW24178   2.693   2.687   6.373  0.0733  0.0813 -0.4995
 4239SOL    HW124179   2.634   2.617   6.400 -1.4146  0.7562 -2.0370
 4239SOL    HW224180   2.743   2.641   6.306 -0.9932  0.0741 -1.2891
 4240SOL     OW24181   3.682   2.281   6.308 -0.3517 -0.2830  0.0740
 4240SOL    HW124182   3.696   2.236   6.391  0.1597  1.8092  1.1274
 4240SOL    HW224183   3.733   2.227   6.247  1.1542  1.9671 -0.6589
 4241SOL     OW24184   0.319   3.315   7.702 -0.0987  1.0869 -0.1432
 4241SOL    HW124185   0.320   3.405   7.736  1.4513  0.7677  0.6327
 4241SOL    HW224186   0.248   3.310   7.637 -1.5029 -0.2386  1.5054
 4242SOL     OW24187   3.912   0.123   2.086  0.4872 -0.0587  0.1461
 4242SOL    HW124188   3.898   0.189   2.153 -3.0780 -1.3029  0.6437
 4242SOL    HW224189   3.839   0.150   2.030  0.6488  0.3915  0.1541
 4243SOL     OW24190   1.529   1.932   9.069 -0.0329  0.4818 -0.3791
 4243SOL    HW124191   1.539   1.999   9.002  2.8984 -1.5387 -1.9941
 4243SOL    HW224192   1.562   1.968   9.151 -1.4805  0.7137  0.1027
 4244SOL     OW24193   0.904   2.093   3.660 -0.0517  0.5125 -0.2363
 4244SOL    HW124194   0.979   2.116   3.714 -1.0201  0.6974  1.0476
 4244SOL    HW224195   0.915   1.999   3.676  0.6123  1.1186  2.9542
 4245SOL     OW24196   1.831   3.693   4.860  0.3822 -0.2735 -0.8872
 4245SOL    HW124197   1.885   3.761   4.821  2.1628 -1.4127 -0.3848
 4245SOL    HW224198   1.904   3.632   4.869  0.9432  0.4796 -0.3408
 4246SOL     OW24199   3.214   0.632   8.107  0.0713 -0.1082  0.6024
 4246SOL    HW124200   3.152   0.701   8.128  1.7998  1.3593  0.8818
 4246SOL    HW224201   3.167   0.549   8.114  1.7268 -1.1070 -0.1262
 4247SOL     OW24202   0.017   1.670   7.705 -0.0243 -0.3127  0.0586
 4247SOL    HW124203   4.672   1.693   7.642  1.5587  1.7877 -0.8795
 4247SOL    HW224204   0.064   1.753   7.702  0.4471 -0.5934 -0.4863
 4248SOL     OW24205   3.951   1.108  15.547 -0.1838  0.4963  0.7659
 4248SOL    HW124206   3.897   1.082  15.622 -0.8771 -1.9295 -0.5850
 4248SOL    HW224207   3.896   1.168  15.498  0.8473  2.5622  2.1387
 4249SOL     OW24208   4.407   1.100   8.162  0.2614 -0.4915 -0.3887
 4249SOL    HW124209   4.354   1.175   8.137  1.1269  0.1783 -0.2323
 4249SOL    HW224210   4.396   1.051   8.081  0.7752 -1.3820  0.0787
 4250SOL     OW24211   2.040   1.959   0.259 -0.5630  0.0472  0.8192
 4250SOL    HW124212   2.093   1.924   0.187  0.5492  1.8883  0.7420
 4250SOL    HW224213   1.990   2.026   0.214  2.2818  1.1889 -0.6487
 4251SOL     OW24214   2.899   1.043   6.552 -0.3217  0.6688 -0.2635
 4251SOL    HW124215   2.935   0.973   6.606 -1.1713  1.0053  0.7408
 4251SOL    HW224216   2.830   0.999   6.502  0.8056  0.3656 -1.5504
 4252SOL     OW24217   2.847   3.432   8.357  0.0498 -0.8085  0.2221
 4252SOL    HW124218   2.763   3.397   8.386 -0.3224 -0.2782 -0.2168
 4252SOL    HW224219   2.896   3.351   8.369  2.2798  0.2534 -1.5595
 4253SOL     OW24220   2.017   0.184   7.989  0.3463 -0.3340 -0.4529
 4253SOL    HW124221   1.988   0.229   7.910 -1.8454  2.5705  2.0493
 4253SOL    HW224222   1.967   0.231   8.055  2.2647  1.2570 -0.1591
 4254SOL     OW24223   2.042   3.020   6.792 -0.5117 -0.3976  0.1339
 4254SOL    HW124224   2.053   3.017   6.697 -3.7968  0.3399 -0.2743
 4254SOL    HW224225   2.112   3.082   6.812 -0.9378  0.7683 -1.9361
 4255SOL     OW24226   3.391   3.520  12.223 -0.0897 -0.0489 -0.0070
 4255SOL    HW124227   3.339   3.470  12.160 -0.1245  1.9882 -1.6255
 4255SOL    HW224228   3.326   3.584  12.250  0.1948 -0.3075  1.2585
 4256SOL     OW24229   4.570   4.207  16.156 -0.1977 -0.4400 -0.9663
 4256SOL    HW124230   4.513   4.159  16.095  1.3341 -0.8749 -2.0416
 4256SOL    HW224231   4.655   4.177  16.123  0.0286  0.9124 -1.6013
 4257SOL     OW24232   0.388   3.459  13.959  0.2591 -0.0226 -0.4330
 4257SOL    HW124233   0.438   3.539  13.946  0.1163  0.3641  1.4244
 4257SOL    HW224234   0.354   3.489  14.043 -1.1887  1.3670 -1.5012
 4258SOL     OW24235   1.366   0.332   6.724  0.5516  0.0091 -0.0259
 4258SOL    HW124236   1.398   0.347   6.635 -0.3878 -1.0166 -0.5465
 4258SOL    HW224237   1.337   0.421   6.742 -2.9540 -0.5689 -2.7988
 4259SOL     OW24238   2.856   1.829   9.541  0.3172 -0.1456 -0.5032
 4259SOL    HW124239   2.774   1.785   9.564  1.3034 -0.4981  2.3574
 4259SOL    HW224240   2.872   1.877   9.623 -0.4179  0.9986 -1.0335
 4260SOL     OW24241   2.631   1.141   8.549  0.3066 -0.1101 -0.2781
 4260SOL    HW124242   2.696   1.153   8.618  1.4063  0.6236 -1.4432
 4260SOL    HW224243   2.620   1.233   8.523 -2.1930 -0.4790 -0.5606
 4261SOL     OW24244   4.244   1.583   1.894  0.5963 -0.5486 -0.0481
 4261SOL    HW124245   4.331   1.551   1.873  1.3376  1.8874 -0.7501
 4261SOL    HW224246   4.268   1.623   1.978 -3.1629  1.1146  0.2464
 4262SOL     OW24247   1.783   3.430  12.436  0.0749  0.0276 -0.7385
 4262SOL    HW124248   1.866   3.472  12.457  0.3638 -0.8309 -0.1636
 4262SOL    HW224249   1.797   3.350  12.385 -1.5035 -0.9106  0.3006
 4263SOL     OW24250   2.796   3.698  17.642 -0.4186 -0.1087  0.0950
 4263SOL    HW124251   2.790   3.792  17.659  1.7605  0.1286 -0.4655
 4263SOL    HW224252   2.771   3.707  17.550 -1.1017 -0.2338  0.2684
 4264SOL     OW24253   0.702   2.420   5.030  0.3208  0.4096 -0.5517
 4264SOL    HW124254   0.773   2.366   4.996 -0.7567  0.0302 -2.2203
 4264SOL    HW224255   0.756   2.467   5.093  0.2993  2.0977 -1.7804
 4265SOL     OW24256   1.352   1.792   8.714  0.2670 -0.1298 -0.3763
 4265SOL    HW124257   1.384   1.764   8.800  0.9251  1.4499 -0.1037
 4265SOL    HW224258   1.370   1.886   8.724 -1.0862 -0.0658  1.5438
 4266SOL     OW24259   3.511   3.794  13.936 -0.3290  0.2694  0.3041
 4266SOL    HW124260   3.559   3.716  13.905 -0.7402  0.0934  0.1143
 4266SOL    HW224261   3.458   3.748  14.000 -0.9417 -0.9757 -1.1126
 4267SOL     OW24262   0.899   1.836   7.803 -0.1278  0.1624  0.2511
 4267SOL    HW124263   0.982   1.791   7.786  0.4200  0.2594  2.6671
 4267SOL    HW224264   0.893   1.806   7.894  0.5624  3.5767  1.4115
 4268SOL     OW24265   3.129   2.815   2.576  0.1500 -0.3444 -0.1117
 4268SOL    HW124266   3.042   2.779   2.562  0.3596 -0.5120 -0.9906
 4268SOL    HW224267   3.148   2.835   2.484 -1.1040 -0.0807 -0.3043
 4269SOL     OW24268   1.224   3.352  11.440  0.4477 -0.1619  0.0156
 4269SOL    HW124269   1.167   3.428  11.434 -0.1143 -0.4669  1.6354
 4269SOL    HW224270   1.302   3.397  11.473  0.9026 -0.8646 -0.0887
 4270SOL     OW24271   1.687   1.699   0.076  0.0314  0.2441 -0.9499
 4270SOL    HW124272   1.690   1.766   0.007  1.8497  0.4973 -0.6109
 4270SOL    HW224273   1.740   1.746   0.140  0.3896  0.4063 -1.3644
 4271SOL     OW24274   3.449   2.918   1.775  0.1420 -0.0239 -0.4248
 4271SOL    HW124275   3.355   2.898   1.765  0.1380  0.9864 -2.2685
 4271SOL    HW224276   3.456   2.902   1.870 -2.1063 -0.4858 -0.3370
 4272SOL     OW24277   1.636   2.340  14.213 -0.2238  0.4563 -0.2868
 4272SOL    HW124278   1.644   2.253  14.175 -0.9020 -0.9567  2.8368
 4272SOL    HW224279   1.684   2.394  14.150  1.4242 -0.6484  0.0512
 4273SOL     OW24280   1.265   1.414   2.350  0.0404  0.3846  0.3043
 4273SOL    HW124281   1.244   1.356   2.277  0.4480 -0.8504  1.1644
 4273SOL    HW224282   1.340   1.377   2.396  0.3057 -0.6657 -0.9665
 4274SOL     OW24283   3.692   3.043   6.123 -0.0737  0.7302 -0.3260
 4274SOL    HW124284   3.632   2.983   6.079  0.8550 -0.1256 -0.4156
 4274SOL    HW224285   3.770   3.036   6.069  0.1936 -0.7146  0.2533
 4275SOL     OW24286   1.293   4.303   6.479 -0.2677  0.7071 -0.0314
 4275SOL    HW124287   1.247   4.255   6.547 -0.7178  1.5115  0.2308
 4275SOL    HW224288   1.381   4.308   6.515 -1.0443  0.5278  1.8931
 4276SOL     OW24289   0.240   4.207   2.100  0.1717 -0.4293 -0.5259
 4276SOL    HW124290   0.289   4.162   2.031  2.1291  0.8484  0.0375
 4276SOL    HW224291   0.307   4.209   2.168 -0.9344 -1.6573  0.6212
 4277SOL     OW24292   1.254   0.701  14.910 -0.3107  0.2819  0.3963
 4277SOL    HW124293   1.286   0.627  14.859 -2.0915 -0.2114  0.0021
 4277SOL    HW224294   1.256   0.663  14.998 -1.6417 -3.1010 -1.0288
 4278SOL     OW24295   1.122   0.220   4.183 -0.7051  0.1518  0.3087
 4278SOL    HW124296   1.093   0.167   4.258  0.8031 -1.8721 -0.5262
 4278SOL    HW224297   1.189   0.160   4.150 -0.5477 -0.1443  1.1533
 4279SOL     OW24298   0.091   3.503   4.319 -0.2399  0.4139 -0.1457
 4279SOL    HW124299   0.047   3.527   4.237 -0.5588 -1.5937 -0.5664
 4279SOL    HW224300   0.161   3.564   4.341 -0.1045  0.0624  0.4200
 4280SOL     OW24301   2.113   0.577   1.527 -0.5647 -0.1782 -0.6846
 4280SOL    HW124302   2.193   0.599   1.480  0.0555 -0.5899  0.1811
 4280SOL    HW224303   2.118   0.616   1.614  1.2990  1.3565 -1.4912
 4281SOL     OW24304   2.768   1.212  12.571 -0.3522  0.0884  0.1728
 4281SOL    HW124305   2.743   1.303  12.586  0.4446  0.3969 -0.3692
 4281SOL    HW224306   2.836   1.195  12.636  0.7263  1.9782 -0.4646
 4282SOL     OW24307   2.125   2.217   3.125 -0.3729  0.2703 -0.5029
 4282SOL    HW124308   2.171   2.150   3.075  0.6534  2.0042 -1.8767
 4282SOL    HW224309   2.079   2.164   3.190  1.4624 -1.9451 -1.0403
 4283SOL     OW24310   4.291   2.578  14.725  0.2190 -0.8961  0.1881
 4283SOL    HW124311   4.373   2.626  14.725 -0.4375  0.2217 -2.2284
 4283SOL    HW224312   4.316   2.512  14.660  0.3094 -3.3099  2.6738
 4284SOL     OW24313   1.077   1.731   9.929 -0.1787 -0.1351 -0.1993
 4284SOL    HW124314   1.028   1.812   9.944  1.0593  0.9205 -1.8842
 4284SOL    HW224315   1.065   1.708   9.837  0.6225  0.6339 -0.4995
 4285SOL     OW24316   3.063   0.043  17.239 -0.4506  0.0295  0.2818
 4285SOL    HW124317   3.023   0.110  17.184  0.1876  0.4285  0.3106
 4285SOL    HW224318   3.096   4.707  17.172  0.1449 -0.2277  0.7963
 4286SOL     OW24319   3.001   3.421   7.738  0.3700  0.0735  0.0921
 4286SOL    HW124320   2.933   3.484   7.762  2.2936  1.2832  2.3106
 4286SOL    HW224321   3.078   3.477   7.739  1.2988 -1.2367  2.0287
 4287SOL     OW24322   2.700   3.377   0.167 -0.3841  0.4757 -0.7698
 4287SOL    HW124323   2.631   3.433   0.202  0.4106  2.5804 -2.5023
 4287SOL    HW224324   2.765   3.399   0.234 -0.5945 -0.4671 -0.2691
 4288SOL     OW24325   0.896   0.518   6.530 -0.1100  0.1569 -0.1362
 4288SOL    HW124326   0.952   0.505   6.453  0.5057 -2.6925  0.8092
 4288SOL    HW224327   0.835   0.579   6.489 -0.4096  1.6534  2.5556
 4289SOL     OW24328   3.112   0.707   7.212  0.3593 -0.4991  0.2635
 4289SOL    HW124329   3.081   0.755   7.289  2.0367 -0.1789  0.7309
 4289SOL    HW224330   3.037   0.717   7.153  3.0614 -1.2297 -3.3386
 4290SOL     OW24331   3.548   4.710  14.085  0.2443 -0.8337 -0.0327
 4290SOL    HW124332   3.566   4.661  14.165  0.1329 -1.3342 -0.3140
 4290SOL    HW224333   3.574   0.075  14.112 -1.9377  0.5364 -2.4894
 4291SOL     OW24334   0.474   3.348   6.342 -0.1012 -0.6501  0.6314
 4291SOL    HW124335   0.411   3.358   6.414 -0.0999 -0.1871  0.5663
 4291SOL    HW224336   0.512   3.264   6.370 -1.6954 -1.0934  1.5076
 4292SOL     OW24337   1.192   4.683  15.051  0.6584 -0.1288  0.0491
 4292SOL    HW124338   1.234   4.697  14.966  0.0516  2.7357  0.2179
 4292SOL    HW224339   1.103   4.718  15.050  1.2874  1.4190 -0.1985
 4293SOL     OW24340   2.626   0.081   0.437 -0.5854  0.0253  0.3396
 4293SOL    HW124341   2.671   4.720   0.443 -1.0250 -0.1544  0.9484
 4293SOL    HW224342   2.535   0.052   0.437 -0.4842 -0.3017 -1.7687
 4294SOL     OW24343   0.642   3.649   7.841  0.5212 -0.1538 -0.5487
 4294SOL    HW124344   0.720   3.687   7.801  0.6679 -0.4494 -0.5467
 4294SOL    HW224345   0.653   3.565   7.797  0.2011 -1.5186  2.0183
 4295SOL     OW24346   0.135   3.423   9.270  0.2143  0.3747  0.2966
 4295SOL    HW124347   0.060   3.447   9.215 -0.6241  0.8875  1.6401
 4295SOL    HW224348   0.089   3.435   9.354 -0.6704  0.6917 -0.2322
 4296SOL     OW24349   3.419   0.518  16.647  0.2256  0.0981 -0.7123
 4296SOL    HW124350   3.365   0.568  16.708 -1.5203 -1.8869 -0.6318
 4296SOL    HW224351   3.487   0.585  16.636 -0.0437  0.5385  0.3686
 4297SOL     OW24352   4.534   3.609   1.444  0.9928  0.1938 -0.0319
 4297SOL    HW124353   4.460   3.657   1.407  2.1614  1.4158 -0.7653
 4297SOL    HW224354   4.613   3.650   1.409  1.5303  0.1538  1.1000
 4298SOL     OW24355   0.358   3.472   7.278 -0.3884 -0.1891 -0.3168
 4298SOL    HW124356   0.397   3.443   7.195 -0.6645 -1.1428 -0.1060
 4298SOL    HW224357   0.394   3.561   7.279 -3.1334  0.9262 -2.1481
 4299SOL     OW24358   1.028   4.641  11.550 -0.3733  0.3081  0.6670
 4299SOL    HW124359   1.042   4.551  11.523  0.3530  0.4532  0.5748
 4299SOL    HW224360   0.996   4.684  11.471 -0.3934 -0.5879  0.1967
 4300SOL     OW24361   1.946   1.860   7.313  0.3447 -0.1835  0.4058
 4300SOL    HW124362   1.968   1.943   7.356  2.5432 -0.0678 -0.9184
 4300SOL    HW224363   1.986   1.798   7.373 -1.5387 -0.1161  1.7298
 4301SOL     OW24364   2.303   3.109   4.372 -0.4791  0.2903  0.0023
 4301SOL    HW124365   2.295   3.140   4.462 -1.8255 -0.3880  0.1222
 4301SOL    HW224366   2.366   3.171   4.337  0.7961 -0.3032  1.2742
 4302SOL     OW24367   1.553   1.274   6.765  0.9035  0.0875 -0.1040
 4302SOL    HW124368   1.475   1.307   6.720  1.7637  1.8087 -0.3356
 4302SOL    HW224369   1.591   1.353   6.802 -2.1377  1.6053 -0.1828
 4303SOL     OW24370   3.379   2.648   7.694 -0.0151 -0.7033 -0.2327
 4303SOL    HW124371   3.342   2.641   7.782 -0.5937 -2.0704 -0.5937
 4303SOL    HW224372   3.413   2.738   7.697 -2.8263  0.2915  1.1099
 4304SOL     OW24373   0.458   2.743   9.243  0.5106 -0.6019 -0.2207
 4304SOL    HW124374   0.396   2.814   9.223 -0.3153 -0.8911  1.3006
 4304SOL    HW224375   0.543   2.777   9.214 -0.6758  1.2181 -1.5756
 4305SOL     OW24376   3.230   3.813   9.227  0.3039 -0.1178  0.3247
 4305SOL    HW124377   3.164   3.843   9.165 -0.0859  0.2885  0.9314
 4305SOL    HW224378   3.288   3.754   9.180  1.9007 -0.8046  3.1225
 4306SOL     OW24379   4.489   4.534   3.134 -0.2673 -0.2705  0.4141
 4306SOL    HW124380   4.532   4.541   3.049 -0.0858  1.7387  0.6732
 4306SOL    HW224381   4.395   4.538   3.114 -0.4039 -0.2304  1.0513
 4307SOL     OW24382   4.037   1.570   4.332 -0.3595 -0.0050 -0.4924
 4307SOL    HW124383   4.059   1.633   4.263 -0.6999 -0.6154 -1.1550
 4307SOL    HW224384   4.065   1.621   4.407  0.2660 -1.1112  0.0317
 4308SOL     OW24385   2.790   4.358   3.572  0.4853 -0.0772  0.1009
 4308SOL    HW124386   2.800   4.333   3.480 -0.5168  1.1487 -0.3477
 4308SOL    HW224387   2.753   4.447   3.566 -1.9920 -1.1111 -0.1182
 4309SOL     OW24388   0.561   3.235  12.129  0.4401  0.2959  0.0936
 4309SOL    HW124389   0.654   3.248  12.146  0.2758 -0.3334  1.4294
 4309SOL    HW224390   0.519   3.238  12.215 -0.8740 -0.5004 -0.5194
 4310SOL     OW24391   2.980   2.461   5.935  0.3146  0.1471  0.1955
 4310SOL    HW124392   2.943   2.545   5.959 -0.7440  0.1096 -1.2967
 4310SOL    HW224393   3.072   2.471   5.960 -0.7404  0.6370  3.8330
 4311SOL     OW24394   3.642   3.521   7.374 -0.2337 -0.2150  0.1930
 4311SOL    HW124395   3.590   3.514   7.454 -1.9365  0.5676 -0.8573
 4311SOL    HW224396   3.573   3.514   7.309 -0.5927  1.9819  0.3447
 4312SOL     OW24397   2.567   3.805   0.410 -0.1824 -0.1083 -0.9863
 4312SOL    HW124398   2.609   3.849   0.485  0.1534  0.4418 -1.5002
 4312SOL    HW224399   2.631   3.809   0.339  0.0122 -0.2239 -0.8190
 4313SOL     OW24400   4.554   3.937   3.617 -0.6686 -0.2254  0.8278
 4313SOL    HW124401   4.530   3.882   3.691  2.2537 -2.3986  0.1244
 4313SOL    HW224402   4.524   4.023   3.648 -0.7390  0.4257 -0.9985
 4314SOL     OW24403   0.626   4.694   3.100  0.1468  0.3015 -0.3084
 4314SOL    HW124404   0.600   0.023   3.176 -2.3101  0.1939 -1.0515
 4314SOL    HW224405   0.648   4.609   3.139  0.4393  0.3610 -0.3439
 4315SOL     OW24406   2.143   4.388   6.354  0.1026  0.5795 -0.4116
 4315SOL    HW124407   2.129   4.476   6.389  0.2015  0.6142 -0.4599
 4315SOL    HW224408   2.083   4.384   6.279  0.3687  0.3312 -0.6104
 4316SOL     OW24409   3.689   2.321   5.968 -0.4578  0.1224  0.0797
 4316SOL    HW124410   3.702   2.371   5.888  0.3377 -1.5185 -0.8245
 4316SOL    HW224411   3.638   2.383   6.020  0.6062 -0.9180  2.3568
 4317SOL     OW24412   1.708   2.133   5.956 -0.2285  0.4128  0.4595
 4317SOL    HW124413   1.670   2.220   5.970  0.6004  0.7210  0.7787
 4317SOL    HW224414   1.748   2.143   5.869  0.1472 -1.0549  0.4709
 4318SOL     OW24415   0.323   0.447   7.863  0.0987  0.1442 -0.1264
 4318SOL    HW124416   0.387   0.473   7.930 -1.3389  3.2027  0.0362
 4318SOL    HW224417   0.333   0.352   7.870  0.6418  0.1007 -1.4666
 4319SOL     OW24418   2.522   4.059   1.796 -0.4603  0.6144  0.1770
 4319SOL    HW124419   2.557   3.973   1.817  0.4477  1.1506  0.8609
 4319SOL    HW224420   2.430   4.034   1.797  0.3645 -2.4838 -2.1207
 4320SOL     OW24421   4.056   0.916   4.101  0.0751  0.2140  0.2668
 4320SOL    HW124422   4.066   0.894   4.194 -3.1461  0.9392  0.7855
 4320SOL    HW224423   4.132   0.970   4.079  1.2890 -1.5091  0.1996
 4321SOL     OW24424   0.673   2.370  14.720 -0.4235  0.6234  0.5053
 4321SOL    HW124425   0.698   2.345  14.809 -0.8803 -1.0927  0.1592
 4321SOL    HW224426   0.739   2.435  14.696  0.1195 -1.0093 -2.4831
 4322SOL     OW24427   1.617   1.536   1.254 -0.0281  0.2139  0.4693
 4322SOL    HW124428   1.703   1.579   1.255 -1.1915  2.5673  1.6355
 4322SOL    HW224429   1.555   1.608   1.266  0.5188  0.5519  1.3608
 4323SOL     OW24430   1.619   1.960   5.538 -0.4399 -0.4201 -0.0593
 4323SOL    HW124431   1.638   1.901   5.610  1.5754 -1.6312 -1.5939
 4323SOL    HW224432   1.567   1.896   5.488  0.3057 -1.5373  0.6109
 4324SOL     OW24433   3.641   1.922   5.613 -0.0180  0.7006 -0.3497
 4324SOL    HW124434   3.614   1.842   5.657 -0.9927  0.5900 -1.1514
 4324SOL    HW224435   3.599   1.995   5.659 -1.8527 -0.9888  0.6010
 4325SOL     OW24436   3.388   0.662   7.904  0.3972 -0.2099 -0.5943
 4325SOL    HW124437   3.324   0.663   7.975 -1.1274 -0.6649 -1.9634
 4325SOL    HW224438   3.397   0.569   7.884 -2.5735 -0.9554  1.5122
 4326SOL     OW24439   3.391   3.854   4.623  0.1250 -0.2482  0.3689
 4326SOL    HW124440   3.346   3.893   4.698  4.7317  1.2800  2.2793
 4326SOL    HW224441   3.380   3.918   4.553 -0.6558 -2.4329 -1.5257
 4327SOL     OW24442   3.148   1.454  15.288 -0.4764  0.4647  0.2643
 4327SOL    HW124443   3.177   1.413  15.369  0.5779 -0.2508 -0.4780
 4327SOL    HW224444   3.109   1.379  15.245 -0.1269 -0.0904  0.9117
 4328SOL     OW24445   1.203   2.258  15.173  0.3778 -0.2364  0.4855
 4328SOL    HW124446   1.137   2.326  15.168  1.5839  0.9918  1.3278
 4328SOL    HW224447   1.200   2.238  15.079 -1.2799  0.3342  0.4145
 4329SOL     OW24448   4.662   0.201   9.396  0.0204 -0.2129 -0.3926
 4329SOL    HW124449   4.723   0.263   9.436  1.0227 -0.7079 -1.1653
 4329SOL    HW224450   4.665   0.234   9.306 -0.2871 -1.0523 -0.7020
 4330SOL     OW24451   4.588   4.272   7.501  0.1422  0.2216  0.2332
 4330SOL    HW124452   4.614   4.277   7.593 -0.3096 -0.7507  0.4064
 4330SOL    HW224453   4.654   4.329   7.460  1.0594 -0.9724  0.0428
 4331SOL     OW24454   3.636   1.926  16.792  0.1272 -0.2638 -0.2070
 4331SOL    HW124455   3.562   1.878  16.828  0.5295 -0.5747  0.2059
 4331SOL    HW224456   3.669   1.859  16.733  0.0865 -0.4073 -0.0663
 4332SOL     OW24457   0.835   0.971   6.070  0.3207  0.3757 -0.3016
 4332SOL    HW124458   0.810   1.031   6.000  1.8898  0.9043 -0.4228
 4332SOL    HW224459   0.769   0.990   6.137 -0.1467  1.5769 -1.1153
 4333SOL     OW24460   4.695   2.876   4.996  0.5518  0.0672 -0.5634
 4333SOL    HW124461   0.057   2.857   5.036  0.4321  1.1441  0.1923
 4333SOL    HW224462   4.644   2.804   5.032  0.4328 -0.0036 -0.8722
 4334SOL     OW24463   0.863   2.762   2.331 -0.7351  0.4387  0.3449
 4334SOL    HW124464   0.857   2.856   2.314  1.1139  0.4389 -0.2738
 4334SOL    HW224465   0.781   2.724   2.299 -1.4872  0.6872  1.9972
 4335SOL     OW24466   4.391   1.723   6.855 -0.0685 -0.3381 -0.0623
 4335SOL    HW124467   4.343   1.784   6.911  0.9774  1.5861 -1.2761
 4335SOL    HW224468   4.477   1.718   6.897 -0.1845 -0.3865  0.1732
 4336SOL     OW24469   2.560   2.651  17.070  0.3601  0.4662 -0.4339
 4336SOL    HW124470   2.480   2.655  17.018 -0.2595  1.3291  0.5922
 4336SOL    HW224471   2.571   2.556  17.074 -1.2805  0.2236 -1.6053
 4337SOL     OW24472   0.537   0.373   4.779 -0.5689 -0.2794 -0.3469
 4337SOL    HW124473   0.445   0.396   4.794  0.3029  1.4693  2.4187
 4337SOL    HW224474   0.541   0.279   4.796 -0.8276 -0.6654 -2.3911
 4338SOL     OW24475   3.097   2.392   0.116 -0.2533 -0.5984 -0.1476
 4338SOL    HW124476   3.071   2.305   0.145 -0.6303  0.3700  2.3845
 4338SOL    HW224477   3.142   2.363   0.037  1.1071 -1.2044  0.8569
 4339SOL     OW24478   3.305   1.935  13.379  0.0448  0.1653 -0.3908
 4339SOL    HW124479   3.388   1.975  13.406 -0.3184 -1.9192  3.6680
 4339SOL    HW224480   3.327   1.842  13.380 -0.9739 -0.0772 -0.7293
 4340SOL     OW24481   0.853   1.880   4.608 -0.3233 -0.3477  0.0391
 4340SOL    HW124482   0.848   1.849   4.698  0.3160 -2.0147 -0.4998
 4340SOL    HW224483   0.869   1.794   4.570 -2.0125 -0.1517 -1.1400
 4341SOL     OW24484   2.368   3.915   6.085 -0.5097 -0.1357 -0.0917
 4341SOL    HW124485   2.393   3.970   6.010  0.0966  0.7479  0.7490
 4341SOL    HW224486   2.322   3.976   6.142 -0.4868 -0.1103 -0.1002
 4342SOL     OW24487   4.463   2.927   2.643 -0.0833  0.0710  0.6441
 4342SOL    HW124488   4.478   2.982   2.720  0.1057  0.2089  0.5075
 4342SOL    HW224489   4.545   2.878   2.633 -0.1203 -0.1860  1.5411
 4343SOL     OW24490   3.337   0.031   8.500 -0.0616  0.3819 -0.6090
 4343SOL    HW124491   3.406   0.074   8.550  2.5963 -1.7882 -2.4078
 4343SOL    HW224492   3.335   4.668   8.540 -1.2538  0.5133 -0.3957
 4344SOL     OW24493   3.833   1.713  14.987 -0.1326  0.0528  0.0652
 4344SOL    HW124494   3.834   1.741  14.896 -0.7492  1.9547  0.6491
 4344SOL    HW224495   3.850   1.799  15.025  0.1960  0.6228 -1.3696
 4345SOL     OW24496   3.209   2.663   3.423 -0.2172 -0.2290  0.4139
 4345SOL    HW124497   3.265   2.723   3.473  0.5128 -0.5167 -0.0517
 4345SOL    HW224498   3.160   2.606   3.482  0.9538 -0.7239  0.9229
 4346SOL     OW24499   2.238   2.360   3.856 -0.3395  0.0538  0.8490
 4346SOL    HW124500   2.331   2.357   3.837 -0.5746 -0.2536 -0.2883
 4346SOL    HW224501   2.202   2.295   3.796  0.4141 -0.7741  1.3030
 4347SOL     OW24502   4.618   0.605  13.170  0.4593  0.6125 -0.2351
 4347SOL    HW124503   4.688   0.549  13.201  0.7910  1.3832  0.3915
 4347SOL    HW224504   4.651   0.649  13.091  2.4428 -0.0268  0.2514
 4348SOL     OW24505   1.152   0.801   7.578 -0.5328 -0.2667  0.4119
 4348SOL    HW124506   1.150   0.845   7.663 -1.3774  0.4012  0.0450
 4348SOL    HW224507   1.071   0.751   7.585 -1.7003  1.5910  0.1577
 4349SOL     OW24508   4.466   0.064   4.914  0.4840 -0.8218  0.2085
 4349SOL    HW124509   4.425   0.029   4.834  2.8682  0.3806 -1.5635
 4349SOL    HW224510   4.459   0.159   4.904 -0.2190 -0.8045  0.9607
 4350SOL     OW24511   2.228   3.977   4.423 -0.0813 -0.1060  0.1884
 4350SOL    HW124512   2.202   3.912   4.488 -1.8424  0.1626 -0.2619
 4350SOL    HW224513   2.306   3.934   4.388 -0.1096  1.1737 -1.4496
 4351SOL     OW24514   0.086   0.162   3.536  0.2157  0.3262 -0.4629
 4351SOL    HW124515   0.037   0.129   3.612  1.2249 -1.6634 -0.6849
 4351SOL    HW224516   0.128   0.080   3.508  1.2207  0.7853 -0.2957
 4352SOL     OW24517   0.301   4.122   6.431  0.1900  0.0651 -0.0908
 4352SOL    HW124518   0.284   4.067   6.355 -0.6510 -0.9859  0.8590
 4352SOL    HW224519   0.396   4.117   6.423  0.2243  0.9307 -0.1895
 4353SOL     OW24520   1.751   2.977   8.891  0.2319  0.5956  0.1512
 4353SOL    HW124521   1.843   2.956   8.874 -0.2750 -1.0405 -0.5975
 4353SOL    HW224522   1.736   2.994   8.798  2.2422  2.1641  0.1320
 4354SOL     OW24523   0.102   0.592   0.356 -0.3014 -0.0858  0.2592
 4354SOL    HW124524   0.171   0.659   0.360 -0.0618 -0.4090  1.9131
 4354SOL    HW224525   0.049   0.622   0.430 -1.0689 -0.7410 -0.0287
 4355SOL     OW24526   0.189   2.092  17.405  0.2140  0.5635  0.2969
 4355SOL    HW124527   0.234   2.013  17.437  1.4172  0.0803 -2.5625
 4355SOL    HW224528   0.132   2.105  17.481 -0.2665 -1.1023  0.2287
 4356SOL     OW24529   2.432   1.273   9.653 -0.3485 -0.3523  0.3658
 4356SOL    HW124530   2.407   1.207   9.588  2.4078 -1.0503  0.0536
 4356SOL    HW224531   2.507   1.240   9.701 -0.3065  0.8847  1.1690
 4357SOL     OW24532   2.943   0.913   2.733 -0.0668 -0.1382 -0.1962
 4357SOL    HW124533   2.909   0.825   2.750 -2.7566  1.3515  2.1639
 4357SOL    HW224534   2.948   0.941   2.824  0.1511 -0.6098 -0.0655
 4358SOL     OW24535   4.327   1.863  11.846  0.0257 -0.0127 -0.7538
 4358SOL    HW124536   4.367   1.821  11.922 -0.2485 -0.1085 -0.6588
 4358SOL    HW224537   4.240   1.821  11.846  0.5743 -1.1606 -1.9116
 4359SOL     OW24538   1.011   4.584   2.731 -0.2324 -0.4973  0.0814
 4359SOL    HW124539   1.061   4.504   2.713 -1.0414 -0.7510 -1.0396
 4359SOL    HW224540   1.036   4.589   2.823  1.9072  2.2058 -0.6521
 4360SOL     OW24541   2.231   1.344  17.587 -0.2783  0.9728  0.1232
 4360SOL    HW124542   2.310   1.290  17.579 -0.9469 -0.2561  1.8133
 4360SOL    HW224543   2.259   1.424  17.630 -0.4178  1.1008 -0.0244
 4361SOL     OW24544   1.338   1.044  14.851  0.1766 -0.1784  0.0883
 4361SOL    HW124545   1.381   1.056  14.766 -1.4453  0.5395 -0.6209
 4361SOL    HW224546   1.323   1.134  14.878 -1.1424 -0.4691  0.3121
 4362SOL     OW24547   3.369   0.326   2.421  0.0099 -0.2955 -0.1554
 4362SOL    HW124548   3.352   0.284   2.505  0.0183  0.0004 -0.0064
 4362SOL    HW224549   3.279   0.334   2.391 -1.0815  1.1426  3.4120
 4363SOL     OW24550   2.947   1.801   7.623 -0.0540 -0.1459 -0.0123
 4363SOL    HW124551   3.025   1.769   7.669 -0.4720 -1.1848 -0.0132
 4363SOL    HW224552   2.988   1.834   7.544 -0.4924 -0.5134 -0.3943
 4364SOL     OW24553   0.805   1.911   9.067  0.2657  0.3886 -0.3503
 4364SOL    HW124554   0.840   1.842   9.123 -2.2121  1.1889  2.2317
 4364SOL    HW224555   0.734   1.951   9.118  0.2201 -2.7668  2.0456
 4365SOL     OW24556   2.648   2.812   6.786 -0.5551 -0.3183  0.0752
 4365SOL    HW124557   2.651   2.804   6.881 -0.1858 -0.1740  0.0783
 4365SOL    HW224558   2.739   2.843   6.778 -1.0136  0.2569 -2.7153
 4366SOL     OW24559   3.715   0.872  13.418  0.0337 -0.1712 -0.2283
 4366SOL    HW124560   3.650   0.861  13.348 -2.9798  1.7925  2.2573
 4366SOL    HW224561   3.678   0.811  13.482  2.2916 -0.8234  0.4425
 4367SOL     OW24562   0.212   0.126   6.345  0.4218  0.5839 -0.1998
 4367SOL    HW124563   0.140   0.162   6.397 -0.3500  0.9141 -1.4857
 4367SOL    HW224564   0.280   0.099   6.407  1.1730 -0.0316 -1.2834
 4368SOL     OW24565   1.128   3.741   0.989  0.1474  0.6001  0.0477
 4368SOL    HW124566   1.126   3.708   1.079 -0.6079  1.0753  0.2030
 4368SOL    HW224567   1.132   3.666   0.930 -1.2556  1.7709 -1.5463
 4369SOL     OW24568   2.811   4.655   9.268  0.3381  0.7149 -0.1867
 4369SOL    HW124569   2.817   0.013   9.217  1.2248  0.6865 -0.1210
 4369SOL    HW224570   2.898   4.623   9.247 -0.5413 -1.8073  0.0608
 4370SOL     OW24571   4.230   4.514  12.946 -0.2552  0.2991  0.1200
 4370SOL    HW124572   4.312   4.508  12.995  0.4707  0.5480 -1.0503
 4370SOL    HW224573   4.247   4.465  12.866 -2.1450  0.5863 -0.4652
 4371SOL     OW24574   4.652   2.819   4.402  0.5471  0.0272  0.1097
 4371SOL    HW124575   4.594   2.745   4.420  0.9623 -0.8640 -2.1620
 4371SOL    HW224576   4.721   2.776   4.351 -1.3771 -2.7927 -0.1471
 4372SOL     OW24577   2.783   3.394   1.080  0.7452 -0.0422  0.3699
 4372SOL    HW124578   2.810   3.379   0.990  1.1512  0.5100  0.4034
 4372SOL    HW224579   2.689   3.399   1.063  0.7580  1.2259  0.6706
 4373SOL     OW24580   2.349   0.669  10.954  0.0684 -0.4128  0.6413
 4373SOL    HW124581   2.314   0.725  10.884 -0.8617 -0.6344  0.9318
 4373SOL    HW224582   2.313   0.697  11.038 -1.5071  0.8340 -0.4469
 4374SOL     OW24583   4.087   3.367  14.758  0.0318 -0.4071  0.5728
 4374SOL    HW124584   4.177   3.399  14.754 -0.9718  2.6828  2.0778
 4374SOL    HW224585   4.110   3.274  14.760  1.4579 -0.0381  0.7274
 4375SOL     OW24586   3.038   2.804   5.315  0.1800  0.0427 -0.6299
 4375SOL    HW124587   2.949   2.831   5.339 -0.0572 -1.1460 -0.1390
 4375SOL    HW224588   3.035   2.827   5.222 -1.4643 -2.0166 -1.0867
 4376SOL     OW24589   4.304   1.595   3.384 -0.1624  0.6601 -0.3113
 4376SOL    HW124590   4.223   1.549   3.362  0.7394 -1.2070  0.2002
 4376SOL    HW224591   4.339   1.532   3.447  1.0752  2.1052  0.4513
 4377SOL     OW24592   3.459   4.287   6.244 -0.4044 -0.2119  0.0827
 4377SOL    HW124593   3.383   4.235   6.268  0.3736 -0.7410  1.4170
 4377SOL    HW224594   3.425   4.329   6.165  3.0316  1.9989 -0.2382
 4378SOL     OW24595   2.513   1.111  12.564  0.2711 -0.0637  0.1076
 4378SOL    HW124596   2.469   1.186  12.524 -0.7271 -0.2426  0.8717
 4378SOL    HW224597   2.601   1.150  12.563 -0.3613  1.4116  1.6444
 4379SOL     OW24598   0.292   4.643   8.409 -0.0160  0.2103  0.2953
 4379SOL    HW124599   0.335   4.674   8.488  0.4248  0.9201 -0.2279
 4379SOL    HW224600   0.212   4.695   8.406  0.9845  1.7516  0.6702
 4380SOL     OW24601   2.088   2.748   3.791  0.4607  0.5809  0.3437
 4380SOL    HW124602   2.012   2.799   3.763  0.0607  0.1464  0.6228
 4380SOL    HW224603   2.157   2.813   3.779 -1.0308  2.2291  0.6562
 4381SOL     OW24604   1.237   0.446   9.430  0.2902 -0.1384 -0.2890
 4381SOL    HW124605   1.208   0.393   9.504  0.7630  0.1832  0.1242
 4381SOL    HW224606   1.250   0.529   9.476  0.9591 -2.5117  3.7984
 4382SOL     OW24607   2.772   3.315  12.158  0.2089 -0.0815 -0.5574
 4382SOL    HW124608   2.801   3.307  12.068  1.8754  1.0432 -0.1150
 4382SOL    HW224609   2.853   3.303  12.207  0.2490  1.3797 -0.2829
 4383SOL     OW24610   2.995   4.108   8.432  0.2337 -0.1374  0.1526
 4383SOL    HW124611   3.025   4.017   8.424  0.0021 -0.1158 -1.0354
 4383SOL    HW224612   2.947   4.093   8.513  0.4044  1.1458  0.4874
 4384SOL     OW24613   1.761   0.337   3.661  0.0088  0.0755  0.6888
 4384SOL    HW124614   1.751   0.266   3.724  1.3814 -0.5583  0.1820
 4384SOL    HW224615   1.795   0.283   3.590 -0.5879  2.6709 -1.5887
 4385SOL     OW24616   0.994   0.481   1.759  0.7714 -0.0058  0.2665
 4385SOL    HW124617   0.992   0.447   1.670  0.3226  0.8723 -0.0621
 4385SOL    HW224618   0.920   0.541   1.749  0.4652 -0.1724  1.4787
 4386SOL     OW24619   2.533   1.769   9.552  0.0962 -0.0045  0.1282
 4386SOL    HW124620   2.527   1.735   9.641  2.6294  1.0273  0.6931
 4386SOL    HW224621   2.440   1.764   9.529  0.2092  2.1652 -0.8619
 4387SOL     OW24622   2.035   3.764  11.414  0.0351  0.5390  0.4281
 4387SOL    HW124623   2.030   3.857  11.392 -0.3950  0.0163 -1.6656
 4387SOL    HW224624   1.993   3.752  11.499 -0.3981  3.1389  0.5660
 4388SOL     OW24625   1.754   0.711   3.151 -0.0571  0.0182  0.1268
 4388SOL    HW124626   1.714   0.758   3.079 -0.1021  1.3771  1.0391
 4388SOL    HW224627   1.684   0.656   3.185 -0.7723  0.6097 -0.3906
 4389SOL     OW24628   3.451   1.303   2.210 -0.3227  0.3227 -0.2651
 4389SOL    HW124629   3.451   1.381   2.266 -1.8767 -0.9073  1.4776
 4389SOL    HW224630   3.533   1.264   2.242 -0.9522 -1.3535 -0.6878
 4390SOL     OW24631   3.296   4.058  13.769  0.4361  0.4437  0.7725
 4390SOL    HW124632   3.276   4.055  13.862  0.8897 -0.8235  0.8210
 4390SOL    HW224633   3.321   3.966  13.760  1.5301  1.0941 -2.7849
 4391SOL     OW24634   4.565   3.280   4.653 -0.2470  0.1746  0.1553
 4391SOL    HW124635   4.601   3.245   4.572  1.7745 -0.1851  1.2172
 4391SOL    HW224636   4.603   3.209   4.705 -1.2473  0.1343  0.8451
 4392SOL     OW24637   1.194   0.474   0.937 -0.3559 -0.5915 -0.3169
 4392SOL    HW124638   1.116   0.425   0.965 -0.5099 -0.6870 -0.9105
 4392SOL    HW224639   1.149   0.549   0.899 -1.7647 -2.4017 -2.2340
 4393SOL     OW24640   2.632   1.962   2.173  0.2978  0.3006 -0.5260
 4393SOL    HW124641   2.712   1.912   2.189 -0.1040  0.8561  3.0923
 4393SOL    HW224642   2.667   2.050   2.188  2.1484 -0.5990  0.4522
 4394SOL     OW24643   2.241   2.768   3.471  0.4102  0.0205 -0.1254
 4394SOL    HW124644   2.330   2.739   3.452  1.0645  1.7926  0.2079
 4394SOL    HW224645   2.260   2.801   3.559  0.9016  0.6518 -0.4668
 4395SOL     OW24646   1.833   0.413   0.381 -0.4746  0.0283 -0.1567
 4395SOL    HW124647   1.928   0.423   0.376 -0.3930 -0.3519  0.6457
 4395SOL    HW224648   1.815   0.324   0.350 -1.2703  0.8668 -2.0842
 4396SOL     OW24649   3.080   4.386  16.623  0.3580  0.1385  0.0529
 4396SOL    HW124650   3.094   4.461  16.565 -0.9063  1.0435  0.9355
 4396SOL    HW224651   2.989   4.404  16.647  0.1023 -1.2091  0.0733
 4397SOL     OW24652   4.298   4.359  16.154  0.2133 -1.0388 -0.2521
 4397SOL    HW124653   4.310   4.267  16.133  2.6126 -0.8370  0.2224
 4397SOL    HW224654   4.261   4.363  16.242  1.8334  2.3564  0.3057
 4398SOL     OW24655   2.542   0.860   8.315 -0.2104  0.3626 -0.2475
 4398SOL    HW124656   2.502   0.867   8.402  0.8644 -1.7182  0.4073
 4398SOL    HW224657   2.470   0.838   8.256  1.9168 -4.3419 -1.0592
 4399SOL     OW24658   1.989   2.162   8.744 -0.4238  0.3500  0.1295
 4399SOL    HW124659   1.950   2.079   8.718  0.1233  0.8268 -2.2031
 4399SOL    HW224660   1.953   2.176   8.831  0.2172 -0.1847  0.4839
 4400SOL     OW24661   2.811   3.988   4.211  0.1538  0.8038 -0.1938
 4400SOL    HW124662   2.799   4.025   4.123  1.3478  0.0966 -0.6528
 4400SOL    HW224663   2.840   4.069   4.253 -0.6712  1.5048 -0.9601
 4401SOL     OW24664   0.226   3.450   8.875  0.0176 -0.2392  0.2636
 4401SOL    HW124665   0.134   3.424   8.882 -0.6533  1.2714 -3.0893
 4401SOL    HW224666   0.261   3.361   8.884 -0.4117 -0.3091  1.2857
 4402SOL     OW24667   0.074   2.211  16.070 -0.3080  0.4035  0.3586
 4402SOL    HW124668   0.082   2.188  15.978 -2.4085 -0.1996  0.3307
 4402SOL    HW224669   0.027   2.294  16.059  1.0013  1.0909 -0.0568
 4403SOL     OW24670   1.473   1.343   1.119  0.4056  0.7704  0.3204
 4403SOL    HW124671   1.512   1.422   1.157  0.4697  0.1364  1.5588
 4403SOL    HW224672   1.498   1.356   1.027 -0.2820 -0.5346 -0.0499
 4404SOL     OW24673   2.797   2.235   8.780  0.0530  0.2452  0.4073
 4404SOL    HW124674   2.811   2.327   8.803 -0.6726  0.6709 -0.9059
 4404SOL    HW224675   2.709   2.236   8.743 -0.4577  0.2166  1.6225
 4405SOL     OW24676   3.245   0.545   7.457  0.5651 -0.7226 -0.3517
 4405SOL    HW124677   3.241   0.640   7.444  1.9284 -0.8049 -1.3853
 4405SOL    HW224678   3.324   0.527   7.507 -0.7588 -3.1413  0.8508
 4406SOL     OW24679   2.033   2.424   8.625  0.6558 -0.4298 -0.1554
 4406SOL    HW124680   2.102   2.396   8.565  0.4052 -0.8413 -0.2514
 4406SOL    HW224681   2.025   2.338   8.667 -0.1891 -0.5396 -0.5379
 4407SOL     OW24682   1.017   4.714  16.201  0.1256 -0.4551 -0.3442
 4407SOL    HW124683   0.981   4.669  16.125 -1.3474 -1.2125  0.7947
 4407SOL    HW224684   1.045   0.072  16.161  1.1166 -0.5490  0.1651
 4408SOL     OW24685   4.384   3.259   7.927 -0.1606  0.0978 -0.0868
 4408SOL    HW124686   4.394   3.254   7.832  2.1564  2.7505 -0.0060
 4408SOL    HW224687   4.362   3.171   7.957 -2.4511  1.5320  2.4307
 4409SOL     OW24688   3.231   1.105   8.633  0.4525  0.2495  0.2093
 4409SOL    HW124689   3.169   1.163   8.589 -0.2068 -0.1309  0.6497
 4409SOL    HW224690   3.209   1.132   8.722  3.2716 -0.5691  1.1456
 4410SOL     OW24691   2.298   1.176   0.253 -0.2792 -0.0417 -0.3149
 4410SOL    HW124692   2.347   1.256   0.267 -0.1164  0.0936 -1.6316
 4410SOL    HW224693   2.207   1.205   0.265 -0.7899 -0.5530 -2.9286
 4411SOL     OW24694   3.403   2.361   4.937  0.6372  0.6299 -0.4098
 4411SOL    HW124695   3.491   2.394   4.920  1.6512  0.1916  3.7869
 4411SOL    HW224696   3.357   2.384   4.857 -2.1811 -1.2357  0.6438
 4412SOL     OW24697   3.309   1.413  13.043 -0.0063 -0.0210 -0.1384
 4412SOL    HW124698   3.375   1.344  13.031 -0.4590 -0.4810  0.0443
 4412SOL    HW224699   3.239   1.383  12.985  0.7641 -0.4490 -0.8443
 4413SOL     OW24700   0.425   4.204  12.118  0.0004 -0.6520 -0.1643
 4413SOL    HW124701   0.414   4.113  12.147  0.8475 -0.8509 -0.4678
 4413SOL    HW224702   0.332   4.222  12.103 -0.3818 -0.4429  2.5381
 4414SOL     OW24703   3.041   3.517   2.447 -0.0691  0.0931 -0.1856
 4414SOL    HW124704   2.974   3.522   2.379  0.4705 -3.0075 -0.9640
 4414SOL    HW224705   2.985   3.484   2.517  1.6082  0.5888  1.4080
 4415SOL     OW24706   0.062   1.384   6.645 -0.5398  0.1138  0.1119
 4415SOL    HW124707   0.095   1.295   6.635 -0.5078 -0.0058  1.2667
 4415SOL    HW224708   0.117   1.430   6.582  0.6544  0.7057  1.5861
 4416SOL     OW24709   4.480   3.627   7.341 -0.1144 -0.0821  0.4964
 4416SOL    HW124710   4.434   3.550   7.306  0.0422  0.0646 -0.0333
 4416SOL    HW224711   4.566   3.587   7.353 -0.0032  0.2788  0.8930
 4417SOL     OW24712   3.526   1.886  12.722 -0.3208  0.1762 -0.3637
 4417SOL    HW124713   3.601   1.874  12.664  1.0467  0.6216  1.3163
 4417SOL    HW224714   3.551   1.931  12.803 -0.0329 -1.7123  0.5897
 4418SOL     OW24715   4.710   4.699   6.113 -0.2143 -0.0592  0.6471
 4418SOL    HW124716   0.009   4.616   6.155  0.1714 -0.9235 -1.2400
 4418SOL    HW224717   4.623   4.707   6.150 -1.4954 -0.5222 -2.2405
 4419SOL     OW24718   0.403   2.559   6.693  0.1843 -0.1739  0.1313
 4419SOL    HW124719   0.438   2.626   6.634 -1.4570  1.1066  0.6256
 4419SOL    HW224720   0.481   2.509   6.718  0.5084 -0.6450 -1.7867
 4420SOL     OW24721   0.423   0.319   6.250 -0.1370  0.5872  0.4790
 4420SOL    HW124722   0.376   0.249   6.295 -0.4951  0.9160  0.6082
 4420SOL    HW224723   0.360   0.326   6.179 -0.5891 -1.0579  0.7183
 4421SOL     OW24724   1.751   2.613   2.263 -0.0102  0.0968 -0.3826
 4421SOL    HW124725   1.732   2.706   2.273 -1.2031 -0.3626  1.7010
 4421SOL    HW224726   1.671   2.579   2.304 -0.1035 -0.0134 -0.6512
 4422SOL     OW24727   4.643   2.634   2.624 -0.4907  0.2697  0.2802
 4422SOL    HW124728   4.555   2.633   2.663 -0.1972 -1.2598  0.8984
 4422SOL    HW224729   4.675   2.548   2.652 -1.5983  0.4353  2.0991
 4423SOL     OW24730   3.815   1.886   1.268 -0.0303 -0.0870 -0.2538
 4423SOL    HW124731   3.833   1.849   1.355 -0.6499  0.5687  0.1560
 4423SOL    HW224732   3.721   1.870   1.257 -0.0440 -0.6497  0.6712
 4424SOL     OW24733   0.030   3.552  14.284  0.0651 -0.4042  0.0005
 4424SOL    HW124734   0.075   3.543  14.368 -0.4957  2.2052  0.5978
 4424SOL    HW224735   4.678   3.501  14.311 -0.8764  0.6128 -0.6928
 4425SOL     OW24736   1.078   4.042  11.239 -0.0097 -0.2311  0.1451
 4425SOL    HW124737   1.005   3.980  11.237 -0.5610  0.4050  0.4490
 4425SOL    HW224738   1.117   4.021  11.154 -1.9432  1.1291 -1.0819
 4426SOL     OW24739   0.848   3.280   7.720  0.3370 -0.1585 -0.0516
 4426SOL    HW124740   0.884   3.369   7.721 -4.3343  1.6868  1.8454
 4426SOL    HW224741   0.806   3.280   7.634 -0.1330 -0.4899  0.1760
 4427SOL     OW24742   4.687   3.555   6.451  0.0349  0.0406 -0.1952
 4427SOL    HW124743   4.683   3.544   6.546  1.1880 -2.2423 -0.4005
 4427SOL    HW224744   4.663   3.470   6.413  1.6563 -0.9951  1.0893
 4428SOL     OW24745   4.149   4.305   3.303 -0.0838  0.1563  0.0647
 4428SOL    HW124746   4.112   4.288   3.216  0.6297  1.6965 -0.5330
 4428SOL    HW224747   4.229   4.349   3.275  1.3011 -2.4627 -0.0421
 4429SOL     OW24748   2.869   0.956  12.530  0.2085 -0.0818  0.2203
 4429SOL    HW124749   2.835   0.905  12.457  0.2323  1.4159 -0.8278
 4429SOL    HW224750   2.809   1.030  12.532 -1.0076 -1.0855  0.3988
 4430SOL     OW24751   3.513   0.886   3.108 -0.9590  0.2020 -0.2798
 4430SOL    HW124752   3.578   0.893   3.038  0.5216 -0.8371  1.0020
 4430SOL    HW224753   3.445   0.837   3.061 -0.2124 -0.7987 -0.3120
 4431SOL     OW24754   2.834   3.280   4.871  0.1509 -0.4534 -0.4575
 4431SOL    HW124755   2.743   3.251   4.879  0.2053 -0.1544  1.1961
 4431SOL    HW224756   2.875   3.253   4.953 -2.1215 -0.9347  0.5208
 4432SOL     OW24757   2.663   1.727   7.110 -0.4862 -0.4712  0.0891
 4432SOL    HW124758   2.646   1.636   7.131 -0.8921 -0.8041 -1.6605
 4432SOL    HW224759   2.619   1.732   7.025  0.3150 -0.5327 -0.3297
 4433SOL     OW24760   1.460   2.776   3.356  0.4079 -0.4396  0.5271
 4433SOL    HW124761   1.366   2.793   3.363  0.9891  2.1152  2.0097
 4433SOL    HW224762   1.501   2.859   3.333 -1.3357  0.1737 -0.3376
 4434SOL     OW24763   0.402   1.125   1.008 -0.2651 -0.0568 -0.6320
 4434SOL    HW124764   0.413   1.051   1.068 -0.9198  1.8497  1.8272
 4434SOL    HW224765   0.367   1.186   1.072 -1.6506 -1.2834 -0.2089
 4435SOL     OW24766   2.071   2.771   7.123  0.2788 -0.0309  0.2745
 4435SOL    HW124767   2.051   2.859   7.153  1.0288 -0.1990  1.2574
 4435SOL    HW224768   2.138   2.792   7.058  1.1931 -0.1692  1.1837
 4436SOL     OW24769   3.997   2.006  15.363 -0.4149 -0.2626 -0.4283
 4436SOL    HW124770   3.909   2.041  15.345 -0.4864  0.7347  1.9528
 4436SOL    HW224771   4.043   2.056  15.296 -1.6690 -2.4241 -2.9213
 4437SOL     OW24772   4.398   4.701   5.166 -0.2566 -0.3338 -0.3055
 4437SOL    HW124773   4.427   0.000   5.078  0.0832 -1.9601 -0.6114
 4437SOL    HW224774   4.319   0.031   5.180  0.1782  0.2983 -0.2830
 4438SOL     OW24775   4.248   0.104   0.010 -0.2224  0.7982  0.1525
 4438SOL    HW124776   4.156   0.105   0.037 -0.6850 -2.3001 -1.2523
 4438SOL    HW224777   4.234   0.143  17.620  0.0630 -0.8128 -0.6302
 4439SOL     OW24778   1.040   2.211   3.009  0.0773 -0.2628  0.1293
 4439SOL    HW124779   0.957   2.252   2.981  0.7646  0.2057 -1.2289
 4439SOL    HW224780   1.098   2.256   2.947 -0.8084  0.4864 -0.1643
 4440SOL     OW24781   0.859   3.394  16.539  0.2490  0.2770  0.4311
 4440SOL    HW124782   0.932   3.348  16.580  0.1284 -0.2062  0.0960
 4440SOL    HW224783   0.818   3.327  16.486 -0.8965  1.3174  0.0136
 4441SOL     OW24784   2.279   4.168  14.474  0.1627  0.1890 -0.1936
 4441SOL    HW124785   2.298   4.115  14.397 -0.2465  0.1278 -0.2521
 4441SOL    HW224786   2.187   4.195  14.468  0.7419  2.0204 -0.7385
 4442SOL     OW24787   3.933   3.052   0.677  0.5381 -0.0655 -0.3934
 4442SOL    HW124788   3.980   3.105   0.741  0.7107  0.2066 -0.7487
 4442SOL    HW224789   3.923   2.970   0.726  1.9106  0.1138  0.1934
 4443SOL     OW24790   3.783   0.246   2.773 -0.1008  0.3226 -0.7365
 4443SOL    HW124791   3.782   0.153   2.797 -1.1800  1.0802  2.2046
 4443SOL    HW224792   3.867   0.276   2.809  0.2357 -2.4049  0.8139
 4444SOL     OW24793   3.727   3.978  13.836 -0.2322  0.5074  0.4943
 4444SOL    HW124794   3.775   3.896  13.845 -3.2801 -1.3474 -0.0655
 4444SOL    HW224795   3.663   3.971  13.907 -0.6869  2.7067  0.2932
 4445SOL     OW24796   0.559   4.175   6.315 -0.1368 -0.3487  0.1367
 4445SOL    HW124797   0.650   4.181   6.285 -0.1543 -0.2794  0.0966
 4445SOL    HW224798   0.529   4.266   6.309  0.3958 -0.2261 -0.7440
 4446SOL     OW24799   2.411   2.187   2.951  0.5889  0.2311  0.2885
 4446SOL    HW124800   2.437   2.131   3.024 -1.5237 -0.7008  0.3212
 4446SOL    HW224801   2.340   2.125   2.932  0.6775 -0.1365  1.1593
 4447SOL     OW24802   2.424   0.657   3.903 -0.8002  0.0891  0.0833
 4447SOL    HW124803   2.433   0.749   3.877  1.0006  0.0330  0.5153
 4447SOL    HW224804   2.360   0.658   3.974  1.3676  2.4835  2.0252
 4448SOL     OW24805   2.158   1.473   0.583 -0.5930  0.5506 -0.1122
 4448SOL    HW124806   2.211   1.410   0.534  0.5871  1.2655  0.2376
 4448SOL    HW224807   2.222   1.537   0.615  0.6460 -1.2888  1.0946
 4449SOL     OW24808   3.861   4.156   5.073 -0.5041 -0.3573 -0.0517
 4449SOL    HW124809   3.939   4.208   5.049 -0.3813 -0.7253 -0.4583
 4449SOL    HW224810   3.806   4.215   5.124  0.5315  2.0587 -1.6976
 4450SOL     OW24811   2.775   1.426   9.196  0.0941 -0.0568 -0.7769
 4450SOL    HW124812   2.853   1.438   9.250 -0.8776 -2.9436  1.2540
 4450SOL    HW224813   2.708   1.462   9.254  0.2130 -0.3555 -0.4606
 4451SOL     OW24814   3.687   2.257   3.769  0.1520  0.2644 -0.4631
 4451SOL    HW124815   3.652   2.182   3.720  1.9210 -0.2806 -0.9204
 4451SOL    HW224816   3.631   2.326   3.735  1.3262  1.6467  0.4091
 4452SOL     OW24817   0.133   1.914   7.712 -0.1620  0.2040 -0.6118
 4452SOL    HW124818   0.201   1.914   7.779  1.0827 -2.6208 -1.8996
 4452SOL    HW224819   0.188   1.920   7.634  1.1374 -1.4514  0.1997
 4453SOL     OW24820   3.340   1.772   4.938 -0.5873  0.3555 -0.5665
 4453SOL    HW124821   3.371   1.777   4.847  0.3223  0.8869 -0.2200
 4453SOL    HW224822   3.319   1.864   4.953 -3.0130 -0.2946  0.0366
 4454SOL     OW24823   4.186   4.147  13.063  0.0816 -0.0413  0.1141
 4454SOL    HW124824   4.255   4.160  12.998  0.7725  1.0766  1.0593
 4454SOL    HW224825   4.207   4.217  13.124 -0.9693  0.0800  0.3331
 4455SOL     OW24826   1.364   1.764  11.345  0.1751 -0.3873 -0.1307
 4455SOL    HW124827   1.343   1.762  11.252 -1.3867  0.2586  0.2043
 4455SOL    HW224828   1.283   1.811  11.367  1.8919  2.0809  0.9059
 4456SOL     OW24829   2.580   3.465   1.639  0.0186 -0.1009 -0.2472
 4456SOL    HW124830   2.561   3.391   1.697 -0.0254  0.4304  0.4146
 4456SOL    HW224831   2.663   3.501   1.669  0.5829 -1.1761 -0.5136
 4457SOL     OW24832   2.824   0.426   6.671 -0.3118  0.5732 -0.1276
 4457SOL    HW124833   2.875   0.345   6.676  0.3048  0.8952 -1.2593
 4457SOL    HW224834   2.879   0.484   6.723  2.0053 -2.4314  0.7855
 4458SOL     OW24835   4.136   2.619  13.792  0.1156  0.0860 -0.5214
 4458SOL    HW124836   4.177   2.625  13.879  0.8974  1.6816 -0.9911
 4458SOL    HW224837   4.048   2.585  13.809  0.0285 -1.1426 -3.5028
 4459SOL     OW24838   0.639   1.837   6.568 -0.0928  0.2571  0.6796
 4459SOL    HW124839   0.698   1.783   6.621  0.2843  0.0420  0.0435
 4459SOL    HW224840   0.587   1.874   6.639 -0.1568 -1.2688  1.4124
 4460SOL     OW24841   0.962   0.431   9.566 -0.2738 -0.5552 -0.3264
 4460SOL    HW124842   1.037   0.400   9.617 -0.2027 -0.1448 -0.1811
 4460SOL    HW224843   0.930   0.510   9.610 -0.3313 -0.6894 -0.1285
 4461SOL     OW24844   1.327   0.478   2.528  0.5525 -0.1596 -0.1099
 4461SOL    HW124845   1.295   0.435   2.607  0.4724 -1.5603 -0.9181
 4461SOL    HW224846   1.254   0.539   2.514  1.7173  1.1268 -0.6665
 4462SOL     OW24847   4.008   0.908  11.500 -0.2263 -0.0073 -0.5132
 4462SOL    HW124848   4.003   0.962  11.579  2.5599 -1.9495  1.0073
 4462SOL    HW224849   4.045   0.973  11.441  0.6904  0.5417  0.6888
 4463SOL     OW24850   1.591   2.454   4.054 -0.2051 -0.1110 -0.6946
 4463SOL    HW124851   1.661   2.395   4.083  1.5118  1.4446 -1.6991
 4463SOL    HW224852   1.551   2.402   3.984 -1.2801  0.9359 -0.8522
 4464SOL     OW24853   2.860   1.741   0.469  0.3054  0.1652  0.1551
 4464SOL    HW124854   2.799   1.676   0.503 -0.4478  0.8088  0.0483
 4464SOL    HW224855   2.927   1.684   0.433 -0.7850 -0.2987 -1.1170
 4465SOL     OW24856   2.286   4.165   6.785 -0.1001 -0.3568 -0.0289
 4465SOL    HW124857   2.296   4.195   6.695 -0.4821  0.9359  0.3511
 4465SOL    HW224858   2.281   4.246   6.836 -4.0287 -0.7209  0.1838
 4466SOL     OW24859   2.353   1.402   9.304  0.3397  0.1842 -0.2174
 4466SOL    HW124860   2.435   1.450   9.309  1.3664 -1.8151  2.2965
 4466SOL    HW224861   2.395   1.316   9.303  0.4661  0.2426  0.0667
 4467SOL     OW24862   3.025   4.505  17.433  0.1547  0.3727 -0.1809
 4467SOL    HW124863   3.100   4.447  17.424 -1.5642 -1.8134 -0.2957
 4467SOL    HW224864   3.008   4.518  17.340 -2.9703 -0.8453  0.2300
 4468SOL     OW24865   2.529   3.413   0.947 -0.2232 -0.5209 -0.0258
 4468SOL    HW124866   2.493   3.500   0.963  0.3180 -0.1612 -0.7946
 4468SOL    HW224867   2.569   3.422   0.861 -2.7158 -1.6977 -1.3015
 4469SOL     OW24868   1.920   0.716   6.855  0.3206 -0.3413 -0.3014
 4469SOL    HW124869   1.853   0.783   6.870  1.6620  0.8311  0.4405
 4469SOL    HW224870   2.002   0.760   6.876  0.1090 -1.0106  1.9992
 4470SOL     OW24871   1.548   1.783   0.412 -0.2827 -0.6000 -0.5050
 4470SOL    HW124872   1.533   1.733   0.492 -1.0464  1.1342  0.4338
 4470SOL    HW224873   1.637   1.768   0.380 -0.1918  1.8983 -1.3949
 4471SOL     OW24874   2.275   2.834   1.527  0.5535 -0.2693 -0.0327
 4471SOL    HW124875   2.314   2.760   1.481  3.5169  0.7838  0.7889
 4471SOL    HW224876   2.224   2.778   1.586 -0.6620  0.3709 -0.4621
 4472SOL     OW24877   0.310   1.196   6.776 -0.5169  0.1462 -0.0770
 4472SOL    HW124878   0.333   1.171   6.865 -2.2836 -0.8804  0.1008
 4472SOL    HW224879   0.357   1.279   6.768 -0.9959  0.4642  0.4820
 4473SOL     OW24880   2.830   1.752   4.711 -0.9660 -0.1759 -0.0655
 4473SOL    HW124881   2.829   1.842   4.679  0.5832  0.7040  2.3015
 4473SOL    HW224882   2.886   1.753   4.789 -0.0036  3.0691 -0.8116
 4474SOL     OW24883   0.453   0.048  12.442 -0.2348  0.0885  0.0322
 4474SOL    HW124884   0.495   0.030  12.526  1.5444  2.3031 -0.3758
 4474SOL    HW224885   0.426   4.681  12.423 -1.4523  0.7124 -1.2237
 4475SOL     OW24886   2.322   4.377   4.839 -0.0063  0.0421 -0.2096
 4475SOL    HW124887   2.280   4.411   4.918  1.2883  0.0918  0.4455
 4475SOL    HW224888   2.255   4.387   4.771  0.2349 -0.0961 -0.4728
 4476SOL     OW24889   0.607   4.108  15.557 -0.5929  0.1877  0.0525
 4476SOL    HW124890   0.572   4.023  15.529 -0.3836  0.4071 -0.8870
 4476SOL    HW224891   0.624   4.153  15.474 -0.0992 -1.2964 -0.6756
 4477SOL     OW24892   4.690   1.601  10.960 -0.1786  0.4295  0.3193
 4477SOL    HW124893   0.057   1.625  10.939  0.0176 -1.9872 -1.5881
 4477SOL    HW224894   4.693   1.521  11.014 -2.0462 -1.3099 -2.1822
 4478SOL     OW24895   0.784   1.206  17.153  0.6856 -0.2803  0.2726
 4478SOL    HW124896   0.734   1.282  17.184 -1.0181 -0.5480 -1.7885
 4478SOL    HW224897   0.714   1.142  17.165  1.4676 -0.8972  1.4981
 4479SOL     OW24898   3.145   4.089  14.034 -0.4126 -0.1897  0.3707
 4479SOL    HW124899   3.068   4.105  13.979 -0.5457  0.8545  0.8667
 4479SOL    HW224900   3.104   4.092  14.120 -0.9402 -1.4877  0.1572
 4480SOL     OW24901   1.069   1.833  11.413 -0.9484 -0.0073 -0.5927
 4480SOL    HW124902   1.055   1.926  11.397 -0.4784  0.5175  2.0066
 4480SOL    HW224903   0.990   1.792  11.379  1.1011 -2.4398 -2.4457
 4481SOL     OW24904   0.085   2.230   6.296 -0.3990 -0.2196  0.0325
 4481SOL    HW124905   0.172   2.190   6.293  0.0492  0.8984 -3.0655
 4481SOL    HW224906   0.092   2.283   6.375  0.3425  0.6455 -0.6023
 4482SOL     OW24907   2.282   0.017  13.487 -0.5197  0.0414 -0.1991
 4482SOL    HW124908   2.241   4.709  13.568  0.7563  1.8065  1.1280
 4482SOL    HW224909   2.362   0.058  13.519  0.5679 -2.4546  0.2414
 4483SOL     OW24910   1.685   1.265  10.261 -0.3069  0.0066  0.0370
 4483SOL    HW124911   1.615   1.330  10.267  1.6572  2.1527 -0.2834
 4483SOL    HW224912   1.758   1.326  10.248  0.7116 -1.1356  0.4605
 4484SOL     OW24913   3.552   1.997  14.896  0.4020  0.2421 -0.0393
 4484SOL    HW124914   3.509   2.013  14.812  0.1675  0.4825  0.1288
 4484SOL    HW224915   3.621   1.935  14.873  0.9348  1.0565 -0.5839
 4485SOL     OW24916   3.089   1.186  11.589  0.0083 -0.2229 -0.5121
 4485SOL    HW124917   3.010   1.171  11.537 -1.6577  3.6051  0.8484
 4485SOL    HW224918   3.080   1.137  11.671  1.2500 -0.8412 -0.7500
 4486SOL     OW24919   1.716   1.543   3.768  0.0318  0.3428  0.2554
 4486SOL    HW124920   1.718   1.485   3.844 -2.8998 -0.7900 -0.5121
 4486SOL    HW224921   1.647   1.509   3.710  0.8977 -0.8836 -0.0490
 4487SOL     OW24922   4.188   1.849   9.508 -0.0587 -0.0902 -0.1914
 4487SOL    HW124923   4.113   1.790   9.521  1.6144 -2.0467  0.5778
 4487SOL    HW224924   4.147   1.919   9.457 -0.7353 -0.9374 -0.8117
 4488SOL     OW24925   2.388   1.140   3.047  0.0294  0.3394  0.6189
 4488SOL    HW124926   2.391   1.188   2.965 -0.6212  3.0273  2.1434
 4488SOL    HW224927   2.481   1.134   3.066  0.0287  0.7013  0.7363
 4489SOL     OW24928   0.297   3.835   7.692  0.0443  0.8542 -0.4254
 4489SOL    HW124929   0.223   3.877   7.648 -0.2205  0.4242 -0.3867
 4489SOL    HW224930   0.374   3.888   7.671 -0.1475  1.1418 -0.4053
 4490SOL     OW24931   2.770   3.055  16.237  0.8846  0.2490  0.4045
 4490SOL    HW124932   2.759   3.009  16.320  0.6215 -1.9376 -0.8109
 4490SOL    HW224933   2.850   3.022  16.195 -0.6106 -2.9556  0.0514
 4491SOL     OW24934   2.745   2.049  10.449  0.1398  0.2448  0.3720
 4491SOL    HW124935   2.838   2.026  10.448 -0.0507 -0.7130  2.8171
 4491SOL    HW224936   2.720   1.970  10.498 -0.8676  0.7056  0.6072
 4492SOL     OW24937   3.535   3.106  17.150 -0.0678 -0.3087  0.0710
 4492SOL    HW124938   3.603   3.112  17.217 -0.4051 -1.1362  0.4789
 4492SOL    HW224939   3.450   3.106  17.193  0.0446 -1.2771  0.2980
 4493SOL     OW24940   2.944   4.414   6.008  0.0562 -0.1238  1.0512
 4493SOL    HW124941   2.909   4.435   6.094  1.6393 -0.4408  1.7781
 4493SOL    HW224942   3.025   4.367   6.028  0.3263 -0.3552 -0.6132
 4494SOL     OW24943   0.970   1.585   2.154  0.1278  0.3864  0.0904
 4494SOL    HW124944   1.003   1.665   2.112  2.1174  0.1815  1.2330
 4494SOL    HW224945   0.962   1.622   2.242  1.7636  0.1600  0.3513
 4495SOL     OW24946   3.760   2.348  15.211 -0.0550 -0.0755 -0.1539
 4495SOL    HW124947   3.798   2.398  15.139 -3.6786  0.3189 -1.8114
 4495SOL    HW224948   3.694   2.408  15.245  1.3282  2.5948 -2.2340
 4496SOL     OW24949   0.866   3.223  11.669 -0.5951 -0.5196 -0.3517
 4496SOL    HW124950   0.958   3.215  11.645 -1.0791 -0.4431 -2.1890
 4496SOL    HW224951   0.854   3.317  11.659 -0.3635 -0.7158 -2.3823
 4497SOL     OW24952   1.257   4.243  15.884 -0.8867  0.0095  0.4081
 4497SOL    HW124953   1.282   4.166  15.833  2.4855  2.3924 -1.5005
 4497SOL    HW224954   1.341   4.288  15.879 -2.6194  3.2680  0.8933
 4498SOL     OW24955   1.041   4.190   9.898 -0.2968  0.0464 -0.0812
 4498SOL    HW124956   1.036   4.285   9.896  0.7936  0.0893 -0.3696
 4498SOL    HW224957   1.130   4.178   9.865 -0.1634  1.8683 -0.3601
 4499SOL     OW24958   4.128   2.023   1.818 -0.0220  0.1418 -0.4600
 4499SOL    HW124959   4.052   2.075   1.792  0.5174  1.2880  0.2707
 4499SOL    HW224960   4.198   2.089   1.818  2.1611 -2.1645  0.9675
 4500SOL     OW24961   0.517   1.951   1.265 -0.1554  0.4535 -0.2487
 4500SOL    HW124962   0.588   1.950   1.201 -0.8759 -2.6212 -1.0058
 4500SOL    HW224963   0.468   2.026   1.230 -1.3583 -0.2804 -0.1191
 4501SOL     OW24964   0.224   0.910   5.349 -0.4455  0.1139 -0.0739
 4501SOL    HW124965   0.219   0.814   5.346  1.2815 -0.0146  1.2390
 4501SOL    HW224966   0.156   0.944   5.407 -0.6054 -0.8706  0.3215
 4502SOL     OW24967   1.128   2.809  16.344 -0.4258 -0.1986  0.5310
 4502SOL    HW124968   1.199   2.760  16.303 -0.9988 -0.0559 -0.6106
 4502SOL    HW224969   1.151   2.899  16.323  0.2523 -0.7630 -1.1790
 4503SOL     OW24970   1.954   1.549   7.143 -0.0263 -0.7304  0.5429
 4503SOL    HW124971   1.978   1.589   7.227  0.8162  0.7640 -0.4320
 4503SOL    HW224972   1.979   1.623   7.088 -0.2744  0.5581  2.1416
 4504SOL     OW24973   1.970   2.301   8.039  0.0004  0.2688 -0.2621
 4504SOL    HW124974   1.997   2.379   8.088  3.7656 -0.4943 -1.1404
 4504SOL    HW224975   1.900   2.334   7.982  1.8378  0.2961 -2.4776
 4505SOL     OW24976   3.396   3.006   3.366 -0.3233  0.3764 -0.6020
 4505SOL    HW124977   3.301   3.002   3.378 -0.1839 -1.7233 -0.2094
 4505SOL    HW224978   3.396   3.051   3.282 -2.5614 -0.2591 -0.9471
 4506SOL     OW24979   0.463   1.984   6.795 -0.1236  0.0997 -0.2646
 4506SOL    HW124980   0.466   1.921   6.866 -0.6174  0.0632 -0.2774
 4506SOL    HW224981   0.436   2.065   6.839 -2.7461 -1.6121  1.2579
 4507SOL     OW24982   3.839   3.607   7.575  0.4105 -0.2604 -0.2492
 4507SOL    HW124983   3.900   3.679   7.559  0.4720 -0.0697  0.8647
 4507SOL    HW224984   3.786   3.614   7.495 -1.1658  1.6593  0.9438
 4508SOL     OW24985   2.809   3.690   2.980 -0.9444  0.0770  0.1311
 4508SOL    HW124986   2.726   3.707   3.024 -1.3584 -1.3747 -0.0954
 4508SOL    HW224987   2.866   3.751   3.026  0.2436 -1.3946  0.6018
 4509SOL     OW24988   3.508   0.263  13.319  0.7088  0.1896  0.5711
 4509SOL    HW124989   3.505   0.244  13.226  2.5567 -1.0706  0.7656
 4509SOL    HW224990   3.565   0.340  13.322 -0.3561  1.0088 -0.7002
 4510SOL     OW24991   1.395   4.533  11.660 -0.4118  0.1586 -0.2917
 4510SOL    HW124992   1.412   4.628  11.653 -0.8249  0.3569  1.4020
 4510SOL    HW224993   1.489   4.511  11.661 -0.8711 -1.8257 -2.4826
 4511SOL     OW24994   4.581   0.573  12.608  0.4055 -0.3845 -0.2763
 4511SOL    HW124995   4.564   0.515  12.682  0.0261  0.2028  0.0985
 4511SOL    HW224996   4.504   0.630  12.612  1.5772  1.0849  1.2238
 4512SOL     OW24997   2.931   4.224   2.849  0.0903  0.1907  0.2746
 4512SOL    HW124998   2.991   4.156   2.819  2.1039  2.3627 -0.6619
 4512SOL    HW224999   2.850   4.179   2.873  0.7848 -1.0884  0.1945
 4513SOL     OW25000   2.059   4.644   1.748  0.2405 -0.5914 -0.0801
 4513SOL    HW125001   2.147   4.608   1.760  0.3748  0.4696  2.0753
 4513SOL    HW225002   2.006   4.571   1.718 -0.8960 -0.1871  0.9346
 4514SOL     OW25003   2.010   3.804   4.281 -0.5660 -0.3967 -0.0752
 4514SOL    HW125004   1.941   3.750   4.319 -2.4519  1.3905 -0.9747
 4514SOL    HW225005   2.088   3.773   4.326  0.1515  0.8088 -0.4831
 4515SOL     OW25006   2.039   1.280   0.283  0.3705 -0.0708 -0.4655
 4515SOL    HW125007   2.010   1.366   0.255  1.2129 -0.1911 -1.7326
 4515SOL    HW225008   1.961   1.228   0.266 -0.9626  1.2873  1.5752
 4516SOL     OW25009   4.714   3.832  11.330  0.2711 -0.0793  0.4653
 4516SOL    HW125010   4.712   3.755  11.274  0.5984  1.4840 -1.6859
 4516SOL    HW225011   0.058   3.881  11.283  0.1474 -0.3725 -0.0224
 4517SOL     OW25012   3.549   0.435   4.684 -0.3201 -0.0661  0.1635
 4517SOL    HW125013   3.586   0.347   4.681 -3.4688 -1.4316  1.2040
 4517SOL    HW225014   3.561   0.464   4.775  1.2059 -0.7769  0.1934
 4518SOL     OW25015   2.724   2.696   1.633 -1.0127 -0.6528  0.1150
 4518SOL    HW125016   2.705   2.784   1.600  1.0465  0.5701  2.1714
 4518SOL    HW225017   2.765   2.726   1.715 -1.4219  0.7178 -0.1756
 4519SOL     OW25018   1.809   0.744   8.619  0.5476  0.7968 -0.3858
 4519SOL    HW125019   1.802   0.831   8.658  0.8697  0.9881 -0.7460
 4519SOL    HW225020   1.875   0.698   8.670  0.1090  2.7077  1.9026
 4520SOL     OW25021   1.642   2.072   1.158  0.1411 -0.3413  0.0855
 4520SOL    HW125022   1.655   1.995   1.212  0.0173 -1.7644 -1.9377
 4520SOL    HW225023   1.727   2.113   1.176  0.2625 -0.3436 -0.4990
 4521SOL     OW25024   2.676   4.154   5.758 -0.0733  0.5675 -0.2422
 4521SOL    HW125025   2.689   4.233   5.811  0.0492  0.4973 -0.1680
 4521SOL    HW225026   2.587   4.124   5.776 -0.2870  1.5934  0.4788
 4522SOL     OW25027   4.434   4.213   8.852  0.1346  0.4678 -0.0123
 4522SOL    HW125028   4.415   4.300   8.887  3.7578  1.6434 -1.0304
 4522SOL    HW225029   4.488   4.218   8.773  0.6291 -2.1489  0.1567
 4523SOL     OW25030   3.358   3.535   5.829 -0.3551 -0.1759 -0.4383
 4523SOL    HW125031   3.267   3.504   5.834 -0.2561 -0.1665  1.3061
 4523SOL    HW225032   3.359   3.590   5.907 -0.2931 -3.1199  1.6484
 4524SOL     OW25033   2.890   3.333  11.925 -0.1407 -0.5646 -0.0202
 4524SOL    HW125034   2.921   3.418  11.896 -0.5653 -0.2070  0.5924
 4524SOL    HW225035   2.876   3.295  11.838  1.4513 -1.0385 -0.0749
 4525SOL     OW25036   0.409   4.379   4.734  0.3170  0.3896  0.2089
 4525SOL    HW125037   0.407   4.300   4.787  1.0734  0.4858  0.3687
 4525SOL    HW225038   0.499   4.381   4.704 -0.2185 -1.5542 -1.5589
 4526SOL     OW25039   1.939   1.030   3.573 -0.1287 -0.5700  0.6886
 4526SOL    HW125040   1.858   0.980   3.578 -0.5776  0.1107  0.2046
 4526SOL    HW225041   1.932   1.067   3.485  1.0754 -0.7050  0.5312
 4527SOL     OW25042   1.332   1.712  12.960  0.2733 -0.0203  0.0778
 4527SOL    HW125043   1.375   1.647  12.904 -2.8360 -1.8678 -0.1623
 4527SOL    HW225044   1.389   1.785  12.934  2.1791 -1.2134  0.9694
 4528SOL     OW25045   0.898   2.422   6.570 -0.3536  0.9092 -0.4098
 4528SOL    HW125046   0.974   2.425   6.629 -3.1537 -0.9308  3.2545
 4528SOL    HW225047   0.925   2.492   6.511 -1.6091  0.9518 -0.9188
 4529SOL     OW25048   4.481   1.963   0.568  0.3004  0.6688  0.1220
 4529SOL    HW125049   4.577   1.965   0.578  0.2104 -0.2328  1.2256
 4529SOL    HW225050   4.482   1.983   0.474 -1.0854  1.4716  0.2817
 4530SOL     OW25051   0.249   3.333   8.179 -0.4509  0.0948  0.0967
 4530SOL    HW125052   0.168   3.381   8.196  0.1592  1.3483 -0.5558
 4530SOL    HW225053   0.237   3.264   8.245  0.6835 -0.0707  0.1337
 4531SOL     OW25054   1.011   3.384   2.408  0.0751 -0.0624 -0.3138
 4531SOL    HW125055   1.002   3.373   2.313 -1.1725 -1.1037 -0.0703
 4531SOL    HW225056   1.060   3.466   2.409 -0.2291  0.1011  0.9920
 4532SOL     OW25057   3.325   3.096  15.122 -0.3270  0.0707  0.4301
 4532SOL    HW125058   3.371   3.012  15.112 -0.3329  0.1797 -0.5077
 4532SOL    HW225059   3.286   3.112  15.036 -0.0596 -0.3416  0.2316
 4533SOL     OW25060   1.414   3.950  11.559 -0.4605  0.3130 -0.4650
 4533SOL    HW125061   1.500   3.936  11.517  0.0390  0.0591  0.6464
 4533SOL    HW225062   1.423   4.039  11.592  1.0279 -0.3065  0.8114
 4534SOL     OW25063   3.712   0.097   5.177 -0.5159 -0.2457 -0.5720
 4534SOL    HW125064   3.660   0.035   5.227  0.4964 -0.8127 -0.2222
 4534SOL    HW225065   3.802   0.073   5.199 -0.6535  1.2386  1.5369
 4535SOL     OW25066   1.940   4.018   1.982  0.0650  0.3915  0.0777
 4535SOL    HW125067   1.903   4.084   2.040 -0.2953  0.0705  0.2143
 4535SOL    HW225068   1.983   4.068   1.913 -2.9529  1.5414 -0.9310
 4536SOL     OW25069   1.566   0.879   8.168 -0.5086 -0.1658 -0.5249
 4536SOL    HW125070   1.602   0.808   8.220 -1.8451  0.5761  1.3906
 4536SOL    HW225071   1.534   0.931   8.241  0.5451 -1.0312  0.5419
 4537SOL     OW25072   3.627   2.844   3.463 -0.2710 -0.6681  0.2736
 4537SOL    HW125073   3.598   2.755   3.440  0.6723 -0.5620 -1.3428
 4537SOL    HW225074   3.543   2.888   3.448  0.4306 -0.0483 -1.7959
 4538SOL     OW25075   3.850   4.646  14.137 -0.1970  0.9879  0.2079
 4538SOL    HW125076   3.866   4.553  14.126 -0.6475  0.9980 -0.5251
 4538SOL    HW225077   3.792   4.650  14.213  0.7321 -0.0731  0.9722
 4539SOL     OW25078   1.650   1.234   5.790  0.1261 -0.4497  0.1896
 4539SOL    HW125079   1.638   1.145   5.824 -0.7502 -0.4315 -0.0656
 4539SOL    HW225080   1.681   1.222   5.701 -1.3020  1.7266 -0.6075
 4540SOL     OW25081   0.641   2.401  14.470  0.2150 -0.4884 -0.3436
 4540SOL    HW125082   0.626   2.364  14.557  1.5993  2.2229  1.0524
 4540SOL    HW225083   0.596   2.485  14.474  0.8090 -0.1598 -0.6073
 4541SOL     OW25084   1.021   3.682   5.525 -0.5109 -0.3995  0.2680
 4541SOL    HW125085   1.048   3.727   5.605  1.1020  0.0416 -0.5379
 4541SOL    HW225086   1.107   3.647   5.503 -0.9956 -0.3727 -1.6527
 4542SOL     OW25087   4.685   0.674   3.586 -0.0117  0.3320  0.1087
 4542SOL    HW125088   4.607   0.632   3.548  0.9029 -1.3225  0.0884
 4542SOL    HW225089   0.017   0.596   3.593 -0.2585  0.0204 -1.3625
 4543SOL     OW25090   2.324   0.169   8.804  0.0949 -0.0047  0.1558
 4543SOL    HW125091   2.245   0.216   8.776  1.2989  2.0934  0.2605
 4543SOL    HW225092   2.306   0.076   8.792  4.0962 -0.8097  0.5303
 4544SOL     OW25093   3.082   2.560   1.742  0.0021 -0.1296  0.5702
 4544SOL    HW125094   3.046   2.537   1.656 -2.6145 -2.4124  2.3071
 4544SOL    HW225095   3.169   2.520   1.733 -0.0035  0.0683 -0.4313
 4545SOL     OW25096   0.433   3.707   6.162 -0.1274  0.0374 -0.1368
 4545SOL    HW125097   0.377   3.643   6.118 -1.9423  3.0894 -2.3024
 4545SOL    HW225098   0.495   3.646   6.201  0.1494  1.1403  1.1455
 4546SOL     OW25099   4.503   4.626   9.181  0.1242  0.4595  0.0713
 4546SOL    HW125100   4.491   4.531   9.186 -0.6158  0.4301 -2.0401
 4546SOL    HW225101   4.575   4.652   9.237 -1.7803  1.0246  2.2160
 4547SOL     OW25102   3.595   3.164  17.569  0.1517  0.2377  0.1694
 4547SOL    HW125103   3.569   3.254  17.548  1.0382  1.1439  3.0131
 4547SOL    HW225104   3.557   3.156  17.656 -2.5542 -3.6534 -1.3693
 4548SOL     OW25105   3.453   3.427   2.240  0.6773 -0.1661 -0.1730
 4548SOL    HW125106   3.428   3.516   2.216  3.5618  0.6116 -0.2038
 4548SOL    HW225107   3.416   3.428   2.328 -2.4239 -0.2033 -1.4688
 4549SOL     OW25108   2.032   4.521   7.659  0.3591  0.1555  0.2754
 4549SOL    HW125109   2.009   4.614   7.656 -1.3684 -0.3049 -1.0493
 4549SOL    HW225110   2.126   4.516   7.641  0.4511 -0.4090  0.9218
 4550SOL     OW25111   2.829   0.921   3.900 -1.0518 -0.1526 -0.3776
 4550SOL    HW125112   2.875   1.003   3.881  0.2361  0.1170  3.8709
 4550SOL    HW225113   2.778   0.932   3.980 -0.4980 -1.5570  0.1634
 4551SOL     OW25114   3.003   2.188   6.408  0.2097 -0.0464 -0.3507
 4551SOL    HW125115   2.980   2.232   6.326  0.0131 -1.5446 -1.1042
 4551SOL    HW225116   3.089   2.227   6.423  0.5979 -1.8310  2.0446
 4552SOL     OW25117   3.878   0.013   9.359  0.5868  0.4202 -0.1288
 4552SOL    HW125118   3.832   4.675   9.416 -2.2345  0.1856 -2.6896
 4552SOL    HW225119   3.806   0.069   9.328  1.4654  1.3589 -0.4923
 4553SOL     OW25120   0.611   0.280   5.438 -0.3612 -0.4566  0.1554
 4553SOL    HW125121   0.592   0.297   5.346  0.8097  0.1763  0.0277
 4553SOL    HW225122   0.546   0.328   5.489 -1.4140 -4.1279  2.3250
 4554SOL     OW25123   1.791   2.718   5.077  0.5407 -0.1978 -0.1243
 4554SOL    HW125124   1.828   2.659   5.142 -1.5091 -0.5284  0.7439
 4554SOL    HW225125   1.727   2.760   5.136 -0.1128 -2.3840  0.7012
 4555SOL     OW25126   1.812   0.985   2.427 -0.4224  0.0697 -0.4201
 4555SOL    HW125127   1.824   1.075   2.396 -1.9549 -0.2963 -2.1052
 4555SOL    HW225128   1.718   0.983   2.410 -0.8163  0.5863  1.7611
 4556SOL     OW25129   3.342   4.188   6.882  0.2213 -0.2429  0.1311
 4556SOL    HW125130   3.412   4.202   6.946 -0.3033  1.6463  0.2969
 4556SOL    HW225131   3.358   4.262   6.824  2.4052 -1.5291 -0.8915
 4557SOL     OW25132   1.737   3.083   3.553 -0.6163  0.1204  0.0153
 4557SOL    HW125133   1.656   3.097   3.603  0.0161 -0.7466  1.2724
 4557SOL    HW225134   1.795   3.027   3.605 -1.3042  0.4454  1.1429
 4558SOL     OW25135   3.689   4.019   6.942 -0.4785  0.5217 -1.0536
 4558SOL    HW125136   3.620   4.079   6.970 -0.0024 -0.2351  1.6545
 4558SOL    HW225137   3.704   3.970   7.022  0.4976 -1.2260 -2.2927
 4559SOL     OW25138   0.430   4.514   9.559  0.0839  0.1083  0.3187
 4559SOL    HW125139   0.461   4.604   9.563 -1.8787  0.6678  2.8731
 4559SOL    HW225140   0.347   4.513   9.606  0.2699  1.3133  0.6528
 4560SOL     OW25141   0.446   1.299  10.422  0.0479  0.3812  0.2511
 4560SOL    HW125142   0.498   1.257  10.353  1.6505  1.1105  1.0087
 4560SOL    HW225143   0.433   1.388  10.389 -0.7711 -0.5091 -1.8410
 4561SOL     OW25144   0.343   3.593   5.109 -0.5849 -0.3664 -0.2230
 4561SOL    HW125145   0.340   3.665   5.172  3.3187  0.5896 -1.1403
 4561SOL    HW225146   0.363   3.634   5.025 -0.1433  1.4591  0.7697
 4562SOL     OW25147   2.524   1.832   3.962 -0.2201  0.1401  0.5668
 4562SOL    HW125148   2.451   1.832   4.023  0.1635  0.2156  1.0247
 4562SOL    HW225149   2.495   1.899   3.899  0.2533  1.2460  1.5231
 4563SOL     OW25150   3.208   0.303   4.648  0.4861 -0.4771  0.2425
 4563SOL    HW125151   3.141   0.263   4.703  0.3487 -0.6869 -0.0776
 4563SOL    HW225152   3.274   0.321   4.715 -0.7002 -0.7118  1.4642
 4564SOL     OW25153   4.100   3.413   6.928 -0.3152  0.6643  0.3414
 4564SOL    HW125154   4.152   3.485   6.962 -0.7126  0.0999  2.1529
 4564SOL    HW225155   4.090   3.347   6.996  0.0127  0.0628 -0.1881
 4565SOL     OW25156   3.830   4.509   5.306 -0.1423 -0.2313  0.5768
 4565SOL    HW125157   3.900   4.450   5.333 -0.8655 -1.2809  0.1803
 4565SOL    HW225158   3.879   4.586   5.278  0.8166 -1.9118 -2.3254
 4566SOL     OW25159   3.896   3.921   6.599 -0.2890 -0.6554  0.3161
 4566SOL    HW125160   3.882   3.827   6.594  2.9819 -1.0614 -0.9688
 4566SOL    HW225161   3.931   3.932   6.688 -0.6127  1.4431  0.1738
 4567SOL     OW25162   2.769   0.308   3.892 -0.1093 -0.4462  0.1888
 4567SOL    HW125163   2.722   0.329   3.811 -0.0011  0.3353  0.3325
 4567SOL    HW225164   2.804   0.221   3.873 -1.7443 -0.6240 -2.0528
 4568SOL     OW25165   2.425   1.397  16.850  0.0128  0.0410 -0.0250
 4568SOL    HW125166   2.493   1.375  16.913 -0.3021 -1.9063 -0.3441
 4568SOL    HW225167   2.394   1.481  16.883 -2.1343  0.0113 -1.9125
 4569SOL     OW25168   4.550   0.419  11.735 -0.4649 -0.4835  0.0684
 4569SOL    HW125169   4.603   0.495  11.758 -1.5021  0.6052 -1.1255
 4569SOL    HW225170   4.561   0.363  11.811  1.3477  2.0066  1.6387
 4570SOL     OW25171   4.213   0.913   4.661 -0.2631 -0.4175 -0.3886
 4570SOL    HW125172   4.283   0.849   4.644 -0.1680  0.0694 -1.8666
 4570SOL    HW225173   4.258   0.992   4.630 -1.4966  0.3954 -0.0934
 4571SOL     OW25174   4.150   3.906  14.907  0.0043  0.3932 -0.3705
 4571SOL    HW125175   4.217   3.877  14.844  0.7685 -0.6787  0.9374
 4571SOL    HW225176   4.112   3.980  14.861  0.2901  1.6526  1.4284
 4572SOL     OW25177   2.511   0.449   7.281  0.0015  0.9053 -0.9164
 4572SOL    HW125178   2.572   0.489   7.219  1.0913  0.2334 -0.2799
 4572SOL    HW225179   2.545   0.359   7.281 -1.4669  0.3574 -2.2504
 4573SOL     OW25180   3.381   3.682   5.444 -0.0866 -0.2235  0.0930
 4573SOL    HW125181   3.301   3.647   5.404  1.5328 -2.6578 -1.0425
 4573SOL    HW225182   3.440   3.669   5.369 -0.5945 -2.5514  0.1029
 4574SOL     OW25183   4.306   3.621   8.202 -0.9752 -0.4436  0.1152
 4574SOL    HW125184   4.233   3.568   8.171 -2.2942  0.5516  1.5215
 4574SOL    HW225185   4.356   3.650   8.125  0.3920 -1.6849  0.5542
 4575SOL     OW25186   4.018   4.691   8.373  0.2362 -0.1130  0.1022
 4575SOL    HW125187   3.957   0.004   8.438  0.4154  0.2160  0.0859
 4575SOL    HW225188   4.005   0.027   8.299  0.4770 -1.1481 -0.7621
 4576SOL     OW25189   3.661   1.478   1.578 -0.0841 -0.4604 -0.6728
 4576SOL    HW125190   3.626   1.544   1.518 -2.1049 -2.1964 -1.3966
 4576SOL    HW225191   3.723   1.517   1.639 -0.8499 -0.2093 -0.0582
 4577SOL     OW25192   3.305   2.290   3.518  0.1465 -0.2437 -0.4808
 4577SOL    HW125193   3.258   2.208   3.530 -0.0611 -0.2140 -1.0942
 4577SOL    HW225194   3.268   2.322   3.436 -0.7594  0.7872  0.3419
 4578SOL     OW25195   1.005   3.756   3.015 -0.0293  0.3678  0.7331
 4578SOL    HW125196   1.045   3.826   2.964 -2.6881  0.0550 -1.7855
 4578SOL    HW225197   0.933   3.800   3.060  0.9130  0.5001  2.0888
 4579SOL     OW25198   0.821   4.107   7.167  0.1195  0.0681 -0.2687
 4579SOL    HW125199   0.876   4.109   7.245  0.4849  0.5003 -0.5361
 4579SOL    HW225200   0.734   4.093   7.205  0.9151 -2.8273  0.4779
 4580SOL     OW25201   4.661   2.627  13.521 -0.0255  0.2344  0.0798
 4580SOL    HW125202   4.689   2.575  13.597 -1.7628 -0.7323  0.0658
 4580SOL    HW225203   0.022   2.642  13.479  0.6469 -1.4506  0.8263
 4581SOL     OW25204   2.230   1.298   1.313 -0.4863  0.1549 -0.4087
 4581SOL    HW125205   2.196   1.212   1.287  0.1516 -1.0027  2.5936
 4581SOL    HW225206   2.176   1.352   1.256 -1.1884  0.8378  0.8989
 4582SOL     OW25207   4.586   1.649   3.583 -0.5185 -0.4963 -0.5227
 4582SOL    HW125208   4.541   1.718   3.633 -0.8278 -1.4408  0.5036
 4582SOL    HW225209   4.659   1.621   3.639  0.2310  0.0325 -1.2396
 4583SOL     OW25210   3.131   2.633   5.713  0.0162 -0.2124 -0.2743
 4583SOL    HW125211   3.136   2.558   5.655  0.6879 -0.1257 -0.3314
 4583SOL    HW225212   3.049   2.632   5.763 -0.7430  0.0394 -1.5175
 4584SOL     OW25213   4.259   0.650  12.598  0.0386 -0.8644  0.2445
 4584SOL    HW125214   4.200   0.646  12.673 -1.2006  2.0716 -0.5775
 4584SOL    HW225215   4.271   0.559  12.570 -0.2302 -0.7881 -0.1247
 4585SOL     OW25216   3.579   1.317  12.729 -0.3430 -0.3780  0.3306
 4585SOL    HW125217   3.663   1.318  12.775 -0.1491  1.4019 -0.0496
 4585SOL    HW225218   3.590   1.401  12.685 -0.1302 -0.0363  1.0211
 4586SOL     OW25219   4.154   2.565   3.227  0.6228  0.0522 -0.5768
 4586SOL    HW125220   4.080   2.612   3.265  1.7777  0.3997  1.2605
 4586SOL    HW225221   4.226   2.595   3.282  1.0664  0.3000 -1.2976
 4587SOL     OW25222   2.713   2.593   3.547 -0.8689  0.2127  0.2260
 4587SOL    HW125223   2.759   2.652   3.607  1.0912  0.1329 -1.2096
 4587SOL    HW225224   2.779   2.582   3.479 -0.9819  2.0229 -0.1747
 4588SOL     OW25225   3.657   4.155  13.603 -0.1720  0.6825  0.7367
 4588SOL    HW125226   3.672   4.093  13.674 -0.3076 -0.7959 -0.5254
 4588SOL    HW225227   3.576   4.193  13.638  0.8010  1.4025  2.1850
 4589SOL     OW25228   2.669   1.543   4.685 -0.0752  0.5638 -0.7584
 4589SOL    HW125229   2.722   1.622   4.685  2.4967 -1.1400  0.9644
 4589SOL    HW225230   2.700   1.496   4.763 -0.0547 -0.2363 -1.2420
 4590SOL     OW25231   1.743   4.416   2.139 -0.5020 -0.0356 -0.0116
 4590SOL    HW125232   1.801   4.370   2.079 -0.0166  0.2066  0.2745
 4590SOL    HW225233   1.657   4.378   2.117 -0.4721 -1.6071  2.5779
 4591SOL     OW25234   2.466   0.229   0.722  0.3658 -0.1028  0.3747
 4591SOL    HW125235   2.524   0.154   0.731  1.8786  1.0776  0.4071
 4591SOL    HW225236   2.528   0.297   0.749 -0.8789  0.4099  1.9833
 4592SOL     OW25237   4.272   2.410   4.501  0.4446  0.1362  0.1514
 4592SOL    HW125238   4.209   2.411   4.429  1.4951  2.0523 -0.7509
 4592SOL    HW225239   4.216   2.418   4.578  1.1123  0.4841  0.6043
 4593SOL     OW25240   2.891   0.120   9.458 -0.3690  0.0176  0.1676
 4593SOL    HW125241   2.838   0.051   9.418 -1.2936  1.1560 -0.5867
 4593SOL    HW225242   2.840   0.140   9.536  0.5709 -0.6897  0.9553
 4594SOL     OW25243   0.890   0.172  11.744 -0.5506  0.2779  0.0900
 4594SOL    HW125244   0.932   0.233  11.683  2.5808 -3.7774 -1.7524
 4594SOL    HW225245   0.897   0.092  11.692  2.9653  0.1948  0.7338
 4595SOL     OW25246   3.221   3.065  16.574 -0.1572  0.2509 -0.1975
 4595SOL    HW125247   3.305   3.023  16.592 -0.7999 -2.0990 -2.7100
 4595SOL    HW225248   3.194   3.026  16.490 -1.0766  0.9402 -0.2215
 4596SOL     OW25249   0.546   3.539  12.366  0.7338 -0.2140  0.5654
 4596SOL    HW125250   0.534   3.446  12.348  2.3342 -0.6423  1.7084
 4596SOL    HW225251   0.526   3.532  12.459  1.5608  0.9097  0.8331
 4597SOL     OW25252   2.299   1.939  10.114  0.3073  0.2079  0.4672
 4597SOL    HW125253   2.232   1.917  10.179 -0.1426  0.6804  0.1682
 4597SOL    HW225254   2.299   1.860  10.060 -1.4619  0.8793 -0.5314
 4598SOL     OW25255   1.377   1.814   0.034  0.4616 -0.4183  0.7294
 4598SOL    HW125256   1.436   1.837  17.659 -0.8947  2.8711  0.6292
 4598SOL    HW225257   1.440   1.798   0.104  0.0920 -0.0445  1.1522
 4599SOL     OW25258   2.138   0.596   6.158  0.5181 -0.5346 -0.1307
 4599SOL    HW125259   2.191   0.637   6.227  0.0569 -1.1220  0.5750
 4599SOL    HW225260   2.203   0.580   6.090  0.5236  0.9316 -0.4691
 4600SOL     OW25261   3.418   2.055   7.523 -0.4166  0.4260 -0.4661
 4600SOL    HW125262   3.362   2.070   7.448 -1.2570  0.5245  0.1801
 4600SOL    HW225263   3.507   2.069   7.492  0.9564 -0.8366  2.8342
 4601SOL     OW25264   4.463   2.425   8.331  0.4777 -0.5977 -0.0744
 4601SOL    HW125265   4.442   2.379   8.413 -0.2974  0.7745  0.4991
 4601SOL    HW225266   4.490   2.354   8.274  1.5607  0.4435 -0.8503
 4602SOL     OW25267   2.131   4.524   7.185 -0.4848 -0.5039 -0.8229
 4602SOL    HW125268   2.195   4.527   7.114  0.1608  0.0262 -0.2327
 4602SOL    HW225269   2.189   4.564   7.250 -1.5072 -2.3833  1.2371
 4603SOL     OW25270   1.337   1.524   8.969  0.4872 -0.0697  0.3394
 4603SOL    HW125271   1.283   1.485   9.037  3.1138 -4.0525  0.2017
 4603SOL    HW225272   1.384   1.585   9.025 -0.6515  1.8687 -0.8273
 4604SOL     OW25273   0.984   3.601   8.981  0.2260 -0.5865 -0.0438
 4604SOL    HW125274   0.996   3.507   8.970 -2.0782 -0.9199  0.2413
 4604SOL    HW225275   0.894   3.598   9.013  1.1452 -1.8780  2.4166
 4605SOL     OW25276   2.911   0.381   7.131  0.1489  0.2805 -0.4863
 4605SOL    HW125277   2.879   0.306   7.181  1.3924  0.5647  0.7585
 4605SOL    HW225278   2.827   0.426   7.124  1.3556  2.6455  0.3450
 4606SOL     OW25279   1.670   2.239  17.105 -0.0004  0.4300 -0.1621
 4606SOL    HW125280   1.582   2.211  17.129  0.7025  0.2130  2.1659
 4606SOL    HW225281   1.650   2.287  17.025  0.3024  1.3963  0.3408
 4607SOL     OW25282   2.480   2.757   5.272 -0.4327 -0.5110 -0.0678
 4607SOL    HW125283   2.546   2.710   5.322  0.6789  0.4216 -0.6485
 4607SOL    HW225284   2.502   2.745   5.180  0.3467 -1.1602  0.2032
 4608SOL     OW25285   0.837   2.358   4.089 -0.0465 -0.8311 -0.3106
 4608SOL    HW125286   0.774   2.318   4.029 -1.9345  1.4311  0.1692
 4608SOL    HW225287   0.791   2.356   4.173 -0.9477 -0.3543 -0.8016
 4609SOL     OW25288   4.619   3.425   3.418  0.3297  0.2631  0.1233
 4609SOL    HW125289   4.544   3.485   3.421 -0.6904 -0.9378 -1.5524
 4609SOL    HW225290   4.578   3.339   3.408 -0.0424  0.5211 -0.5684
 4610SOL     OW25291   2.701   1.686  13.794  0.1084 -0.1160 -0.6538
 4610SOL    HW125292   2.742   1.604  13.822 -0.8442 -0.4443 -0.2332
 4610SOL    HW225293   2.778   1.743  13.789  0.9051 -1.1251  0.1561
 4611SOL     OW25294   3.454   0.335   7.127 -0.0003  0.1889  0.4840
 4611SOL    HW125295   3.487   0.268   7.067  3.2938 -0.1075  2.6902
 4611SOL    HW225296   3.371   0.356   7.084 -0.4069  1.7130  2.0017
 4612SOL     OW25297   3.535   3.505   6.287  0.1751  0.1162  0.9580
 4612SOL    HW125298   3.532   3.451   6.208 -0.6300  1.0153  0.3682
 4612SOL    HW225299   3.448   3.483   6.320 -0.4653  0.0804 -0.7323
 4613SOL     OW25300   1.480   2.645   3.819 -0.3698  0.4791  0.3433
 4613SOL    HW125301   1.502   2.639   3.912  0.5990 -1.2661 -0.0149
 4613SOL    HW225302   1.532   2.579   3.773 -0.6927 -1.8778  3.3544
 4614SOL     OW25303   2.892   0.617   4.197  0.3918 -0.2602  0.3914
 4614SOL    HW125304   2.856   0.666   4.271 -1.7513 -2.2498  0.6507
 4614SOL    HW225305   2.816   0.561   4.184  1.2103 -0.8142 -2.0327
 4615SOL     OW25306   3.775   1.299   5.371  0.2192 -0.1932  0.0180
 4615SOL    HW125307   3.739   1.223   5.418 -0.8659  1.1212  1.3148
 4615SOL    HW225308   3.858   1.254   5.354  0.4053  0.4776 -0.8471
 4616SOL     OW25309   3.745   3.726   8.835 -0.0165  0.2631  0.8023
 4616SOL    HW125310   3.650   3.729   8.849 -0.2635 -0.5413 -0.7016
 4616SOL    HW225311   3.769   3.645   8.880 -1.8139 -1.0141 -0.4898
 4617SOL     OW25312   4.591   0.650   1.018  0.1384  0.1509  0.0376
 4617SOL    HW125313   4.520   0.589   1.038  2.8186 -2.9533 -0.0233
 4617SOL    HW225314   4.645   0.647   1.097 -0.3730  0.7666  0.4169
 4618SOL     OW25315   4.518   1.435   2.284 -0.2912 -0.3382 -0.5120
 4618SOL    HW125316   4.556   1.446   2.371 -1.4485 -1.7636  0.1685
 4618SOL    HW225317   4.593   1.458   2.228 -1.3765  1.3826 -1.2836
 4619SOL     OW25318   1.592   0.721   4.456 -0.2022  0.7036 -0.0146
 4619SOL    HW125319   1.509   0.707   4.410  1.2320 -1.8986 -1.8076
 4619SOL    HW225320   1.584   0.813   4.481  1.7198  1.1516 -1.0742
 4620SOL     OW25321   1.654   1.955   2.682  0.3304  0.2973 -0.2812
 4620SOL    HW125322   1.716   2.018   2.644 -0.2961  1.7683  1.1344
 4620SOL    HW225323   1.636   1.992   2.769 -0.3014  1.6436 -0.9758
 4621SOL     OW25324   0.138   3.569   4.889 -0.1660 -0.3860  0.0581
 4621SOL    HW125325   0.112   3.563   4.981  0.1669 -0.8978  0.1178
 4621SOL    HW225326   0.167   3.660   4.876 -0.5916 -0.3894 -0.8725
 4622SOL     OW25327   3.890   4.015   1.221 -0.0924  0.0575  0.2782
 4622SOL    HW125328   3.950   4.054   1.284  0.5594  0.8254 -0.8284
 4622SOL    HW225329   3.862   4.092   1.172  1.4917  2.3030  2.8790
 4623SOL     OW25330   0.665   1.949  15.989 -0.1305 -0.2638  0.1871
 4623SOL    HW125331   0.696   1.884  15.925  1.8225 -0.1512  1.0094
 4623SOL    HW225332   0.707   1.919  16.070 -1.3537 -0.6757  0.6618
 4624SOL     OW25333   1.893   0.165   2.384 -0.2262  0.8824 -0.1270
 4624SOL    HW125334   1.854   0.078   2.374  1.3575  0.1792 -0.3406
 4624SOL    HW225335   1.982   0.142   2.410 -0.6825 -1.0884 -0.3246
 4625SOL     OW25336   1.166   1.273   6.864 -0.4780 -0.8055  0.6418
 4625SOL    HW125337   1.224   1.293   6.937 -0.2782 -2.5931  0.9589
 4625SOL    HW225338   1.227   1.285   6.791 -0.2788 -1.8343  0.6423
 4626SOL     OW25339   3.302   2.389   0.573  0.4067  0.3545  0.4044
 4626SOL    HW125340   3.261   2.319   0.624 -0.7929  0.2784 -0.6682
 4626SOL    HW225341   3.231   2.427   0.521  1.3874  1.1346 -0.3458
 4627SOL     OW25342   4.391   1.857   6.554  0.2937 -0.1231 -0.0714
 4627SOL    HW125343   4.444   1.850   6.474  1.9462  0.5964  0.9500
 4627SOL    HW225344   4.365   1.949   6.553 -1.9635 -0.7695 -0.1062
 4628SOL     OW25345   3.699   4.723  13.023  0.5115 -0.0091  0.0953
 4628SOL    HW125346   3.682   4.696  12.933 -0.2661 -1.8605  0.7948
 4628SOL    HW225347   3.734   4.644  13.065  1.6804  0.8078  0.6381
 4629SOL     OW25348   3.329   3.096   0.054 -0.0401  0.0268  0.2024
 4629SOL    HW125349   3.306   3.039   0.127  2.0270  0.1426  0.9455
 4629SOL    HW225350   3.421   3.116   0.073 -0.7736  2.2987  1.2493
 4630SOL     OW25351   1.297   2.821   8.216  0.2881 -0.0073 -0.2677
 4630SOL    HW125352   1.260   2.909   8.207 -0.4763 -0.2845  0.1119
 4630SOL    HW225353   1.292   2.787   8.127 -0.8884  2.5127 -1.1637
 4631SOL     OW25354   0.653   2.451   6.408  0.1022 -0.8787 -0.1318
 4631SOL    HW125355   0.582   2.513   6.393  1.0358 -0.6818 -3.6715
 4631SOL    HW225356   0.703   2.513   6.462 -0.6740 -1.6245  1.4414
 4632SOL     OW25357   0.542   3.302   4.537  0.4139  0.3685  0.0611
 4632SOL    HW125358   0.591   3.219   4.544  1.0446  0.7914  0.6572
 4632SOL    HW225359   0.580   3.323   4.451  0.1848  1.6711  0.2859
 4633SOL     OW25360   1.407   0.853   8.967  0.3159 -0.0272  0.3068
 4633SOL    HW125361   1.364   0.808   8.893 -2.3786 -1.0804  2.5128
 4633SOL    HW225362   1.382   0.789   9.033 -0.0951 -1.8608 -1.6068
 4634SOL     OW25363   3.211   2.580  12.622 -0.1457  0.0504  0.1034
 4634SOL    HW125364   3.304   2.594  12.602  0.0464  0.0129  0.9768
 4634SOL    HW225365   3.192   2.663  12.665  0.4249  1.0617 -1.5991
 4635SOL     OW25366   4.375   0.871  15.724  0.4955  0.5633  0.2136
 4635SOL    HW125367   4.455   0.922  15.713  0.8407  0.3571  1.7605
 4635SOL    HW225368   4.305   0.936  15.735  1.0272  1.1772  0.0045
 4636SOL     OW25369   1.421   1.375   0.528 -0.8483  0.0568 -0.4438
 4636SOL    HW125370   1.403   1.444   0.465 -0.0776 -0.2256 -0.9842
 4636SOL    HW225371   1.478   1.320   0.474  0.6093 -0.0210  1.1426
 4637SOL     OW25372   2.421   2.643  13.776  0.0233 -0.7166 -0.2416
 4637SOL    HW125373   2.358   2.700  13.820 -0.5954 -0.2561 -1.7477
 4637SOL    HW225374   2.501   2.677  13.816 -0.8654  0.4490  0.5381
 4638SOL     OW25375   1.045   4.567   3.822 -0.2071  0.1043  0.5311
 4638SOL    HW125376   1.053   4.641   3.762  2.2235 -1.3874 -0.9725
 4638SOL    HW225377   1.103   4.603   3.889  0.2847  0.9408 -0.3621
 4639SOL     OW25378   0.784   1.337   9.229 -0.2023  0.1744  0.0604
 4639SOL    HW125379   0.801   1.281   9.153 -2.6325  1.0871 -1.1444
 4639SOL    HW225380   0.689   1.346   9.227 -0.2309 -0.3601 -1.0905
 4640SOL     OW25381   1.761   0.294   5.397  0.1438  0.4477 -0.4187
 4640SOL    HW125382   1.715   0.293   5.314 -0.8199  0.8637  0.1160
 4640SOL    HW225383   1.851   0.307   5.366  0.8132 -1.2030  0.7726
 4641SOL     OW25384   2.689   0.469   4.773 -0.2958  0.7131 -0.0188
 4641SOL    HW125385   2.722   0.556   4.795 -2.3735  0.8834  2.3745
 4641SOL    HW225386   2.638   0.448   4.851  0.9650 -1.9531  0.1182
 4642SOL     OW25387   0.724   4.690   1.439 -1.0141 -0.4115  0.4709
 4642SOL    HW125388   0.737   4.605   1.396  0.0801 -0.9008  1.7572
 4642SOL    HW225389   0.788   0.031   1.409 -0.1053 -0.5807  1.9796
 4643SOL     OW25390   4.317   1.093   6.420  0.0376 -0.3063 -0.7515
 4643SOL    HW125391   4.251   1.026   6.398  0.3330 -0.8072 -0.1083
 4643SOL    HW225392   4.319   1.085   6.515  1.1681  1.7870 -0.5990
 4644SOL     OW25393   0.248   3.222   5.388  0.0732  0.3817 -0.4124
 4644SOL    HW125394   0.187   3.235   5.460  1.0585  0.1758  0.4499
 4644SOL    HW225395   0.190   3.180   5.324  0.9230  0.9187 -1.5241
 4645SOL     OW25396   1.911   1.053   2.717 -0.0033 -0.0465  0.6430
 4645SOL    HW125397   1.944   0.965   2.734  1.0469  0.6173  2.0894
 4645SOL    HW225398   1.876   1.039   2.629  0.8962 -0.6278  0.3715
 4646SOL     OW25399   3.602   2.501   3.359 -0.1122  0.0854 -0.2377
 4646SOL    HW125400   3.614   2.499   3.264  0.8434 -0.6304 -0.0929
 4646SOL    HW225401   3.692   2.506   3.390 -0.3183 -2.3009  0.6721
 4647SOL     OW25402   0.721   1.719   7.555 -0.1616 -0.5478  0.2744
 4647SOL    HW125403   0.730   1.733   7.650 -0.4440  1.0418  0.0641
 4647SOL    HW225404   0.661   1.789   7.533  2.3320  0.7751 -2.2376
 4648SOL     OW25405   0.556   0.537   2.066 -0.4347  0.5677 -0.7535
 4648SOL    HW125406   0.649   0.528   2.086 -0.6117  3.4544  1.4193
 4648SOL    HW225407   0.527   0.447   2.057 -0.3452  0.3568  1.1284
 4649SOL     OW25408   2.844   3.522   2.756 -0.0587  0.2499 -0.0069
 4649SOL    HW125409   2.817   3.584   2.824  0.7858 -0.8856  1.3674
 4649SOL    HW225410   2.798   3.562   2.682 -2.5196  2.9591  2.9992
 4650SOL     OW25411   1.089   2.583   2.660  0.6007 -0.2282  0.1930
 4650SOL    HW125412   1.068   2.490   2.673  3.8930 -1.1916 -1.4090
 4650SOL    HW225413   1.098   2.612   2.750 -1.4083 -0.0777  0.3351
 4651SOL     OW25414   2.514   2.461  14.606 -0.4146  0.2750 -0.4124
 4651SOL    HW125415   2.563   2.543  14.615  0.1326 -0.0374 -0.5327
 4651SOL    HW225416   2.452   2.484  14.675  0.9691 -0.9690  1.2538
 4652SOL     OW25417   2.552   2.079   0.195 -0.3265 -0.2980  0.4944
 4652SOL    HW125418   2.563   2.170   0.167 -2.0163 -0.6611 -1.3246
 4652SOL    HW225419   2.542   2.081   0.290 -0.7086 -1.1270  0.4733
 4653SOL     OW25420   3.911   2.587  15.427  0.4901 -0.1603 -0.4923
 4653SOL    HW125421   3.889   2.637  15.348  1.6902  1.6063  0.2989
 4653SOL    HW225422   3.980   2.528  15.399  2.2000  1.9711 -0.8047
 4654SOL     OW25423   1.676   0.661   1.811  0.5764 -0.4891 -0.0878
 4654SOL    HW125424   1.606   0.655   1.745  0.3595  0.0339  0.0957
 4654SOL    HW225425   1.687   0.568   1.830  0.5827 -0.2919  0.8882
 4655SOL     OW25426   3.955   4.162   2.403  0.0644  0.5587 -0.0811
 4655SOL    HW125427   3.887   4.108   2.363 -0.0435  0.1903  0.6025
 4655SOL    HW225428   3.989   4.218   2.333 -1.0130  0.9674 -0.2791
 4656SOL     OW25429   0.923   1.909   0.360 -0.5339 -0.2710  0.2671
 4656SOL    HW125430   1.007   1.878   0.395  1.3846  1.3957 -2.7801
 4656SOL    HW225431   0.934   1.998   0.394  0.2235  0.7884 -2.7464
 4657SOL     OW25432   2.962   3.344   8.081 -0.4398 -0.4645 -0.7472
 4657SOL    HW125433   2.993   3.433   8.095 -0.5402 -0.3776 -1.0724
 4657SOL    HW225434   2.886   3.336   8.139 -0.3358 -1.2581 -0.7144
 4658SOL     OW25435   3.003   2.750   5.036  0.3142  0.5596  0.0512
 4658SOL    HW125436   2.953   2.817   4.988  3.0194  0.7264 -2.5078
 4658SOL    HW225437   3.087   2.750   4.990  1.5719 -0.9866  2.3389
 4659SOL     OW25438   2.994   4.493   4.457 -0.2363 -0.5766 -0.0520
 4659SOL    HW125439   3.066   4.553   4.435  0.9063 -1.4389  1.3609
 4659SOL    HW225440   2.980   4.521   4.547  1.8930 -0.8986  0.3837
 4660SOL     OW25441   2.355   2.354   8.304 -0.0497 -0.5531  0.1977
 4660SOL    HW125442   2.411   2.420   8.345 -0.1557 -0.1717 -0.2662
 4660SOL    HW225443   2.313   2.327   8.386  1.7563  1.2000  1.6870
 4661SOL     OW25444   4.193   0.237   4.727 -0.0919 -0.5649  0.1077
 4661SOL    HW125445   4.198   0.324   4.687  2.0785 -0.5458  0.4055
 4661SOL    HW225446   4.109   0.201   4.701  1.3954 -3.6081 -0.4774
 4662SOL     OW25447   1.280   3.008   7.838 -0.2781 -0.1979  0.8934
 4662SOL    HW125448   1.270   2.992   7.931  2.7843  1.5364  1.5164
 4662SOL    HW225449   1.365   2.964   7.835  1.3981  2.9563  1.8834
 4663SOL     OW25450   1.397   3.083  16.029  0.3926  0.3240  0.3680
 4663SOL    HW125451   1.353   3.165  16.007 -2.8679 -2.3207 -2.9121
 4663SOL    HW225452   1.413   3.039  15.945  0.5100 -0.5762  0.8665
 4664SOL     OW25453   4.609   0.522  11.261  0.2384  0.4393  0.0227
 4664SOL    HW125454   4.570   0.594  11.211  0.9174  0.9762  0.2618
 4664SOL    HW225455   4.676   0.482  11.206 -1.6104 -2.7115  0.1133
 4665SOL     OW25456   0.477   3.702  17.245 -0.3675  0.0744  0.1824
 4665SOL    HW125457   0.479   3.643  17.170  1.0897 -0.4215  0.6155
 4665SOL    HW225458   0.437   3.643  17.308 -1.8032  0.8632  0.0139
 4666SOL     OW25459   4.513   2.856  13.592  0.3219  0.1128 -0.8083
 4666SOL    HW125460   4.499   2.842  13.685  0.4967  1.3546 -0.6072
 4666SOL    HW225461   4.544   2.767  13.576  1.5383  0.6206 -1.2486
 4667SOL     OW25462   0.921   0.507   5.283  0.0528  0.0750 -0.4497
 4667SOL    HW125463   0.879   0.493   5.198 -2.5863 -0.8007  0.9779
 4667SOL    HW225464   0.938   0.600   5.297 -0.2852 -0.3375  2.6824
 4668SOL     OW25465   0.727   0.509  10.484  0.0331 -0.1443 -0.0498
 4668SOL    HW125466   0.746   0.415  10.486 -0.0948 -0.1786 -0.3428
 4668SOL    HW225467   0.671   0.496  10.407 -0.8594  0.1465  0.5569
 4669SOL     OW25468   0.742   3.083   5.590  0.7217 -0.1186  0.6278
 4669SOL    HW125469   0.731   3.177   5.605 -0.8168 -0.4532  1.6293
 4669SOL    HW225470   0.768   3.099   5.499 -2.3247 -0.7498 -0.3484
 4670SOL     OW25471   4.575   4.478   1.826  0.1882 -0.1362 -0.0614
 4670SOL    HW125472   4.598   4.510   1.739  1.0751  0.3039  0.3368
 4670SOL    HW225473   4.539   4.554   1.872 -0.8683 -1.2980  1.0227
 4671SOL     OW25474   3.588   4.305  15.222 -0.6163 -0.0416  0.4061
 4671SOL    HW125475   3.559   4.278  15.135 -1.3116 -0.3447  0.7336
 4671SOL    HW225476   3.666   4.353  15.193 -0.9885  0.2205 -0.1663
 4672SOL     OW25477   1.938   4.370   7.346  0.3727 -0.3131 -0.1690
 4672SOL    HW125478   2.021   4.401   7.311  0.2568  1.1489  0.8454
 4672SOL    HW225479   1.886   4.441   7.310  0.5471 -0.1145 -0.0288
 4673SOL     OW25480   0.236   2.610   9.158  0.0914  0.7184  0.2768
 4673SOL    HW125481   0.310   2.653   9.200  0.9359 -1.5108  1.0544
 4673SOL    HW225482   0.243   2.641   9.067  1.6535 -1.7043 -0.4342
 4674SOL     OW25483   0.410   1.932   3.784 -0.2614 -0.2525 -0.0857
 4674SOL    HW125484   0.497   1.971   3.772 -0.3331 -0.1942 -0.4014
 4674SOL    HW225485   0.396   1.889   3.700  3.0440 -0.5063 -0.5157
 4675SOL     OW25486   2.598   0.541   9.056 -0.1353 -0.0266 -0.2353
 4675SOL    HW125487   2.587   0.448   9.036  1.3103 -0.1882 -0.2982
 4675SOL    HW225488   2.526   0.583   9.009 -1.3711  0.1632  1.8392
 4676SOL     OW25489   0.852   1.889   2.559  0.6737  0.2396  0.4123
 4676SOL    HW125490   0.863   1.967   2.614 -0.8931  1.0096 -0.3614
 4676SOL    HW225491   0.759   1.906   2.547  0.6193 -2.6072 -3.1640
 4677SOL     OW25492   0.641   0.811  14.618  0.4204  0.3373 -0.3400
 4677SOL    HW125493   0.671   0.838  14.705  3.2693 -2.4670 -0.4935
 4677SOL    HW225494   0.662   0.891  14.569  2.8712  0.0965  0.3507
 4678SOL     OW25495   2.007   3.679  16.483  0.3309  0.3528 -0.1524
 4678SOL    HW125496   2.031   3.761  16.440  1.7484 -0.4398 -0.8605
 4678SOL    HW225497   2.095   3.648  16.503 -0.9035 -1.5021  2.4137
 4679SOL     OW25498   1.077   4.431  11.390 -0.2022 -0.3023  0.3020
 4679SOL    HW125499   1.051   4.355  11.441 -0.9887 -1.1276 -1.3321
 4679SOL    HW225500   1.122   4.393  11.315 -1.8612  0.2520 -0.9923
 4680SOL     OW25501   0.130   0.081   2.254  0.9631 -0.2221 -0.1643
 4680SOL    HW125502   0.086   0.015   2.201 -0.8720  0.4961  0.4848
 4680SOL    HW225503   0.224   0.066   2.238  0.8319 -0.2676 -0.8733
 4681SOL     OW25504   3.998   1.979   6.747 -0.3008 -0.3149  0.5698
 4681SOL    HW125505   4.045   2.057   6.775 -0.7371  0.7114 -1.5553
 4681SOL    HW225506   3.987   1.996   6.654 -2.6079 -0.3658  0.8239
 4682SOL     OW25507   2.331   1.645   3.365 -0.7666  0.6301 -0.1017
 4682SOL    HW125508   2.383   1.570   3.337 -1.7229 -0.1471  0.2231
 4682SOL    HW225509   2.264   1.649   3.297 -0.0275  1.0373 -0.8085
 4683SOL     OW25510   2.368   1.934  17.486 -0.4590 -0.6311 -0.5834
 4683SOL    HW125511   2.430   1.931  17.412  1.3565  1.3872  0.8650
 4683SOL    HW225512   2.387   2.008  17.543 -1.7152 -0.3800 -0.4994
 4684SOL     OW25513   3.619   0.469   1.546  0.1778 -0.0758  0.2094
 4684SOL    HW125514   3.684   0.491   1.613 -0.8385 -0.7192  1.4177
 4684SOL    HW225515   3.540   0.478   1.600 -2.3780 -0.0650 -3.5340
 4685SOL     OW25516   3.301   3.306  16.513  0.2447  0.1594 -0.2774
 4685SOL    HW125517   3.259   3.224  16.538  1.5765 -1.3940 -3.2293
 4685SOL    HW225518   3.375   3.298  16.574 -1.1969 -3.3694  1.0475
 4686SOL     OW25519   4.605   3.816   5.018  0.1613 -0.2199  0.3993
 4686SOL    HW125520   4.559   3.792   4.938  0.7755 -0.9834  0.2752
 4686SOL    HW225521   4.532   3.860   5.061  0.3457 -0.0775  0.5647
 4687SOL     OW25522   0.610   2.528   7.837 -0.2135  0.5257  0.5272
 4687SOL    HW125523   0.535   2.559   7.887 -0.8567 -0.5140  0.1893
 4687SOL    HW225524   0.583   2.531   7.745 -1.4285  0.8595  0.9023
 4688SOL     OW25525   0.333   4.512   4.965  0.7435 -0.1502  0.1707
 4688SOL    HW125526   0.353   4.463   4.886 -1.0502 -2.0147  0.8608
 4688SOL    HW225527   0.405   4.497   5.027  0.2742  0.0333  0.7626
 4689SOL     OW25528   4.243   2.220   8.188 -0.2137 -0.3192 -0.1486
 4689SOL    HW125529   4.222   2.202   8.279 -0.2717 -2.2958 -0.5474
 4689SOL    HW225530   4.310   2.157   8.163 -0.2413  0.0160 -1.0760
 4690SOL     OW25531   4.015   4.604   8.675 -0.3403  0.3210 -0.5312
 4690SOL    HW125532   3.940   4.642   8.629  0.3276  1.2224 -0.8740
 4690SOL    HW225533   3.994   4.510   8.671 -1.3450  0.5968 -1.7247
 4691SOL     OW25534   0.596   3.073   6.196 -0.6369  0.2559  0.4963
 4691SOL    HW125535   0.689   3.090   6.182 -0.4754 -1.7358 -0.8657
 4691SOL    HW225536   0.577   3.038   6.109 -2.4196  2.2182  0.0879
 4692SOL     OW25537   3.920   1.023   3.683 -0.4885 -0.4801 -0.3502
 4692SOL    HW125538   3.853   1.072   3.635  0.9288  2.1726  0.3998
 4692SOL    HW225539   3.953   0.972   3.609  1.3922 -0.2528  0.3151
 4693SOL     OW25540   2.772   0.067   7.967 -0.1466  0.1103  0.1776
 4693SOL    HW125541   2.767   0.162   7.955  0.4104  0.0546 -0.5112
 4693SOL    HW225542   2.745   0.059   8.058  3.0642 -0.1311  1.0941
 4694SOL     OW25543   2.037   2.559   2.245  0.3014 -0.2833 -0.4452
 4694SOL    HW125544   1.944   2.561   2.265 -0.1524  0.8510 -2.7312
 4694SOL    HW225545   2.020   2.478   2.198  1.1771 -0.4962 -0.4039
 4695SOL     OW25546   3.264   3.742  17.134  0.2243 -0.1012  0.1910
 4695SOL    HW125547   3.277   3.660  17.181 -0.4419  0.8886  2.0913
 4695SOL    HW225548   3.179   3.780  17.157 -0.1397 -0.5219 -0.4766
 4696SOL     OW25549   2.671   4.115   8.343  0.1077  0.0675  0.0681
 4696SOL    HW125550   2.577   4.107   8.362  0.1420 -1.1847 -0.2386
 4696SOL    HW225551   2.702   4.038   8.390 -0.4326 -1.5339 -2.1398
 4697SOL     OW25552   2.856   0.699  11.534 -0.3308  0.2014  0.3890
 4697SOL    HW125553   2.915   0.744  11.595  0.8922 -1.8529  0.7342
 4697SOL    HW225554   2.910   0.621  11.518  0.8079  1.6442 -2.6220
 4698SOL     OW25555   1.407   3.290   1.897 -0.3206  0.1632  0.8860
 4698SOL    HW125556   1.351   3.295   1.820 -0.9412 -1.4919  1.2314
 4698SOL    HW225557   1.377   3.354   1.962 -2.7983 -0.9657  0.8432
 4699SOL     OW25558   3.177   0.095   6.521 -0.1731 -0.3438  0.2888
 4699SOL    HW125559   3.161   0.092   6.427 -0.1187  0.3915  0.2583
 4699SOL    HW225560   3.242   0.165   6.519 -0.4299 -0.1226 -0.3737
 4700SOL     OW25561   1.816   3.735  10.966  0.3433 -0.4614  0.2423
 4700SOL    HW125562   1.842   3.800  11.032  1.3346  2.3852 -2.9841
 4700SOL    HW225563   1.887   3.725  10.904  0.4752 -1.2451  0.5249
 4701SOL     OW25564   3.050   4.411  10.359  0.1393 -0.2819 -0.3131
 4701SOL    HW125565   3.036   4.482  10.422  1.7044  0.1189 -0.4121
 4701SOL    HW225566   2.980   4.413  10.293 -0.6887 -0.3046  0.5706
 4702SOL     OW25567   4.501   0.389   3.218  0.8104 -0.5155 -0.1517
 4702SOL    HW125568   4.521   0.340   3.297 -2.1041 -1.2447  0.1217
 4702SOL    HW225569   4.421   0.343   3.193  0.8851 -1.4086  1.2927
 4703SOL     OW25570   1.695   1.886  16.762 -0.2535 -0.1909 -0.1546
 4703SOL    HW125571   1.774   1.939  16.757  0.3998 -1.2470 -0.8663
 4703SOL    HW225572   1.674   1.896  16.669 -1.9230  1.3510  0.3800
 4704SOL     OW25573   4.273   1.058   4.075  0.2002 -0.5198 -0.7088
 4704SOL    HW125574   4.349   1.011   4.110  0.4409  0.4401  0.0847
 4704SOL    HW225575   4.302   1.140   4.115  1.9507 -1.5526  0.1770
 4705SOL     OW25576   0.336   3.150  11.555  0.0549 -0.4612  0.9431
 4705SOL    HW125577   0.262   3.143  11.615  0.2901 -0.3541  1.2450
 4705SOL    HW225578   0.296   3.115  11.475  0.2618  1.8729 -0.1927
 4706SOL     OW25579   3.599   0.850   6.985 -0.2849  0.6611 -0.5326
 4706SOL    HW125580   3.525   0.792   6.998  0.1599  0.9509  3.3594
 4706SOL    HW225581   3.565   0.926   6.937 -0.8682  1.6172  1.3723
 4707SOL     OW25582   2.440   2.069  16.401 -0.2016 -0.6685  0.8377
 4707SOL    HW125583   2.433   2.088  16.308 -0.6566  3.9250  1.8226
 4707SOL    HW225584   2.471   1.978  16.401  1.7011 -0.0107 -1.3253
 4708SOL     OW25585   2.038   1.427   9.688  0.1085  1.0926 -0.0882
 4708SOL    HW125586   2.032   1.429   9.593  0.1383  0.5848 -0.1000
 4708SOL    HW225587   1.970   1.362   9.706  1.1039 -0.2333 -1.1486
 4709SOL     OW25588   2.893   3.295   4.098  0.1476  0.0686  0.1789
 4709SOL    HW125589   2.933   3.378   4.073 -3.3657  1.8759  0.6429
 4709SOL    HW225590   2.886   3.308   4.193 -2.5731  1.6121 -0.2319
 4710SOL     OW25591   0.193   3.241   2.870 -0.7334 -0.2437  0.4388
 4710SOL    HW125592   0.167   3.246   2.778 -0.8558  0.8935  0.5335
 4710SOL    HW225593   0.107   3.254   2.910  0.0811  1.8195  1.5411
 4711SOL     OW25594   0.720   4.211   6.892 -0.2765 -0.4034 -0.3861
 4711SOL    HW125595   0.744   4.173   6.977  1.6390  2.4463  0.3518
 4711SOL    HW225596   0.805   4.209   6.847 -0.5081 -2.0681 -0.7514
 4712SOL     OW25597   4.021   2.762   2.887 -0.1573  0.4455  0.2188
 4712SOL    HW125598   4.080   2.837   2.877  0.7893 -0.1293  1.4888
 4712SOL    HW225599   3.977   2.758   2.802  2.4281  2.2289 -1.2061
 4713SOL     OW25600   1.150   2.665   7.054 -0.1830 -0.3233  0.7325
 4713SOL    HW125601   1.116   2.584   7.016  0.4059 -0.6817  0.9547
 4713SOL    HW225602   1.238   2.664   7.016 -0.7680 -0.3741 -0.6127
 4714SOL     OW25603   0.028   0.631   7.557  0.1877  0.5878 -0.6617
 4714SOL    HW125604   0.044   0.539   7.578 -2.4558 -0.0236 -1.2894
 4714SOL    HW225605   4.656   0.628   7.568 -0.0703  5.9156 -1.6375
 4715SOL     OW25606   1.347   0.259   7.567 -0.7656 -0.1611  0.2480
 4715SOL    HW125607   1.265   0.209   7.567 -0.4525 -0.6693  0.5003
 4715SOL    HW225608   1.320   0.343   7.604 -0.1202 -0.7026  1.9352
 4716SOL     OW25609   2.112   3.216   3.537  0.3936 -0.3805  0.5383
 4716SOL    HW125610   2.185   3.175   3.491  0.5711 -0.2253  0.6812
 4716SOL    HW225611   2.126   3.309   3.523 -0.1425 -0.0628  2.0665
 4717SOL     OW25612   1.956   3.286  14.096 -0.6031  0.6915 -0.1099
 4717SOL    HW125613   1.886   3.227  14.124 -0.8028 -0.4046 -2.8746
 4717SOL    HW225614   1.996   3.295  14.182 -1.1620  1.7558  0.0538
 4718SOL     OW25615   2.180   4.093   9.770  0.1907  0.4770  0.3530
 4718SOL    HW125616   2.210   4.073   9.682  1.7206  0.2660  0.9235
 4718SOL    HW225617   2.256   4.061   9.818 -0.7488 -1.5284  0.5153
 4719SOL     OW25618   0.874   4.692   0.866 -0.0493 -0.1859 -0.0311
 4719SOL    HW125619   0.935   0.010   0.926  0.1816  1.4591 -1.3931
 4719SOL    HW225620   0.914   4.610   0.838  0.3645  0.4811 -1.4313
 4720SOL     OW25621   4.350   1.064   6.696 -0.1739 -0.2984 -0.2025
 4720SOL    HW125622   4.438   1.079   6.730 -0.9955  2.0450  0.9196
 4720SOL    HW225623   4.321   0.988   6.747  0.0811  0.8587  1.6541
 4721SOL     OW25624   2.553   4.522  11.677  0.0009 -0.1562  0.6944
 4721SOL    HW125625   2.548   4.428  11.659 -0.9082 -0.0619  0.4678
 4721SOL    HW225626   2.646   4.540  11.684  0.2528 -1.5778  1.0093
 4722SOL     OW25627   3.853   3.531   5.690 -0.0861  0.6639 -0.8155
 4722SOL    HW125628   3.778   3.527   5.631 -1.8294 -0.5877  1.5053
 4722SOL    HW225629   3.911   3.591   5.644  0.6571  1.5028  1.1966
 4723SOL     OW25630   1.086   2.393   7.301 -0.2003  0.2639 -0.2539
 4723SOL    HW125631   1.114   2.321   7.359  1.1070  0.7405 -0.3029
 4723SOL    HW225632   1.156   2.457   7.313  0.5508 -0.8880  1.4373
 4724SOL     OW25633   3.165   2.987  16.299 -0.7651  0.4149  0.0492
 4724SOL    HW125634   3.127   3.018  16.217 -2.3352  1.2716  1.1035
 4724SOL    HW225635   3.132   2.898  16.302  0.5802 -0.0518  0.9277
 4725SOL     OW25636   3.506   0.353  17.346  0.2313 -0.4361 -0.5137
 4725SOL    HW125637   3.550   0.268  17.355  1.2694  0.0833 -0.7311
 4725SOL    HW225638   3.528   0.395  17.429  0.2057  1.1795 -1.3216
 4726SOL     OW25639   2.140   2.143   4.634 -0.1398  0.3328  0.1161
 4726SOL    HW125640   2.207   2.121   4.699  0.4045  0.2052 -0.4897
 4726SOL    HW225641   2.062   2.150   4.690  0.1636 -0.1768  0.6024
 4727SOL     OW25642   3.455   3.590   2.698  0.1559 -0.2020 -0.2136
 4727SOL    HW125643   3.430   3.652   2.765  1.2184 -0.7513  0.6898
 4727SOL    HW225644   3.522   3.533   2.736 -0.4516 -2.3596 -2.3363
 4728SOL     OW25645   2.876   2.692   2.605 -0.1778 -0.0344 -0.0633
 4728SOL    HW125646   2.832   2.727   2.528 -0.7118  2.4501  1.3848
 4728SOL    HW225647   2.824   2.736   2.672 -1.8147 -0.0138 -1.3472
 4729SOL     OW25648   3.203   1.349   7.672 -0.2592  0.4022  0.3293
 4729SOL    HW125649   3.229   1.319   7.585 -1.4616 -0.1629  0.1541
 4729SOL    HW225650   3.133   1.285   7.688  0.1692 -0.3861 -0.9127
 4730SOL     OW25651   0.704   0.854  15.180  0.2014  0.1588  0.3285
 4730SOL    HW125652   0.641   0.781  15.188 -0.3482  0.6815  0.7425
 4730SOL    HW225653   0.634   0.920  15.180  0.7054  0.6960  4.1158
 4731SOL     OW25654   2.100   2.402  16.296  0.3714  0.0326  0.3717
 4731SOL    HW125655   2.052   2.484  16.291 -0.1087 -0.0441  3.6845
 4731SOL    HW225656   2.100   2.387  16.201  1.0296 -2.6682  0.7954
 4732SOL     OW25657   0.959   3.774   5.027  0.3171 -1.3909  0.1979
 4732SOL    HW125658   0.932   3.780   5.119  0.1886 -0.5032  0.0964
 4732SOL    HW225659   1.006   3.691   5.042 -0.4796 -1.5302  2.0037
 4733SOL     OW25660   0.342   0.920   6.206  0.4975 -0.0812 -0.0144
 4733SOL    HW125661   0.402   0.927   6.131 -1.0997  0.2150 -1.2661
 4733SOL    HW225662   0.334   1.011   6.234 -0.5694  0.2804 -1.4736
 4734SOL     OW25663   4.322   0.467   8.496  0.7761  0.4424  0.3482
 4734SOL    HW125664   4.301   0.381   8.458  0.2431  0.3330  0.8826
 4734SOL    HW225665   4.307   0.526   8.423 -0.5383 -2.1408 -1.4873
 4735SOL     OW25666   2.055   0.976   8.960 -0.6596  0.0013  0.2264
 4735SOL    HW125667   2.096   1.020   8.886 -0.3496 -0.4674  0.1208
 4735SOL    HW225668   2.124   0.914   8.984 -0.3225 -0.4902 -1.9751
 4736SOL     OW25669   2.429   3.128   3.818 -0.2054 -0.0716 -0.3064
 4736SOL    HW125670   2.477   3.155   3.739 -0.3367  1.6268  0.2090
 4736SOL    HW225671   2.500   3.129   3.882 -2.4470 -0.8322  2.1925
 4737SOL     OW25672   0.373   3.231   3.147  0.0146  0.2256 -0.2427
 4737SOL    HW125673   0.306   3.273   3.202  1.0125  1.2351  0.1991
 4737SOL    HW225674   0.444   3.260   3.205 -0.7888 -2.2586  2.0087
 4738SOL     OW25675   1.829   1.867  13.057 -0.1038  0.1429  0.1428
 4738SOL    HW125676   1.884   1.905  13.126 -1.4306  0.8332  0.8327
 4738SOL    HW225677   1.893   1.810  13.015 -2.8640 -3.0401  0.2728
 4739SOL     OW25678   0.956   4.292  16.881  0.2056 -0.0895  0.3397
 4739SOL    HW125679   1.046   4.294  16.848 -0.6016 -1.3322 -1.9909
 4739SOL    HW225680   0.933   4.209  16.839  1.4902 -0.7505  0.9855
 4740SOL     OW25681   0.490   0.142   7.790 -0.0819  0.4973 -0.4449
 4740SOL    HW125682   0.496   0.165   7.883  0.1500  0.7580 -0.5224
 4740SOL    HW225683   0.559   0.203   7.762 -1.0354  1.8635  0.1938
 4741SOL     OW25684   0.450   0.459   6.620 -0.0939 -0.2554 -0.4926
 4741SOL    HW125685   0.532   0.426   6.657  0.5704 -0.8955 -2.5357
 4741SOL    HW225686   0.470   0.543   6.580  1.0242 -0.3856 -0.2240
 4742SOL     OW25687   2.004   0.088   7.585 -0.2728  0.4173 -0.1521
 4742SOL    HW125688   2.099   0.101   7.582 -0.4010  1.7720  1.8616
 4742SOL    HW225689   1.980   0.178   7.607  1.4956  0.9100 -0.1860
 4743SOL     OW25690   4.003   0.479  10.820 -0.6656 -0.4632 -0.2358
 4743SOL    HW125691   3.922   0.475  10.768  1.6543  2.5927 -4.0898
 4743SOL    HW225692   4.013   0.391  10.857 -1.8029 -0.5722 -0.1869
 4744SOL     OW25693   4.479   1.271   5.229 -0.0788 -0.4391  0.3283
 4744SOL    HW125694   4.442   1.293   5.315 -0.9011  0.0294 -0.1444
 4744SOL    HW225695   4.472   1.349   5.173  1.5929  0.1988  0.9923
 4745SOL     OW25696   1.313   0.722  10.579  0.2361  0.0192 -0.2866
 4745SOL    HW125697   1.263   0.654  10.625 -1.0539 -0.3557 -2.2503
 4745SOL    HW225698   1.305   0.798  10.636 -1.7639  1.4600 -2.4899
 4746SOL     OW25699   1.027   4.453  15.504 -0.1033  0.2274 -0.0887
 4746SOL    HW125700   1.057   4.491  15.421 -0.1785  2.5322  0.9239
 4746SOL    HW225701   1.109   4.423  15.543  0.3499 -0.3319 -1.4830
 4747SOL     OW25702   2.908   3.904   3.735 -0.0827 -0.2019 -0.5832
 4747SOL    HW125703   2.868   3.819   3.720  1.0709 -0.7501 -0.5031
 4747SOL    HW225704   2.873   3.957   3.663  0.1339 -0.2360 -0.7109
 4748SOL     OW25705   4.308   2.716   2.448 -0.1901 -0.5749 -0.1833
 4748SOL    HW125706   4.312   2.658   2.524 -1.6922  1.3468  1.3386
 4748SOL    HW225707   4.237   2.670   2.404 -1.5639  2.1305 -0.8079
 4749SOL     OW25708   2.173   1.452  16.401 -0.1224 -0.3728  0.0245
 4749SOL    HW125709   2.179   1.365  16.362 -0.4557 -0.0611 -0.7300
 4749SOL    HW225710   2.086   1.458  16.438 -0.4148 -0.1605 -0.6851
 4750SOL     OW25711   3.760   2.295  10.811  0.2602 -0.1904 -0.3528
 4750SOL    HW125712   3.734   2.214  10.854  2.1710 -1.7417 -2.0952
 4750SOL    HW225713   3.781   2.352  10.884  4.8067 -0.2773 -1.6307
 4751SOL     OW25714   4.234   2.281  13.968 -0.0424  0.2073  0.1040
 4751SOL    HW125715   4.174   2.293  14.042 -0.1652 -0.8680  0.1761
 4751SOL    HW225716   4.286   2.362  13.964  0.8788 -0.3387  1.1662
 4752SOL     OW25717   0.238   1.043   8.471 -0.6031 -0.1294 -0.5975
 4752SOL    HW125718   0.219   1.134   8.451 -2.0288 -0.1085  0.8237
 4752SOL    HW225719   0.166   0.995   8.429  0.2293 -2.8654  1.1186
 4753SOL     OW25720   2.850   2.075   8.512 -0.4349  0.7312 -0.6817
 4753SOL    HW125721   2.759   2.084   8.538 -0.9210 -1.8190 -1.4690
 4753SOL    HW225722   2.887   2.155   8.550 -0.0076 -0.9711  2.5277
 4754SOL     OW25723   2.494   3.012   2.143  0.0222  0.0436  0.4943
 4754SOL    HW125724   2.438   3.087   2.158  0.2416  0.2389  0.3386
 4754SOL    HW225725   2.540   3.031   2.061  1.7703 -0.9344  1.2335
 4755SOL     OW25726   2.089   4.538   8.027 -0.5909  0.1704  0.3736
 4755SOL    HW125727   2.030   4.495   8.089  1.1432 -2.3161  0.2439
 4755SOL    HW225728   2.172   4.505   8.059 -0.7231 -0.7660 -0.2785
 4756SOL     OW25729   2.681   3.861   0.655  0.1497 -0.1554  0.5455
 4756SOL    HW125730   2.682   3.953   0.680  1.0247 -0.0776  0.2217
 4756SOL    HW225731   2.666   3.820   0.740 -1.0555  0.5062  0.6528
 4757SOL     OW25732   1.187   2.805   9.217  0.4530 -0.6509 -0.1428
 4757SOL    HW125733   1.184   2.777   9.308  0.1529  0.9328  0.3360
 4757SOL    HW225734   1.282   2.806   9.202  0.2420 -1.8918 -1.5337
 4758SOL     OW25735   4.328   0.871   6.891  0.0131 -0.1469 -0.1121
 4758SOL    HW125736   4.246   0.841   6.852 -0.7804 -2.1650  3.0958
 4758SOL    HW225737   4.293   0.933   6.956 -0.4261  0.0379 -0.5231
 4759SOL     OW25738   0.357   2.840   1.942  0.4056 -0.2428  0.2962
 4759SOL    HW125739   0.279   2.888   1.973  0.5984  0.5031 -0.3929
 4759SOL    HW225740   0.331   2.808   1.856 -0.5303 -0.7706  0.7576
 4760SOL     OW25741   3.691   3.295  15.757 -0.0313 -0.2716  0.0196
 4760SOL    HW125742   3.616   3.246  15.791 -2.9231  1.9833 -3.1583
 4760SOL    HW225743   3.763   3.232  15.760 -2.8629 -3.4074  2.4357
 4761SOL     OW25744   0.875   1.301   6.115  0.0989 -0.2533 -0.8537
 4761SOL    HW125745   0.813   1.371   6.130 -0.6228 -0.7954 -1.3130
 4761SOL    HW225746   0.818   1.228   6.138 -0.2295  0.5001  0.7093
 4762SOL     OW25747   2.992   2.881   2.014 -0.2704 -0.0712 -0.1211
 4762SOL    HW125748   3.042   2.958   2.043 -1.0433  0.1089  0.7525
 4762SOL    HW225749   3.050   2.808   2.033 -0.1202  0.0632 -0.0654
 4763SOL     OW25750   3.582   0.393   3.609 -0.1460  0.4390  0.0715
 4763SOL    HW125751   3.620   0.480   3.626  1.5668 -0.6662  1.8149
 4763SOL    HW225752   3.515   0.388   3.676 -0.1353 -0.3051  0.0233
 4764SOL     OW25753   0.422   3.043   5.573  0.2692 -0.4938 -0.1111
 4764SOL    HW125754   0.401   3.135   5.558 -0.3601 -0.5897  0.1710
 4764SOL    HW225755   0.503   3.045   5.521  1.5955 -1.6116  1.9261
 4765SOL     OW25756   1.393   4.093   8.212 -0.2662  0.3403  0.5551
 4765SOL    HW125757   1.467   4.051   8.169  0.3362  0.8298  1.1195
 4765SOL    HW225758   1.311   4.056   8.178 -1.0132  1.0734  1.5415
 4766SOL     OW25759   1.461   3.582   1.550  0.2631 -0.1423  0.4203
 4766SOL    HW125760   1.436   3.609   1.461  0.0329 -0.2272  0.4588
 4766SOL    HW225761   1.441   3.665   1.591  1.5958 -0.4962  1.7679
 4767SOL     OW25762   2.725   4.182   7.934  0.3371 -0.2393  0.5915
 4767SOL    HW125763   2.787   4.251   7.956  0.1763  0.2882 -0.5491
 4767SOL    HW225764   2.646   4.237   7.930  2.0750  2.2100 -0.0903
 4768SOL     OW25765   2.965   2.040   4.439  0.1225 -0.3962 -0.0130
 4768SOL    HW125766   3.023   2.088   4.380 -1.7726  1.3072 -0.4599
 4768SOL    HW225767   2.897   2.107   4.442 -1.3085 -1.8630  0.4727
 4769SOL     OW25768   0.277   1.503   4.951  0.6982  0.1930 -0.0534
 4769SOL    HW125769   0.372   1.508   4.943  0.8753  0.6486  2.1731
 4769SOL    HW225770   0.264   1.596   4.934  1.0153 -0.0849 -1.8285
 4770SOL     OW25771   1.279   3.401  10.121 -0.2096 -0.0544 -0.1332
 4770SOL    HW125772   1.211   3.345  10.159  0.8132 -0.5703  0.9641
 4770SOL    HW225773   1.247   3.384  10.033  1.0144 -0.8846 -0.4167
 4771SOL     OW25774   0.532   3.549   8.520 -0.0193 -0.2538  0.1013
 4771SOL    HW125775   0.441   3.543   8.549  0.2319  1.7157  1.2936
 4771SOL    HW225776   0.538   3.639   8.490  0.0712  0.5363  2.5217
 4772SOL     OW25777   2.718   3.359  17.220 -0.0531 -0.1795 -0.1757
 4772SOL    HW125778   2.785   3.426  17.234  0.9286 -1.1904 -0.0544
 4772SOL    HW225779   2.644   3.415  17.195 -0.5749 -0.5258  0.5987
 4773SOL     OW25780   1.752   2.520   6.713  0.2370 -0.3685 -0.6611
 4773SOL    HW125781   1.839   2.557   6.729 -1.2113  1.5626  2.6624
 4773SOL    HW225782   1.767   2.426   6.696  1.0035 -0.4104  0.2332
 4774SOL     OW25783   1.113   0.689   0.804 -0.7003  0.3830 -0.2705
 4774SOL    HW125784   1.202   0.658   0.790 -0.3149  0.2340  2.4458
 4774SOL    HW225785   1.132   0.781   0.822 -0.0993 -0.3490  2.8327
 4775SOL     OW25786   2.925   0.044   4.524 -0.7598  0.0256 -0.0987
 4775SOL    HW125787   2.881   0.107   4.580  1.4884  0.2368  1.4433
 4775SOL    HW225788   2.896   0.072   4.438 -1.2802 -0.3237 -0.0353
 4776SOL     OW25789   3.854   1.815   1.539  0.8631 -0.2191  0.5390
 4776SOL    HW125790   3.853   1.747   1.607 -0.6370  1.0982  1.8610
 4776SOL    HW225791   3.872   1.891   1.595  1.8891  0.3661 -0.5934
 4777SOL     OW25792   0.441   2.979   7.652  0.0428  0.4061 -0.2429
 4777SOL    HW125793   0.522   2.975   7.703  0.0276 -1.2886 -0.3361
 4777SOL    HW225794   0.441   2.895   7.605  0.3899 -0.1005  0.6645
 4778SOL     OW25795   4.317   0.570   8.232 -0.1406  0.0121 -0.0676
 4778SOL    HW125796   4.237   0.545   8.185 -0.1782  1.7053 -0.9164
 4778SOL    HW225797   4.317   0.664   8.213  1.8806  0.0458  0.1087
 4779SOL     OW25798   3.986   4.701   0.772  0.4588 -0.2739  0.7186
 4779SOL    HW125799   3.961   0.069   0.781 -0.5878 -0.3458 -1.4234
 4779SOL    HW225800   4.076   4.699   0.742  0.3836 -0.5860  0.5080
 4780SOL     OW25801   0.589   0.750   4.802  0.5018  0.2582  0.0476
 4780SOL    HW125802   0.607   0.674   4.858  3.0364 -1.8601 -3.6366
 4780SOL    HW225803   0.516   0.708   4.756  0.2170 -0.0436  0.7656
 4781SOL     OW25804   0.615   0.455   8.212 -0.3349 -0.2981 -0.0659
 4781SOL    HW125805   0.648   0.376   8.253  1.9292  0.2910 -0.7306
 4781SOL    HW225806   0.685   0.520   8.225  0.1156 -0.3628 -2.0220
 4782SOL     OW25807   2.187   3.476   4.671 -0.3344  0.0807 -0.1268
 4782SOL    HW125808   2.173   3.571   4.676  1.7718  0.5224 -2.4737
 4782SOL    HW225809   2.148   3.447   4.754  2.4347 -1.6766  0.5422
 4783SOL     OW25810   2.686   1.887   6.155  0.4368 -0.3688 -0.4691
 4783SOL    HW125811   2.762   1.945   6.154  0.7836 -0.8530 -1.9219
 4783SOL    HW225812   2.617   1.944   6.120  0.4735 -0.1980 -0.2594
 4784SOL     OW25813   4.501   1.034  10.488 -0.1159 -0.1607 -0.8531
 4784SOL    HW125814   4.500   0.972  10.415  0.6706  0.6404 -1.5366
 4784SOL    HW225815   4.572   0.994  10.538 -0.1030 -0.2794 -0.9671
 4785SOL     OW25816   3.500   2.828   0.680 -0.0318  0.9201  0.4570
 4785SOL    HW125817   3.575   2.768   0.676  0.0672  0.8954  2.5779
 4785SOL    HW225818   3.434   2.776   0.727  1.3111 -1.5394 -0.3749
 4786SOL     OW25819   1.133   4.070  17.559  0.1464  0.0703 -0.2479
 4786SOL    HW125820   1.163   3.979  17.564 -1.6318 -0.4600  0.6057
 4786SOL    HW225821   1.117   4.087  17.652 -3.3217 -1.2285 -0.5943
 4787SOL     OW25822   4.209   3.888   3.107  0.2763  0.0641  0.3852
 4787SOL    HW125823   4.276   3.832   3.147  0.4723  2.1066  2.8981
 4787SOL    HW225824   4.151   3.818   3.078  0.6938  0.9301 -2.5324
 4788SOL     OW25825   1.607   0.463  11.317 -0.5889 -0.1850 -0.5463
 4788SOL    HW125826   1.654   0.451  11.234  1.9093 -2.9197  1.2697
 4788SOL    HW225827   1.678   0.502  11.368  0.6262 -3.0325 -0.0709
 4789SOL     OW25828   2.153   1.759   0.104 -0.4186 -0.2130 -0.3707
 4789SOL    HW125829   2.137   1.757   0.010 -2.6238 -2.3988  0.0663
 4789SOL    HW225830   2.243   1.793   0.097 -0.3402 -0.1205  1.1206
 4790SOL     OW25831   1.903   3.315   2.080  0.3414  0.9540  0.0913
 4790SOL    HW125832   1.938   3.300   2.168 -1.8495  1.9083  1.1303
 4790SOL    HW225833   1.836   3.246   2.079  1.9462 -0.5870 -1.3848
 4791SOL     OW25834   0.178   3.740   7.099 -0.2584 -0.3860 -0.0221
 4791SOL    HW125835   0.124   3.672   7.139  0.0170 -0.4715  0.2052
 4791SOL    HW225836   0.254   3.741   7.156 -0.3415 -0.3316  0.0876
 4792SOL     OW25837   2.419   4.442  15.490 -0.0599  0.1894 -0.6209
 4792SOL    HW125838   2.360   4.434  15.565  0.0776  0.3078 -0.5018
 4792SOL    HW225839   2.381   4.520  15.449  1.5719  2.0300  1.3764
 4793SOL     OW25840   1.471   3.491   9.752  0.3665  0.2613  0.6351
 4793SOL    HW125841   1.389   3.529   9.785 -1.2253 -1.7353 -1.0271
 4793SOL    HW225842   1.492   3.550   9.680  2.4446 -0.5261  0.6043
 4794SOL     OW25843   0.348   1.142   3.335  0.0588  0.7738 -0.0476
 4794SOL    HW125844   0.390   1.057   3.324  2.2208  1.9712 -1.0110
 4794SOL    HW225845   0.279   1.121   3.399 -2.3391  0.7667 -2.6051
 4795SOL     OW25846   1.878   2.961   1.452 -0.0719  0.3872  0.1751
 4795SOL    HW125847   1.889   2.907   1.374 -0.7996 -0.3266  0.5747
 4795SOL    HW225848   1.889   2.897   1.522 -0.5494 -0.9852 -1.0135
 4796SOL     OW25849   0.483   4.192   3.070 -0.2442 -0.0750  0.4417
 4796SOL    HW125850   0.516   4.114   3.025  0.7056  0.7030 -0.2129
 4796SOL    HW225851   0.525   4.256   3.013 -1.3397 -0.4293 -0.7606
 4797SOL     OW25852   3.560   3.047   9.346  0.1258 -0.0623 -0.2938
 4797SOL    HW125853   3.592   3.119   9.292  1.8909  0.5206  1.5519
 4797SOL    HW225854   3.520   3.094   9.420  0.5061  2.6801 -1.8236
 4798SOL     OW25855   1.626   2.200   0.305  0.2607  0.1289  0.0513
 4798SOL    HW125856   1.578   2.120   0.328  2.2997 -0.9169  0.6252
 4798SOL    HW225857   1.711   2.172   0.339 -0.3528 -4.7390 -2.3648
 4799SOL     OW25858   2.873   3.679   8.225  0.3506 -0.5408 -0.1430
 4799SOL    HW125859   2.916   3.593   8.227  1.0623 -0.2625 -2.9336
 4799SOL    HW225860   2.954   3.729   8.237 -0.7727  1.3215 -0.3225
 4800SOL     OW25861   1.049   2.378  15.861  0.1259  0.0963 -0.2824
 4800SOL    HW125862   1.078   2.291  15.832 -1.5912 -1.0846  1.5569
 4800SOL    HW225863   0.954   2.372  15.857 -0.0574 -0.5825  4.9393
 4801SOL     OW25864   2.752   0.152   0.939  0.3394  0.1537 -0.2027
 4801SOL    HW125865   2.778   0.080   0.996  0.7371 -0.4461 -1.1377
 4801SOL    HW225866   2.687   0.099   0.893 -0.9552  0.1279  1.6819
 4802SOL     OW25867   0.446   2.325   9.321 -0.0955 -0.1047  0.0345
 4802SOL    HW125868   0.488   2.259   9.376  1.1937 -0.7919 -1.7711
 4802SOL    HW225869   0.491   2.405   9.347  0.5569 -0.3663 -0.2833
 4803SOL     OW25870   2.596   2.508   3.958  0.2612  0.1465  0.3452
 4803SOL    HW125871   2.547   2.427   3.941 -2.5793  2.0953 -0.9171
 4803SOL    HW225872   2.528   2.571   3.983  0.2425  0.2493  0.0331
 4804SOL     OW25873   1.560   0.393   8.666  0.1484 -0.2965  0.3158
 4804SOL    HW125874   1.560   0.301   8.692 -3.4686  0.6117  3.6292
 4804SOL    HW225875   1.596   0.438   8.743  1.9613  1.4609 -1.5652
 4805SOL     OW25876   4.594   0.843  14.529  0.3130  0.0951 -0.0539
 4805SOL    HW125877   4.649   0.777  14.572  1.6889 -0.0793 -2.0683
 4805SOL    HW225878   4.518   0.834  14.586 -1.3176 -2.8850 -2.7451
 4806SOL     OW25879   3.358   3.825  15.623 -0.3507  0.3150  0.3156
 4806SOL    HW125880   3.363   3.758  15.554 -1.8503 -0.4300  0.9279
 4806SOL    HW225881   3.446   3.860  15.637  0.5594 -1.7941 -0.0651
 4807SOL     OW25882   0.664   0.029  17.062 -0.2197  0.1237 -0.4409
 4807SOL    HW125883   0.632   0.057  16.977 -0.4809 -0.1475 -0.4304
 4807SOL    HW225884   0.667   4.657  17.058 -0.0854  0.2098 -2.3294
 4808SOL     OW25885   2.212   2.252   6.204  0.0237  0.1804  0.1935
 4808SOL    HW125886   2.244   2.234   6.292  0.1282 -2.7210 -0.4346
 4808SOL    HW225887   2.227   2.347   6.199 -2.1702  0.5800  1.0301
 4809SOL     OW25888   4.591   2.333   2.706  0.5179 -0.3847  1.1090
 4809SOL    HW125889   4.568   2.304   2.794  0.8276 -1.8846  0.6881
 4809SOL    HW225890   4.662   2.274   2.682  0.9308 -0.1149  1.6768
 4810SOL     OW25891   2.509   3.137   6.731 -0.4983 -0.2481  0.5287
 4810SOL    HW125892   2.485   3.193   6.657  0.0921 -0.0039  0.5119
 4810SOL    HW225893   2.578   3.193   6.767 -0.9399  0.9611 -0.5076
 4811SOL     OW25894   4.177   1.096   2.525 -0.1598  0.6868 -0.1161
 4811SOL    HW125895   4.203   1.060   2.610  0.0500 -1.3767 -1.0437
 4811SOL    HW225896   4.256   1.130   2.482 -0.8667  1.5627 -0.7216
 4812SOL     OW25897   1.652   1.501   0.286  0.0703  0.0687  0.2113
 4812SOL    HW125898   1.659   1.569   0.219 -1.6600 -0.4274 -0.4709
 4812SOL    HW225899   1.558   1.510   0.299  0.2721  2.5097 -0.0511
 4813SOL     OW25900   4.360   0.869   0.521  0.3146 -0.1868 -0.0723
 4813SOL    HW125901   4.396   0.906   0.601  1.1614  1.0243 -1.0162
 4813SOL    HW225902   4.267   0.880   0.539 -0.0528 -0.9198 -1.4664
 4814SOL     OW25903   2.303   3.151   8.256 -0.3177  0.1490  0.0584
 4814SOL    HW125904   2.243   3.224   8.272  2.2373  2.1502  0.4398
 4814SOL    HW225905   2.300   3.097   8.335  1.7267 -1.1040 -0.7236
 4815SOL     OW25906   3.398   2.821  17.104  0.7151 -0.9881 -0.2950
 4815SOL    HW125907   3.480   2.814  17.153  0.0697 -0.2104  0.8903
 4815SOL    HW225908   3.399   2.909  17.068 -0.5193 -0.8111  0.0835
 4816SOL     OW25909   4.534   1.846   7.566  0.0442 -0.1016  0.0009
 4816SOL    HW125910   4.566   1.866   7.478 -0.9226  0.9533 -0.1082
 4816SOL    HW225911   4.441   1.837   7.546 -0.2214 -1.1180  1.6583
 4817SOL     OW25912   0.144   3.490  14.514  0.4671 -0.6174 -0.1938
 4817SOL    HW125913   0.166   3.410  14.562  1.7290  0.6737  1.3877
 4817SOL    HW225914   0.104   3.542  14.585 -0.7496  0.2683 -1.5260
 4818SOL     OW25915   2.219   4.182   5.742 -0.4774  0.0292  0.4695
 4818SOL    HW125916   2.164   4.198   5.818 -1.9288  1.9056 -0.9952
 4818SOL    HW225917   2.215   4.265   5.696 -2.4713 -1.2457 -1.6455
 4819SOL     OW25918   3.352   3.384  13.962  0.0380 -0.5540  0.3598
 4819SOL    HW125919   3.324   3.439  13.888  0.2715 -0.5023  0.3090
 4819SOL    HW225920   3.413   3.321  13.924  1.8966 -0.8907  3.8910
 4820SOL     OW25921   0.130   0.104  14.501 -0.6980 -0.0224  0.5325
 4820SOL    HW125922   0.099   0.014  14.514  0.9840 -0.6091  0.4495
 4820SOL    HW225923   0.056   0.138  14.450 -0.4898 -2.2545 -1.2216
 4821SOL     OW25924   1.158   1.767   0.460 -0.1656  0.2675  0.2912
 4821SOL    HW125925   1.157   1.680   0.501 -0.7165  0.2433  0.2161
 4821SOL    HW225926   1.149   1.732   0.372  0.7212 -2.8091  1.4144
 4822SOL     OW25927   4.321   2.454  15.961 -0.0572 -0.1508 -0.4419
 4822SOL    HW125928   4.322   2.401  16.041 -3.1604  1.0421  0.4135
 4822SOL    HW225929   4.271   2.525  16.001 -1.7127 -0.2167 -2.3874
 4823SOL     OW25930   1.498   1.607   9.190  0.4063 -0.0754 -0.3144
 4823SOL    HW125931   1.457   1.687   9.223  1.5275  1.4087 -2.5304
 4823SOL    HW225932   1.527   1.571   9.274 -1.2974 -1.1057 -0.1594
 4824SOL     OW25933   3.770   3.229   0.546 -0.1250 -0.4054 -0.0491
 4824SOL    HW125934   3.806   3.152   0.589  0.2543  0.2320  0.7865
 4824SOL    HW225935   3.776   3.191   0.459 -0.7170 -1.9207  0.5776
 4825SOL     OW25936   3.136   0.550  11.554  0.7177 -0.5408  0.1043
 4825SOL    HW125937   3.216   0.499  11.567  0.4250 -0.9083  0.4226
 4825SOL    HW225938   3.145   0.578  11.462  2.5646 -1.4542  0.0051
 4826SOL     OW25939   4.298   3.843   4.982 -0.3683 -0.2144  0.3890
 4826SOL    HW125940   4.213   3.880   5.007 -0.0310  0.4386  0.5753
 4826SOL    HW225941   4.279   3.749   4.993  0.4526 -0.4453 -0.2208
 4827SOL     OW25942   1.511   3.903  16.710 -0.4973 -0.1707  0.0198
 4827SOL    HW125943   1.422   3.923  16.683 -0.8079 -1.1124  0.3485
 4827SOL    HW225944   1.510   3.912  16.806  2.9076 -0.3815  0.0738
 4828SOL     OW25945   1.116   2.146   2.242 -0.0233 -0.3185 -0.1479
 4828SOL    HW125946   1.168   2.221   2.270  0.9079 -0.4612 -1.5063
 4828SOL    HW225947   1.181   2.082   2.267  0.8872 -0.0341 -1.7722
 4829SOL     OW25948   2.267   1.764   9.277  0.0467 -0.7327  0.5423
 4829SOL    HW125949   2.252   1.719   9.361 -1.1860 -0.8087  0.2787
 4829SOL    HW225950   2.341   1.712   9.245 -1.6554 -3.1577  0.5453
 4830SOL     OW25951   0.886   1.272   2.184  0.3427  0.3555  0.2273
 4830SOL    HW125952   0.836   1.350   2.159  2.1432  1.0938 -1.0650
 4830SOL    HW225953   0.867   1.262   2.278 -2.0873 -1.1220 -0.4269
 4831SOL     OW25954   3.523   2.701   4.784  0.5268 -0.0845  0.3327
 4831SOL    HW125955   3.511   2.727   4.693 -2.6591  0.3975  0.9081
 4831SOL    HW225956   3.584   2.769   4.814  0.4828  0.1051 -0.0138
 4832SOL     OW25957   4.710   0.395   2.518  0.5928 -0.7530 -0.0469
 4832SOL    HW125958   4.636   0.455   2.525  1.7853  0.6394  0.5065
 4832SOL    HW225959   4.701   0.368   2.610  0.8760  0.7999  0.4258
 4833SOL     OW25960   2.150   1.758   3.770  0.2895  0.7742  0.6707
 4833SOL    HW125961   2.168   1.828   3.707 -2.1973 -0.6424 -1.6057
 4833SOL    HW225962   2.177   1.679   3.723  0.4389 -0.5307  2.9386
 4834SOL     OW25963   2.242   0.218   5.854  0.4854 -0.3925  0.3420
 4834SOL    HW125964   2.266   0.152   5.920  0.0028 -0.7007  0.2135
 4834SOL    HW225965   2.233   0.153   5.785 -0.0057 -1.9359  1.8455
 4835SOL     OW25966   0.642   0.845   1.988 -0.8053  0.2495  0.3486
 4835SOL    HW125967   0.678   0.888   2.065 -0.7897  3.1535 -1.2494
 4835SOL    HW225968   0.609   0.764   2.026 -2.2510  0.7234  0.1329
 4836SOL     OW25969   3.591   1.074   3.956  0.1332 -0.3041  0.4269
 4836SOL    HW125970   3.664   1.106   4.010 -0.4827  0.9774  0.5193
 4836SOL    HW225971   3.529   1.138   3.991 -0.7474 -2.1125  2.1585
 4837SOL     OW25972   1.131   0.085   3.610  0.4263  0.2624  0.2541
 4837SOL    HW125973   1.100   0.029   3.539  0.5784  0.4803  0.0132
 4837SOL    HW225974   1.202   0.132   3.566 -0.2870  2.5372  1.5367
 4838SOL     OW25975   3.029   0.745   3.971 -0.7439  0.3212 -0.2405
 4838SOL    HW125976   2.968   0.703   4.032 -0.2858 -3.0431 -2.0995
 4838SOL    HW225977   2.971   0.818   3.950  3.5456  3.2430 -1.9304
 4839SOL     OW25978   2.635   0.485   8.767 -0.3659  0.5841  0.1287
 4839SOL    HW125979   2.576   0.550   8.806 -0.8205  1.6328 -2.3012
 4839SOL    HW225980   2.685   0.540   8.707 -0.4012 -2.0273 -2.2749
 4840SOL     OW25981   1.046   2.809  12.039  0.2230 -0.2240  0.7988
 4840SOL    HW125982   1.060   2.802  11.944  3.0693  1.6357  1.0586
 4840SOL    HW225983   1.051   2.904  12.049 -1.5238  0.0555 -0.8958
 4841SOL     OW25984   3.295   4.098   5.429  0.1459 -0.3615 -0.0555
 4841SOL    HW125985   3.384   4.070   5.404  0.6873  0.2139  1.2798
 4841SOL    HW225986   3.258   4.127   5.345  0.2734  2.1100  0.7710
 4842SOL     OW25987   1.750   2.031   6.250 -0.1672 -0.0598  0.0272
 4842SOL    HW125988   1.820   2.087   6.283 -0.1791 -0.3267  0.4882
 4842SOL    HW225989   1.696   2.098   6.208  1.2132 -1.1045 -3.4127
 4843SOL     OW25990   0.875   1.330   4.122 -0.6223 -0.1159 -0.1391
 4843SOL    HW125991   0.931   1.398   4.159 -1.4887 -0.4289  1.7407
 4843SOL    HW225992   0.911   1.252   4.164  0.4823  0.7267  0.4739
 4844SOL     OW25993   0.874   3.341   3.498 -0.6244 -0.1635  0.3613
 4844SOL    HW125994   0.818   3.412   3.468  0.5906  0.2529 -0.8984
 4844SOL    HW225995   0.874   3.348   3.594  1.2234  2.6113  0.1394
 4845SOL     OW25996   3.787   2.692   0.218 -0.0577  0.4368 -0.5454
 4845SOL    HW125997   3.762   2.630   0.149 -1.8587  0.2893  0.2356
 4845SOL    HW225998   3.828   2.627   0.274 -0.5970  0.8051  0.2778
 4846SOL     OW25999   4.216   3.446   5.622  0.8426  0.3018 -0.3034
 4846SOL    HW126000   4.168   3.430   5.703  0.0893 -0.4050 -0.8857
 4846SOL    HW226001   4.257   3.360   5.607 -2.6370 -1.5564  0.7633
 4847SOL     OW26002   1.209   1.697  10.217  0.4260 -0.0415 -0.1556
 4847SOL    HW126003   1.287   1.721  10.167 -0.3652  2.0082 -0.4039
 4847SOL    HW226004   1.136   1.705  10.156 -0.2156 -0.0646  0.6080
 4848SOL     OW26005   0.112   2.558  13.769 -0.0330 -0.1306  0.3021
 4848SOL    HW126006   0.135   2.545  13.861 -1.6635  0.8739  0.8599
 4848SOL    HW226007   0.168   2.499  13.719 -0.0084 -0.8741  1.1837
 4849SOL     OW26008   0.814   3.336  12.166  0.6946 -0.0707  0.3298
 4849SOL    HW126009   0.880   3.307  12.103  0.5660  1.5115 -0.5201
 4849SOL    HW226010   0.862   3.335  12.250  0.1552  0.2635  0.6429
 4850SOL     OW26011   2.128   1.062   1.212 -0.2838 -0.0505  0.1576
 4850SOL    HW126012   2.071   1.027   1.143 -0.5952 -0.4883  0.6402
 4850SOL    HW226013   2.104   1.004   1.284 -0.2144 -1.2074 -0.7534
 4851SOL     OW26014   2.609   3.553   4.503  0.5057 -0.3223  0.1138
 4851SOL    HW126015   2.650   3.538   4.588  2.1681  0.6912 -0.5213
 4851SOL    HW226016   2.578   3.643   4.499  3.0080  0.5805  1.4832
 4852SOL     OW26017   4.412   3.591  14.250 -0.6849  0.5677 -0.9291
 4852SOL    HW126018   4.338   3.652  14.244 -1.9393 -0.9149 -0.8109
 4852SOL    HW226019   4.457   3.601  14.167 -0.1135  1.8747 -0.4494
 4853SOL     OW26020   1.357   0.928   7.204  0.1208 -0.1487 -0.8188
 4853SOL    HW126021   1.269   0.889   7.202  0.0471 -0.0339  0.2089
 4853SOL    HW226022   1.372   0.913   7.111 -2.1461  1.0901 -1.4018
 4854SOL     OW26023   2.725   2.562   0.323  0.4992 -0.1577 -0.2581
 4854SOL    HW126024   2.769   2.587   0.242  0.4088 -0.1805 -0.3147
 4854SOL    HW226025   2.795   2.523   0.375  1.1682  1.7662  0.2887
 4855SOL     OW26026   3.786   1.734   2.987 -0.3853 -0.0619  0.0913
 4855SOL    HW126027   3.873   1.752   2.952  0.5087 -3.0257  0.7949
 4855SOL    HW226028   3.803   1.654   3.037  3.3898  2.3085  2.5785
 4856SOL     OW26029   1.270   0.553   5.078 -0.2338  0.6076  0.0510
 4856SOL    HW126030   1.219   0.613   5.024 -0.5166 -0.7108 -1.1326
 4856SOL    HW226031   1.339   0.523   5.020 -0.2901 -0.1754  0.3931
 4857SOL     OW26032   2.661   1.621   4.150 -0.1097 -0.0760 -0.4206
 4857SOL    HW126033   2.655   1.660   4.238  0.5641  0.4302 -0.6018
 4857SOL    HW226034   2.573   1.628   4.114 -0.1606  1.2192 -0.0534
 4858SOL     OW26035   2.054   1.227   3.914 -0.3060  0.1799 -0.3208
 4858SOL    HW126036   2.065   1.316   3.881  1.3688  0.6951  1.5925
 4858SOL    HW226037   2.138   1.200   3.877  0.1342 -0.6320  1.2804
 4859SOL     OW26038   0.167   2.474  14.058  0.3495 -0.0258  0.2579
 4859SOL    HW126039   0.168   2.394  14.110 -0.3035 -0.6854 -0.7338
 4859SOL    HW226040   0.253   2.510  14.079 -0.4279  2.7139 -1.3097
 4860SOL     OW26041   1.964   3.701   2.352  0.2370  0.1155 -0.6342
 4860SOL    HW126042   1.939   3.642   2.281  0.0601  0.3583 -0.7735
 4860SOL    HW226043   2.005   3.759   2.288 -0.8451  0.7526 -0.7558
 4861SOL     OW26044   2.999   1.265   6.391 -0.1489 -0.0806 -0.5253
 4861SOL    HW126045   2.989   1.179   6.433 -0.5143 -0.6874 -1.8530
 4861SOL    HW226046   3.013   1.331   6.459 -1.6762 -0.1716 -0.1322
 4862SOL     OW26047   4.151   2.773   7.761 -0.0698  0.2757  0.1853
 4862SOL    HW126048   4.239   2.741   7.742 -0.3494 -1.6989  2.2713
 4862SOL    HW226049   4.103   2.692   7.781 -1.7793  1.4291  0.7414
 4863SOL     OW26050   2.154   4.196  14.010  0.4036 -0.3431  0.4027
 4863SOL    HW126051   2.177   4.112  14.051 -1.6689 -0.5081  1.2185
 4863SOL    HW226052   2.183   4.250  14.083 -2.0254  1.5131 -0.0431
 4864SOL     OW26053   4.083   3.694  16.178  0.8995 -0.1329 -0.2539
 4864SOL    HW126054   4.008   3.753  16.186  0.7072 -0.1342 -2.0261
 4864SOL    HW226055   4.151   3.739  16.228  0.9284 -0.5842  0.1108
 4865SOL     OW26056   1.735   3.374   8.729  0.4884 -0.2230  0.2661
 4865SOL    HW126057   1.778   3.331   8.803  0.6787  0.2126  0.4075
 4865SOL    HW226058   1.811   3.417   8.690  0.2648 -0.3371 -0.2929
 4866SOL     OW26059   1.859   1.048   1.584 -0.2803 -0.1590 -0.2568
 4866SOL    HW126060   1.885   1.020   1.496 -0.4724  0.7285 -0.5968
 4866SOL    HW226061   1.773   1.007   1.590 -0.3824  0.0524 -0.2779
 4867SOL     OW26062   3.585   3.429   0.533  0.7684 -0.2648  0.0079
 4867SOL    HW126063   3.651   3.365   0.560 -1.4426 -1.4754  2.5828
 4867SOL    HW226064   3.561   3.472   0.615  1.6967 -2.3969  1.3992
 4868SOL     OW26065   0.686   2.361   0.619 -0.0760  0.6488 -0.0051
 4868SOL    HW126066   0.745   2.415   0.568  0.9660  0.6595  1.2007
 4868SOL    HW226067   0.636   2.429   0.664  1.3498  0.0305  2.5210
 4869SOL     OW26068   4.209   3.726  15.326 -0.3858  0.0547 -0.2852
 4869SOL    HW126069   4.244   3.815  15.318 -1.1407  0.3635 -0.1456
 4869SOL    HW226070   4.248   3.682  15.250  0.3282 -0.6324  0.4724
 4870SOL     OW26071   1.208   3.082   8.120  0.4415  0.3629  0.4476
 4870SOL    HW126072   1.210   3.131   8.202  0.8709  1.9193 -0.4885
 4870SOL    HW226073   1.117   3.087   8.093  0.4533  0.6182  0.4506
 4871SOL     OW26074   0.745   2.566   8.786  0.0434 -0.4954 -1.3827
 4871SOL    HW126075   0.816   2.502   8.783  1.6119  1.2047  0.7288
 4871SOL    HW226076   0.709   2.558   8.874 -1.9219  1.3453 -2.0113
 4872SOL     OW26077   2.249   1.709   9.539 -0.0954 -0.2738  0.5464
 4872SOL    HW126078   2.173   1.740   9.588  0.3351  2.0339 -0.2673
 4872SOL    HW226079   2.266   1.628   9.588  1.5192 -1.0917 -1.3616
 4873SOL     OW26080   4.010   2.690   4.467  0.1726 -0.3889  0.1221
 4873SOL    HW126081   4.089   2.672   4.417  1.0496 -0.9556  1.7277
 4873SOL    HW226082   3.944   2.629   4.434 -0.5387  0.1499  0.5499
 4874SOL     OW26083   0.418   4.687   1.702 -0.3293 -0.0827  0.1345
 4874SOL    HW126084   0.452   0.053   1.702 -3.7203  1.1800  0.4008
 4874SOL    HW226085   0.499   4.644   1.729  0.7577  1.8941  0.0165
 4875SOL     OW26086   3.927   0.690  15.403  0.1860 -0.0051 -0.0483
 4875SOL    HW126087   3.942   0.595  15.405  0.7312  0.1288  2.1257
 4875SOL    HW226088   4.013   0.729  15.386  0.7149 -0.3557  1.8778
 4876SOL     OW26089   2.416   0.384   2.827 -0.6258  0.0703  0.3742
 4876SOL    HW126090   2.365   0.464   2.836 -1.0886 -0.1589 -0.2032
 4876SOL    HW226091   2.490   0.428   2.783  1.0974  0.0668  3.2930
 4877SOL     OW26092   4.601   3.391   6.764 -0.6719  0.5361 -0.1875
 4877SOL    HW126093   4.600   3.487   6.758  1.7077  0.6580  1.1415
 4877SOL    HW226094   4.630   3.388   6.855 -0.3539  1.2472 -0.2622
 4878SOL     OW26095   4.355   3.157   5.095 -0.3832  0.1106  0.1231
 4878SOL    HW126096   4.342   3.209   5.016  0.7534  0.5353  0.2163
 4878SOL    HW226097   4.323   3.226   5.154  1.0781  0.2664  0.7325
 4879SOL     OW26098   3.939   1.074   7.576 -0.0863  0.4449 -0.7532
 4879SOL    HW126099   3.994   1.151   7.558 -0.9822  1.1097 -0.6515
 4879SOL    HW226100   3.940   1.069   7.671 -1.2468  1.4776 -0.6968
 4880SOL     OW26101   2.464   0.219   3.785 -0.9751 -0.1895  0.5510
 4880SOL    HW126102   2.493   0.148   3.728 -2.6912  0.7645 -1.4696
 4880SOL    HW226103   2.466   0.164   3.864 -2.0576 -1.4491 -0.3022
 4881SOL     OW26104   2.980   1.802   8.393  0.4051 -0.2347 -0.2606
 4881SOL    HW126105   2.919   1.783   8.465  2.8133  0.3467  1.9236
 4881SOL    HW226106   3.033   1.870   8.433  0.1231  0.1717 -0.5826
 4882SOL     OW26107   1.442   0.888  17.468  0.0822 -0.6325  0.3040
 4882SOL    HW126108   1.477   0.867  17.555  1.9359  0.7194 -0.1151
 4882SOL    HW226109   1.397   0.970  17.490  1.9206  0.0920  1.4083
 4883SOL     OW26110   1.114   0.789  11.896  0.0161  0.4235  0.1686
 4883SOL    HW126111   1.182   0.856  11.895  0.6193 -0.1758  0.6063
 4883SOL    HW226112   1.047   0.828  11.839  0.7796  1.3861 -0.0698
 4884SOL     OW26113   2.393   1.551   7.072 -0.4632 -0.0580  0.1021
 4884SOL    HW126114   2.370   1.637   7.108  0.0845  0.5504 -1.0038
 4884SOL    HW226115   2.472   1.537   7.124  1.0971  1.1770 -1.9326
 4885SOL     OW26116   2.821   0.544   6.160 -0.0339 -0.6282  0.8483
 4885SOL    HW126117   2.774   0.560   6.242  0.2131  1.8800  0.5165
 4885SOL    HW226118   2.749   0.523   6.100  2.1269  0.1710 -2.0159
 4886SOL     OW26119   0.570   3.693   2.893 -0.0560  0.5320 -0.3451
 4886SOL    HW126120   0.574   3.613   2.945 -0.2292  0.3311 -0.6393
 4886SOL    HW226121   0.550   3.672   2.802  1.9792 -0.2906 -0.5841
 4887SOL     OW26122   1.255   0.938  17.259  0.1140  0.8457 -0.1045
 4887SOL    HW126123   1.228   0.896  17.341  1.4201 -0.8321 -0.5213
 4887SOL    HW226124   1.346   0.942  17.287  0.3082 -0.9048 -0.4732
 4888SOL     OW26125   1.366   2.216   9.212  0.2191  0.2592 -0.1736
 4888SOL    HW126126   1.406   2.147   9.265  0.4204  2.7207  2.9098
 4888SOL    HW226127   1.272   2.205   9.230  0.0656  0.7759 -0.6853
 4889SOL     OW26128   0.799   3.952   3.117  0.0191 -0.3098 -0.4851
 4889SOL    HW126129   0.733   3.933   3.184 -0.5751  1.1859 -0.6424
 4889SOL    HW226130   0.761   3.953   3.029 -1.3832  1.6673  0.1281
 4890SOL     OW26131   2.790   0.493   0.426  0.1469  0.3836  0.2906
 4890SOL    HW126132   2.783   0.433   0.499  0.1694  0.8551  0.6815
 4890SOL    HW226133   2.876   0.475   0.386  0.3988  1.6681  0.2285
 4891SOL     OW26134   3.842   3.430   5.112  0.1279  0.1622 -0.3428
 4891SOL    HW126135   3.922   3.378   5.103 -0.3499 -0.4778 -0.8598
 4891SOL    HW226136   3.826   3.412   5.205  1.1730  2.4258  0.2702
 4892SOL     OW26137   3.414   4.350   5.866 -0.4303 -0.6230 -0.0502
 4892SOL    HW126138   3.506   4.331   5.887 -0.2930 -0.9826 -1.0140
 4892SOL    HW226139   3.402   4.321   5.776  1.1260  1.9797 -1.0949
 4893SOL     OW26140   2.421   2.006   6.109 -0.3606  0.3715  0.3212
 4893SOL    HW126141   2.338   1.984   6.152 -2.1173  0.2574 -3.0855
 4893SOL    HW226142   2.458   2.082   6.153  0.2882  0.9276 -1.1970
 4894SOL     OW26143   3.344   1.106   2.958  0.0199  0.3901  0.4766
 4894SOL    HW126144   3.256   1.071   2.947  0.5907 -0.6738 -0.6825
 4894SOL    HW226145   3.333   1.148   3.043 -2.5838  0.7649 -0.0529
 4895SOL     OW26146   3.956   3.830  14.234  0.2409 -0.3322  0.0020
 4895SOL    HW126147   3.876   3.882  14.223  1.0782  0.7057 -1.1763
 4895SOL    HW226148   3.921   3.777  14.306 -2.3586  0.2431 -0.8310
 4896SOL     OW26149   1.737   1.066   3.011  0.3063 -0.5955 -0.0375
 4896SOL    HW126150   1.709   1.113   3.090 -0.0006 -0.4830 -0.2121
 4896SOL    HW226151   1.703   1.125   2.944  0.1306 -0.5889  0.0567
 4897SOL     OW26152   2.086   1.975   9.325 -0.1093 -0.1921 -0.1279
 4897SOL    HW126153   2.010   1.933   9.363  0.5051 -1.1994 -0.0286
 4897SOL    HW226154   2.155   1.909   9.335  1.7843  1.5871 -1.3711
 4898SOL     OW26155   1.244   1.857   2.113  0.2218  0.3119  0.0291
 4898SOL    HW126156   1.148   1.855   2.119  0.1577  1.0536 -0.8117
 4898SOL    HW226157   1.260   1.792   2.182  0.1893 -1.2135 -1.4031
 4899SOL     OW26158   1.520   3.075   7.136 -0.0984 -0.1342  0.2484
 4899SOL    HW126159   1.573   3.154   7.134  2.1035 -1.6115  1.0238
 4899SOL    HW226160   1.581   3.019   7.183 -0.3898  0.0695  0.8696
 4900SOL     OW26161   2.902   2.735  14.916  0.6488 -0.3173 -0.0940
 4900SOL    HW126162   2.815   2.708  14.888 -0.1031  0.9466  0.9897
 4900SOL    HW226163   2.907   2.663  14.979 -0.8810 -1.2312 -1.0522
 4901SOL     OW26164   2.908   2.488   0.997 -0.1797  0.1077 -0.2736
 4901SOL    HW126165   2.850   2.537   0.938 -2.3329 -1.2148  0.7558
 4901SOL    HW226166   2.908   2.398   0.965  1.0245 -0.8015  2.2918
 4902SOL     OW26167   2.081   0.578  13.011  0.3251  0.5184  0.1024
 4902SOL    HW126168   2.103   0.617  12.927 -0.0088  0.6100  0.0561
 4902SOL    HW226169   1.988   0.602  13.020 -0.1862 -0.8552 -1.4967
 4903SOL     OW26170   4.206   0.410   3.710 -0.2363  0.0139 -0.2531
 4903SOL    HW126171   4.112   0.399   3.692 -0.2684  0.7782 -0.5591
 4903SOL    HW226172   4.234   0.398   3.619 -1.5270  0.7018 -0.7496
 4904SOL     OW26173   2.683   0.804   6.533 -0.2640  0.3556  0.0906
 4904SOL    HW126174   2.684   0.773   6.623 -0.8261  1.1899  0.3913
 4904SOL    HW226175   2.717   0.729   6.485 -0.8552  1.5095 -2.1509
 4905SOL     OW26176   0.175   4.342  15.664 -0.0350  0.5234 -0.6194
 4905SOL    HW126177   0.093   4.391  15.671 -0.8360 -0.6416 -1.9170
 4905SOL    HW226178   0.215   4.360  15.749 -1.1074 -0.9825  0.2159
 4906SOL     OW26179   4.067   4.612  12.394 -0.2692 -0.6032  0.1011
 4906SOL    HW126180   3.988   4.562  12.372  0.0573 -1.1204  0.0930
 4906SOL    HW226181   4.068   4.622  12.490 -3.3416 -0.1435  0.0681
 4907SOL     OW26182   4.325   3.692   4.561 -0.0721 -0.2976 -0.0330
 4907SOL    HW126183   4.388   3.690   4.489  2.2413  2.0959  1.9413
 4907SOL    HW226184   4.263   3.758   4.530  0.8963  0.1115 -1.0801
 4908SOL     OW26185   1.130   3.419   5.751 -0.5279  0.4304 -0.8979
 4908SOL    HW126186   1.122   3.410   5.656 -0.7256  0.8470 -0.9214
 4908SOL    HW226187   1.129   3.327   5.775 -1.5690  0.3044 -1.4367
 4909SOL     OW26188   3.439   4.125   7.362  0.1539 -0.2685  0.7789
 4909SOL    HW126189   3.520   4.141   7.410 -0.3844  2.6136  0.7165
 4909SOL    HW226190   3.384   4.191   7.405 -1.2950 -1.2890  0.4933
 4910SOL     OW26191   3.271   2.375   7.311  0.3806  0.0176 -0.4001
 4910SOL    HW126192   3.356   2.356   7.272  1.1545  0.1048  1.2965
 4910SOL    HW226193   3.305   2.430   7.381 -1.1889  0.5154 -0.0231
 4911SOL     OW26194   2.638   4.450   0.724  0.0943 -0.8814  0.0013
 4911SOL    HW126195   2.644   4.443   0.629 -0.3041  1.6881 -0.2120
 4911SOL    HW226196   2.731   4.447   0.747 -0.6135  1.2105  3.0673
 4912SOL     OW26197   2.728   3.886  15.014  0.0788 -0.3385 -0.2019
 4912SOL    HW126198   2.701   3.945  14.943  1.0879 -0.4629 -0.6839
 4912SOL    HW226199   2.756   3.814  14.957  0.9373 -0.2370  0.1064
 4913SOL     OW26200   2.693   3.375   6.090  0.1674  0.5651  0.4908
 4913SOL    HW126201   2.737   3.457   6.065  0.3211  0.9661  2.0764
 4913SOL    HW226202   2.668   3.410   6.175 -2.0514 -1.5766  0.7008
 4914SOL     OW26203   2.713   3.299  14.038  0.2041 -0.4318 -0.6863
 4914SOL    HW126204   2.713   3.277  14.131 -0.1710  0.3161 -0.5056
 4914SOL    HW226205   2.659   3.235  13.992  0.8135 -1.7236  0.3943
 4915SOL     OW26206   1.620   3.488   6.487 -0.2436  0.3846 -0.0285
 4915SOL    HW126207   1.634   3.394   6.473 -0.3445  0.5032 -0.9161
 4915SOL    HW226208   1.594   3.512   6.398 -2.1365 -0.1747  0.3725
 4916SOL     OW26209   4.408   3.379   5.872  0.0078  0.6380 -0.0275
 4916SOL    HW126210   4.431   3.420   5.955 -0.3502 -1.4440  1.0937
 4916SOL    HW226211   4.334   3.325   5.900 -1.0888  1.1303 -1.9132
 4917SOL     OW26212   3.054   2.767  10.356 -0.0809 -0.7214  0.4286
 4917SOL    HW126213   3.125   2.831  10.361  0.4908 -1.4220  1.3634
 4917SOL    HW226214   3.011   2.781  10.272  0.8978  2.5581  0.4731
 4918SOL     OW26215   3.702   4.400   6.740 -0.3444  0.6175  0.0435
 4918SOL    HW126216   3.710   4.308   6.714 -0.8423  0.7648 -0.6527
 4918SOL    HW226217   3.609   4.422   6.741 -0.3684  0.4651  0.6698
 4919SOL     OW26218   2.191   2.869   4.562  0.1614  0.6546  0.9389
 4919SOL    HW126219   2.199   2.857   4.467 -0.3851 -1.3961  1.1522
 4919SOL    HW226220   2.277   2.906   4.577  1.0605 -0.4405 -1.4866
 4920SOL     OW26221   1.144   0.006   1.577  0.4656  0.0853 -0.1813
 4920SOL    HW126222   1.131   4.657   1.516 -1.9092  0.1010  0.2952
 4920SOL    HW226223   1.077   4.707   1.642  1.5916  0.2649  1.0460
 4921SOL     OW26224   4.673   3.905   2.759 -0.4235  0.3300 -0.2373
 4921SOL    HW126225   4.589   3.927   2.718 -0.4387 -0.8010 -0.8115
 4921SOL    HW226226   4.652   3.923   2.851  0.3918 -1.3454  0.2845
 4922SOL     OW26227   3.699   2.938   4.795 -0.1940 -0.0980 -0.1247
 4922SOL    HW126228   3.612   2.972   4.815 -0.9896 -1.7492 -0.8574
 4922SOL    HW226229   3.738   3.021   4.768  2.0987 -0.6323  1.5230
 4923SOL     OW26230   1.104   2.465  14.462 -0.4758  0.1871 -0.0403
 4923SOL    HW126231   1.106   2.541  14.405 -0.9794  0.9701  1.0031
 4923SOL    HW226232   1.047   2.497  14.532 -0.4527  0.1489 -0.0041
 4924SOL     OW26233   2.322   3.567   0.786  0.2977 -0.1355  0.2922
 4924SOL    HW126234   2.368   3.629   0.843  0.5883 -1.5203  1.5575
 4924SOL    HW226235   2.285   3.622   0.716  1.0814  1.3944  1.0609
 4925SOL     OW26236   3.928   0.557   2.427  0.1085 -0.6536  0.2955
 4925SOL    HW126237   3.866   0.615   2.384  0.9092  1.9911  2.7435
 4925SOL    HW226238   3.867   0.498   2.473 -0.6341  0.7207  1.0848
 4926SOL     OW26239   3.307   4.404  12.568 -0.1530  0.1678 -0.0735
 4926SOL    HW126240   3.230   4.397  12.512 -0.1900  0.1401 -0.0190
 4926SOL    HW226241   3.298   4.490  12.610 -0.4327  0.8152 -1.4796
 4927SOL     OW26242   3.747   4.358  14.810  0.5102  0.6820  0.0597
 4927SOL    HW126243   3.659   4.363  14.847  0.8928  2.6274  0.7292
 4927SOL    HW226244   3.801   4.404  14.875  0.5333  0.5088  0.1631
 4928SOL     OW26245   1.645   0.479   9.783  0.3256  0.0017  0.1416
 4928SOL    HW126246   1.733   0.495   9.748 -0.3049 -0.6347 -1.7188
 4928SOL    HW226247   1.605   0.566   9.782 -0.8962 -0.5644  0.9952
 4929SOL     OW26248   2.436   0.556   6.601 -0.0454 -0.0187 -0.2997
 4929SOL    HW126249   2.436   0.643   6.639 -2.7037  0.4470 -1.3175
 4929SOL    HW226250   2.413   0.504   6.678 -0.6655  0.6071 -0.0623
 4930SOL     OW26251   1.186   0.386   1.539  0.0934  0.0983  0.6013
 4930SOL    HW126252   1.112   0.417   1.487 -0.9082  1.0255  2.5764
 4930SOL    HW226253   1.239   0.465   1.551 -0.2433  0.0683  2.2926
 4931SOL     OW26254   2.758   4.557   0.471 -0.1814 -0.7339  0.8466
 4931SOL    HW126255   2.813   4.563   0.392 -0.3101 -0.1277  0.8081
 4931SOL    HW226256   2.821   4.533   0.539  0.6853  0.9650  0.6446
 4932SOL     OW26257   1.464   2.517   2.981  0.1246 -0.2520  0.2023
 4932SOL    HW126258   1.457   2.612   2.982  1.0706 -0.1784  0.3106
 4932SOL    HW226259   1.484   2.503   3.074 -0.3162  0.9233  0.4777
 4933SOL     OW26260   1.462   0.928   6.556 -0.1232 -0.5077  0.0905
 4933SOL    HW126261   1.420   0.959   6.475 -1.8438 -2.4235  0.2471
 4933SOL    HW226262   1.394   0.938   6.623 -2.1839 -0.7717 -1.9547
 4934SOL     OW26263   2.054   2.978   7.312  0.4554  0.0001 -0.4299
 4934SOL    HW126264   2.048   3.063   7.269  0.5622 -1.3816 -3.1478
 4934SOL    HW226265   2.021   2.999   7.400 -1.2101 -0.7409 -0.8829
 4935SOL     OW26266   2.661   0.403  11.332 -0.3664 -0.0955 -0.5390
 4935SOL    HW126267   2.708   0.390  11.414 -1.2158  4.1034  0.6505
 4935SOL    HW226268   2.625   0.491  11.349 -1.8671 -1.0562  1.2283
 4936SOL     OW26269   1.896   0.747   5.172 -0.3865  0.1039  0.1195
 4936SOL    HW126270   1.912   0.836   5.200  0.9769  0.4728 -1.8256
 4936SOL    HW226271   1.983   0.736   5.134 -0.6274 -1.6761  0.0838
 4937SOL     OW26272   4.458   1.378   9.867  0.3740 -0.0400  0.7899
 4937SOL    HW126273   4.503   1.442   9.922  0.8251 -0.6475  1.1265
 4937SOL    HW226274   4.423   1.431   9.795  0.4348  0.1668  0.9150
 4938SOL     OW26275   3.728   0.332   8.980 -0.0604  0.8833 -0.0361
 4938SOL    HW126276   3.715   0.237   8.975 -0.2813  0.8016  1.9057
 4938SOL    HW226277   3.699   0.349   8.890 -0.2630  1.7184  0.1891
 4939SOL     OW26278   1.044   2.064   5.193 -0.0509  0.0757 -0.3833
 4939SOL    HW126279   0.967   2.015   5.165 -0.6840 -1.0990  3.4275
 4939SOL    HW226280   1.117   2.009   5.164  1.0796  0.7896  1.1145
 4940SOL     OW26281   1.124   4.531   1.356 -0.4146 -0.0851  0.4079
 4940SOL    HW126282   1.154   4.542   1.266  1.3678  1.8040  1.2520
 4940SOL    HW226283   1.030   4.534   1.339 -0.6817 -2.2081  1.4794
 4941SOL     OW26284   1.410   3.540   4.627 -0.0414 -0.2377 -0.0323
 4941SOL    HW126285   1.331   3.582   4.661 -0.3557 -0.5675 -0.3445
 4941SOL    HW226286   1.384   3.448   4.620 -1.3448  0.0974  0.5070
 4942SOL     OW26287   1.483   1.345   8.356 -0.2277 -0.3763  0.5718
 4942SOL    HW126288   1.568   1.367   8.316 -0.5123 -0.2340  0.0463
 4942SOL    HW226289   1.513   1.305   8.438 -0.9743  0.7391  1.3809
 4943SOL     OW26290   3.917   4.047   4.512 -0.0123 -0.2605 -0.4014
 4943SOL    HW126291   3.968   4.122   4.544 -2.8509  1.1298  0.9751
 4943SOL    HW226292   3.968   4.017   4.437 -1.9931 -2.6784 -0.7737
 4944SOL     OW26293   1.308   0.403   1.243 -0.5248 -0.2651 -1.0784
 4944SOL    HW126294   1.379   0.360   1.290 -2.4487 -1.0517  1.1440
 4944SOL    HW226295   1.295   0.476   1.303  0.1205 -0.3511 -0.8449
 4945SOL     OW26296   4.500   1.352   7.791 -0.0014  0.1533 -0.1020
 4945SOL    HW126297   4.594   1.351   7.804 -0.0586 -0.8389  0.2222
 4945SOL    HW226298   4.484   1.269   7.746  1.5722 -0.4833  0.5251
 4946SOL     OW26299   4.149   3.143  12.000  0.0268  0.4175  0.1915
 4946SOL    HW126300   4.082   3.172  12.062 -1.8690  0.3251 -1.7942
 4946SOL    HW226301   4.192   3.228  11.991  1.9397 -0.5550  0.1666
 4947SOL     OW26302   1.586   1.463   2.819 -0.5376 -0.1608  0.1710
 4947SOL    HW126303   1.529   1.445   2.744 -2.7596 -1.0958  2.0980
 4947SOL    HW226304   1.656   1.400   2.802 -0.8903 -0.1258 -1.4717
 4948SOL     OW26305   1.078   3.953   0.343 -0.0731 -0.4574 -0.2823
 4948SOL    HW126306   1.000   3.898   0.338 -0.7504  0.5970 -1.0827
 4948SOL    HW226307   1.142   3.886   0.369  0.5890  1.4261  3.0172
 4949SOL     OW26308   2.599   4.622   3.179 -0.2663 -0.1388  0.2063
 4949SOL    HW126309   2.524   4.572   3.210 -0.9790  1.8575  1.6886
 4949SOL    HW226310   2.571   4.653   3.093  2.6408  0.8861 -0.3660
 4950SOL     OW26311   3.844   0.560  14.142  0.1236  0.2689  0.5632
 4950SOL    HW126312   3.848   0.653  14.168 -1.7199  0.5867 -0.3335
 4950SOL    HW226313   3.771   0.558  14.081  0.0779  1.1165  0.5840
 4951SOL     OW26314   2.031   0.210   4.382  0.3965  0.2760  0.4804
 4951SOL    HW126315   1.947   0.253   4.363  0.1430 -0.5737 -0.3205
 4951SOL    HW226316   2.083   0.277   4.426 -0.3534 -0.1662  2.0351
 4952SOL     OW26317   1.393   2.047   8.726 -0.1002  0.0812  0.0590
 4952SOL    HW126318   1.434   2.089   8.651 -3.4893  2.0236 -0.7039
 4952SOL    HW226319   1.437   2.086   8.801 -2.3000  1.5150  0.6112
 4953SOL     OW26320   4.556   3.733   4.739  0.5184 -0.8005 -0.5503
 4953SOL    HW126321   4.504   3.704   4.664  0.6768  1.3103 -1.4734
 4953SOL    HW226322   4.643   3.712   4.706  1.2213 -0.9757  1.4095
 4954SOL     OW26323   1.470   3.027   6.228  0.1701  0.1947 -0.5011
 4954SOL    HW126324   1.517   3.020   6.145  0.3727  0.8147 -0.4372
 4954SOL    HW226325   1.415   3.103   6.212  1.3022  1.4222  1.5178
 4955SOL     OW26326   1.566   2.963   3.081  0.1634  0.0875 -0.5732
 4955SOL    HW126327   1.635   3.005   3.132  0.3251  0.8929 -1.4535
 4955SOL    HW226328   1.578   2.998   2.993 -1.8937  1.9882 -0.1096
 4956SOL     OW26329   1.713   1.271   5.517  0.4146 -0.2532  0.1054
 4956SOL    HW126330   1.670   1.292   5.434 -1.3482  1.8547  1.5454
 4956SOL    HW226331   1.739   1.358   5.548  1.6616 -0.8539  0.7278
 4957SOL     OW26332   2.290   2.159   8.128  0.3389  0.5920  0.1319
 4957SOL    HW126333   2.345   2.202   8.063  1.6923 -1.8066 -0.2831
 4957SOL    HW226334   2.301   2.217   8.204 -1.3591 -0.1045  0.9027
 4958SOL     OW26335   3.054   0.602  12.770  0.0600 -0.4766 -0.1739
 4958SOL    HW126336   3.117   0.658  12.814 -0.0746  0.2725 -0.9292
 4958SOL    HW226337   2.972   0.642  12.799  0.3861  1.2403 -1.5846
 4959SOL     OW26338   0.735   0.532   5.043 -0.1490  0.4807 -0.0797
 4959SOL    HW126339   0.790   0.604   5.011  0.1491 -0.6535 -2.1067
 4959SOL    HW226340   0.735   0.473   4.968  1.8252 -1.4944  1.4773
 4960SOL     OW26341   4.060   4.377   5.353  0.4667 -0.5819  0.1250
 4960SOL    HW126342   4.122   4.410   5.287  1.1329 -3.0297 -0.4693
 4960SOL    HW226343   4.095   4.421   5.431  0.8075  0.2510 -0.4927
 4961SOL     OW26344   4.463   2.113  13.315 -0.3743  0.5770  0.4774
 4961SOL    HW126345   4.436   2.028  13.347  0.9182  0.0676  0.1990
 4961SOL    HW226346   4.414   2.162  13.381  0.1323 -2.1379  2.8474
 4962SOL     OW26347   3.228   0.384  12.475 -1.0599  0.5395 -0.2204
 4962SOL    HW126348   3.246   0.296  12.442 -2.3229  0.3173 -0.3198
 4962SOL    HW226349   3.301   0.397  12.536 -0.7948  0.1342 -0.4565
 4963SOL     OW26350   2.920   3.986  15.808 -0.2080 -0.0192  0.7614
 4963SOL    HW126351   2.861   3.997  15.734  1.6620  2.3026 -0.3883
 4963SOL    HW226352   2.990   4.039  15.770  0.9896 -0.8346  1.7807
 4964SOL     OW26353   1.247   1.622   0.784  0.2394  0.3878  0.1257
 4964SOL    HW126354   1.191   1.700   0.786  0.3992  0.4899  0.5431
 4964SOL    HW226355   1.318   1.659   0.835 -1.3469  2.9018  0.5377
 4965SOL     OW26356   1.516   2.745   4.599 -0.0191  0.5801 -0.4659
 4965SOL    HW126357   1.487   2.699   4.678  3.0160  2.1353  1.5728
 4965SOL    HW226358   1.519   2.673   4.535 -0.1857 -0.8000  1.0859
 4966SOL     OW26359   0.728   3.829  17.345 -0.1589  0.9446 -0.1796
 4966SOL    HW126360   0.742   3.882  17.266 -1.3487  1.1367 -0.2546
 4966SOL    HW226361   0.653   3.777  17.316 -0.4807  0.4976  1.4654
 4967SOL     OW26362   2.041   0.120  12.213 -0.0216  0.1594  0.0635
 4967SOL    HW126363   2.135   0.109  12.203 -0.0296 -0.7476  0.9414
 4967SOL    HW226364   2.001   0.043  12.171  2.1317  0.0413 -1.7449
 4968SOL     OW26365   0.944   0.069  11.293 -0.2103  0.4386 -0.2398
 4968SOL    HW126366   0.865   0.105  11.255 -0.9763  0.5238  1.4219
 4968SOL    HW226367   0.997   0.147  11.311  0.4426  0.6250 -3.0097
 4969SOL     OW26368   3.138   4.350  13.661  0.7782 -0.1772 -0.1158
 4969SOL    HW126369   3.227   4.324  13.686  1.4426  0.4796 -1.7491
 4969SOL    HW226370   3.086   4.359  13.740  1.4324 -0.5205  0.3507
 4970SOL     OW26371   0.352   3.308   5.774  0.5549 -0.6095 -0.0973
 4970SOL    HW126372   0.263   3.281   5.751 -0.3977  1.2332  1.3886
 4970SOL    HW226373   0.368   3.355   5.692 -0.5082  0.2638  0.2065
 4971SOL     OW26374   4.588   1.645  10.491 -0.2258  0.3772 -0.0099
 4971SOL    HW126375   4.514   1.702  10.509 -1.0362 -0.7529  0.2824
 4971SOL    HW226376   4.585   1.602  10.577  3.5837 -1.9679 -1.0633
 4972SOL     OW26377   2.903   1.810   0.888  0.1633 -0.2267  0.3595
 4972SOL    HW126378   2.829   1.854   0.928 -1.5006 -0.9809 -1.8610
 4972SOL    HW226379   2.895   1.720   0.919 -0.3356 -0.7866 -1.3614
 4973SOL     OW26380   3.069   2.847   6.383  0.0258 -0.2556 -0.1680
 4973SOL    HW126381   3.026   2.766   6.410  0.4242 -0.9536 -1.6319
 4973SOL    HW226382   3.138   2.866   6.446 -1.0760 -0.5990  1.1320
 4974SOL     OW26383   2.517   0.297   4.429  0.8455 -0.4475 -0.0913
 4974SOL    HW126384   2.472   0.312   4.346 -0.6066  0.9297  0.9465
 4974SOL    HW226385   2.560   0.214   4.409 -1.8344 -1.4375 -1.8195
 4975SOL     OW26386   1.091   1.429   5.940 -0.4040 -0.5192 -0.2305
 4975SOL    HW126387   1.035   1.379   5.999 -0.7244 -0.0051 -0.0962
 4975SOL    HW226388   1.129   1.367   5.878  0.7710 -0.8440  0.8151
 4976SOL     OW26389   1.753   3.408   4.510 -0.2991 -0.5010  0.1723
 4976SOL    HW126390   1.824   3.357   4.549  1.4842  1.0029 -1.0931
 4976SOL    HW226391   1.685   3.403   4.577  0.6027 -1.5439  1.0113
 4977SOL     OW26392   1.084   2.544  12.514 -0.3754  0.4636 -0.3594
 4977SOL    HW126393   1.175   2.553  12.541 -0.4958 -1.8033  0.7457
 4977SOL    HW226394   1.107   2.575  12.426 -1.3294  0.8293 -0.4811
 4978SOL     OW26395   3.129   4.365   3.039  0.0507 -0.1242 -0.3430
 4978SOL    HW126396   3.138   4.450   2.995 -2.3969 -0.8570 -2.2703
 4978SOL    HW226397   3.145   4.303   2.967  1.2071  1.1908 -1.2285
 4979SOL     OW26398   3.833   3.246  14.528 -0.4631  0.3584 -0.2328
 4979SOL    HW126399   3.859   3.338  14.532 -0.6287  0.4298 -0.7445
 4979SOL    HW226400   3.780   3.239  14.449  1.2398 -3.4835 -1.0319
 4980SOL     OW26401   3.643   1.496   5.507  0.2166  0.7258  0.1848
 4980SOL    HW126402   3.564   1.442   5.517  0.9577  0.0790  2.4485
 4980SOL    HW226403   3.702   1.441   5.455  1.1127  0.2887  1.6714
 4981SOL     OW26404   1.443   3.818   5.660 -0.5595 -0.1306 -0.8030
 4981SOL    HW126405   1.401   3.781   5.583  0.2749  0.6370 -1.6288
 4981SOL    HW226406   1.479   3.735   5.693 -3.8437 -0.7405  1.2578
 4982SOL     OW26407   1.623   3.928   8.204 -0.1006 -0.0206  0.3855
 4982SOL    HW126408   1.707   3.922   8.250 -0.7425  1.2008  1.7513
 4982SOL    HW226409   1.581   3.850   8.239 -1.5042  1.6254  2.4239
 4983SOL     OW26410   3.040   4.069  14.279  0.1138 -0.4937  0.2300
 4983SOL    HW126411   3.061   4.154  14.319  2.6262 -0.5289 -1.0086
 4983SOL    HW226412   2.945   4.060  14.285  0.0480  0.7863  1.0778
 4984SOL     OW26413   2.520   3.960   6.763  0.2453  0.1116  0.3131
 4984SOL    HW126414   2.468   4.040   6.768 -1.7358 -1.1295 -0.1891
 4984SOL    HW226415   2.487   3.930   6.679  0.9292  0.5373 -0.1034
 4985SOL     OW26416   2.542   0.071   4.745 -0.1145  0.0997  0.0042
 4985SOL    HW126417   2.472   0.079   4.680 -1.2835 -0.8635  1.1404
 4985SOL    HW226418   2.501   4.720   4.789 -0.7040  1.2106  1.3173
 4986SOL     OW26419   1.131   2.929   7.016 -0.0925 -0.1484  0.0263
 4986SOL    HW126420   1.067   2.966   7.076 -0.6432 -0.0454 -0.6165
 4986SOL    HW226421   1.143   2.835   7.028 -2.3656 -0.0668  2.7458
 4987SOL     OW26422   3.363   3.420   3.955  0.2125  0.9433 -0.4416
 4987SOL    HW126423   3.304   3.487   3.919 -0.1802  0.6986 -0.2469
 4987SOL    HW226424   3.444   3.458   3.921  1.1907 -2.3885 -1.8148
 4988SOL     OW26425   3.411   2.724  17.400  0.2548 -0.3046  0.1994
 4988SOL    HW126426   3.408   2.811  17.359 -1.8329  0.0502  1.1036
 4988SOL    HW226427   3.495   2.692  17.367  0.3062  1.1969 -1.1711
 4989SOL     OW26428   1.627   0.510   4.129  0.3043 -0.2126 -0.1269
 4989SOL    HW126429   1.589   0.521   4.216 -1.0754  0.6942 -0.8493
 4989SOL    HW226430   1.601   0.595   4.092 -0.0588 -0.4155 -0.3392
 4990SOL     OW26431   0.631   1.338   2.470  0.1465  0.3279 -0.0393
 4990SOL    HW126432   0.602   1.298   2.552 -0.9073  1.7376  0.2729
 4990SOL    HW226433   0.684   1.265   2.438 -2.3512 -0.1314 -3.1390
 4991SOL     OW26434   2.451   3.423   7.697  0.1346  0.7335  0.4869
 4991SOL    HW126435   2.540   3.453   7.679  0.1741  0.5006  0.2868
 4991SOL    HW226436   2.471   3.331   7.716 -0.0075  0.6853  0.4022
 4992SOL     OW26437   2.754   0.963   7.245 -0.4011 -0.2611  0.0204
 4992SOL    HW126438   2.687   0.964   7.314  0.2714  1.4751  0.6303
 4992SOL    HW226439   2.802   0.882   7.262  1.2771  0.2744 -2.2140
 4993SOL     OW26440   3.078   4.131   3.179  0.1471 -0.2222  0.0517
 4993SOL    HW126441   3.019   4.078   3.125 -0.0952 -1.0793  1.1606
 4993SOL    HW226442   3.044   4.215   3.149 -2.6103 -2.1352 -2.2025
 4994SOL     OW26443   1.544   0.536   3.246  0.0411  0.0734  0.3315
 4994SOL    HW126444   1.549   0.494   3.332 -1.3907 -2.1560 -0.6703
 4994SOL    HW226445   1.575   0.462   3.194  1.5570  1.6076 -0.9538
 4995SOL     OW26446   2.341   1.497  10.227 -0.0413  0.6153  0.4775
 4995SOL    HW126447   2.257   1.467  10.260 -0.4738  1.2124 -0.0721
 4995SOL    HW226448   2.393   1.426  10.263  1.7307  1.3413 -0.6377
 4996SOL     OW26449   0.243   1.729  11.011 -0.5396  0.1621 -0.8818
 4996SOL    HW126450   0.318   1.784  11.038 -0.2476 -0.5818 -0.1723
 4996SOL    HW226451   0.269   1.654  11.065 -1.8920 -1.0648 -1.9541
 4997SOL     OW26452   0.914   1.098   3.032 -0.3530  0.1555 -0.2807
 4997SOL    HW126453   0.909   1.135   2.944 -0.3247  0.6892 -0.0554
 4997SOL    HW226454   0.882   1.011   3.008 -1.2096  0.3959 -0.0275
 4998SOL     OW26455   0.481   3.487   4.730 -0.1312  0.0259  0.9149
 4998SOL    HW126456   0.446   3.431   4.799 -0.2597 -2.3096 -1.0557
 4998SOL    HW226457   0.493   3.420   4.662 -2.3245  0.3181  0.2420
 4999SOL     OW26458   0.635   3.926   0.406  0.3743  0.0936  0.2619
 4999SOL    HW126459   0.663   4.005   0.452 -1.3628 -0.5499  2.4601
 4999SOL    HW226460   0.542   3.950   0.402 -0.0777 -1.6342  0.2314
 5000SOL     OW26461   3.320   3.493   2.491 -0.0885  0.0573  0.6080
 5000SOL    HW126462   3.233   3.532   2.480 -0.3900  0.0102  2.9070
 5000SOL    HW226463   3.361   3.550   2.556  0.5288  0.0099  0.2535
 5001SOL     OW26464   2.772   1.632   6.056  0.1286 -0.1505  0.2610
 5001SOL    HW126465   2.858   1.657   6.022  0.4943 -1.5067  0.1749
 5001SOL    HW226466   2.733   1.713   6.090 -3.1879 -1.4053 -0.4982
 5002SOL     OW26467   1.262   4.337  15.587 -0.3439 -0.4724  0.4062
 5002SOL    HW126468   1.331   4.318  15.651 -0.7809  2.0837  1.6260
 5002SOL    HW226469   1.235   4.245  15.587  2.6685 -1.3549 -0.5774
 5003SOL     OW26470   0.985   2.813   0.836 -0.2344 -0.2373  0.3649
 5003SOL    HW126471   0.933   2.796   0.757  2.1433 -1.2368 -0.9814
 5003SOL    HW226472   0.997   2.722   0.866  1.8827 -0.1369 -0.2153
 5004SOL     OW26473   3.348   4.282   5.620  0.1504  0.1967  0.2515
 5004SOL    HW126474   3.254   4.294   5.626 -0.0619 -0.1314 -2.2873
 5004SOL    HW226475   3.342   4.209   5.559 -1.1709  0.2709  0.3090
 5005SOL     OW26476   1.587   3.567   4.858  0.1820  0.0185 -0.1142
 5005SOL    HW126477   1.557   3.568   4.767 -0.5356  3.1506  0.1708
 5005SOL    HW226478   1.669   3.615   4.854  0.7138 -1.0741 -2.1474
 5006SOL     OW26479   3.450   4.490   8.141 -0.1242  0.0793  0.2093
 5006SOL    HW126480   3.377   4.485   8.202 -0.6507  0.0995 -0.4223
 5006SOL    HW226481   3.468   4.398   8.125 -1.2870 -0.3051  1.1094
 5007SOL     OW26482   3.750   2.554   7.037  0.4166 -0.1431 -0.3467
 5007SOL    HW126483   3.779   2.463   7.029  1.1984  0.1218 -0.5622
 5007SOL    HW226484   3.738   2.569   7.130  2.4191 -1.6649  0.1552
 5008SOL     OW26485   2.582   1.275   3.981 -0.2266  0.0532  0.2270
 5008SOL    HW126486   2.662   1.309   3.942 -0.5419  1.5495  0.9084
 5008SOL    HW226487   2.595   1.293   4.074 -0.5092 -1.5511  0.5806
 5009SOL     OW26488   2.550   3.617   5.364  0.1419 -0.4859  0.0887
 5009SOL    HW126489   2.454   3.617   5.371  0.2525  0.8056  1.4454
 5009SOL    HW226490   2.574   3.659   5.446 -0.8719  1.1134 -0.4398
 5010SOL     OW26491   2.629   2.574   1.958 -0.2740 -0.1288  0.2446
 5010SOL    HW126492   2.630   2.616   2.043  0.9991 -0.6620  0.4967
 5010SOL    HW226493   2.680   2.645   1.918 -1.8312  1.2004  0.6734
 5011SOL     OW26494   2.078   0.413   6.537  0.0522 -0.4894  0.6799
 5011SOL    HW126495   2.092   0.486   6.598 -1.3728 -0.1304  0.5586
 5011SOL    HW226496   2.051   0.463   6.460  0.3400 -1.2772  0.0652
 5012SOL     OW26497   0.656   3.480  13.659 -0.0121  0.3796  0.8568
 5012SOL    HW126498   0.674   3.539  13.733  0.4473  0.0063  1.0414
 5012SOL    HW226499   0.732   3.424  13.648 -1.1814 -1.2465  1.1174
 5013SOL     OW26500   3.036   0.382   6.177 -0.2745  0.2675 -0.1090
 5013SOL    HW126501   3.102   0.434   6.223  1.4146 -2.0813  0.0639
 5013SOL    HW226502   2.964   0.443   6.160 -1.4656 -1.3752 -0.9625
 5014SOL     OW26503   0.426   1.079   9.013 -0.4458 -0.0466 -0.0663
 5014SOL    HW126504   0.370   1.004   8.989 -0.4867 -0.3616  1.0209
 5014SOL    HW226505   0.412   1.095   9.106 -1.4976 -0.0039 -0.2259
 5015SOL     OW26506   3.766   2.884   2.426  0.0286  0.4159 -0.6828
 5015SOL    HW126507   3.686   2.911   2.379 -1.4342 -0.8234  1.0730
 5015SOL    HW226508   3.792   2.799   2.390  1.1017  0.3724  0.1918
 5016SOL     OW26509   0.940   2.666   9.262  0.4876  0.0084 -0.3287
 5016SOL    HW126510   0.969   2.675   9.352  0.9185 -0.4778 -0.4215
 5016SOL    HW226511   0.892   2.748   9.249  0.4794  0.0746  0.1386
 5017SOL     OW26512   1.014   0.309   3.737 -0.4230 -0.6524 -0.3261
 5017SOL    HW126513   0.965   0.290   3.817  0.0723  1.3839  0.4444
 5017SOL    HW226514   1.034   0.219   3.712  0.2784 -0.5618 -0.0983
 5018SOL     OW26515   1.009   1.513  13.195 -0.3859  0.0536  0.6347
 5018SOL    HW126516   0.936   1.473  13.146  1.2897 -1.7710 -0.3853
 5018SOL    HW226517   0.989   1.479  13.282 -1.9889  1.1117  0.6835
 5019SOL     OW26518   0.402   0.061   6.546  0.5384 -0.0957  0.4347
 5019SOL    HW126519   0.497   0.066   6.557  0.4164 -0.0898  1.4992
 5019SOL    HW226520   0.370   0.051   6.635 -2.2219  0.0569 -0.5390
 5020SOL     OW26521   3.507   1.252   4.342 -0.2607 -0.7674 -0.5022
 5020SOL    HW126522   3.531   1.333   4.386  0.4170 -1.2567  0.0247
 5020SOL    HW226523   3.417   1.247   4.376 -0.7158  1.5079 -1.3792
 5021SOL     OW26524   2.565   2.068   6.967  0.1010 -0.1702  0.5212
 5021SOL    HW126525   2.535   2.044   7.055  0.4493  0.5022  0.8241
 5021SOL    HW226526   2.536   2.159   6.963 -0.2442 -0.2418  1.3310
 5022SOL     OW26527   1.705   0.077   7.721 -0.6811  0.3329 -0.9584
 5022SOL    HW126528   1.774   0.030   7.768 -0.5419 -0.3026 -1.8036
 5022SOL    HW226529   1.741   0.063   7.633  1.3772 -0.5240  0.0233
 5023SOL     OW26530   1.295   2.076   8.218  0.5987 -0.1440  0.3795
 5023SOL    HW126531   1.316   2.133   8.144 -2.4917  1.1094  0.4471
 5023SOL    HW226532   1.330   1.993   8.185 -0.2390 -0.5479  0.5161
 5024SOL     OW26533   1.505   2.925  10.091  0.5424 -0.4773  0.4938
 5024SOL    HW126534   1.436   2.868  10.126 -0.1613 -1.1606 -1.9512
 5024SOL    HW226535   1.573   2.858  10.079  0.3174 -0.6654  0.2439
 5025SOL     OW26536   3.016   0.297   5.286 -0.3982 -0.8340  0.0909
 5025SOL    HW126537   3.087   0.276   5.226  1.2964  0.3550  1.6723
 5025SOL    HW226538   2.980   0.374   5.243 -0.6474 -0.6960  0.5440
 5026SOL     OW26539   4.662   0.693  10.035  0.7391  0.0136 -0.3316
 5026SOL    HW126540   4.701   0.617  10.077 -0.8285 -0.6155 -0.0132
 5026SOL    HW226541   4.626   0.659   9.953  1.8324  0.4037 -0.9667
 5027SOL     OW26542   1.082   2.520  16.138  0.3757  0.3323 -0.0210
 5027SOL    HW126543   1.160   2.572  16.119  0.4401  0.0560 -0.5137
 5027SOL    HW226544   1.072   2.458  16.065  1.1818 -0.5095  0.5861
 5028SOL     OW26545   2.299   0.774   1.828 -0.0376 -0.1147 -0.1036
 5028SOL    HW126546   2.245   0.695   1.831 -0.8145  0.3750 -1.4365
 5028SOL    HW226547   2.254   0.825   1.761  0.3847 -3.0983 -2.6354
 5029SOL     OW26548   1.451   3.516   3.271  0.1624 -0.5334  0.7924
 5029SOL    HW126549   1.453   3.550   3.360 -0.2688  0.9359  0.2410
 5029SOL    HW226550   1.367   3.550   3.239 -0.6909 -2.0167  1.4676
 5030SOL     OW26551   2.620   2.102   5.184 -0.7870  0.3289 -0.3070
 5030SOL    HW126552   2.654   2.031   5.129 -2.3525  0.0781 -0.9289
 5030SOL    HW226553   2.689   2.169   5.186 -0.5883  0.1083  0.4847
 5031SOL     OW26554   1.518   1.872  11.540 -0.0067  0.0189 -0.1245
 5031SOL    HW126555   1.445   1.855  11.480 -0.0159 -0.1261 -0.0740
 5031SOL    HW226556   1.588   1.855  11.476 -0.1817 -0.4216 -0.1982
 5032SOL     OW26557   0.071   2.887   2.293  0.2716 -0.2705 -0.3087
 5032SOL    HW126558   0.034   2.962   2.339 -1.4102  0.5104 -2.9229
 5032SOL    HW226559   4.707   2.852   2.275 -0.2114 -0.2299  1.9421
 5033SOL     OW26560   2.506   1.911   2.490 -0.0951  0.1963 -0.3726
 5033SOL    HW126561   2.585   1.898   2.437  0.2690 -0.2733  0.2813
 5033SOL    HW226562   2.481   1.820   2.503  1.1504 -0.0717  0.0607
 5034SOL     OW26563   3.712   0.782   7.280 -0.5350 -0.3012 -0.6242
 5034SOL    HW126564   3.690   0.824   7.197 -1.2191 -1.6462 -1.1162
 5034SOL    HW226565   3.636   0.726   7.297 -0.8108  0.2506 -0.0128
 5035SOL     OW26566   3.602   4.361   7.569 -0.2669  0.3045 -0.2056
 5035SOL    HW126567   3.520   4.391   7.608  0.5509  0.0474  1.7011
 5035SOL    HW226568   3.650   4.396   7.644 -1.4949  0.4716  0.4864
 5036SOL     OW26569   2.446   0.887   3.762  0.3982  0.3972 -0.0610
 5036SOL    HW126570   2.376   0.944   3.728 -0.9773 -1.4181 -0.2525
 5036SOL    HW226571   2.474   0.837   3.686  4.1559  2.1063  0.1882
 5037SOL     OW26572   2.200   4.433   3.796  0.0287 -0.5350  0.0899
 5037SOL    HW126573   2.263   4.402   3.862 -0.5319  2.4944  2.0747
 5037SOL    HW226574   2.132   4.366   3.797 -0.4925  0.0008  0.4706
 5038SOL     OW26575   2.829   3.147   2.969 -0.2021  0.5342  0.5206
 5038SOL    HW126576   2.742   3.151   2.928 -1.0527  4.9528  2.7253
 5038SOL    HW226577   2.823   3.217   3.034 -2.8296  2.8982 -2.2569
 5039SOL     OW26578   2.650   0.451   3.452  0.0202 -0.1601 -0.0316
 5039SOL    HW126579   2.623   0.452   3.544  1.3759  1.0171  0.3499
 5039SOL    HW226580   2.567   0.457   3.406  1.2584  1.4139 -2.0526
 5040SOL     OW26581   0.649   1.226  10.222  0.0915 -0.3008  0.1039
 5040SOL    HW126582   0.651   1.309  10.175  1.5119 -0.9984 -1.0535
 5040SOL    HW226583   0.741   1.219  10.250  0.2287  0.1824 -0.2272
 5041SOL     OW26584   0.430   3.391   3.887  0.1513  0.0580  0.0499
 5041SOL    HW126585   0.501   3.340   3.925 -2.3585 -0.8104  3.6015
 5041SOL    HW226586   0.461   3.478   3.911  0.7378 -0.0386 -0.3762
 5042SOL     OW26587   4.282   2.002   3.771  0.8011 -0.2046 -0.2993
 5042SOL    HW126588   4.240   1.945   3.837 -0.2846  0.0608 -0.7659
 5042SOL    HW226589   4.209   2.042   3.724  0.5571 -0.8059 -0.4402
 5043SOL     OW26590   1.661   3.432   1.675 -0.0081  0.4251  0.2281
 5043SOL    HW126591   1.612   3.382   1.739  0.9886 -0.9133 -0.0616
 5043SOL    HW226592   1.596   3.480   1.623 -0.0167  0.3278  0.1494
 5044SOL     OW26593   1.165   4.296   8.865  0.1027 -0.4593  0.3430
 5044SOL    HW126594   1.128   4.356   8.929 -1.5078  1.0737 -2.0139
 5044SOL    HW226595   1.255   4.288   8.895 -0.4937 -0.5547  2.1060
 5045SOL     OW26596   0.610   1.461   8.917  0.4180  0.1498 -0.1049
 5045SOL    HW126597   0.580   1.455   8.826  0.3327 -0.4825 -0.0386
 5045SOL    HW226598   0.629   1.368   8.933  1.2829  0.3120 -0.2044
 5046SOL     OW26599   3.228   3.171  12.180  0.1860 -0.1207  0.1777
 5046SOL    HW126600   3.164   3.127  12.125 -1.7227  0.7093  1.7349
 5046SOL    HW226601   3.258   3.240  12.119  3.1571  0.3374  2.1369
 5047SOL     OW26602   2.979   3.321  13.600 -0.5429 -0.0323 -0.4314
 5047SOL    HW126603   3.021   3.321  13.514 -0.6474 -0.7511 -0.4791
 5047SOL    HW226604   2.889   3.294  13.582 -0.5327  0.6310 -1.4306
 5048SOL     OW26605   4.417   1.837   0.971  0.0360  0.1054  0.0677
 5048SOL    HW126606   4.404   1.870   1.060  1.9819  1.5281 -0.1990
 5048SOL    HW226607   4.454   1.749   0.984 -0.9736 -0.4912 -1.0903
 5049SOL     OW26608   0.419   3.433   2.260 -0.2066  0.4638 -0.2078
 5049SOL    HW126609   0.497   3.484   2.283 -0.7396  2.1377 -2.1877
 5049SOL    HW226610   0.422   3.444   2.165  3.0190  0.6187 -0.0967
 5050SOL     OW26611   1.936   4.286   4.870 -0.0027 -0.8307  0.7601
 5050SOL    HW126612   1.842   4.279   4.854 -0.0995  2.1416 -0.0363
 5050SOL    HW226613   1.933   4.315   4.961 -0.9322 -0.1854  0.5277
 5051SOL     OW26614   0.287   3.823   2.094 -0.0682  0.2338  0.0235
 5051SOL    HW126615   0.318   3.897   2.042  1.1861  0.0627  0.5374
 5051SOL    HW226616   0.320   3.743   2.052  0.7302  1.1573 -1.1081
 5052SOL     OW26617   0.429   2.507   4.812  0.6500 -0.7136 -0.3925
 5052SOL    HW126618   0.516   2.465   4.809  0.2694 -1.3496 -2.6136
 5052SOL    HW226619   0.384   2.486   4.730 -2.5933  2.1469  0.6885
 5053SOL     OW26620   4.717   1.277   3.560 -0.1495 -0.2588  0.3627
 5053SOL    HW126621   4.719   1.209   3.628  0.2888 -0.6052  0.0014
 5053SOL    HW226622   0.088   1.292   3.558 -0.0943 -0.5778  0.5103
 5054SOL     OW26623   2.474   4.652   2.769  0.0966  0.0028  0.6083
 5054SOL    HW126624   2.487   4.703   2.849  0.8858  1.7195 -0.6057
 5054SOL    HW226625   2.408   4.711   2.731  0.7391  0.6955  0.5709
 5055SOL     OW26626   0.210   3.118  14.439 -0.1048  0.2810  0.3536
 5055SOL    HW126627   0.130   3.156  14.401  0.0144  0.1541 -0.0259
 5055SOL    HW226628   0.236   3.194  14.491  2.1034  0.0958 -0.4605
 5056SOL     OW26629   3.515   4.581  13.331  0.2387  0.0729 -0.1318
 5056SOL    HW126630   3.604   4.562  13.301  0.7159  0.0545  1.2616
 5056SOL    HW226631   3.462   4.611  13.258  2.7366 -0.0465 -1.9929
 5057SOL     OW26632   4.501   3.622   5.509  0.3699 -0.4825 -0.0344
 5057SOL    HW126633   4.578   3.631   5.565 -1.9125 -1.9663  3.3445
 5057SOL    HW226634   4.472   3.537   5.543  1.8231 -0.6855  0.7139
 5058SOL     OW26635   1.802   3.284   9.130  0.7217  0.8678 -0.3741
 5058SOL    HW126636   1.833   3.262   9.042 -1.5965 -1.5742 -0.5662
 5058SOL    HW226637   1.882   3.276   9.182  0.3544  2.7700  0.4775
 5059SOL     OW26638   2.117   4.203   1.856  0.0187  0.0897  0.3229
 5059SOL    HW126639   2.131   4.189   1.763  1.5313  1.0838  0.4109
 5059SOL    HW226640   2.203   4.200   1.898  0.1852 -1.5276 -0.1213
 5060SOL     OW26641   2.552   1.803   0.653 -0.4623 -0.1568 -0.4233
 5060SOL    HW126642   2.516   1.812   0.741  1.0445 -0.4670  0.2276
 5060SOL    HW226643   2.616   1.733   0.669  0.9685  1.2218 -0.1438
 5061SOL     OW26644   0.777   0.995   5.619 -0.2512  0.3341  0.1688
 5061SOL    HW126645   0.711   1.007   5.550  1.5546 -1.3040 -1.8183
 5061SOL    HW226646   0.743   0.919   5.666 -0.4455 -1.1817 -2.4238
 5062SOL     OW26647   0.661   3.958   5.743 -0.2900 -0.0307 -0.8798
 5062SOL    HW126648   0.743   3.940   5.788 -1.2070 -0.0546  0.7614
 5062SOL    HW226649   0.618   3.877   5.769 -0.4289 -0.2553 -1.7768
 5063SOL     OW26650   0.714   0.920   2.959  0.2896 -1.1616  0.1363
 5063SOL    HW126651   0.678   0.854   3.019 -0.8871 -0.1953  0.4894
 5063SOL    HW226652   0.674   0.896   2.875 -2.9370  0.9108  1.0832
 5064SOL     OW26653   0.481   0.257   2.646  0.0319  0.2754  0.7372
 5064SOL    HW126654   0.516   0.185   2.698 -2.6608 -1.6666 -0.1828
 5064SOL    HW226655   0.541   0.264   2.571 -1.2576  0.3028 -0.2935
 5065SOL     OW26656   4.396   1.143  12.731 -0.0496  0.1613  0.1771
 5065SOL    HW126657   4.420   1.145  12.639  1.5112  2.3189  0.6223
 5065SOL    HW226658   4.336   1.068  12.735 -0.4488  0.4416 -0.5901
 5066SOL     OW26659   0.743   3.455   8.052 -0.0104  0.0933  0.3198
 5066SOL    HW126660   0.739   3.502   8.135 -0.6024 -1.1627  0.9827
 5066SOL    HW226661   0.649   3.456   8.035 -0.0441 -0.9046  0.4550
 5067SOL     OW26662   1.011   2.792   6.007 -0.3688  0.4074 -0.3235
 5067SOL    HW126663   1.070   2.728   5.968 -1.0687 -1.2242  1.3021
 5067SOL    HW226664   0.927   2.748   6.007  0.1478 -0.5905  2.9306
 5068SOL     OW26665   3.444   0.839   4.006 -0.3990 -0.0638  0.1846
 5068SOL    HW126666   3.392   0.879   4.076  0.7981  1.8017 -0.0037
 5068SOL    HW226667   3.504   0.907   3.976  1.4723 -1.4000  0.8949
 5069SOL     OW26668   0.011   0.680   4.777 -0.4460  0.1287  0.0006
 5069SOL    HW126669   4.663   0.691   4.840 -1.1186 -1.4059 -0.4827
 5069SOL    HW226670   0.076   0.746   4.801 -1.9916  0.9833  1.8021
 5070SOL     OW26671   4.662   4.561   1.591 -0.4279  0.0709 -0.4793
 5070SOL    HW126672   4.639   4.654   1.588  1.3376  0.5782  0.8519
 5070SOL    HW226673   4.673   4.550   1.497  1.1911  0.3689 -0.3280
 5071SOL     OW26674   1.286   0.055   5.770 -0.6930  0.1400 -0.2552
 5071SOL    HW126675   1.252   0.085   5.686 -2.1325  0.2010  0.3642
 5071SOL    HW226676   1.207   0.013   5.804 -0.9755  0.3111 -0.7017
 5072SOL     OW26677   1.453   3.399   2.849 -0.2050 -0.1762 -0.0542
 5072SOL    HW126678   1.367   3.436   2.871 -0.3765 -0.2162 -0.6809
 5072SOL    HW226679   1.462   3.322   2.905  0.6401  0.0420  0.1045
 5073SOL     OW26680   1.839   2.022   6.687 -0.2836 -0.1923  0.0940
 5073SOL    HW126681   1.900   1.970   6.634 -0.7437  0.4945 -1.0973
 5073SOL    HW226682   1.849   1.986   6.775 -1.3134  0.2164  0.3752
 5074SOL     OW26683   1.717   2.831   2.666  0.4863  0.2462 -0.6605
 5074SOL    HW126684   1.667   2.893   2.614 -1.0699 -0.6071 -0.1943
 5074SOL    HW226685   1.659   2.755   2.657  0.1646  0.7770 -3.0775
 5075SOL     OW26686   0.982   3.388  17.669 -0.1322  0.3940 -0.7842
 5075SOL    HW126687   0.980   3.483  17.666 -0.5252  0.4163  0.3142
 5075SOL    HW226688   0.889   3.372  17.684  0.5232 -2.1806  0.6195
 5076SOL     OW26689   1.667   1.991  13.860 -0.4658 -0.2705  0.2792
 5076SOL    HW126690   1.658   2.037  13.943 -1.4699  2.7059 -1.4830
 5076SOL    HW226691   1.728   1.918  13.870  0.3261 -0.0895 -3.0303
 5077SOL     OW26692   1.125   3.501  10.535 -0.0343  0.3203 -0.4462
 5077SOL    HW126693   1.072   3.485  10.457 -0.6247  0.7519 -0.1349
 5077SOL    HW226694   1.162   3.416  10.558 -1.2422 -0.3586 -1.0274
 5078SOL     OW26695   4.537   1.074   5.641  0.7018  0.1743  0.2748
 5078SOL    HW126696   4.598   1.065   5.714 -0.2935  1.3281  1.2522
 5078SOL    HW226697   4.592   1.043   5.569 -1.2538 -0.8057 -0.7716
 5079SOL     OW26698   0.142   2.277   7.129 -0.3730  0.2934  0.1468
 5079SOL    HW126699   0.163   2.219   7.202 -2.2034  0.4933  0.8425
 5079SOL    HW226700   0.066   2.230   7.095 -0.4723 -0.1459  1.0012
 5080SOL     OW26701   2.543   3.888   5.191 -0.2608  0.4488 -0.2424
 5080SOL    HW126702   2.542   3.792   5.192 -2.2161  0.4704 -0.6966
 5080SOL    HW226703   2.586   3.921   5.112 -0.6035  1.4435 -0.0078
 5081SOL     OW26704   2.123   2.044   5.630 -0.2196 -0.0819 -0.6240
 5081SOL    HW126705   2.120   2.132   5.669 -2.5682 -0.2032 -0.5306
 5081SOL    HW226706   2.040   2.046   5.582  0.0341 -2.0299 -1.1319
 5082SOL     OW26707   3.082   3.494  17.202 -0.6089  1.1033 -0.3641
 5082SOL    HW126708   3.022   3.563  17.228  0.0426  0.8244  1.8770
 5082SOL    HW226709   3.066   3.448  17.285 -0.5462  2.3441  0.3293
 5083SOL     OW26710   4.425   4.385   6.234  1.0203  0.8811 -0.6495
 5083SOL    HW126711   4.445   4.342   6.151 -0.4347  0.7463 -0.9291
 5083SOL    HW226712   4.503   4.361   6.284  0.5698 -2.6005 -1.6417
 5084SOL     OW26713   4.303   4.191   2.476 -0.2455  0.1086  0.1382
 5084SOL    HW126714   4.213   4.173   2.503 -0.6962 -0.4241 -1.7609
 5084SOL    HW226715   4.306   4.287   2.480 -1.2844  0.1241  0.6762
 5085SOL     OW26716   1.619   1.689   3.471 -0.6971 -0.6283  0.1779
 5085SOL    HW126717   1.631   1.595   3.460 -0.3659 -0.5133 -0.4963
 5085SOL    HW226718   1.707   1.718   3.495 -1.8843  0.3406  3.2776
 5086SOL     OW26719   4.098   3.817   5.558 -0.1696 -0.2346 -0.2239
 5086SOL    HW126720   4.048   3.891   5.593 -1.8262 -1.4916  0.0836
 5086SOL    HW226721   4.095   3.834   5.464  1.1925 -1.9784 -0.5803
 5087SOL     OW26722   2.502   3.481   3.536  0.3219 -0.0516 -0.2078
 5087SOL    HW126723   2.587   3.480   3.579  0.4114 -2.6997 -0.4426
 5087SOL    HW226724   2.453   3.421   3.592  1.3084 -1.9944 -1.4273
 5088SOL     OW26725   1.715   4.066   4.051  0.0372 -0.0818 -0.2669
 5088SOL    HW126726   1.798   4.021   4.034 -0.7506 -1.1581 -1.2903
 5088SOL    HW226727   1.741   4.157   4.064 -0.9196 -0.1291  1.9769
 5089SOL     OW26728   1.605   0.789  10.110 -0.0115  0.1064 -0.0628
 5089SOL    HW126729   1.656   0.786  10.191  1.2567 -2.8260 -0.9543
 5089SOL    HW226730   1.556   0.870  10.121 -1.9106 -1.1844  0.9585
 5090SOL     OW26731   1.773   0.787   1.406 -0.0545  0.0552 -0.0713
 5090SOL    HW126732   1.709   0.818   1.470  0.1755 -1.9762  1.1397
 5090SOL    HW226733   1.721   0.725   1.354 -1.0839 -0.2517  1.3215
 5091SOL     OW26734   1.801   3.788   5.735  0.2148  0.0782 -0.5913
 5091SOL    HW126735   1.818   3.882   5.732  1.7877 -0.2115 -1.1464
 5091SOL    HW226736   1.749   3.784   5.815 -0.3731 -0.1468 -0.9879
 5092SOL     OW26737   0.666   2.425  13.429  0.1090  0.1791  0.1638
 5092SOL    HW126738   0.671   2.349  13.372 -0.8522 -0.6881  1.2550
 5092SOL    HW226739   0.695   2.386  13.512  1.3326  0.5429 -0.0920
 5093SOL     OW26740   2.331   2.543   5.712 -0.9127  0.0216 -0.2761
 5093SOL    HW126741   2.343   2.459   5.667  0.3002  0.9099 -1.6411
 5093SOL    HW226742   2.312   2.595   5.634 -0.2241 -1.3853 -1.3840
 5094SOL     OW26743   0.596   1.466  10.100 -0.0984 -0.5509 -0.1063
 5094SOL    HW126744   0.656   1.522  10.149 -0.3418 -0.3547 -0.0283
 5094SOL    HW226745   0.518   1.469  10.156 -0.2914 -2.6734 -0.2623
 5095SOL     OW26746   2.237   1.563   5.087  0.1161 -0.4831 -0.1413
 5095SOL    HW126747   2.325   1.531   5.066  0.3656  0.0135  0.1558
 5095SOL    HW226748   2.242   1.540   5.180 -0.4168  0.8870  0.2226
 5096SOL     OW26749   2.198   3.723   9.666 -0.0174  0.5396 -0.4293
 5096SOL    HW126750   2.261   3.664   9.625 -0.4794 -0.9190  0.9524
 5096SOL    HW226751   2.200   3.685   9.753 -2.6161  1.2481 -0.0525
 5097SOL     OW26752   1.379   0.553  14.710  0.4880 -0.1851  0.3273
 5097SOL    HW126753   1.354   0.461  14.697  0.9149 -0.3880  0.9630
 5097SOL    HW226754   1.375   0.584  14.620  0.5709 -1.8825 -0.2781
 5098SOL     OW26755   1.433   2.917  15.173 -0.3856 -0.0258  0.2937
 5098SOL    HW126756   1.404   2.845  15.229 -0.3050 -0.4773 -0.2507
 5098SOL    HW226757   1.522   2.917  15.207  0.4420  1.1297 -1.8833
 5099SOL     OW26758   2.491   2.613  12.210 -0.2901 -0.2916  0.0829
 5099SOL    HW126759   2.519   2.602  12.119  1.8895  2.8795  0.3672
 5099SOL    HW226760   2.483   2.708  12.222  0.0505 -0.1381 -0.8655
 5100SOL     OW26761   3.607   3.143   2.369  0.3272 -0.2926  0.2734
 5100SOL    HW126762   3.587   3.115   2.280 -1.0528  2.3238 -0.2315
 5100SOL    HW226763   3.521   3.141   2.411 -0.3345 -1.3811 -1.1365
 5101SOL     OW26764   3.262   3.625   4.645  0.0329  0.4300 -0.5302
 5101SOL    HW126765   3.312   3.707   4.650 -0.6162  0.9401 -2.2237
 5101SOL    HW226766   3.243   3.605   4.737  1.1475  0.5784 -0.2696
 5102SOL     OW26767   1.821   1.774   0.301 -0.0227  0.0853  0.4837
 5102SOL    HW126768   1.864   1.721   0.368 -0.7062  0.7759  1.4634
 5102SOL    HW226769   1.888   1.840   0.283 -1.2576  0.9475 -0.9814
 5103SOL     OW26770   4.363   2.518   2.710 -0.0655  0.4186 -0.0525
 5103SOL    HW126771   4.421   2.442   2.720 -0.4983  0.1126  0.1160
 5103SOL    HW226772   4.290   2.505   2.770  1.6620 -1.7189  1.5942
 5104SOL     OW26773   1.093   3.625  10.901 -0.1561  0.0292  0.1401
 5104SOL    HW126774   1.069   3.667  10.819 -0.2514 -1.3575 -0.5327
 5104SOL    HW226775   1.013   3.640  10.952 -0.2639  1.4454 -0.4455
 5105SOL     OW26776   4.691   0.902   7.537 -0.8325 -0.2801 -0.0850
 5105SOL    HW126777   4.718   0.811   7.526 -2.0458 -0.9988  3.2200
 5105SOL    HW226778   4.664   0.924   7.447  0.6600 -2.6889 -1.1150
 5106SOL     OW26779   1.203   3.077  16.238 -0.7772 -0.1951  0.5829
 5106SOL    HW126780   1.164   3.137  16.175 -0.2978  1.3147  1.7184
 5106SOL    HW226781   1.288   3.055  16.201 -0.7807  0.9292 -0.0649
 5107SOL     OW26782   0.115   3.484   2.712 -0.2790 -0.1442  0.1674
 5107SOL    HW126783   0.148   3.509   2.799  1.0454 -0.9586 -0.1037
 5107SOL    HW226784   0.167   3.547   2.662  1.0696 -0.9756  0.5196
 5108SOL     OW26785   1.821   2.788   1.668  0.3295  0.0708 -0.6168
 5108SOL    HW126786   1.808   2.794   1.763  1.4072 -1.7018 -0.3520
 5108SOL    HW226787   1.733   2.812   1.639  0.0286  0.2251  0.4145
 5109SOL     OW26788   1.385   1.442   4.750  0.0537  0.0714  0.2991
 5109SOL    HW126789   1.426   1.466   4.833 -2.0059  1.0839  1.0188
 5109SOL    HW226790   1.430   1.506   4.695  0.2334  0.4822  0.9132
 5110SOL     OW26791   1.811   4.653   2.293  0.5974 -0.0487  0.6147
 5110SOL    HW126792   1.884   4.664   2.232 -1.2554 -0.2083 -1.6459
 5110SOL    HW226793   1.791   4.559   2.291  1.3417 -0.2059  0.7194
 5111SOL     OW26794   1.970   1.114   5.174 -0.1393 -0.0824 -0.7568
 5111SOL    HW126795   2.065   1.124   5.184 -0.3291  0.0622  0.9014
 5111SOL    HW226796   1.937   1.099   5.263 -1.7723  1.5692 -1.0974
 5112SOL     OW26797   0.650   3.702   1.348  0.0943  0.7070  0.1714
 5112SOL    HW126798   0.600   3.703   1.266  0.2420  1.3652  0.0956
 5112SOL    HW226799   0.655   3.608   1.365 -3.3424  0.7358  1.3710
 5113SOL     OW26800   0.323   1.995   5.219 -0.9104  0.1583 -0.3853
 5113SOL    HW126801   0.398   2.054   5.223  0.6582 -1.9113  0.3417
 5113SOL    HW226802   0.285   2.001   5.307  0.9001 -0.5385  0.4503
 5114SOL     OW26803   3.403   0.306  14.209  0.3963  0.0942  0.0566
 5114SOL    HW126804   3.420   0.236  14.272  1.9700  0.9759  0.6079
 5114SOL    HW226805   3.492   0.321  14.177  0.1680  0.6111 -0.3363
 5115SOL     OW26806   3.268   0.753   3.161  0.0633  0.4172  0.3673
 5115SOL    HW126807   3.193   0.746   3.221 -0.0576 -1.3367  0.0048
 5115SOL    HW226808   3.337   0.765   3.226 -0.8966 -0.7582  1.6109
 5116SOL     OW26809   0.793   2.055   8.352 -0.2417  0.5322  0.1236
 5116SOL    HW126810   0.876   2.095   8.327  0.5531 -0.5098  1.1068
 5116SOL    HW226811   0.800   2.057   8.447  1.3862  0.3511  0.0099
 5117SOL     OW26812   3.013   2.945  14.721  0.2493 -0.3688 -0.2638
 5117SOL    HW126813   2.974   2.859  14.732  1.0608 -0.3627  2.6595
 5117SOL    HW226814   3.108   2.929  14.727  0.0323 -0.9573  1.5178
 5118SOL     OW26815   2.753   3.527   5.196 -0.1209  0.4585  0.9616
 5118SOL    HW126816   2.693   3.556   5.264 -0.8139  0.9204  0.1439
 5118SOL    HW226817   2.719   3.566   5.116  2.9243 -4.1420 -2.6473
 5119SOL     OW26818   2.516   2.346  13.970 -0.0454  0.1363  0.1566
 5119SOL    HW126819   2.601   2.303  13.979 -1.3158 -2.0086  1.9463
 5119SOL    HW226820   2.537   2.424  13.918 -1.4835 -0.4901 -1.3714
 5120SOL     OW26821   0.912   3.634   2.010  0.5224  0.0743 -0.3983
 5120SOL    HW126822   0.990   3.585   2.035  0.5274  0.1376 -0.2892
 5120SOL    HW226823   0.865   3.651   2.092  1.7437 -2.1322  0.7589
 5121SOL     OW26824   3.782   0.822  12.780  0.3636 -0.2375 -0.0389
 5121SOL    HW126825   3.857   0.874  12.753  2.0847 -1.3098  2.6306
 5121SOL    HW226826   3.827   0.751  12.826  1.0339 -0.8777 -1.6798
 5122SOL     OW26827   2.379   2.233   0.773 -0.8269  0.0002  0.3034
 5122SOL    HW126828   2.306   2.273   0.820  0.7451  0.7411  2.0819
 5122SOL    HW226829   2.355   2.265   0.686 -0.7073 -0.6419  0.0361
 5123SOL     OW26830   4.134   3.579   7.360 -0.0732  0.3398  0.4564
 5123SOL    HW126831   4.212   3.534   7.328  0.5078  0.7126  1.3438
 5123SOL    HW226832   4.149   3.666   7.323 -0.1057 -0.6755 -1.9576
 5124SOL     OW26833   4.313   2.062   2.615  0.2524  0.1651  0.3044
 5124SOL    HW126834   4.233   2.010   2.611  0.3363  0.1655 -1.3621
 5124SOL    HW226835   4.305   2.087   2.707 -0.6540 -0.9461  0.5265
 5125SOL     OW26836   2.805   3.417  17.608 -0.0158 -0.1505  0.1831
 5125SOL    HW126837   2.772   3.401   0.001  2.6016 -0.3797  1.1177
 5125SOL    HW226838   2.742   3.481  17.578 -1.1331 -0.7815  1.1819
 5126SOL     OW26839   0.687   2.152   5.433 -0.2808 -0.6350 -0.2402
 5126SOL    HW126840   0.728   2.178   5.515  0.7433  1.5709 -1.4372
 5126SOL    HW226841   0.630   2.227   5.414 -0.1797  0.7512  4.9130
 5127SOL     OW26842   3.153   3.548   5.352 -0.4906  0.2994 -0.0407
 5127SOL    HW126843   3.068   3.516   5.384  0.5914 -1.1147  1.3970
 5127SOL    HW226844   3.159   3.514   5.262 -1.3323  2.8734 -1.0627
 5128SOL     OW26845   1.016   4.315  17.496  0.1015 -0.1045  0.2466
 5128SOL    HW126846   1.057   4.351  17.575  0.3745 -0.7614  0.4065
 5128SOL    HW226847   1.052   4.226  17.498 -2.2489 -1.0448  0.9227
 5129SOL     OW26848   2.705   3.554   7.641 -0.1524 -0.1180  0.5336
 5129SOL    HW126849   2.744   3.569   7.728 -1.6022  0.1262  1.1525
 5129SOL    HW226850   2.693   3.643   7.610  2.9260 -0.2062 -0.9234
 5130SOL     OW26851   3.265   2.119   2.733  0.1800  0.1018 -0.0692
 5130SOL    HW126852   3.285   2.131   2.640 -5.3088 -1.9834 -1.5146
 5130SOL    HW226853   3.263   2.023   2.728 -0.1325  0.0035  1.9382
 5131SOL     OW26854   0.792   1.010   6.559  0.1308  0.0866 -0.4927
 5131SOL    HW126855   0.768   1.092   6.515  0.0800 -0.8805 -2.2508
 5131SOL    HW226856   0.739   1.018   6.639  1.8756  1.1863  0.5645
 5132SOL     OW26857   2.174   0.335   2.984  0.3798 -0.7384  0.2078
 5132SOL    HW126858   2.235   0.342   2.910 -1.4528 -0.2126 -1.2592
 5132SOL    HW226859   2.110   0.275   2.946  0.0027  0.2378 -0.7053
 5133SOL     OW26860   3.490   1.599  16.336 -0.0161 -0.1188 -0.2726
 5133SOL    HW126861   3.422   1.587  16.269  1.4447  0.0198 -1.7915
 5133SOL    HW226862   3.566   1.634  16.290  0.1442 -1.5628 -1.0839
 5134SOL     OW26863   4.050   2.861  14.097 -0.0081 -0.1655  0.6067
 5134SOL    HW126864   4.073   2.781  14.050  2.2701  0.1128  1.2000
 5134SOL    HW226865   4.022   2.823  14.180 -1.1933 -1.3857 -0.3616
 5135SOL     OW26866   1.658   4.569  15.494 -0.1892 -0.0482 -0.2933
 5135SOL    HW126867   1.667   4.659  15.525  1.8302  0.3319 -1.9661
 5135SOL    HW226868   1.726   4.527  15.547  0.0021  0.8570  0.1848
 5136SOL     OW26869   3.284   0.180   2.637 -0.4435 -0.4112 -0.1678
 5136SOL    HW126870   3.204   0.186   2.689 -0.9128 -0.7317 -0.8343
 5136SOL    HW226871   3.347   0.211   2.701  0.1895  0.5039 -1.2343
 5137SOL     OW26872   1.908   2.123   5.116  0.0193  0.4546  0.0705
 5137SOL    HW126873   1.870   2.174   5.186 -1.1453  0.8810 -0.8722
 5137SOL    HW226874   1.912   2.034   5.152  1.3838  1.0673  1.4062
 5138SOL     OW26875   3.881   0.279   3.524  0.1417 -0.2956 -0.2868
 5138SOL    HW126876   3.919   0.193   3.539 -0.5718 -0.3907  0.9241
 5138SOL    HW226877   3.926   0.318   3.599 -2.6642 -0.6133  1.5321
 5139SOL     OW26878   3.372   3.766  15.930 -0.1466  0.2099  0.2699
 5139SOL    HW126879   3.280   3.754  15.906 -0.3308  0.8615  0.6557
 5139SOL    HW226880   3.385   3.673  15.949 -0.7144 -0.1983 -1.3795
 5140SOL     OW26881   0.352   1.482   5.758  0.0236  0.3953 -0.1774
 5140SOL    HW126882   0.397   1.477   5.842 -1.8388 -0.5544  0.7494
 5140SOL    HW226883   0.377   1.570   5.729 -0.6373  1.1341  1.5331
 5141SOL     OW26884   0.432   0.815   8.462  0.1527  0.1752 -0.0482
 5141SOL    HW126885   0.435   0.866   8.543  0.7563 -0.1915  0.1576
 5141SOL    HW226886   0.428   0.885   8.397  1.9968 -0.7669 -1.1817
 5142SOL     OW26887   0.478   2.826   6.626  0.0684 -0.0995 -0.4581
 5142SOL    HW126888   0.396   2.875   6.618 -0.0374 -0.8004 -3.9238
 5142SOL    HW226889   0.527   2.863   6.553  2.5122 -3.3366 -0.4692
 5143SOL     OW26890   1.772   0.025  13.594 -0.1638  0.1854 -0.3337
 5143SOL    HW126891   1.737   0.048  13.508 -0.2970  0.7922 -0.1161
 5143SOL    HW226892   1.842   0.089  13.607  1.3187 -0.9690 -2.6154
 5144SOL     OW26893   1.107   0.946  15.073 -0.8332  0.1323 -0.1062
 5144SOL    HW126894   1.177   0.986  15.125  0.6791 -1.5290 -0.8380
 5144SOL    HW226895   1.067   0.884  15.134  0.9414 -2.4190 -1.5658
 5145SOL     OW26896   1.089   4.711   1.061  0.7541  0.3228 -0.6637
 5145SOL    HW126897   1.149   4.640   1.085  0.2694 -0.4001 -1.6020
 5145SOL    HW226898   1.116   0.057   1.121  2.9844 -0.9414 -0.1912
 5146SOL     OW26899   2.493   0.573  13.033  0.4503 -0.3888 -0.2156
 5146SOL    HW126900   2.416   0.520  13.056  0.8044 -0.9109 -0.2399
 5146SOL    HW226901   2.546   0.573  13.112  1.6027 -2.2525 -0.9888
 5147SOL     OW26902   1.786   1.305   4.261 -0.4914 -0.0465 -0.5895
 5147SOL    HW126903   1.877   1.274   4.265 -0.2932  0.9206  2.7049
 5147SOL    HW226904   1.792   1.395   4.293  0.0446 -0.2594 -0.0822
 5148SOL     OW26905   1.669   1.860   4.670  0.6491 -0.0458  0.0917
 5148SOL    HW126906   1.659   1.953   4.692  4.5739 -0.3810  3.1730
 5148SOL    HW226907   1.697   1.865   4.579 -1.5851  2.1515 -0.5054
 5149SOL     OW26908   1.078   3.424   6.312  0.6152 -0.1771 -0.0048
 5149SOL    HW126909   1.003   3.481   6.329  0.8653 -0.0367  0.6416
 5149SOL    HW226910   1.058   3.339   6.350 -1.6789  0.5251  0.3231
 5150SOL     OW26911   4.170   1.186   3.801 -0.1193  0.3932  0.2759
 5150SOL    HW126912   4.211   1.184   3.887  0.8614 -2.0004 -0.2443
 5150SOL    HW226913   4.124   1.102   3.798 -1.3837  1.0405  1.5262
 5151SOL     OW26914   1.890   4.112   7.317  0.1890  0.2153  0.4312
 5151SOL    HW126915   1.927   4.194   7.348  0.4998  0.8600 -1.6175
 5151SOL    HW226916   1.802   4.118   7.352  0.0056  0.9002 -0.1422
 5152SOL     OW26917   4.481   1.168  15.477 -0.1874 -0.0023 -0.2603
 5152SOL    HW126918   4.480   1.174  15.572 -0.3477 -0.9814 -0.1973
 5152SOL    HW226919   4.567   1.195  15.445  1.0556 -2.4532  1.0073
 5153SOL     OW26920   3.304   1.994   4.334  0.3539  0.3823 -0.2382
 5153SOL    HW126921   3.294   2.018   4.426  1.5436 -2.3022  0.5929
 5153SOL    HW226922   3.352   1.912   4.343 -0.3033 -0.0623 -0.8110
 5154SOL     OW26923   4.504   3.063   8.361  0.4540  0.2411 -0.3497
 5154SOL    HW126924   4.442   3.137   8.358  1.8171  1.4848  1.9746
 5154SOL    HW226925   4.493   3.030   8.450 -0.9327 -0.9948 -0.9785
 5155SOL     OW26926   1.721   4.376   5.401 -0.1622  0.0763  0.2983
 5155SOL    HW126927   1.716   4.451   5.341  1.4608 -0.7285 -0.8302
 5155SOL    HW226928   1.691   4.310   5.339 -1.8931  0.5113  0.6575
 5156SOL     OW26929   2.367   4.621  11.491  0.1586  0.1411 -0.4229
 5156SOL    HW126930   2.432   4.600  11.558 -0.4965  0.0211  0.1766
 5156SOL    HW226931   2.428   4.615  11.419  0.4996  0.3829 -0.1547
 5157SOL     OW26932   4.114   4.674   2.781 -0.4134  0.1223 -0.1087
 5157SOL    HW126933   4.099   4.649   2.690 -1.9159  0.0120  0.1770
 5157SOL    HW226934   4.044   4.626   2.826  3.0242 -2.7263  2.1589
 5158SOL     OW26935   1.877   0.445  10.244  0.1169  0.6959 -0.1251
 5158SOL    HW126936   1.821   0.445  10.166  1.2360  1.6416 -0.9184
 5158SOL    HW226937   1.814   0.386  10.285  1.4510 -0.5136  0.1588
 5159SOL     OW26938   0.330   4.205   2.602  0.1558 -0.3148 -0.5894
 5159SOL    HW126939   0.424   4.193   2.620 -0.2860 -0.8238  1.4267
 5159SOL    HW226940   0.290   4.142   2.662 -1.0617  1.1431  0.1204
 5160SOL     OW26941   0.592   1.202   6.950  0.4439 -0.0750  0.4144
 5160SOL    HW126942   0.511   1.190   6.999  1.1577  3.9162  2.5231
 5160SOL    HW226943   0.645   1.254   7.010  0.4459 -0.0450  0.3865
 5161SOL     OW26944   1.479   0.272   6.023 -0.1402  0.0140  0.4213
 5161SOL    HW126945   1.517   0.359   6.011  1.7152 -0.7228  0.9158
 5161SOL    HW226946   1.546   0.212   5.989  2.0640  3.1601 -0.7963
 5162SOL     OW26947   1.260   2.317   3.192  0.0175 -0.4828  0.6369
 5162SOL    HW126948   1.208   2.395   3.173  2.5110  0.5809 -1.9400
 5162SOL    HW226949   1.201   2.261   3.142 -0.7312  0.9361 -0.0807
 5163SOL     OW26950   1.002   2.704  16.862  0.3995 -0.5017  0.0374
 5163SOL    HW126951   1.017   2.720  16.769 -0.4573  0.3888  0.0560
 5163SOL    HW226952   1.075   2.642  16.872  0.2701 -0.5180  0.8935
 5164SOL     OW26953   4.602   0.880   7.270  0.2107 -0.2256 -0.2309
 5164SOL    HW126954   4.671   0.841   7.217  0.8347 -0.7685  0.9921
 5164SOL    HW226955   4.550   0.800   7.277  2.0881 -1.1762  2.6337
 5165SOL     OW26956   4.370   4.316   6.561 -0.5871 -0.1047  0.0465
 5165SOL    HW126957   4.412   4.382   6.616  1.1280  0.0215 -1.3909
 5165SOL    HW226958   4.307   4.371   6.515 -0.0940  0.1537 -0.3216
 5166SOL     OW26959   0.430   0.749   2.976 -0.2932 -0.7251 -0.3924
 5166SOL    HW126960   0.509   0.711   3.014 -0.6647  0.6132  1.7448
 5166SOL    HW226961   0.360   0.720   3.035  1.8628 -1.0236  2.0409
 5167SOL     OW26962   3.482   4.612   3.492  0.4594  0.0996 -0.4133
 5167SOL    HW126963   3.456   4.520   3.496 -1.8882  0.7421 -1.1614
 5167SOL    HW226964   3.556   4.623   3.552 -0.5963  0.8580  0.7283
 5168SOL     OW26965   2.548   0.444   6.074 -0.4064 -0.2447 -0.2558
 5168SOL    HW126966   2.570   0.351   6.073 -1.6707 -0.5592  0.7382
 5168SOL    HW226967   2.471   0.446   6.017  0.0927 -0.1304 -0.9300
 5169SOL     OW26968   0.372   4.104   8.848  0.6157 -0.5462  0.2622
 5169SOL    HW126969   0.418   4.143   8.774 -2.0365  1.0320 -0.5589
 5169SOL    HW226970   0.295   4.066   8.804  0.2502 -0.0351  0.4682
 5170SOL     OW26971   1.736   3.470  11.006 -0.1562  0.0689  0.5367
 5170SOL    HW126972   1.767   3.559  10.992 -0.5284  0.0716 -0.3217
 5170SOL    HW226973   1.786   3.412  10.947 -1.9130 -1.0276  0.1289
 5171SOL     OW26974   3.045   3.924   8.119 -0.1080  0.7615  0.3743
 5171SOL    HW126975   3.044   3.906   8.213  0.4283  2.6452  0.7457
 5171SOL    HW226976   2.952   3.946   8.110 -0.4088 -1.3546 -1.7077
 5172SOL     OW26977   1.199   0.466  10.254  0.4365 -0.5427 -0.1103
 5172SOL    HW126978   1.139   0.397  10.281 -0.9169  0.1894 -1.2455
 5172SOL    HW226979   1.280   0.427  10.285  2.0483  2.1691 -0.8914
 5173SOL     OW26980   2.600   0.387   2.447 -0.3852  0.7412 -0.2540
 5173SOL    HW126981   2.661   0.371   2.376  0.6593 -1.5455  1.1846
 5173SOL    HW226982   2.585   0.298   2.477  3.2693 -0.3579 -1.6916
 5174SOL     OW26983   2.775   3.662   0.882  0.5107  0.5230 -0.4921
 5174SOL    HW126984   2.803   3.593   0.822  1.5350  1.0156 -0.5798
 5174SOL    HW226985   2.857   3.698   0.916  0.9716  0.7115 -1.8189
 5175SOL     OW26986   4.444   1.511   7.511  0.0830 -0.2174 -0.0587
 5175SOL    HW126987   4.466   1.476   7.597  0.1286  2.2459  0.9445
 5175SOL    HW226988   4.448   1.606   7.524 -0.1720 -0.4586  1.7282
 5176SOL     OW26989   4.237   1.749   2.112  0.2698 -0.4739 -0.3150
 5176SOL    HW126990   4.328   1.777   2.115  0.1699  0.0187 -2.3674
 5176SOL    HW226991   4.235   1.688   2.186  1.3185  1.6215  1.4403
 5177SOL     OW26992   2.403   2.807  12.674  0.5075 -0.6911  0.4348
 5177SOL    HW126993   2.432   2.830  12.762 -1.6844 -0.1836  1.0202
 5177SOL    HW226994   2.441   2.720  12.663  0.5790 -0.7475  1.1362
 5178SOL     OW26995   4.041   4.267  11.725 -0.0578 -0.1413 -0.0314
 5178SOL    HW126996   4.096   4.301  11.797 -0.7137 -0.5256  0.6462
 5178SOL    HW226997   4.098   4.271  11.649  1.5540  0.5106  1.1968
 5179SOL     OW26998   0.051   1.516   2.708 -0.3497  0.4222 -0.4485
 5179SOL    HW126999   0.070   1.454   2.778  0.3304 -1.4856 -2.3224
 5179SOL    HW227000   0.092   1.593   2.748  0.7656 -0.0138 -0.7363
 5180SOL     OW27001   1.046   4.003   3.282  0.1868 -0.0161  0.0379
 5180SOL    HW127002   0.984   4.007   3.209  3.7595 -0.2161 -3.0110
 5180SOL    HW227003   1.119   4.036   3.230 -1.1773  0.1315 -1.7950
 5181SOL     OW27004   2.250   3.845   3.725  0.1866  0.0774 -0.3536
 5181SOL    HW127005   2.340   3.813   3.716 -0.4183 -1.5521 -0.4934
 5181SOL    HW227006   2.276   3.937   3.729  0.0200  0.1502 -1.0873
 5182SOL     OW27007   1.318   2.618  16.090  0.1704  0.2709 -0.1541
 5182SOL    HW127008   1.344   2.641  16.001  0.1595  1.6332  0.2032
 5182SOL    HW227009   1.377   2.685  16.126  2.4751 -0.7195 -2.1005
 5183SOL     OW27010   3.138   2.411   2.709 -0.4712  0.1149 -0.9314
 5183SOL    HW127011   3.143   2.334   2.653 -1.4275 -0.9825  0.4967
 5183SOL    HW227012   3.100   2.367   2.785  3.9357 -0.0286  1.2015
 5184SOL     OW27013   3.546   4.060   5.306  0.0955  0.8031 -0.6058
 5184SOL    HW127014   3.628   4.108   5.318  1.1388 -1.4474  1.2459
 5184SOL    HW227015   3.555   4.028   5.216 -0.5759 -2.2245  0.4128
 5185SOL     OW27016   4.550   2.601   5.402 -0.2781 -0.0335  0.3101
 5185SOL    HW127017   4.600   2.647   5.469  1.8783 -1.4500 -0.3519
 5185SOL    HW227018   4.557   2.510   5.429 -2.0247 -1.0379 -2.6375
 5186SOL     OW27019   1.396   0.827   7.969  0.0321  0.0115 -0.0024
 5186SOL    HW127020   1.396   0.911   7.923  0.3381 -1.8041 -3.3763
 5186SOL    HW227021   1.458   0.842   8.040 -0.8287  1.6192  0.4076
 5187SOL     OW27022   4.229   1.215  16.504 -0.7244  0.0192  0.4147
 5187SOL    HW127023   4.256   1.144  16.562 -0.6443 -0.7544 -0.5860
 5187SOL    HW227024   4.259   1.180  16.420 -2.4451 -0.1181 -0.1302
 5188SOL     OW27025   1.110   4.299   3.926 -0.7666  0.2655  0.3105
 5188SOL    HW127026   1.089   4.393   3.926  0.3578  0.5137 -0.8669
 5188SOL    HW227027   1.189   4.283   3.875 -1.3091  0.0120 -0.4557
 5189SOL     OW27028   0.985   3.475  10.225  0.1060  0.0628 -0.4984
 5189SOL    HW127029   1.027   3.389  10.221 -0.0410 -0.0907  1.7140
 5189SOL    HW227030   0.894   3.448  10.210 -0.7910  2.0572  1.3683
 5190SOL     OW27031   4.091   4.109   6.532 -0.7340 -0.1294 -0.0878
 5190SOL    HW127032   4.024   4.176   6.516 -0.0647  0.8455  1.2146
 5190SOL    HW227033   4.037   4.031   6.546  0.1517 -0.7026  0.1035
 5191SOL     OW27034   0.793   4.078   4.201  0.4704  0.6271 -0.6389
 5191SOL    HW127035   0.835   4.094   4.116  1.4812  0.1663 -0.2365
 5191SOL    HW227036   0.844   4.127   4.265 -0.8027  1.4257 -0.2416
 5192SOL     OW27037   3.162   3.963   2.149  0.2210 -0.0021  0.0647
 5192SOL    HW127038   3.090   3.985   2.208 -1.7933 -2.4892 -1.5053
 5192SOL    HW227039   3.210   4.045   2.158  0.0365  0.1144 -0.0161
 5193SOL     OW27040   0.916   1.470   9.910  0.4037 -0.1095 -0.2131
 5193SOL    HW127041   0.930   1.432   9.996  1.9298 -1.6547 -1.1478
 5193SOL    HW227042   0.993   1.528   9.904 -1.1674  2.1832  1.6778
 5194SOL     OW27043   4.061   1.842   3.918 -0.0302  0.2354  0.0787
 5194SOL    HW127044   3.973   1.875   3.939 -0.1648 -1.4067  2.1395
 5194SOL    HW227045   4.042   1.814   3.829  0.8864  0.4945 -0.1937
 5195SOL     OW27046   4.588   1.323   5.847  0.1375 -0.1199  0.2856
 5195SOL    HW127047   4.640   1.243   5.840  0.5919  0.0854  1.3221
 5195SOL    HW227048   4.590   1.336   5.942 -0.9857  0.3670  0.2467
 5196SOL     OW27049   4.103   2.908   3.152 -0.0012  0.2300  0.0933
 5196SOL    HW127050   4.032   2.866   3.103 -1.5013  0.7445  1.8028
 5196SOL    HW227051   4.059   2.993   3.159 -1.9179 -0.9633  2.6561
 5197SOL     OW27052   1.190   1.079  17.023  0.1693  0.2022 -0.3969
 5197SOL    HW127053   1.129   1.149  17.048 -0.1135 -0.6407  1.2886
 5197SOL    HW227054   1.210   1.038  17.107 -2.8083 -0.6697 -0.0899
 5198SOL     OW27055   1.662   4.612   3.781  0.6457 -0.1595 -0.6181
 5198SOL    HW127056   1.579   4.659   3.778  0.4741 -0.4987 -1.1795
 5198SOL    HW227057   1.663   4.569   3.695  1.0575  0.1013 -0.7471
 5199SOL     OW27058   2.671   1.494  12.578 -0.5813 -0.3826 -0.1916
 5199SOL    HW127059   2.642   1.577  12.541  0.6511 -0.1005 -0.5369
 5199SOL    HW227060   2.585   1.464  12.605 -1.4748  1.5738 -0.9293
 5200SOL     OW27061   1.760   0.329   1.009  0.2716 -0.2391  0.2943
 5200SOL    HW127062   1.762   0.342   1.104 -2.3889 -1.2274  0.4983
 5200SOL    HW227063   1.778   0.236   0.996 -2.3808 -1.0344  2.4067
 5201SOL     OW27064   0.377   4.368   0.753 -0.0209  0.7229  0.3098
 5201SOL    HW127065   0.367   4.449   0.804  0.9554  0.8174  0.3423
 5201SOL    HW227066   0.380   4.307   0.827 -0.0775 -0.7272 -0.8907
 5202SOL     OW27067   0.873   0.738  15.468 -0.0399  0.0830 -0.1383
 5202SOL    HW127068   0.903   0.683  15.540 -0.5203 -0.0240 -0.0185
 5202SOL    HW227069   0.807   0.801  15.496  0.5188  0.4460  0.3340
 5203SOL     OW27070   3.299   2.498  10.805 -0.5667 -0.2068  0.1542
 5203SOL    HW127071   3.314   2.404  10.806 -0.2841 -0.0991  3.3169
 5203SOL    HW227072   3.377   2.518  10.856 -0.5807  0.2889 -0.0122
 5204SOL     OW27073   0.066   2.745   7.601  0.1816 -0.6175 -0.8245
 5204SOL    HW127074   0.120   2.776   7.673 -2.0638 -0.1167  0.6467
 5204SOL    HW227075   0.075   2.652   7.623 -0.1843 -0.7408 -1.1793
 5205SOL     OW27076   3.601   4.402   9.779  0.7502 -0.2507  0.3270
 5205SOL    HW127077   3.619   4.373   9.869 -0.5216  0.1917  0.7180
 5205SOL    HW227078   3.523   4.452   9.803  0.6477 -0.2958  0.0837
 5206SOL     OW27079   3.748   4.601  15.401  0.0728 -0.3808 -0.1214
 5206SOL    HW127080   3.797   4.637  15.474 -1.1640 -0.0720  0.5526
 5206SOL    HW227081   3.664   4.628  15.438 -0.2430 -0.1637 -0.9915
 5207SOL     OW27082   1.951   2.844   4.275 -0.5933 -0.1091  0.0273
 5207SOL    HW127083   1.972   2.779   4.342  0.5959 -0.3955 -0.6244
 5207SOL    HW227084   2.029   2.898   4.265 -0.3362 -0.3562  0.7431
 5208SOL     OW27085   1.687   1.950  17.317 -0.2180  0.0546  0.5759
 5208SOL    HW127086   1.760   1.890  17.303 -0.2442  0.4090 -1.0570
 5208SOL    HW227087   1.644   1.928  17.235  0.7754 -0.4095  0.1879
 5209SOL     OW27088   3.817   0.657   6.143 -0.1601 -0.1930 -0.2049
 5209SOL    HW127089   3.909   0.680   6.133  0.4620 -0.7377  4.1115
 5209SOL    HW227090   3.813   0.647   6.238  2.2400 -0.2566 -0.1142
 5210SOL     OW27091   3.472   2.646  12.581 -0.0436  0.2755 -0.3385
 5210SOL    HW127092   3.508   2.730  12.607 -0.2383 -0.8107  3.4588
 5210SOL    HW227093   3.527   2.604  12.516 -1.6015  0.7198 -1.9454
 5211SOL     OW27094   0.210   3.426  12.000 -0.3920 -0.2020 -0.0829
 5211SOL    HW127095   0.218   3.446  12.093  1.4334  1.1723 -0.5454
 5211SOL    HW227096   0.301   3.416  11.973  0.1139  1.0898  1.1861
 5212SOL     OW27097   0.181   3.270  14.677 -0.2102  0.7718  0.2516
 5212SOL    HW127098   0.246   3.222  14.729 -1.8811 -1.3684  0.3656
 5212SOL    HW227099   0.104   3.214  14.665  0.9850 -1.1071  1.4097
 5213SOL     OW27100   0.263   1.244   3.629 -0.0137  0.0374  0.7378
 5213SOL    HW127101   0.290   1.181   3.696 -1.5661 -0.2454  1.1123
 5213SOL    HW227102   0.350   1.276   3.605  0.6548 -1.2719  1.3815
 5214SOL     OW27103   0.826   2.666  17.203  0.2627 -0.5478  0.2533
 5214SOL    HW127104   0.812   2.657  17.297 -1.4127 -1.8143 -0.1050
 5214SOL    HW227105   0.744   2.708  17.177 -0.9160 -1.3774  2.6240
 5215SOL     OW27106   2.068   3.523   7.991 -0.1304 -0.3034  0.2695
 5215SOL    HW127107   2.085   3.432   8.016  1.9911 -0.0359 -0.1596
 5215SOL    HW227108   1.998   3.519   7.926 -0.6680  2.0217  0.6867
 5216SOL     OW27109   1.155   3.628   3.649 -0.2352 -0.4494  0.0171
 5216SOL    HW127110   1.073   3.620   3.697 -1.6276  2.9656 -1.8216
 5216SOL    HW227111   1.212   3.668   3.715 -3.0249  0.0552  2.1363
 5217SOL     OW27112   0.686   3.628  12.156  0.1387 -0.4854 -0.0064
 5217SOL    HW127113   0.728   3.542  12.153 -0.0184 -0.4861 -2.0641
 5217SOL    HW227114   0.626   3.624  12.231  0.8355 -0.5672  0.5460
 5218SOL     OW27115   1.117   2.597   0.890  0.0098  0.5824  0.8051
 5218SOL    HW127116   1.180   2.668   0.894 -0.9916  1.5541 -0.6169
 5218SOL    HW227117   1.173   2.527   0.858 -1.1009  0.2635 -0.4395
 5219SOL     OW27118   0.027   1.901   5.780  0.0959 -0.0337 -0.3166
 5219SOL    HW127119   0.069   1.820   5.810 -1.8202 -0.0016  2.4387
 5219SOL    HW227120   0.005   1.947   5.861  2.6039  1.1299 -0.2972
 5220SOL     OW27121   2.786   2.903   6.476 -0.1580 -0.3052  0.3515
 5220SOL    HW127122   2.755   2.816   6.451 -1.2540 -0.0953  0.9871
 5220SOL    HW227123   2.707   2.943   6.513  0.1906 -0.2324  1.0211
 5221SOL     OW27124   0.083   0.183  11.288  0.0124  0.2651  0.4181
 5221SOL    HW127125   4.715   0.164  11.310  0.0296 -1.0179 -0.6041
 5221SOL    HW227126   0.098   0.101  11.241 -0.1329 -0.1345  1.0567
 5222SOL     OW27127   0.383   1.390   8.385  0.2604  0.3989  0.0112
 5222SOL    HW127128   0.394   1.314   8.327 -0.3368  0.4496 -0.1719
 5222SOL    HW227129   0.406   1.467   8.333 -1.1175  0.5533 -0.3714
 5223SOL     OW27130   0.508   0.061   9.468  0.3451 -0.5014  0.8026
 5223SOL    HW127131   0.474   0.101   9.388  1.3202  0.8646  1.0680
 5223SOL    HW227132   0.430   0.084   9.520  0.9082 -1.8705  2.2363
 5224SOL     OW27133   1.957   3.736   7.605  0.2682  0.8911  0.7127
 5224SOL    HW127134   1.980   3.731   7.512  0.5923 -1.0261  0.9144
 5224SOL    HW227135   1.876   3.786   7.609 -0.0466  0.4928 -0.8149
 5225SOL     OW27136   3.530   1.971   5.363  0.4988 -0.1204  0.2240
 5225SOL    HW127137   3.576   1.954   5.445 -1.5414 -0.5488  1.2729
 5225SOL    HW227138   3.544   1.888   5.317  0.1389  0.2423 -0.5318
 5226SOL     OW27139   0.778   0.306   2.364  0.5817 -0.2180 -0.0217
 5226SOL    HW127140   0.749   0.255   2.440 -2.0449  0.2853 -0.6881
 5226SOL    HW227141   0.872   0.298   2.379  0.4646  0.6822  1.2520
 5227SOL     OW27142   1.041   3.329   7.006 -0.7520  0.7057  0.1308
 5227SOL    HW127143   1.121   3.331   7.060 -0.1538  2.6740 -0.8070
 5227SOL    HW227144   0.985   3.277   7.063 -1.6478  1.5272  0.0005
 5228SOL     OW27145   1.028   2.600   6.414  0.3739  0.1520 -0.5490
 5228SOL    HW127146   1.105   2.620   6.467 -0.2010 -0.3362  0.4679
 5228SOL    HW227147   0.971   2.675   6.432  1.2012  0.9274 -1.1710
 5229SOL     OW27148   4.481   4.388   3.864 -0.0384 -0.6356  0.2127
 5229SOL    HW127149   4.456   4.381   3.956  1.1766  0.3026  0.6150
 5229SOL    HW227150   4.436   4.309   3.834 -0.9376 -0.7869  2.0028
 5230SOL     OW27151   1.172   4.558   1.918 -0.1989  0.0316  0.0419
 5230SOL    HW127152   1.172   4.653   1.933  0.5692  0.3259 -1.7919
 5230SOL    HW227153   1.078   4.539   1.914 -0.3567  0.3804  1.7914
 5231SOL     OW27154   4.573   2.539   9.626 -0.6722  0.4906 -0.0181
 5231SOL    HW127155   4.603   2.486   9.700 -0.3575  0.6017 -0.0703
 5231SOL    HW227156   4.573   2.466   9.565  2.6828 -0.4265  1.0882
 5232SOL     OW27157   1.787   4.233  10.120 -0.1170 -0.0023 -0.2639
 5232SOL    HW127158   1.754   4.322  10.117 -0.1284  0.0328  0.8473
 5232SOL    HW227159   1.743   4.202  10.199  0.3797  1.0052  0.4022
 5233SOL     OW27160   2.836   1.448   8.549 -0.5315 -0.5052  0.2273
 5233SOL    HW127161   2.860   1.526   8.600 -1.3575 -0.8419  1.1199
 5233SOL    HW227162   2.867   1.383   8.611 -1.7608 -1.2148  0.0960
 5234SOL     OW27163   3.635   3.115   0.979 -0.0395  0.1604  0.4689
 5234SOL    HW127164   3.679   3.176   0.920 -0.2559 -0.2577 -0.1218
 5234SOL    HW227165   3.603   3.182   1.040 -1.0447 -1.2903  1.5383
 5235SOL     OW27166   3.342   4.052  14.685 -0.5987 -0.3959  0.2194
 5235SOL    HW127167   3.284   3.988  14.644  1.2692 -0.4230 -2.3767
 5235SOL    HW227168   3.300   4.055  14.771 -3.9420 -1.1650 -1.3940
 5236SOL     OW27169   0.796   3.540   4.558 -0.1094  0.4055 -0.8373
 5236SOL    HW127170   0.870   3.575   4.609  0.4165 -0.2610 -1.1538
 5236SOL    HW227171   0.803   3.598   4.482 -0.7586 -0.9515 -1.9242
 5237SOL     OW27172   2.741   2.830  10.860 -0.0031 -0.0618  0.7625
 5237SOL    HW127173   2.677   2.813  10.930  0.1849  0.7117  1.1185
 5237SOL    HW227174   2.752   2.925  10.866 -1.3190  0.1411 -0.1312
 5238SOL     OW27175   0.955   0.239   6.998  0.5088 -0.0312  0.6516
 5238SOL    HW127176   1.015   0.304   7.033 -0.9158  2.1004 -0.9131
 5238SOL    HW227177   0.992   0.221   6.912 -0.1423 -0.6885  0.5003
 5239SOL     OW27178   2.721   0.238   3.027 -0.3565 -0.3600  0.4090
 5239SOL    HW127179   2.800   0.208   3.071 -1.7593 -1.0283  2.5060
 5239SOL    HW227180   2.727   0.222   2.933  0.3816 -0.1438  0.4246
 5240SOL     OW27181   3.534   2.148   3.559  0.0843 -0.0893  0.5705
 5240SOL    HW127182   3.451   2.194   3.547  0.5494  0.4467 -0.5643
 5240SOL    HW227183   3.560   2.139   3.468  0.9544 -0.5255  0.8620
 5241SOL     OW27184   1.276   0.188   7.226  0.7522 -0.4062  0.5372
 5241SOL    HW127185   1.216   0.241   7.174  1.1970  1.4129  1.9088
 5241SOL    HW227186   1.246   0.102   7.195 -1.4791  0.9054 -0.8893
 5242SOL     OW27187   1.427   0.021   3.779  0.0377 -0.1335  0.3133
 5242SOL    HW127188   1.381   4.661   3.769 -1.0439  0.5821 -0.6091
 5242SOL    HW227189   1.374   0.055   3.851 -0.3368  1.3009 -0.6410
 5243SOL     OW27190   4.144   2.249  11.647  0.5875 -0.3443 -0.2620
 5243SOL    HW127191   4.163   2.256  11.553  1.0901  1.0569 -0.0578
 5243SOL    HW227192   4.118   2.339  11.664  0.5767 -0.6519  1.3339
 5244SOL     OW27193   4.501   1.898  11.653  0.3926 -0.3062  0.0137
 5244SOL    HW127194   4.441   1.948  11.598 -2.2545 -2.0056  1.3546
 5244SOL    HW227195   4.450   1.904  11.734 -0.2010  2.8646 -0.6050
 5245SOL     OW27196   1.272   1.863  16.503 -0.0955 -0.6472  0.0445
 5245SOL    HW127197   1.307   1.944  16.469 -0.4380 -0.2466  0.6308
 5245SOL    HW227198   1.185   1.865  16.462 -0.8809 -4.3909  1.4480
 5246SOL     OW27199   1.748   4.203  10.713 -0.0973  0.0442 -0.7604
 5246SOL    HW127200   1.769   4.113  10.737 -2.1969  0.3483  2.1102
 5246SOL    HW227201   1.682   4.196  10.644  0.2655 -1.8203 -0.9166
 5247SOL     OW27202   0.509   3.204   0.268 -0.5671  0.1087 -0.3175
 5247SOL    HW127203   0.523   3.276   0.329 -1.2266 -1.0667  1.2418
 5247SOL    HW227204   0.435   3.234   0.217  0.2695  0.6372 -1.2116
 5248SOL     OW27205   1.518   3.502   8.318  0.0369 -0.3575  0.0380
 5248SOL    HW127206   1.509   3.514   8.224  1.0723 -2.0142 -0.2874
 5248SOL    HW227207   1.484   3.412   8.326  1.1352 -0.6839  1.1318
 5249SOL     OW27208   4.020   2.135  17.596 -0.1220 -0.1704  0.4227
 5249SOL    HW127209   4.102   2.151  17.643  1.5414 -2.5562 -1.7013
 5249SOL    HW227210   3.975   2.074  17.655  0.0028 -1.5836 -0.9613
 5250SOL     OW27211   4.070   3.804  14.567  0.5644 -0.0860  0.3710
 5250SOL    HW127212   3.988   3.757  14.557  0.7050 -0.5015  1.1295
 5250SOL    HW227213   4.095   3.795  14.659  2.2268 -2.2734 -0.2922
 5251SOL     OW27214   1.369   2.570   6.354 -0.2189  0.2897 -0.3143
 5251SOL    HW127215   1.430   2.509   6.396 -1.8468  0.5899  2.4823
 5251SOL    HW227216   1.318   2.601   6.429  0.3463 -3.8773  1.8015
 5252SOL     OW27217   1.506   4.508   4.993 -0.1221 -0.0765 -0.3970
 5252SOL    HW127218   1.431   4.465   4.954  1.3105 -0.7072 -2.4153
 5252SOL    HW227219   1.528   4.437   5.053  1.1011 -0.3882 -1.2192
 5253SOL     OW27220   2.435   4.088   2.996 -0.3699 -0.3113 -0.3026
 5253SOL    HW127221   2.473   4.082   3.084 -0.9293  0.5748 -0.0027
 5253SOL    HW227222   2.505   4.054   2.941 -0.9773 -2.1205  0.0379
 5254SOL     OW27223   0.957   0.780  15.213 -0.2414 -0.0172  0.1213
 5254SOL    HW127224   0.920   0.801  15.299  0.6046  0.2141  0.4327
 5254SOL    HW227225   0.871   0.768  15.173  0.8691 -1.6096 -1.8085
 5255SOL     OW27226   4.566   2.586   1.125 -0.1615 -0.2227 -0.2696
 5255SOL    HW127227   4.553   2.527   1.199 -0.9137  0.3028  0.0165
 5255SOL    HW227228   4.632   2.651   1.152 -0.8878 -0.2703  1.6041
 5256SOL     OW27229   4.609   4.239  17.469  0.5685 -0.8304  0.1770
 5256SOL    HW127230   4.549   4.222  17.396  1.1760 -0.9413 -0.2970
 5256SOL    HW227231   4.646   4.153  17.489  0.9969 -1.2010 -2.2760
 5257SOL     OW27232   2.280   3.980   6.982 -0.1520 -0.6896 -0.6025
 5257SOL    HW127233   2.270   4.042   6.910 -0.0611  2.0489  1.7543
 5257SOL    HW227234   2.206   4.006   7.036 -0.6815 -2.9771 -0.2501
 5258SOL     OW27235   0.228   1.505   3.730 -0.1255 -0.7483  0.1038
 5258SOL    HW127236   0.255   1.414   3.719  1.2707  0.0015 -2.7524
 5258SOL    HW227237   0.234   1.546   3.643 -1.0415  2.8412  1.7608
 5259SOL     OW27238   0.682   0.064   1.830  0.9480  0.0954 -0.2418
 5259SOL    HW127239   0.712   0.082   1.920 -0.0978  0.2586  0.0776
 5259SOL    HW227240   0.667   4.693   1.832  0.9675  0.1270  1.5691
 5260SOL     OW27241   0.460   2.559   5.785  0.2764 -0.4233  0.7634
 5260SOL    HW127242   0.455   2.654   5.783  3.0611 -0.2612  1.4821
 5260SOL    HW227243   0.457   2.536   5.692 -1.2833 -0.5583  0.8433
 5261SOL     OW27244   3.175   2.869   5.559  0.6179 -0.5536 -0.1994
 5261SOL    HW127245   3.136   2.848   5.474  0.3046  2.7421 -0.8749
 5261SOL    HW227246   3.151   2.791   5.609  0.5102 -0.2903  0.1616
 5262SOL     OW27247   1.942   3.801   6.313  0.1700 -0.1156 -0.2917
 5262SOL    HW127248   2.032   3.819   6.341 -0.1264 -0.6834  0.9971
 5262SOL    HW227249   1.937   3.834   6.223  0.4044 -2.3219 -1.1069
 5263SOL     OW27250   2.168   4.180   2.934 -0.1115  0.4001 -0.4329
 5263SOL    HW127251   2.145   4.194   3.026  0.5720  1.0598 -0.3612
 5263SOL    HW227252   2.258   4.146   2.940  0.0558  0.9543  0.2871
 5264SOL     OW27253   1.435   4.577   5.655 -0.2427  0.1533 -0.0267
 5264SOL    HW127254   1.499   4.644   5.678  1.2324 -0.0264 -3.6032
 5264SOL    HW227255   1.364   4.602   5.714  0.4349  0.3866  0.6932
 5265SOL     OW27256   0.646   4.452   3.243  0.3586 -0.3181 -0.2118
 5265SOL    HW127257   0.576   4.414   3.297  2.2285 -2.3692  0.7844
 5265SOL    HW227258   0.635   4.402   3.162  0.2958  0.4732 -0.6946
 5266SOL     OW27259   4.206   4.008   3.591  0.1173 -0.9340  0.0097
 5266SOL    HW127260   4.181   3.959   3.513 -0.8782 -0.6020  0.1158
 5266SOL    HW227261   4.191   3.939   3.656  0.9459 -0.9200  0.2089
 5267SOL     OW27262   4.321   1.221  10.585 -0.1925  0.2789  0.2833
 5267SOL    HW127263   4.370   1.285  10.533 -1.1490  1.7401  1.1710
 5267SOL    HW227264   4.374   1.144  10.564 -1.0819 -0.3823  0.4211
 5268SOL     OW27265   4.202   0.843  12.954 -0.6388 -0.2087  0.3020
 5268SOL    HW127266   4.147   0.913  12.988  0.9521  0.5146  1.4004
 5268SOL    HW227267   4.225   0.870  12.865 -0.4605  0.9896  0.7091
 5269SOL     OW27268   1.471   2.791   7.172 -0.3802 -0.1648  0.5604
 5269SOL    HW127269   1.406   2.753   7.113  0.0414 -1.2717  0.8008
 5269SOL    HW227270   1.527   2.834   7.108 -0.0612 -0.9399  0.3120
 5270SOL     OW27271   1.874   3.562   6.100 -0.3471 -0.6282 -0.0649
 5270SOL    HW127272   1.798   3.508   6.122 -3.0024  3.2975  0.4464
 5270SOL    HW227273   1.878   3.620   6.176 -1.9886 -1.1621  0.4210
 5271SOL     OW27274   0.433   3.096   2.329 -0.1236 -0.3346 -0.1171
 5271SOL    HW127275   0.354   3.149   2.337  0.1595  0.2036 -0.8915
 5271SOL    HW227276   0.441   3.069   2.238 -0.4491 -0.8557  0.0037
 5272SOL     OW27277   1.378   2.898   1.893  0.7053  0.1909  0.6864
 5272SOL    HW127278   1.374   2.832   1.823  0.4503 -0.4224  1.2817
 5272SOL    HW227279   1.461   2.935   1.865  0.3414 -0.6915 -1.5577
 5273SOL     OW27280   4.700   3.960   7.184 -0.9785 -0.4608  0.4868
 5273SOL    HW127281   0.050   4.020   7.200 -1.8164  1.4118 -2.6399
 5273SOL    HW227282   0.033   3.896   7.141 -0.4849 -1.4989  2.7094
 5274SOL     OW27283   2.601   3.050  16.800 -0.0459 -0.2658  0.1136
 5274SOL    HW127284   2.653   3.092  16.869 -1.4314  1.7726 -0.0827
 5274SOL    HW227285   2.627   3.098  16.721 -1.5644 -1.4199 -1.0753
 5275SOL     OW27286   1.706   3.682   5.460  0.1237 -0.2132  0.2567
 5275SOL    HW127287   1.760   3.747   5.416  1.0210 -0.3578  1.1611
 5275SOL    HW227288   1.695   3.724   5.545 -2.9338 -0.2392 -0.1148
 5276SOL     OW27289   4.433   1.264   4.754  0.3641  0.7614 -0.0819
 5276SOL    HW127290   4.396   1.342   4.713 -2.0997 -1.2148 -1.6580
 5276SOL    HW227291   4.375   1.258   4.829  0.0096  0.9354 -0.3430
 5277SOL     OW27292   2.072   1.656   9.824  0.1483  0.4576  0.0357
 5277SOL    HW127293   2.117   1.653   9.909 -0.1955 -1.3560  0.1405
 5277SOL    HW227294   2.087   1.570   9.785  0.4590  0.8871 -0.7836
 5278SOL     OW27295   0.663   4.468  13.071 -0.5547 -0.3287 -0.0887
 5278SOL    HW127296   0.672   4.422  12.988 -0.9880 -0.3578 -0.1197
 5278SOL    HW227297   0.748   4.507  13.091 -1.6576  3.1052 -1.9609
 5279SOL     OW27298   4.588   1.057   0.437  0.9184  0.0659  0.2707
 5279SOL    HW127299   4.504   1.039   0.479  0.4363 -1.9130 -1.5084
 5279SOL    HW227300   4.549   1.094   0.357 -0.3969 -0.5297  0.6423
 5280SOL     OW27301   2.116   3.960   5.600 -0.4424 -0.3085 -0.4018
 5280SOL    HW127302   2.185   3.912   5.646 -0.1615 -0.4821 -1.0015
 5280SOL    HW227303   2.136   4.041   5.648  1.5069 -0.1710 -1.4525
 5281SOL     OW27304   4.133   1.780   4.520 -0.2230 -0.4506  0.2633
 5281SOL    HW127305   4.151   1.784   4.614 -0.2144 -0.3837  0.2582
 5281SOL    HW227306   4.147   1.870   4.492 -0.8424 -0.3815  0.1826
 5282SOL     OW27307   3.691   1.499   7.739 -0.1022 -0.3198 -0.1159
 5282SOL    HW127308   3.609   1.538   7.769 -0.4298 -0.7041 -0.4977
 5282SOL    HW227309   3.658   1.411   7.720  0.3673 -0.2934 -1.0655
 5283SOL     OW27310   1.592   3.077   6.864  0.4819 -0.3613  0.0571
 5283SOL    HW127311   1.509   3.077   6.817  0.8735 -0.6665 -0.6431
 5283SOL    HW227312   1.571   3.039   6.949 -0.5647  1.8447  0.7855
 5284SOL     OW27313   4.609   3.031  16.452  0.0314  0.0079 -0.0246
 5284SOL    HW127314   4.573   3.050  16.365 -3.7604 -0.3753  1.4934
 5284SOL    HW227315   4.519   3.024  16.483  1.0833 -0.2911  2.9009
 5285SOL     OW27316   1.209   2.868   3.432  0.5006  0.7205 -0.0930
 5285SOL    HW127317   1.234   2.938   3.493  4.2617 -1.3565  0.7479
 5285SOL    HW227318   1.148   2.918   3.378  0.7066  1.5002  0.3886
 5286SOL     OW27319   0.797   4.431   8.739 -0.2201  0.0396  0.1221
 5286SOL    HW127320   0.863   4.479   8.788 -0.3932  1.9882 -1.5860
 5286SOL    HW227321   0.722   4.424   8.797  0.7325 -0.8033  1.2532
 5287SOL     OW27322   0.910   3.199  10.702 -0.6111 -0.0173 -0.2776
 5287SOL    HW127323   0.878   3.249  10.778  1.5643  0.1535  0.5497
 5287SOL    HW227324   0.838   3.137  10.698 -0.7467  0.3007 -2.4541
 5288SOL     OW27325   1.466   4.023   3.952 -0.4116  0.1033  0.3387
 5288SOL    HW127326   1.544   4.041   4.005 -0.8055 -1.3550  1.4253
 5288SOL    HW227327   1.436   3.940   3.990 -2.1785  0.8348  0.5187
 5289SOL     OW27328   1.866   3.386  16.514  0.6410  0.1030 -0.0218
 5289SOL    HW127329   1.959   3.371  16.531  0.5729  0.3976  0.6279
 5289SOL    HW227330   1.865   3.313  16.452 -0.6966  1.7740 -1.9895
 5290SOL     OW27331   4.286   2.607   1.344 -0.3878  0.3162  0.3055
 5290SOL    HW127332   4.208   2.661   1.333  0.1992  0.7353 -1.8018
 5290SOL    HW227333   4.349   2.663   1.299 -1.2258  2.6458  2.0676
 5291SOL     OW27334   3.316   2.112   2.464  0.1368 -0.2912  0.6163
 5291SOL    HW127335   3.336   2.032   2.415 -1.9238 -1.2667  1.4034
 5291SOL    HW227336   3.379   2.175   2.429 -0.1388 -0.8430 -0.8571
 5292SOL     OW27337   1.208   1.374   2.912  0.3116  0.1595 -0.1472
 5292SOL    HW127338   1.220   1.429   2.834  1.9513 -1.0873 -0.7706
 5292SOL    HW227339   1.278   1.397   2.974  0.7764  0.2489 -0.7048
 5293SOL     OW27340   0.808   0.107   5.179  0.9742  0.1081 -0.2808
 5293SOL    HW127341   0.810   0.137   5.088  0.5572  0.8628 -0.0433
 5293SOL    HW227342   0.725   0.059   5.185  0.4204  1.0491 -0.3588
 5294SOL     OW27343   2.438   4.491  10.494 -0.0121 -0.9332  0.0575
 5294SOL    HW127344   2.420   4.583  10.512  1.2596 -0.4841 -0.9071
 5294SOL    HW227345   2.412   4.455  10.578  1.8713 -2.0172  0.1663
 5295SOL     OW27346   3.240   4.462   8.301  0.1617 -0.2951 -0.3340
 5295SOL    HW127347   3.156   4.506   8.313 -0.6602 -1.8495 -0.3600
 5295SOL    HW227348   3.221   4.368   8.312 -2.1979  0.1750 -0.3860
 5296SOL     OW27349   3.211   4.661   0.564 -0.4846  0.3828  0.4867
 5296SOL    HW127350   3.182   4.684   0.476 -2.5046 -0.1373  1.0261
 5296SOL    HW227351   3.130   4.624   0.598  0.1501  0.9160  2.5840
 5297SOL     OW27352   3.431   2.906  16.320  1.2323 -0.1546  0.2716
 5297SOL    HW127353   3.448   2.958  16.241  0.7676 -2.8567 -1.5766
 5297SOL    HW227354   3.336   2.903  16.313  1.2762  1.1927 -0.9269
 5298SOL     OW27355   3.143   1.630   9.606  0.3696  0.3679  0.1570
 5298SOL    HW127356   3.169   1.625   9.514  1.7387 -1.0968  0.6302
 5298SOL    HW227357   3.188   1.552   9.637  1.6531  1.0608  0.0506
 5299SOL     OW27358   4.184   4.289   5.840  0.5106  0.3501 -0.3116
 5299SOL    HW127359   4.198   4.204   5.882  0.5850  0.8235  0.6028
 5299SOL    HW227360   4.145   4.344   5.908  0.3723 -1.5296  1.1554
 5300SOL     OW27361   0.098   3.000   7.319  0.4615  0.2981  0.7681
 5300SOL    HW127362   0.029   3.066   7.304 -0.7706 -1.8179 -2.9683
 5300SOL    HW227363   0.042   2.924   7.335 -0.5102  0.8461  0.0094
 5301SOL     OW27364   2.394   1.479   7.433  0.1930 -0.0058  0.1247
 5301SOL    HW127365   2.321   1.439   7.386  0.6997  1.0301 -1.5464
 5301SOL    HW227366   2.346   1.542   7.487  1.5909  1.8095 -0.7444
 5302SOL     OW27367   3.089   0.693   2.481  0.1049  0.5371  0.2002
 5302SOL    HW127368   3.130   0.762   2.533  0.1479  0.9801 -0.4287
 5302SOL    HW227369   2.995   0.704   2.494 -0.4030 -1.9412 -1.2572
 5303SOL     OW27370   3.885   0.121   6.004 -0.6912  0.2285  0.4106
 5303SOL    HW127371   3.953   0.184   6.025  1.0048 -1.4587  0.0041
 5303SOL    HW227372   3.846   0.162   5.927  1.3940 -2.7042 -2.2102
 5304SOL     OW27373   3.127   1.445  17.053 -0.1030 -0.5803  0.5339
 5304SOL    HW127374   3.081   1.487  16.979 -0.3158  0.6171  1.3474
 5304SOL    HW227375   3.054   1.438  17.114  0.1320  0.0483  0.8844
 5305SOL     OW27376   0.300   0.043  17.546  0.0164 -0.5316  0.4798
 5305SOL    HW127377   0.302   0.138  17.533  1.9700 -0.8878 -1.7336
 5305SOL    HW227378   0.290   0.020  17.453 -0.8791 -1.7560  0.8808
 5306SOL     OW27379   2.859   1.993   0.653  0.5297  0.0030  0.2628
 5306SOL    HW127380   2.853   1.938   0.731 -0.4624  1.8732  1.5172
 5306SOL    HW227381   2.870   1.921   0.591 -1.7803 -0.7347  0.7542
 5307SOL     OW27382   0.848   0.477   8.707  0.1922 -0.0664  0.7033
 5307SOL    HW127383   0.920   0.460   8.646  2.1869  0.1633  2.9933
 5307SOL    HW227384   0.768   0.449   8.661 -0.8359  0.9867  1.8544
 5308SOL     OW27385   0.535   0.183  16.864  0.0610  0.5418 -0.2254
 5308SOL    HW127386   0.605   0.236  16.828  0.8845  0.6189  1.4988
 5308SOL    HW227387   0.477   0.171  16.789 -0.0958  1.2477 -0.2146
 5309SOL     OW27388   3.747   3.230   4.337  0.4523  0.0642 -0.5934
 5309SOL    HW127389   3.759   3.141   4.372 -1.0325 -0.2757 -0.9338
 5309SOL    HW227390   3.838   3.256   4.324  0.2735  1.4177  0.8049
 5310SOL     OW27391   1.115   1.993   0.159  0.3349  0.3590  0.2408
 5310SOL    HW127392   1.063   2.023   0.085  0.4040  0.6308  0.3026
 5310SOL    HW227393   1.090   1.900   0.164 -0.5350  0.6141  0.6204
 5311SOL     OW27394   2.551   3.764   1.705  0.4307 -0.4096  0.3335
 5311SOL    HW127395   2.513   3.689   1.751  0.5486  0.5786  2.0360
 5311SOL    HW227396   2.547   3.737   1.613  1.8384  1.9854 -0.4531
 5312SOL     OW27397   3.962   2.257   1.821  0.0871  0.0116  0.2924
 5312SOL    HW127398   3.904   2.332   1.807 -1.7774 -1.1030  2.1040
 5312SOL    HW227399   4.044   2.307   1.824 -0.2442  0.5425  0.4423
 5313SOL     OW27400   4.259   0.177   8.296 -0.3217 -0.8188  0.6248
 5313SOL    HW127401   4.289   0.190   8.207 -2.2108  2.0768  0.3928
 5313SOL    HW227402   4.165   0.195   8.289 -0.2717 -0.7826  0.1090
 5314SOL     OW27403   1.316   0.004   2.175 -0.1905  0.6834 -0.0994
 5314SOL    HW127404   1.304   0.096   2.153 -2.3285  0.1724 -1.0793
 5314SOL    HW227405   1.391   4.721   2.234  0.3315  2.8993 -0.4987
 5315SOL     OW27406   2.277   1.903   6.784 -0.7096  0.3052 -0.6836
 5315SOL    HW127407   2.365   1.918   6.819 -0.6469 -1.7934 -0.0046
 5315SOL    HW227408   2.252   1.993   6.760 -0.9949 -0.1677 -2.1428
 5316SOL     OW27409   1.252   0.969   9.579  0.1064  0.1139  0.4361
 5316SOL    HW127410   1.280   1.045   9.631  0.5307  0.7850 -0.7578
 5316SOL    HW227411   1.216   0.921   9.653 -0.3115  0.3755  0.3996
 5317SOL     OW27412   0.688   1.480  16.114  0.5335  0.3882 -0.3024
 5317SOL    HW127413   0.673   1.391  16.147  0.5144  0.3468 -0.4252
 5317SOL    HW227414   0.677   1.526  16.198 -1.3811 -1.9537  0.7255
 5318SOL     OW27415   1.717   3.960   9.303 -0.5493 -0.2572  0.5759
 5318SOL    HW127416   1.728   3.871   9.336 -0.2777 -0.5135 -0.2190
 5318SOL    HW227417   1.774   3.962   9.227 -1.0040  0.5243  0.2529
 5319SOL     OW27418   0.793   3.567   8.656  0.1209 -0.0025 -0.0202
 5319SOL    HW127419   0.729   3.528   8.595 -1.4933  1.5337  0.7083
 5319SOL    HW227420   0.791   3.501   8.726  0.6534 -0.5333 -0.5024
 5320SOL     OW27421   1.701   3.169   6.514  0.5380  0.6108 -0.1397
 5320SOL    HW127422   1.737   3.196   6.599  1.6376  1.1613 -0.7909
 5320SOL    HW227423   1.773   3.178   6.452 -2.2824  1.1933 -3.3175
 5321SOL     OW27424   2.896   2.052  11.686  0.6370  0.7700 -0.1814
 5321SOL    HW127425   2.886   2.098  11.602 -0.0544  0.6299 -0.1765
 5321SOL    HW227426   2.805   2.054  11.714  1.1415  0.3702  1.4468
 5322SOL     OW27427   0.944   2.168   6.158 -0.1040  0.1136 -0.2431
 5322SOL    HW127428   1.005   2.239   6.174 -1.8720  2.0176 -1.9881
 5322SOL    HW227429   0.858   2.193   6.190 -1.2347  0.3171 -3.4003
 5323SOL     OW27430   4.463   2.950   8.606 -0.1637  0.5595  0.5071
 5323SOL    HW127431   4.439   2.881   8.669 -0.2005 -0.0440 -0.1597
 5323SOL    HW227432   4.490   3.021   8.663 -3.3231  0.9036  1.6104
 5324SOL     OW27433   1.851   0.065   9.683  0.1437  0.0888 -0.0491
 5324SOL    HW127434   1.872   0.079   9.776  1.7871 -0.3081 -0.3712
 5324SOL    HW227435   1.862   4.694   9.693  2.0152  0.3668  0.4872
 5325SOL     OW27436   2.461   1.492   0.515 -0.0121  0.0505 -0.2133
 5325SOL    HW127437   2.484   1.433   0.443 -1.1722 -1.1133  0.3749
 5325SOL    HW227438   2.444   1.577   0.475  2.0378 -0.9698 -3.2399
 5326SOL     OW27439   3.056   4.436   0.417  0.2416  0.1308  0.6779
 5326SOL    HW127440   3.035   4.491   0.341  2.7514  1.0162  0.5986
 5326SOL    HW227441   3.032   4.495   0.488 -1.0360  0.5648 -0.1099
 5327SOL     OW27442   3.897   2.697   3.934 -0.4502  0.6442 -0.0873
 5327SOL    HW127443   3.964   2.644   3.977  0.5958 -0.1952 -2.8126
 5327SOL    HW227444   3.828   2.692   4.001  1.0720 -0.7084  1.3957
 5328SOL     OW27445   2.696   4.138   1.139 -0.2443 -0.0589 -0.4669
 5328SOL    HW127446   2.687   4.201   1.211  0.0934 -0.6071  0.0542
 5328SOL    HW227447   2.759   4.188   1.087 -2.0850  0.1910 -2.4681
 5329SOL     OW27448   0.322   3.767   6.758  0.3322 -0.1088  0.6546
 5329SOL    HW127449   0.339   3.782   6.665  0.5830 -0.1820  0.6873
 5329SOL    HW227450   0.350   3.850   6.797  0.2722 -1.2545  3.1133
 5330SOL     OW27451   3.363   0.964   5.902 -0.5522 -0.2642 -0.2853
 5330SOL    HW127452   3.292   0.939   5.844 -1.8085 -0.3681  1.2971
 5330SOL    HW227453   3.372   0.886   5.958 -1.0568  0.7039  1.1359
 5331SOL     OW27454   4.578   0.943   3.616 -0.0634 -0.3613 -0.0896
 5331SOL    HW127455   4.522   1.008   3.572 -1.1118 -0.2084  1.4617
 5331SOL    HW227456   4.580   0.870   3.555  0.0767 -0.4471  0.0187
 5332SOL     OW27457   4.498   0.522   2.606  0.0386  0.5826 -0.0011
 5332SOL    HW127458   4.501   0.618   2.603  1.0580  0.6423  2.2275
 5332SOL    HW227459   4.455   0.502   2.523 -0.9483 -2.3686  1.2426
 5333SOL     OW27460   2.781   0.845  14.279  0.0642 -0.3660  0.0397
 5333SOL    HW127461   2.720   0.855  14.352  1.5432 -1.5133  1.4268
 5333SOL    HW227462   2.862   0.811  14.316  1.4390  1.9313 -0.8770
 5334SOL     OW27463   3.861   1.653   2.033  0.3551 -0.2818 -0.0801
 5334SOL    HW127464   3.943   1.603   2.037  0.1652 -0.5829  0.0224
 5334SOL    HW227465   3.882   1.745   2.048  0.5415 -0.0651 -1.7638
 5335SOL     OW27466   0.875   0.091   3.307  0.5734  0.4377  0.2784
 5335SOL    HW127467   0.930   0.015   3.326  1.4176  1.5204  2.1801
 5335SOL    HW227468   0.786   0.056   3.312 -0.2317  2.3026 -0.7690
 5336SOL     OW27469   0.559   4.364   7.918 -0.0496 -0.1156  0.4672
 5336SOL    HW127470   0.598   4.333   8.000  0.5567  0.1324  0.2719
 5336SOL    HW227471   0.491   4.425   7.945 -0.4571 -0.7745  0.9072
 5337SOL     OW27472   2.214   1.780   1.241  0.4621 -0.2019 -0.0758
 5337SOL    HW127473   2.180   1.690   1.243 -0.3829  0.1700  3.7477
 5337SOL    HW227474   2.168   1.814   1.318 -1.9679 -0.7791 -1.2677
 5338SOL     OW27475   0.007   1.207   5.270 -0.6907  0.0410  0.0478
 5338SOL    HW127476   0.060   1.254   5.206  2.6486 -0.1419  2.7003
 5338SOL    HW227477   4.644   1.248   5.261 -1.6063 -1.3680  2.6271
 5339SOL     OW27478   0.434   0.637   8.057  0.1459  0.0640  0.1200
 5339SOL    HW127479   0.482   0.617   8.138  2.9505  3.5993 -0.7054
 5339SOL    HW227480   0.408   0.728   8.049  2.0377  0.4985 -0.9822
 5340SOL     OW27481   3.981   2.304   7.083  0.2364  0.0242 -0.8708
 5340SOL    HW127482   3.919   2.302   7.010  1.1099 -2.0307 -1.5396
 5340SOL    HW227483   3.926   2.314   7.161  1.4038 -0.5455  0.0111
 5341SOL     OW27484   1.611   0.003  11.655 -0.3981 -0.3778 -0.3687
 5341SOL    HW127485   1.689   4.676  11.635  1.2863  1.2590  2.0942
 5341SOL    HW227486   1.634   0.085  11.611 -3.1100 -0.6784 -2.3722
 5342SOL     OW27487   1.180   3.479   0.880  0.2886  0.8478  0.2185
 5342SOL    HW127488   1.102   3.429   0.860 -1.0191  2.2826  1.7035
 5342SOL    HW227489   1.201   3.429   0.959 -4.2830 -0.8457  0.3470
 5343SOL     OW27490   3.035   2.356   4.611  0.5607 -0.4326  0.0013
 5343SOL    HW127491   2.943   2.365   4.635  0.1314 -1.6012 -1.1721
 5343SOL    HW227492   3.033   2.297   4.536  1.4655 -0.5649  0.0865
 5344SOL     OW27493   2.277   2.861   5.835  0.3443  0.2155 -0.2163
 5344SOL    HW127494   2.337   2.788   5.822 -1.3856 -1.1704 -0.3453
 5344SOL    HW227495   2.300   2.889   5.923 -1.0197 -0.3219  0.3139
 5345SOL     OW27496   4.382   0.164   7.647  0.2798  0.4334  0.4489
 5345SOL    HW127497   4.320   0.235   7.667 -0.3778  0.1796 -0.6941
 5345SOL    HW227498   4.321   0.093   7.666  0.8028 -0.2083 -0.3018
 5346SOL     OW27499   4.669   4.235   6.375  0.1319 -0.1495 -0.4745
 5346SOL    HW127500   4.721   4.243   6.455 -0.1973  0.1067 -0.2883
 5346SOL    HW227501   4.663   4.139   6.372 -1.2817 -0.0905  0.4055
 5347SOL     OW27502   3.185   0.216   7.584  0.5528 -0.7185  1.0735
 5347SOL    HW127503   3.167   0.246   7.673 -1.9881 -0.8025  0.5680
 5347SOL    HW227504   3.115   0.256   7.533  0.6565 -1.1041  0.6286
 5348SOL     OW27505   3.275   2.751  16.582  0.0779  0.1736  0.8822
 5348SOL    HW127506   3.261   2.684  16.515 -0.7395  0.8317  0.4041
 5348SOL    HW227507   3.366   2.722  16.593 -0.0378 -0.8705 -0.9053
 5349SOL     OW27508   0.264   1.484   7.640 -0.2365 -0.3219  0.4275
 5349SOL    HW127509   0.223   1.559   7.684  0.3762  1.4758 -2.0772
 5349SOL    HW227510   0.353   1.517   7.651  0.7153 -1.7984 -2.8263
 5350SOL     OW27511   4.155   3.402   3.146  0.0831 -0.1291  0.0464
 5350SOL    HW127512   4.070   3.440   3.169 -0.0268  1.4736 -3.0295
 5350SOL    HW227513   4.138   3.344   3.071  0.2803 -0.9785  0.6560
 5351SOL     OW27514   0.864   0.969  14.556 -0.3842  0.3964 -0.1800
 5351SOL    HW127515   0.894   0.967  14.465 -0.9776  0.8698 -0.3913
 5351SOL    HW227516   0.945   0.990  14.602  0.1709 -0.8567 -0.6165
 5352SOL     OW27517   4.158   2.514   2.960  0.2045  0.3100 -0.0249
 5352SOL    HW127518   4.102   2.581   2.922 -0.3864 -0.0514  0.2132
 5352SOL    HW227519   4.143   2.525   3.054  3.5732 -1.5358  0.7304
 5353SOL     OW27520   4.678   4.582   0.408  0.4446  0.5145 -0.4254
 5353SOL    HW127521   4.683   4.676   0.392 -1.0433  0.9491  1.6728
 5353SOL    HW227522   4.686   4.551   0.318  0.9574  0.2929 -0.3043
 5354SOL     OW27523   1.747   2.612   3.463 -0.1095  0.3209 -0.0938
 5354SOL    HW127524   1.837   2.642   3.472 -0.4916  1.7647 -1.0137
 5354SOL    HW227525   1.722   2.658   3.382 -1.9538 -0.3453  0.0933
 5355SOL     OW27526   0.329   4.233   9.999  0.1223  0.1812 -0.0267
 5355SOL    HW127527   0.310   4.139  10.009  1.3953 -0.1977 -1.1522
 5355SOL    HW227528   0.253   4.265   9.951 -0.1782  1.0377  1.0203
 5356SOL     OW27529   2.874   0.725  12.342 -0.2144  0.1983  0.1068
 5356SOL    HW127530   2.931   0.766  12.277  0.3402  1.6097  1.4853
 5356SOL    HW227531   2.937   0.674  12.393 -0.6564 -1.4817 -1.0527
 5357SOL     OW27532   4.076   0.625   8.083  0.0281  0.4754  0.1874
 5357SOL    HW127533   4.065   0.710   8.125  2.6139  1.0602 -0.3567
 5357SOL    HW227534   4.044   0.649   7.996  0.9047  1.0505  0.0316
 5358SOL     OW27535   3.438   2.275  10.935 -0.3229 -0.5061 -0.1518
 5358SOL    HW127536   3.515   2.226  10.964 -1.2262 -0.3430  2.5321
 5358SOL    HW227537   3.446   2.358  10.980  2.2570 -0.6344 -0.3802
 5359SOL     OW27538   1.399   3.859  10.667  0.3112  0.3535 -0.3303
 5359SOL    HW127539   1.360   3.787  10.717  1.7316 -0.9238 -1.0990
 5359SOL    HW227540   1.435   3.818  10.589 -0.5139  0.3069 -0.6926
 5360SOL     OW27541   2.274   2.991   8.509 -0.5075 -0.0473 -0.3470
 5360SOL    HW127542   2.324   2.970   8.589  1.7560 -0.7606 -1.9497
 5360SOL    HW227543   2.259   3.084   8.522 -0.3767 -0.3478  1.9674
 5361SOL     OW27544   1.778   1.113   4.485  0.0973  0.4199 -0.5841
 5361SOL    HW127545   1.731   1.033   4.512 -0.0762  1.1565  1.2666
 5361SOL    HW227546   1.741   1.135   4.400 -0.1667  1.5845 -0.1673
 5362SOL     OW27547   0.664   0.925   6.837  0.1983  0.0300  0.1463
 5362SOL    HW127548   0.570   0.918   6.853 -0.0483  1.9051 -0.3668
 5362SOL    HW227549   0.670   1.020   6.847 -0.3344  0.1277 -0.4584
 5363SOL     OW27550   0.779   0.392   9.130  0.2817  0.0212  0.6784
 5363SOL    HW127551   0.828   0.439   9.198 -1.5445  0.0646  1.9850
 5363SOL    HW227552   0.744   0.472   9.091  0.8533 -0.7606 -1.3917
 5364SOL     OW27553   0.093   2.306   8.429 -0.3429  0.2845 -0.0355
 5364SOL    HW127554   0.116   2.216   8.408  0.8889 -0.1112  3.0042
 5364SOL    HW227555   0.160   2.349   8.376  0.1621  1.0094  1.1785
 5365SOL     OW27556   3.537   0.041   8.709 -0.1145 -0.4757 -0.0057
 5365SOL    HW127557   3.567   4.678   8.739 -0.7133 -0.2398  1.2750
 5365SOL    HW227558   3.539   0.090   8.790 -0.3191  1.6507 -1.2849
 5366SOL     OW27559   3.600   3.120   0.140  0.4617 -0.0266  0.8879
 5366SOL    HW127560   3.689   3.126   0.174  0.3445 -0.0270  1.1903
 5366SOL    HW227561   3.554   3.149   0.218 -0.9393 -0.3919  0.1986
 5367SOL     OW27562   3.788   0.913   4.121 -0.3025  0.8627  0.1061
 5367SOL    HW127563   3.879   0.924   4.094 -0.0827  1.5748  1.1527
 5367SOL    HW227564   3.759   0.997   4.155  3.0398  1.3643  1.6066
 5368SOL     OW27565   2.108   1.865  12.126 -0.4003 -0.2267  0.5800
 5368SOL    HW127566   2.058   1.822  12.056  1.3815 -0.8058 -0.3533
 5368SOL    HW227567   2.041   1.895  12.187  0.0597  1.0080  0.4703
 5369SOL     OW27568   1.865   0.445   3.337 -0.3668  0.1411  0.6514
 5369SOL    HW127569   1.844   0.521   3.391 -2.2563 -1.9869  2.8820
 5369SOL    HW227570   1.878   0.492   3.254  1.4566  0.6448  1.2130
 5370SOL     OW27571   1.739   3.691   5.121 -0.4951 -0.2782 -0.1457
 5370SOL    HW127572   1.807   3.759   5.130 -0.2069 -0.2965 -2.3205
 5370SOL    HW227573   1.733   3.694   5.026 -0.8873  2.4490 -0.0422
 5371SOL     OW27574   2.645   2.412   4.234  0.1012 -0.2154 -0.6198
 5371SOL    HW127575   2.672   2.395   4.144 -0.7686 -0.1794 -0.8822
 5371SOL    HW227576   2.552   2.389   4.233 -0.0565  0.4802 -1.5958
 5372SOL     OW27577   0.197   1.852  15.692 -0.7311 -0.5227 -1.2149
 5372SOL    HW127578   0.121   1.875  15.639 -2.1092  2.5918  2.0993
 5372SOL    HW227579   0.266   1.828  15.630  1.3176 -0.0511  0.8719
 5373SOL     OW27580   3.538   2.494   6.352  0.1919  0.6609  0.5695
 5373SOL    HW127581   3.579   2.415   6.317  0.4026  0.5935  0.9592
 5373SOL    HW227582   3.476   2.451   6.411  1.6560 -1.3024  0.6874
 5374SOL     OW27583   1.091   3.137  15.430 -0.8262  0.0396  0.3811
 5374SOL    HW127584   1.087   3.232  15.447 -0.9341 -0.3866  2.6620
 5374SOL    HW227585   1.025   3.112  15.495 -1.5831 -1.0100 -0.7922
 5375SOL     OW27586   1.044   0.222   1.814 -0.2550  0.0754 -0.3309
 5375SOL    HW127587   0.957   0.217   1.774 -0.5980  2.7089  0.0910
 5375SOL    HW227588   1.065   0.315   1.813  0.7790 -0.1396  1.2500
 5376SOL     OW27589   4.319   4.575   4.183 -0.8036 -0.2323  0.5570
 5376SOL    HW127590   4.236   4.528   4.179 -2.0163  2.0783 -1.4396
 5376SOL    HW227591   4.284   4.652   4.139  1.5701  1.7969  2.2053
 5377SOL     OW27592   4.292   0.838   8.190 -0.5844  0.0702  0.1528
 5377SOL    HW127593   4.310   0.832   8.096  0.5504  0.0099  0.3636
 5377SOL    HW227594   4.326   0.926   8.206 -1.0461 -0.0883  1.9227
 5378SOL     OW27595   4.650   4.030   9.953  0.1061  0.6259 -0.0704
 5378SOL    HW127596   4.564   4.044   9.993 -0.0437  4.0906 -1.6141
 5378SOL    HW227597   4.671   4.095   9.886  0.5967 -0.5121 -1.0208
 5379SOL     OW27598   2.240   1.378  11.903  0.1386  0.3391  0.2607
 5379SOL    HW127599   2.213   1.379  11.812  0.2064 -1.6335  0.2192
 5379SOL    HW227600   2.230   1.284  11.923 -2.3959  0.5955  0.2752
 5380SOL     OW27601   2.274   4.106  13.227  0.6137  0.1856 -0.3791
 5380SOL    HW127602   2.214   4.089  13.155 -0.1005 -1.4063  0.5936
 5380SOL    HW227603   2.289   4.016  13.256 -1.4120 -0.4053 -1.2064
 5381SOL     OW27604   3.021   3.476   3.776 -0.2000 -0.0061  0.1507
 5381SOL    HW127605   3.049   3.384   3.780  0.0841  0.1141  1.0857
 5381SOL    HW227606   3.048   3.517   3.858  1.4820  2.1013 -1.4823
 5382SOL     OW27607   4.642   3.160   5.484  0.0806  0.2684 -1.1266
 5382SOL    HW127608   4.627   3.138   5.392  0.4141  0.4155 -1.2148
 5382SOL    HW227609   4.563   3.201   5.519  0.8308  0.8474 -0.1136
 5383SOL     OW27610   2.458   1.600   8.337  0.3886 -0.4223 -0.6362
 5383SOL    HW127611   2.523   1.633   8.276  0.4988 -2.8163 -1.7942
 5383SOL    HW227612   2.379   1.586   8.285  0.3262 -0.6003 -0.4946
 5384SOL     OW27613   2.644   1.664   8.173  0.3088  0.0920  0.4172
 5384SOL    HW127614   2.737   1.641   8.184 -0.0439 -1.8577 -0.8282
 5384SOL    HW227615   2.660   1.746   8.126  0.4176 -0.1872 -0.0361
 5385SOL     OW27616   1.978   1.606   7.422 -0.1640 -0.2604  0.2505
 5385SOL    HW127617   1.884   1.624   7.435 -0.7573 -3.0151 -0.4377
 5385SOL    HW227618   1.995   1.550   7.498 -0.5148 -1.1215 -0.3071
 5386SOL     OW27619   3.049   3.019  17.639 -0.4491 -0.5613 -0.5644
 5386SOL    HW127620   3.019   2.998   0.032  1.1064  2.9516  0.8202
 5386SOL    HW227621   3.093   2.938  17.615 -0.2577  0.3609 -3.2572
 5387SOL     OW27622   4.234   2.821   3.934 -0.0179  0.5046  0.1350
 5387SOL    HW127623   4.150   2.867   3.929 -2.0964 -3.2735  0.2609
 5387SOL    HW227624   4.261   2.844   4.023 -0.5484 -0.6713  0.6029
 5388SOL     OW27625   3.626   1.390  12.371  0.6221  0.2865 -0.5777
 5388SOL    HW127626   3.677   1.465  12.402  2.5056 -0.2585 -2.3809
 5388SOL    HW227627   3.613   1.415  12.280  0.1228 -1.5049 -1.0041
 5389SOL     OW27628   1.920   1.942   7.644  0.2558  0.0527  0.0318
 5389SOL    HW127629   1.968   1.884   7.704  0.7300 -0.0044 -0.3978
 5389SOL    HW227630   1.831   1.910   7.655 -0.2172  0.8224 -1.5391
 5390SOL     OW27631   0.545   0.543  12.475 -0.7440 -0.4673  0.1214
 5390SOL    HW127632   0.555   0.453  12.506 -0.5981 -1.4259 -2.6963
 5390SOL    HW227633   0.587   0.592  12.545 -2.4845 -0.1980  0.9844
 5391SOL     OW27634   0.625   0.947   8.017  0.8513  0.2791  0.0598
 5391SOL    HW127635   0.680   0.925   7.942 -0.2389  0.8387 -0.9043
 5391SOL    HW227636   0.654   0.882   8.081  0.2833 -2.3031 -2.2953
 5392SOL     OW27637   1.150   2.675   8.738  0.7269  0.2270  0.0667
 5392SOL    HW127638   1.099   2.754   8.721 -0.2429 -0.3429  0.3443
 5392SOL    HW227639   1.134   2.659   8.831  0.3862  1.2430  0.1762
 5393SOL     OW27640   1.300   0.842   5.910  0.4853  0.2553 -0.1977
 5393SOL    HW127641   1.225   0.856   5.853 -0.0582  0.2176  0.5110
 5393SOL    HW227642   1.295   0.752   5.944  1.4641  0.3771  0.2748
 5394SOL     OW27643   0.560   0.792   0.038 -0.1120 -0.0096 -0.6891
 5394SOL    HW127644   0.576   0.885   0.020 -1.3874 -0.0907 -2.2592
 5394SOL    HW227645   0.571   0.790   0.133  0.7127 -1.6054 -0.8218
 5395SOL     OW27646   4.126   0.516   6.810 -0.5391  0.9655  0.2715
 5395SOL    HW127647   4.164   0.453   6.871 -0.8762 -0.2690 -0.7722
 5395SOL    HW227648   4.164   0.500   6.724  0.9546  0.6332  1.0104
 5396SOL     OW27649   1.394   2.260   1.988 -0.2914  0.4175 -0.2479
 5396SOL    HW127650   1.400   2.192   1.920  1.1313  0.0051  0.2766
 5396SOL    HW227651   1.418   2.331   1.928 -1.0333 -0.0482 -1.0919
 5397SOL     OW27652   1.897   2.075   5.464  0.3602 -0.4991 -0.3625
 5397SOL    HW127653   1.907   2.004   5.401  0.1967  0.3023 -1.2925
 5397SOL    HW227654   1.802   2.076   5.477  0.3346  0.1162 -0.5648
 5398SOL     OW27655   2.127   1.138  10.276 -0.0429  0.3254 -0.1310
 5398SOL    HW127656   2.054   1.097  10.229  0.5470  0.8205 -1.5005
 5398SOL    HW227657   2.096   1.229  10.277 -0.5238  0.1625 -0.2392
 5399SOL     OW27658   3.401   3.512   6.939  0.0305  0.3047 -0.1986
 5399SOL    HW127659   3.384   3.422   6.913  0.1139 -0.0263  0.8978
 5399SOL    HW227660   3.489   3.503   6.975 -0.8993 -0.8688  1.8087
 5400SOL     OW27661   0.847   3.520   9.550 -0.0722  0.6823  0.4535
 5400SOL    HW127662   0.757   3.500   9.525 -0.2978 -0.3191  2.0407
 5400SOL    HW227663   0.864   3.590   9.488  1.4183 -0.5783 -0.5386
 5401SOL     OW27664   4.035   1.579  16.231 -0.2568 -0.3307 -0.4007
 5401SOL    HW127665   4.127   1.580  16.259  0.3483 -0.7219 -2.4371
 5401SOL    HW227666   4.035   1.660  16.180 -3.2558  0.8875  1.5278
 5402SOL     OW27667   4.714   1.853  11.070 -0.5271  0.0759 -0.2896
 5402SOL    HW127668   0.082   1.826  11.081 -0.9385  0.3647  3.9528
 5402SOL    HW227669   4.671   1.773  11.041 -1.0166 -0.3604  1.6315
 5403SOL     OW27670   4.050   1.446   4.596 -0.6097 -0.1825  0.2160
 5403SOL    HW127671   4.041   1.428   4.690 -2.2628 -0.3153  0.0257
 5403SOL    HW227672   3.967   1.489   4.578 -0.8106 -0.5714  0.2050
 5404SOL     OW27673   2.658   1.473   7.569  0.0913  0.1989 -0.2420
 5404SOL    HW127674   2.596   1.481   7.641 -1.9472 -1.5127 -1.8114
 5404SOL    HW227675   2.598   1.437   7.504  0.0598 -1.0706  0.4904
 5405SOL     OW27676   1.332   2.904  14.359 -0.2736 -0.4144 -0.2305
 5405SOL    HW127677   1.254   2.948  14.392 -0.2882 -0.4088 -0.2730
 5405SOL    HW227678   1.373   2.904  14.445 -1.4830 -1.0491  0.3436
 5406SOL     OW27679   1.435   0.109   6.248 -0.0748  0.0855  0.1103
 5406SOL    HW127680   1.350   0.151   6.258  0.0659 -0.0564  1.8299
 5406SOL    HW227681   1.450   0.140   6.159  1.5693 -1.7783 -0.2647
 5407SOL     OW27682   4.425   3.943   8.102  0.5127  0.3149 -0.0584
 5407SOL    HW127683   4.429   3.849   8.082 -3.4215 -0.1755  1.4788
 5407SOL    HW227684   4.440   3.979   8.015  1.7174 -0.3875 -0.1407
 5408SOL     OW27685   2.307   3.806   2.369 -0.2139  0.3193 -0.2099
 5408SOL    HW127686   2.254   3.778   2.295 -0.4932  1.2127 -0.3498
 5408SOL    HW227687   2.393   3.809   2.325 -0.6287 -3.1347 -1.2089
 5409SOL     OW27688   2.672   4.657   8.227  0.5094 -0.2173  0.3483
 5409SOL    HW127689   2.652   4.648   8.320 -0.0968 -0.3667  0.2069
 5409SOL    HW227690   2.580   4.652   8.199  0.6549 -1.5145  0.0844
 5410SOL     OW27691   3.011   3.226   0.929 -0.6403  0.4378 -0.0679
 5410SOL    HW127692   3.037   3.234   0.838 -0.3315  3.8870  0.3036
 5410SOL    HW227693   3.050   3.309   0.959  0.4400 -0.1955  0.2854
 5411SOL     OW27694   3.289   0.540   4.516  0.8808 -0.0157 -0.1976
 5411SOL    HW127695   3.279   0.445   4.518 -0.6484  0.1781  1.8152
 5411SOL    HW227696   3.258   0.574   4.601  0.9691 -1.6569  0.4821
 5412SOL     OW27697   3.656   3.388   0.910  0.1311  0.1819  0.3833
 5412SOL    HW127698   3.664   3.461   0.971 -0.8791 -0.3314  1.1451
 5412SOL    HW227699   3.577   3.420   0.866 -1.6216 -0.5093  3.0065
 5413SOL     OW27700   1.022   4.555  10.483  0.0352 -0.0041  0.3966
 5413SOL    HW127701   0.964   4.480  10.468  0.7775 -0.2641 -1.1999
 5413SOL    HW227702   1.103   4.513  10.511 -0.6706 -2.2900 -1.0261
 5414SOL     OW27703   1.338   0.189   4.624  0.0551  0.0748 -0.1443
 5414SOL    HW127704   1.368   0.204   4.714 -1.1076  1.2580  0.0347
 5414SOL    HW227705   1.403   0.242   4.579 -0.3848 -1.4277 -2.5468
 5415SOL     OW27706   4.566   0.505   8.272 -0.5334  0.5536  0.9866
 5415SOL    HW127707   4.618   0.562   8.215  1.8124 -0.9083  1.6319
 5415SOL    HW227708   4.477   0.525   8.242 -0.8222  0.5045  1.8166
 5416SOL     OW27709   3.710   3.067  17.357 -0.1868 -0.1468 -0.0489
 5416SOL    HW127710   3.673   3.098  17.440 -0.1030 -0.4099  0.0869
 5416SOL    HW227711   3.789   3.025  17.392 -2.4243 -1.4304  3.4202
 5417SOL     OW27712   2.864   1.118  11.446  0.3011  0.0356 -0.3986
 5417SOL    HW127713   2.828   1.034  11.418 -1.2455  0.6818 -0.3972
 5417SOL    HW227714   2.829   1.170  11.373  0.6271  0.7912 -0.0209
 5418SOL     OW27715   4.113   2.065   4.464 -0.1195 -0.1957  0.0207
 5418SOL    HW127716   4.105   2.156   4.436  2.9202  0.1713  0.2453
 5418SOL    HW227717   4.041   2.022   4.418  1.0713 -0.9617 -1.1191
 5419SOL     OW27718   1.157   2.556  13.736 -0.1050  0.8422  0.4019
 5419SOL    HW127719   1.233   2.539  13.791  0.1278  0.9019  0.0981
 5419SOL    HW227720   1.087   2.551  13.801  0.0220  1.3063  0.5719
 5420SOL     OW27721   3.623   1.253   4.836 -0.2107 -0.0585  0.2186
 5420SOL    HW127722   3.658   1.285   4.919  1.4477 -1.6669  0.1499
 5420SOL    HW227723   3.708   1.234   4.796 -0.1208  2.3980 -0.7877
 5421SOL     OW27724   3.313   2.779   3.018  0.6487 -0.4449  0.1598
 5421SOL    HW127725   3.398   2.822   3.030  0.6007 -0.1167 -0.7250
 5421SOL    HW227726   3.346   2.734   2.940 -0.8956 -0.2705 -0.5850
 5422SOL     OW27727   4.082   2.975   0.445 -0.6564  0.0962 -0.2419
 5422SOL    HW127728   4.126   2.975   0.530 -0.8139  0.2824 -0.1595
 5422SOL    HW227729   3.995   2.994   0.482  0.2789  2.8448  0.6106
 5423SOL     OW27730   3.019   0.446   0.303 -0.4651 -0.0096 -0.0829
 5423SOL    HW127731   3.106   0.480   0.323  0.3679 -0.5549 -2.7534
 5423SOL    HW227732   3.049   0.370   0.253 -0.1449 -1.1153  1.7922
 5424SOL     OW27733   0.765   1.899   1.118 -0.0540 -0.3050 -0.0340
 5424SOL    HW127734   0.791   1.976   1.066 -1.0553 -0.0215 -0.1213
 5424SOL    HW227735   0.811   1.916   1.200 -0.1236  0.2331 -0.1060
 5425SOL     OW27736   1.488   3.867  16.032  0.1543  0.1327 -0.5637
 5425SOL    HW127737   1.547   3.911  15.972  0.6322  0.6709  0.2939
 5425SOL    HW227738   1.481   3.779  15.995  0.1956 -0.4512  0.7953
 5426SOL     OW27739   4.242   3.789   5.292 -0.5188  0.6417 -0.5788
 5426SOL    HW127740   4.302   3.718   5.271  1.7532  2.7713 -1.3208
 5426SOL    HW227741   4.274   3.866   5.245  1.4781  0.5378  0.6070
 5427SOL     OW27742   0.119   4.572   4.325 -0.2033 -0.5842  0.0616
 5427SOL    HW127743   0.124   4.501   4.260 -2.2444 -0.1869 -0.5416
 5427SOL    HW227744   0.180   4.530   4.385 -1.7416 -2.7012  0.1762
 5428SOL     OW27745   2.541   1.975   4.845  0.7159  0.2612  0.4266
 5428SOL    HW127746   2.587   2.055   4.819  2.3246 -0.4306  1.1483
 5428SOL    HW227747   2.612   1.935   4.895  0.5272 -0.1981  0.3187
 5429SOL     OW27748   0.268   1.653   6.428 -0.0320 -0.0212 -0.3539
 5429SOL    HW127749   0.204   1.653   6.357  1.6366 -0.2178 -1.8350
 5429SOL    HW227750   0.232   1.725   6.480  1.4017  1.1494 -0.9862
 5430SOL     OW27751   0.545   1.526   2.283 -0.8804 -0.2990  0.4820
 5430SOL    HW127752   0.553   1.586   2.358  2.6336  0.0330 -0.1702
 5430SOL    HW227753   0.582   1.450   2.327 -1.8539 -0.8642  0.3137
 5431SOL     OW27754   2.678   1.315   8.957  0.0132  0.0010 -0.4232
 5431SOL    HW127755   2.757   1.279   8.916 -1.1534 -3.7766  0.6631
 5431SOL    HW227756   2.720   1.349   9.036 -2.0546  0.4515  0.4884
 5432SOL     OW27757   0.422   4.277  13.455 -0.2333 -0.8037 -0.2174
 5432SOL    HW127758   0.341   4.293  13.405  2.0262  1.5887 -3.1172
 5432SOL    HW227759   0.409   4.310  13.544 -2.4828  1.2444 -1.2924
 5433SOL     OW27760   4.342   2.072  11.541 -0.2921  0.3246 -0.1344
 5433SOL    HW127761   4.291   2.139  11.586  0.9391 -0.2215  2.0970
 5433SOL    HW227762   4.388   2.116  11.470  0.7678  1.7961  1.4591
 5434SOL     OW27763   4.351   1.702   7.854 -0.2153  0.1034  0.1127
 5434SOL    HW127764   4.423   1.761   7.832 -0.0636 -0.3109 -0.5066
 5434SOL    HW227765   4.373   1.682   7.945 -2.9040  0.7061  0.8874
 5435SOL     OW27766   1.641   3.770  11.635  0.3546 -0.1544  0.1720
 5435SOL    HW127767   1.610   3.804  11.719 -0.3602 -2.8052  0.9875
 5435SOL    HW227768   1.736   3.777  11.637  0.3669  0.3363 -2.1903
 5436SOL     OW27769   1.651   2.386   9.723 -0.4839 -0.1767  0.2590
 5436SOL    HW127770   1.699   2.457   9.679  0.2198  0.4355  1.9965
 5436SOL    HW227771   1.586   2.436   9.773  0.4142 -0.7787  2.0260
 5437SOL     OW27772   0.772   3.386  14.066 -0.3046  0.3434 -0.1890
 5437SOL    HW127773   0.805   3.325  14.132 -0.8219 -0.4729 -0.6888
 5437SOL    HW227774   0.677   3.376  14.071 -0.2859  0.0121 -0.4821
 5438SOL     OW27775   3.546   3.446   4.800 -0.4439  0.4185 -0.3466
 5438SOL    HW127776   3.590   3.432   4.716 -1.3893 -2.0478 -0.4136
 5438SOL    HW227777   3.587   3.532   4.813 -1.3146  0.4570  2.1389
 5439SOL     OW27778   4.017   2.003   0.159 -0.6771 -0.0768 -0.5300
 5439SOL    HW127779   4.107   2.033   0.174 -0.2369 -0.5409 -2.3357
 5439SOL    HW227780   3.972   2.062   0.220 -2.8857 -2.0913 -0.2623
 5440SOL     OW27781   0.132   3.311  12.518  0.5726  0.4471 -0.3760
 5440SOL    HW127782   0.208   3.253  12.525 -0.8221 -1.1883  1.1555
 5440SOL    HW227783   0.156   3.395  12.480 -0.9790  0.8320 -0.5184
 5441SOL     OW27784   2.349   1.078  15.805  0.2771 -0.1787 -0.0893
 5441SOL    HW127785   2.382   1.103  15.718  1.9285 -5.0221 -0.8527
 5441SOL    HW227786   2.410   1.133  15.855  1.4185  1.3281 -3.1567
 5442SOL     OW27787   2.247   2.159   6.703  0.3129  0.2938  0.0179
 5442SOL    HW127788   2.291   2.238   6.673  1.1399 -0.1286  0.1315
 5442SOL    HW227789   2.232   2.188   6.793 -0.1179 -0.5469  0.2181
 5443SOL     OW27790   0.529   4.024   6.847  0.0703 -0.1573 -0.4142
 5443SOL    HW127791   0.598   4.090   6.859 -0.3530  0.1302  0.4505
 5443SOL    HW227792   0.450   4.059   6.889 -1.0898 -2.6852 -0.4881
 5444SOL     OW27793   3.424   2.662   7.197 -0.1378 -0.3179 -0.4889
 5444SOL    HW127794   3.432   2.756   7.213 -2.8596 -0.3248  0.9695
 5444SOL    HW227795   3.337   2.653   7.158 -1.3275  0.5819  1.9278
 5445SOL     OW27796   1.174   0.685   3.967 -0.5623  0.4616 -0.1137
 5445SOL    HW127797   1.150   0.751   4.031 -0.4287 -1.1327  1.5701
 5445SOL    HW227798   1.202   0.611   4.021 -0.0740 -0.9878 -2.3187
 5446SOL     OW27799   2.513   3.700   3.384  0.4861 -0.1569  0.4706
 5446SOL    HW127800   2.420   3.724   3.374  0.8820  0.8545 -0.8100
 5446SOL    HW227801   2.502   3.632   3.450  1.6945  0.7567  1.5935
 5447SOL     OW27802   3.694   3.659   4.862 -0.1819  0.0930  0.3333
 5447SOL    HW127803   3.747   3.687   4.937 -0.2147  0.3195  0.2719
 5447SOL    HW227804   3.701   3.737   4.807 -1.9136  0.1335  0.1867
 5448SOL     OW27805   0.889   3.948   3.491  0.0091  0.0578  0.2188
 5448SOL    HW127806   0.948   3.977   3.421 -1.0116  0.2976 -0.5555
 5448SOL    HW227807   0.834   4.027   3.496  1.5567  1.1961 -0.6785
 5449SOL     OW27808   1.753   0.772   7.189 -0.0486 -0.6932  0.1874
 5449SOL    HW127809   1.705   0.804   7.265  2.5651 -0.3262  1.7052
 5449SOL    HW227810   1.728   0.836   7.122  0.6511  0.5375  1.1019
 5450SOL     OW27811   3.929   0.645   2.774  0.4052  0.3412 -0.3214
 5450SOL    HW127812   4.001   0.642   2.712 -1.1596  0.2320 -2.1204
 5450SOL    HW227813   3.851   0.669   2.724 -1.4860 -1.4704  1.7700
 5451SOL     OW27814   0.697   0.910  14.865 -0.0433 -0.3262 -0.1373
 5451SOL    HW127815   0.741   0.994  14.856 -1.4826  0.5498  0.9353
 5451SOL    HW227816   0.631   0.933  14.931  0.1166  1.2180 -0.5173
 5452SOL     OW27817   3.032   1.182  11.109 -0.3389  0.3789 -0.0342
 5452SOL    HW127818   2.958   1.222  11.154  0.9052 -0.0503  2.3593
 5452SOL    HW227819   2.994   1.154  11.026 -2.7217  0.0008  1.1765
 5453SOL     OW27820   0.569   1.023   5.417  0.2324  0.0015  0.3888
 5453SOL    HW127821   0.515   1.092   5.378  0.8598 -1.3832 -3.0195
 5453SOL    HW227822   0.601   0.986   5.334 -0.7514 -0.5642  0.2609
 5454SOL     OW27823   4.002   4.616   4.079 -0.5920  0.1681  1.1309
 5454SOL    HW127824   3.997   4.650   3.989  1.9818 -1.5441  0.3639
 5454SOL    HW227825   4.037   4.529   4.063  0.7846  0.8743  0.2928
 5455SOL     OW27826   4.240   3.300   3.417  0.2168  0.3272  0.0611
 5455SOL    HW127827   4.306   3.236   3.391  1.0243  1.5244 -0.8375
 5455SOL    HW227828   4.212   3.320   3.328 -0.5353  1.5624  0.5778
 5456SOL     OW27829   3.130   1.891   4.662 -0.0422  0.3518 -0.2910
 5456SOL    HW127830   3.212   1.919   4.621  1.4215 -2.1503  0.9672
 5456SOL    HW227831   3.064   1.925   4.601 -0.3869 -1.9297 -1.1818
 5457SOL     OW27832   1.284   4.331   7.224 -0.0907  0.1539  0.1190
 5457SOL    HW127833   1.353   4.366   7.168 -0.9009 -0.6461 -1.3615
 5457SOL    HW227834   1.276   4.237   7.210  0.6177  0.4004 -1.8922
 5458SOL     OW27835   0.062   2.948   5.864 -0.4422 -0.1279  0.0744
 5458SOL    HW127836   0.097   2.997   5.790 -0.8168  2.8049  1.8212
 5458SOL    HW227837   0.004   2.889   5.815  1.2931 -1.4544 -0.3721
 5459SOL     OW27838   3.546   0.466   3.260  0.3747 -0.7460  0.2756
 5459SOL    HW127839   3.599   0.510   3.193 -0.4754  2.5832  1.7680
 5459SOL    HW227840   3.487   0.426   3.196  0.2386 -0.7439  0.4027
 5460SOL     OW27841   0.607   1.201   9.532 -0.3012 -0.1324  0.1206
 5460SOL    HW127842   0.588   1.114   9.565  1.6560 -1.0193 -1.1083
 5460SOL    HW227843   0.700   1.211   9.554  0.5349 -0.6350 -3.2201
 5461SOL     OW27844   2.786   0.110   5.138 -0.4618 -0.4332 -0.1548
 5461SOL    HW127845   2.793   0.046   5.067 -0.2140 -1.6238  0.9527
 5461SOL    HW227846   2.702   0.079   5.172 -0.3554 -1.0119 -0.4148
 5462SOL     OW27847   0.288   2.436   3.064 -0.0832 -0.2868 -0.0637
 5462SOL    HW127848   0.236   2.356   3.060 -0.2264 -0.2950  1.7080
 5462SOL    HW227849   0.347   2.418   2.991 -2.3840 -0.3194 -1.9086
 5463SOL     OW27850   4.471   4.531   8.087  0.2157  0.4083  0.2501
 5463SOL    HW127851   4.481   4.626   8.085  0.4039  0.3657 -0.8070
 5463SOL    HW227852   4.380   4.531   8.059  0.2039 -1.9439  0.2375
 5464SOL     OW27853   3.734   4.139   6.359 -0.0245 -0.3132 -0.3122
 5464SOL    HW127854   3.764   4.049   6.375 -0.8229 -0.4681  0.3458
 5464SOL    HW227855   3.656   4.126   6.305 -0.9041 -0.7116  1.0571
 5465SOL     OW27856   1.461   1.179  11.771  0.2502  0.1096 -0.7574
 5465SOL    HW127857   1.454   1.171  11.866 -2.7754  0.2440 -0.9740
 5465SOL    HW227858   1.387   1.123  11.748  0.4404 -0.9392  1.1722
 5466SOL     OW27859   2.540   3.389  17.448 -0.6038 -0.3297 -0.4626
 5466SOL    HW127860   2.582   3.417  17.367 -0.0809  0.3669  0.0529
 5466SOL    HW227861   2.610   3.340  17.490 -1.0245 -0.1449  0.4591
 5467SOL     OW27862   3.950   2.407  17.597 -0.0719  0.7712  0.8601
 5467SOL    HW127863   3.918   2.327  17.555  3.1824  0.2547 -0.6035
 5467SOL    HW227864   4.045   2.401  17.594 -0.0686  1.8202 -1.9018
 5468SOL     OW27865   2.855   1.270   8.290 -0.2206  0.2910  0.7881
 5468SOL    HW127866   2.863   1.343   8.229 -2.0018  0.1132  0.3326
 5468SOL    HW227867   2.780   1.297   8.343 -1.5814 -1.8453 -0.0249
 5469SOL     OW27868   3.458   4.643   7.912  0.5805 -0.3798  0.4105
 5469SOL    HW127869   3.467   4.580   7.983 -1.2949  1.0436  1.8868
 5469SOL    HW227870   3.386   4.696   7.945  0.1653 -0.9946  0.4921
 5470SOL     OW27871   1.206   3.865   6.202 -0.2887  0.4301  0.2281
 5470SOL    HW127872   1.231   3.953   6.172  3.4696 -0.8713 -0.5044
 5470SOL    HW227873   1.119   3.880   6.239 -0.1772  0.7536  0.3571
 5471SOL     OW27874   4.614   0.284  17.314 -0.4390 -0.1624 -0.1708
 5471SOL    HW127875   4.564   0.240  17.246  0.1311  0.0207 -0.7074
 5471SOL    HW227876   4.705   0.291  17.285 -0.4636  1.5686  0.1798
 5472SOL     OW27877   2.366   0.692   8.634  0.2531  0.5234  0.6497
 5472SOL    HW127878   2.293   0.653   8.586  0.5515 -1.1402  1.5467
 5472SOL    HW227879   2.363   0.786   8.617 -2.4236 -0.2338 -2.9212
 5473SOL     OW27880   2.006   1.534   0.169 -0.0038  0.4676  0.3161
 5473SOL    HW127881   2.021   1.627   0.150  2.3524  0.4254  1.9302
 5473SOL    HW227882   2.086   1.508   0.213  1.2498  1.0966 -1.6225
 5474SOL     OW27883   3.351   1.156   4.787 -0.3184  0.7140  0.0356
 5474SOL    HW127884   3.384   1.084   4.733 -0.5755  0.2891  0.4463
 5474SOL    HW227885   3.430   1.208   4.805  0.0189  0.1528  0.1748
 5475SOL     OW27886   4.299   0.421   4.530  0.0524  0.2912  0.1048
 5475SOL    HW127887   4.278   0.469   4.450  2.2072  0.9096 -0.0922
 5475SOL    HW227888   4.266   0.337   4.500  0.5826 -0.0337  0.4231
 5476SOL     OW27889   2.630   0.291   5.677  0.1253 -0.4147 -0.8701
 5476SOL    HW127890   2.709   0.300   5.624  0.3801  2.3591  0.0122
 5476SOL    HW227891   2.645   0.336   5.760 -0.1831  0.8444 -1.5102
 5477SOL     OW27892   3.101   3.206   3.832 -0.3705 -0.3887  0.5034
 5477SOL    HW127893   3.115   3.164   3.917  0.2421  0.9207  1.0470
 5477SOL    HW227894   3.073   3.131   3.780  2.0600 -0.6842 -0.3932
 5478SOL     OW27895   1.631   4.296   4.842 -0.3355 -0.5941 -0.0073
 5478SOL    HW127896   1.581   4.377   4.848 -2.0220 -1.8934  3.4240
 5478SOL    HW227897   1.575   4.244   4.785 -1.6531  0.2076  0.5608
 5479SOL     OW27898   1.367   3.743   1.814 -0.0948  0.0399  0.0641
 5479SOL    HW127899   1.412   3.678   1.870  1.6677  1.4589  0.2962
 5479SOL    HW227900   1.282   3.698   1.813 -0.9369  1.5950  1.5547
 5480SOL     OW27901   2.473   3.603   8.670  0.2583 -0.2192 -0.0240
 5480SOL    HW127902   2.566   3.584   8.659 -0.6881 -3.4156 -2.5990
 5480SOL    HW227903   2.448   3.517   8.703  0.2472 -1.4810 -3.3273
 5481SOL     OW27904   1.231   0.800   3.434  0.2048 -0.1732 -0.1797
 5481SOL    HW127905   1.185   0.756   3.505  0.0330  1.3374  0.6392
 5481SOL    HW227906   1.164   0.826   3.371 -1.8665 -0.0529  2.0828
 5482SOL     OW27907   1.487   1.958  14.325  0.3326 -0.0439  0.2678
 5482SOL    HW127908   1.551   1.900  14.366  1.9460  0.2558 -1.8370
 5482SOL    HW227909   1.453   1.907  14.251  2.1654  0.1184 -0.6901
 5483SOL     OW27910   4.573   3.494  13.117 -0.0544  0.5259 -0.2775
 5483SOL    HW127911   4.523   3.418  13.147 -0.1135  0.1385 -1.3599
 5483SOL    HW227912   4.662   3.468  13.142  0.3388  1.3880 -0.7911
 5484SOL     OW27913   4.648   4.101   7.802  0.2960 -0.5673 -0.2075
 5484SOL    HW127914   4.560   4.066   7.819  0.5001 -0.6991  0.5598
 5484SOL    HW227915   4.694   4.063   7.876  1.3734 -0.2194 -0.7004
 5485SOL     OW27916   3.567   1.399   3.819 -0.2744 -0.2190  0.1131
 5485SOL    HW127917   3.625   1.429   3.889  0.3549 -2.0976  0.4058
 5485SOL    HW227918   3.617   1.398   3.737 -1.0232  1.5210 -0.3566
 5486SOL     OW27919   1.587   1.183   9.273  0.7142 -0.0560  0.0807
 5486SOL    HW127920   1.528   1.257   9.282  0.1417 -0.5652  0.5629
 5486SOL    HW227921   1.663   1.208   9.325  0.1045  1.1351  0.3848
 5487SOL     OW27922   0.782   3.691  11.073  0.6003 -0.2366 -0.5153
 5487SOL    HW127923   0.855   3.630  11.089  0.8378  0.4520  1.0446
 5487SOL    HW227924   0.832   3.764  11.110 -0.7212  1.0845 -1.3467
 5488SOL     OW27925   0.777   2.339  15.853 -0.1977  0.3744  0.1699
 5488SOL    HW127926   0.747   2.263  15.803  1.7928 -0.9175  0.9366
 5488SOL    HW227927   0.774   2.306  15.943 -1.1824  1.3064  0.4775
 5489SOL     OW27928   3.329   1.822   5.864 -0.4686 -0.2362  0.0101
 5489SOL    HW127929   3.294   1.891   5.921 -1.9437 -0.5464 -0.5096
 5489SOL    HW227930   3.313   1.861   5.778  1.3249  0.9639  0.2453
 5490SOL     OW27931   3.638   2.145   5.183  0.1819 -0.1381 -0.2120
 5490SOL    HW127932   3.711   2.103   5.137 -1.3445 -1.6165 -1.2556
 5490SOL    HW227933   3.622   2.087   5.257  3.9623  1.9490  2.2897
 5491SOL     OW27934   0.784   1.724   6.767  0.1469  0.1416 -0.1661
 5491SOL    HW127935   0.856   1.661   6.767  1.7822  2.0100  0.0674
 5491SOL    HW227936   0.775   1.729   6.862  1.0897 -2.0464  0.0335
 5492SOL     OW27937   2.095   3.123  15.824  0.3696 -0.5232  0.0638
 5492SOL    HW127938   2.064   3.204  15.784 -2.1996 -1.2181  0.6339
 5492SOL    HW227939   2.137   3.161  15.901  0.1445 -2.5525  1.2153
 5493SOL     OW27940   0.321   2.128   4.791  0.2177 -0.1112 -0.8993
 5493SOL    HW127941   0.369   2.185   4.850 -0.5365 -1.2159  0.7794
 5493SOL    HW227942   0.350   2.041   4.817 -0.9573 -0.3158 -0.2523
 5494SOL     OW27943   0.501   0.254   1.524 -0.0449 -0.4681  0.4584
 5494SOL    HW127944   0.455   0.233   1.605  2.1620  0.5732  1.9822
 5494SOL    HW227945   0.531   0.342   1.548 -0.2390 -0.7520  1.7734
 5495SOL     OW27946   1.251   0.694   6.366  0.4639 -0.3306  0.3045
 5495SOL    HW127947   1.201   0.745   6.302 -1.7633  1.0516  3.1711
 5495SOL    HW227948   1.296   0.634   6.306  1.1267  0.7871 -0.3195
 5496SOL     OW27949   2.110   3.603   8.898 -0.0321 -0.2456  0.0964
 5496SOL    HW127950   2.067   3.642   8.822 -0.5708 -0.8566  0.0897
 5496SOL    HW227951   2.152   3.523   8.866 -0.8397 -0.2736 -0.8952
 5497SOL     OW27952   1.555   1.513   1.871 -0.0380  0.0226 -0.1955
 5497SOL    HW127953   1.491   1.547   1.809 -1.6161 -0.5763  1.1050
 5497SOL    HW227954   1.505   1.465   1.937  2.0398 -0.0608  1.3414
 5498SOL     OW27955   0.535   4.336   3.959 -0.3274  0.0801 -0.1564
 5498SOL    HW127956   0.543   4.431   3.952 -0.0968 -0.0892 -2.2502
 5498SOL    HW227957   0.521   4.323   4.053  1.4632  0.8362  0.2032
 5499SOL     OW27958   3.314   0.769   4.349 -0.1300  0.6298 -0.5257
 5499SOL    HW127959   3.290   0.687   4.393  0.3664  1.0673  0.5716
 5499SOL    HW227960   3.407   0.751   4.341 -0.1929  0.5543 -1.0853
 5500SOL     OW27961   2.607   3.307   2.391  0.8928  0.1081  0.3362
 5500SOL    HW127962   2.540   3.373   2.374  0.9664  0.7390  2.4959
 5500SOL    HW227963   2.554   3.231   2.416  0.1267  0.7040  0.5172
 5501SOL     OW27964   2.893   0.236   1.206 -0.2511  0.3962 -0.2694
 5501SOL    HW127965   2.813   0.248   1.155  0.3436  1.5597 -0.9317
 5501SOL    HW227966   2.931   0.324   1.209 -1.5291  0.9474 -0.0689
 5502SOL     OW27967   3.299   1.555   4.449 -0.9003  0.2004 -0.0805
 5502SOL    HW127968   3.281   1.461   4.453 -0.2909  0.0770 -0.2198
 5502SOL    HW227969   3.221   1.576   4.499 -0.6725 -2.3130  1.3157
 5503SOL     OW27970   1.283   1.177   5.085  0.0991 -0.2318  0.2897
 5503SOL    HW127971   1.343   1.143   5.151 -1.0407  1.4964  2.2340
 5503SOL    HW227972   1.260   1.260   5.127 -1.3591  1.0636 -3.0451
 5504SOL     OW27973   4.236   3.081   4.646 -0.1309  0.2571  0.2120
 5504SOL    HW127974   4.325   3.046   4.654 -0.0087  0.3978 -0.5939
 5504SOL    HW227975   4.236   3.100   4.552  3.4353  2.5651  0.6545
 5505SOL     OW27976   4.150   3.751   8.570  0.5536  0.2245 -0.2130
 5505SOL    HW127977   4.134   3.657   8.573 -0.9985  0.4697 -1.2134
 5505SOL    HW227978   4.091   3.797   8.630  0.8105  0.1491  0.0992
 5506SOL     OW27979   1.639   3.872   1.684 -0.9292  0.0083 -0.3009
 5506SOL    HW127980   1.613   3.958   1.717  0.9885  0.8115 -0.8820
 5506SOL    HW227981   1.673   3.827   1.761 -3.0033  1.9619  1.7297
 5507SOL     OW27982   3.308   2.813   5.122 -0.0289 -0.2733 -0.6555
 5507SOL    HW127983   3.344   2.780   5.040  2.5472  0.0615  0.3515
 5507SOL    HW227984   3.329   2.746   5.187  0.1705 -0.0222 -0.4632
 5508SOL     OW27985   1.349   3.649  10.407 -0.3043  0.2743 -0.0913
 5508SOL    HW127986   1.265   3.626  10.448 -0.1095 -2.6599 -1.3201
 5508SOL    HW227987   1.321   3.690  10.324  2.2018 -0.1709 -1.1623
 5509SOL     OW27988   1.093   2.270   2.643  0.2527  0.5678  0.0595
 5509SOL    HW127989   1.042   2.259   2.563 -0.2386 -0.7040  0.5502
 5509SOL    HW227990   1.184   2.264   2.612 -0.2126  3.1383 -1.7865
 5510SOL     OW27991   3.424   1.673   4.070 -0.2977  0.3731  0.5433
 5510SOL    HW127992   3.367   1.596   4.059 -1.0158  1.2440 -1.9246
 5510SOL    HW227993   3.418   1.719   3.986 -1.1351  0.9199  0.9068
 5511SOL     OW27994   2.887   0.267   4.184  0.0309  0.5072  0.1416
 5511SOL    HW127995   2.793   0.279   4.193  0.0797  0.5881  0.5721
 5511SOL    HW227996   2.894   0.290   4.092 -0.6881  1.8082  0.4145
 5512SOL     OW27997   0.079   0.295   1.711 -0.9467  0.0084  0.2651
 5512SOL    HW127998   0.094   0.325   1.801  0.3839  3.2573 -1.0549
 5512SOL    HW227999   0.141   0.353   1.667  0.2494 -3.2360 -2.3206
 5513SOL     OW28000   0.035   4.401   7.329 -0.5943  0.0828 -0.2383
 5513SOL    HW128001   0.072   4.462   7.266  0.2640 -0.8109 -0.5857
 5513SOL    HW228002   0.053   4.318   7.287  0.0537  0.7859 -1.3515
 5514SOL     OW28003   3.741   0.916   9.662  0.1665  0.3683 -0.6956
 5514SOL    HW128004   3.691   0.997   9.673  0.9505  0.3779  3.0774
 5514SOL    HW228005   3.811   0.949   9.607  1.4563 -0.6056  0.3445
 5515SOL     OW28006   0.904   4.559  13.124 -0.1051 -0.0082 -0.6243
 5515SOL    HW128007   0.944   4.561  13.210  1.2753 -1.3924 -1.2410
 5515SOL    HW228008   0.979   4.572  13.066 -0.7265  3.0501 -0.7786
 5516SOL     OW28009   0.922   0.515   6.018  0.5195  0.5893 -0.1594
 5516SOL    HW128010   0.870   0.497   5.939  0.0872 -2.4678  0.8324
 5516SOL    HW228011   1.006   0.542   5.981 -0.2077  1.1291 -1.4209
 5517SOL     OW28012   3.597   4.273   0.896 -0.4502 -0.2575 -0.0086
 5517SOL    HW128013   3.597   4.351   0.841 -2.0195 -1.2612 -1.4365
 5517SOL    HW228014   3.511   4.286   0.937 -0.2025  0.9211  0.1321
 5518SOL     OW28015   3.453   3.861   5.632  0.2061  0.1078  0.0193
 5518SOL    HW128016   3.539   3.858   5.590 -0.1470  0.8079 -0.7533
 5518SOL    HW228017   3.405   3.805   5.571  0.9518 -0.2449 -0.2432
 5519SOL     OW28018   1.321   1.824   4.924 -0.1192 -0.3156  0.2635
 5519SOL    HW128019   1.377   1.782   4.859 -0.7198  1.5453 -1.4760
 5519SOL    HW228020   1.374   1.898   4.954  2.3492 -0.1691 -4.4449
 5520SOL     OW28021   0.063   1.231   8.293 -0.3662  0.0438 -0.5961
 5520SOL    HW128022   0.101   1.264   8.374 -0.4847  0.1122 -0.5680
 5520SOL    HW228023   4.714   1.184   8.335 -1.2285 -0.1987 -2.3516
 5521SOL     OW28024   1.682   4.153   5.547  0.2402 -0.1482  0.1795
 5521SOL    HW128025   1.739   4.091   5.501 -0.1049 -0.7007  0.4935
 5521SOL    HW228026   1.663   4.229   5.491 -0.2938  0.4294  1.1556
 5522SOL     OW28027   3.496   4.149   2.519 -0.1248  0.6667  0.7682
 5522SOL    HW128028   3.484   4.054   2.514  0.9876  0.4482  2.1177
 5522SOL    HW228029   3.541   4.177   2.439 -0.5406 -2.4564 -0.5654
 5523SOL     OW28030   3.932   2.948  16.933 -0.2541 -0.3064  0.3749
 5523SOL    HW128031   3.865   2.941  17.001  1.5570 -0.7767  2.1138
 5523SOL    HW228032   4.020   2.930  16.966 -0.6475  0.1228  1.6678
 5524SOL     OW28033   1.440   4.635   4.270 -0.2663 -1.0388  0.2210
 5524SOL    HW128034   1.488   4.593   4.199 -1.2577 -2.5627  0.4431
 5524SOL    HW228035   1.502   4.686   4.322  0.0932 -1.3839  0.1339
 5525SOL     OW28036   0.059   2.747  12.468  0.3119 -0.1784  0.2066
 5525SOL    HW128037   0.120   2.820  12.464  0.5698 -0.5949 -3.3553
 5525SOL    HW228038   4.698   2.791  12.457  0.1692 -0.9595 -1.9012
 5526SOL     OW28039   3.795   1.773  12.608  0.4719 -0.1331  0.0500
 5526SOL    HW128040   3.889   1.760  12.624  0.9638  1.2121 -1.6476
 5526SOL    HW228041   3.796   1.740  12.518 -2.3419  1.7217 -0.6426
 5527SOL     OW28042   2.922   2.313  17.456  0.0091 -0.0941 -0.8424
 5527SOL    HW128043   2.932   2.352  17.370  0.1419 -0.1945 -0.8741
 5527SOL    HW228044   2.895   2.225  17.428 -0.4553  0.3233 -1.6808
 5528SOL     OW28045   1.485   1.663   3.230 -0.8578 -0.4140 -0.2965
 5528SOL    HW128046   1.510   1.697   3.316  3.0890  2.5225 -2.5528
 5528SOL    HW228047   1.470   1.748   3.187  1.7743  0.1654 -0.1260
 5529SOL     OW28048   4.723   4.493   0.152  0.4757 -0.1449 -0.3249
 5529SOL    HW128049   4.707   4.489   0.058  3.3216  0.2941 -0.8450
 5529SOL    HW228050   0.087   4.534   0.154  1.6277 -2.7249  1.4053
 5530SOL     OW28051   0.201   3.771  17.576  0.0410  0.4603  1.0381
 5530SOL    HW128052   0.155   3.762  17.660  1.2628 -0.1236  1.6460
 5530SOL    HW228053   0.294   3.773  17.599  0.2304  2.1484  0.1090
 5531SOL     OW28054   4.514   4.255   1.948  0.2227 -0.1815 -0.9842
 5531SOL    HW128055   4.607   4.246   1.928  0.4000  1.7567 -1.0047
 5531SOL    HW228056   4.495   4.342   1.913  0.5844  0.8490  1.3851
 5532SOL     OW28057   3.393   2.102   1.266 -0.1964 -0.3340 -0.4672
 5532SOL    HW128058   3.325   2.149   1.315 -0.3775 -1.4656  0.3490
 5532SOL    HW228059   3.441   2.179   1.233  1.9671 -1.0119  1.1166
 5533SOL     OW28060   4.304   1.882   4.734 -0.4389 -0.6975  0.4065
 5533SOL    HW128061   4.243   1.856   4.803 -0.5522  1.1296  1.0116
 5533SOL    HW228062   4.359   1.935   4.792 -1.9075 -0.2152  1.3553
 5534SOL     OW28063   1.487   0.285   8.301  0.5233  0.6004  0.1485
 5534SOL    HW128064   1.427   0.356   8.279 -1.1776 -1.4770 -1.8891
 5534SOL    HW228065   1.434   0.212   8.267 -0.4235  1.9084 -1.1992
 5535SOL     OW28066   2.889   1.417  16.568  0.0168  1.1490 -0.6875
 5535SOL    HW128067   2.840   1.446  16.490 -0.5464  4.0559  0.7703
 5535SOL    HW228068   2.977   1.421  16.531 -0.2245 -1.6109 -1.5345
 5536SOL     OW28069   3.153   0.964  11.216  0.0417  0.1894 -0.1640
 5536SOL    HW128070   3.214   0.975  11.289 -1.6897  1.6268  1.0621
 5536SOL    HW228071   3.120   1.053  11.205 -1.9311 -0.5661 -0.2366
 5537SOL     OW28072   0.961   2.041   6.972  0.0546  0.4465  0.3111
 5537SOL    HW128073   0.900   2.081   6.910  1.5080  0.5892 -1.0321
 5537SOL    HW228074   1.016   2.110   7.010  0.4725  0.2747  0.0196
 5538SOL     OW28075   2.751   4.616   3.525  0.0075 -0.0323  0.0565
 5538SOL    HW128076   2.842   4.621   3.496 -0.7378  0.5818 -2.1082
 5538SOL    HW228077   2.718   4.682   3.464 -1.8861  0.5590  1.6904
 5539SOL     OW28078   1.478   1.167   1.723 -0.5971  0.1461  0.1050
 5539SOL    HW128079   1.440   1.239   1.672  1.5391  0.6521 -0.7448
 5539SOL    HW228080   1.413   1.171   1.794 -1.4768  0.3021 -0.7021
 5540SOL     OW28081   3.390   1.858   2.340  0.1822  0.2975  0.5182
 5540SOL    HW128082   3.454   1.788   2.328 -0.3772  0.0766 -1.2417
 5540SOL    HW228083   3.312   1.803   2.341  0.6070 -0.2468  2.4935
 5541SOL     OW28084   2.177   3.954  10.403 -0.1875  0.0816  0.1126
 5541SOL    HW128085   2.138   3.923  10.485  1.9981 -0.7263  0.8521
 5541SOL    HW228086   2.108   3.957  10.337  0.9242 -3.2918 -1.1924
 5542SOL     OW28087   1.132   1.621   5.742 -0.7658 -0.2918  0.4619
 5542SOL    HW128088   1.067   1.597   5.676  0.9178 -0.8930 -0.9769
 5542SOL    HW228089   1.116   1.557   5.811  0.9767 -0.0705  1.0585
 5543SOL     OW28090   0.089   3.205   6.698  0.4885  0.1212  0.0066
 5543SOL    HW128091   0.029   3.159   6.640  1.5871 -1.0471 -0.2149
 5543SOL    HW228092   0.020   3.260   6.736 -0.6151 -1.5267  0.3539
 5544SOL     OW28093   0.332   4.643   6.189 -0.0039  0.0176 -0.5085
 5544SOL    HW128094   0.262   4.693   6.230 -1.0720 -1.6845 -0.2428
 5544SOL    HW228095   0.295   4.633   6.101 -2.3447 -0.0773  0.4897
 5545SOL     OW28096   0.358   4.249   7.100  0.5482 -0.1137  0.8681
 5545SOL    HW128097   0.429   4.306   7.130  0.5598 -0.2139  1.0336
 5545SOL    HW228098   0.298   4.314   7.065 -4.0067 -4.1189  1.3313
 5546SOL     OW28099   1.567   3.730   8.418  0.0858  0.4423  0.7682
 5546SOL    HW128100   1.484   3.756   8.458 -0.5399  2.3654 -1.7875
 5546SOL    HW228101   1.531   3.645   8.391  0.8745  0.2708  0.2562
 5547SOL     OW28102   4.107   2.187   3.036  0.1982 -0.1231  0.3911
 5547SOL    HW128103   4.088   2.107   2.987  2.7787 -0.3939 -0.2069
 5547SOL    HW228104   4.029   2.235   3.007 -0.9156 -1.9183  0.4476
 5548SOL     OW28105   2.653   2.182  16.611 -0.3762  0.7335 -0.4933
 5548SOL    HW128106   2.606   2.123  16.552  0.8987  0.7450 -1.5236
 5548SOL    HW228107   2.709   2.117  16.654 -0.8989 -0.0934 -1.0746
 5549SOL     OW28108   0.529   4.292  10.720 -0.2096  0.4487  0.2324
 5549SOL    HW128109   0.527   4.385  10.742 -0.8547  0.2020  1.1836
 5549SOL    HW228110   0.496   4.252  10.800 -1.8954 -0.1944 -0.7850
 5550SOL     OW28111   2.629   1.085   1.787 -0.1993  0.1061  0.0867
 5550SOL    HW128112   2.688   1.037   1.729  0.2334 -0.1054  0.7032
 5550SOL    HW228113   2.578   1.128   1.718  0.3242  0.4596 -0.0865
 5551SOL     OW28114   1.273   0.643   2.076  0.2719 -0.2702 -0.0925
 5551SOL    HW128115   1.208   0.574   2.088 -0.7907  0.3176 -2.5032
 5551SOL    HW228116   1.349   0.588   2.059 -0.4203 -0.5885 -2.1589
 5552SOL     OW28117   2.521   3.187  16.289  0.4919 -0.2103 -0.0778
 5552SOL    HW128118   2.510   3.265  16.234 -2.0410  0.5975  1.5755
 5552SOL    HW228119   2.609   3.155  16.274  1.3004  1.4029  1.2342
 5553SOL     OW28120   0.703   4.698  16.601  0.5714 -0.1657  0.3036
 5553SOL    HW128121   0.726   4.644  16.677 -0.5943 -0.5980  0.3467
 5553SOL    HW228122   0.705   0.063  16.638 -0.1095  0.2100 -0.5607
 5554SOL     OW28123   4.514   1.952  10.222  0.0336 -0.2784  0.2050
 5554SOL    HW128124   4.465   1.969  10.302 -0.1622 -0.8243  0.1979
 5554SOL    HW228125   4.509   1.857  10.215  1.1332 -0.3850  0.8416
 5555SOL     OW28126   1.557   1.039   2.319  0.0285 -0.0517 -0.1119
 5555SOL    HW128127   1.540   0.971   2.254 -0.6928 -0.8699  0.9365
 5555SOL    HW228128   1.491   1.096   2.281  0.3237 -0.5211 -1.3311
 5556SOL     OW28129   2.881   0.075   1.778  0.1578  0.4166 -0.3067
 5556SOL    HW128130   2.862   0.095   1.687  1.9415  0.4802 -0.6539
 5556SOL    HW228131   2.880   4.703   1.775 -2.8985  0.4564 -0.5487
 5557SOL     OW28132   3.686   3.525   5.926  0.0735 -0.0055  0.5025
 5557SOL    HW128133   3.668   3.438   5.961 -2.6425  0.6412  0.7029
 5557SOL    HW228134   3.717   3.506   5.837  1.0167  1.4267  0.5299
 5558SOL     OW28135   3.086   3.001   9.495 -0.4576  0.1761  0.0509
 5558SOL    HW128136   2.999   2.975   9.525 -0.0089 -1.7029 -0.2865
 5558SOL    HW228137   3.061   3.063   9.426  1.5734 -0.7607 -1.5445
 5559SOL     OW28138   2.829   0.654   3.306  0.2342  0.9918  0.0416
 5559SOL    HW128139   2.764   0.608   3.360 -0.5166  1.9427 -0.0473
 5559SOL    HW228140   2.798   0.628   3.219  1.7652 -1.8951  0.3819
 5560SOL     OW28141   1.411   2.765   3.052  0.2064  0.1298  0.0534
 5560SOL    HW128142   1.476   2.835   3.041  2.1649 -2.0098 -1.8878
 5560SOL    HW228143   1.394   2.790   3.143  0.3214  0.8647 -0.1247
 5561SOL     OW28144   3.310   0.004  13.115 -0.1078  0.0618 -0.4186
 5561SOL    HW128145   3.245   0.073  13.098 -0.4671  0.4002  2.4199
 5561SOL    HW228146   3.265   4.683  13.187 -0.1911  1.0106  0.1115
 5562SOL     OW28147   2.644   4.080   2.322 -0.6285 -0.3201  0.6740
 5562SOL    HW128148   2.618   3.994   2.289 -1.7816 -0.0675  0.9139
 5562SOL    HW228149   2.577   4.092   2.389 -0.5417  1.3481  0.4769
 5563SOL     OW28150   1.023   4.600   3.418 -0.0649  0.1613 -0.3506
 5563SOL    HW128151   0.939   4.577   3.457  0.3709 -0.1301  0.4082
 5563SOL    HW228152   1.060   4.513   3.407 -0.6885  0.0437 -1.5104
 5564SOL     OW28153   4.388   4.514   0.184  0.3625 -0.7755  0.4926
 5564SOL    HW128154   4.436   4.432   0.173 -0.7544 -1.2408 -0.8770
 5564SOL    HW228155   4.335   4.494   0.107  0.4817 -2.0135  0.7439
 5565SOL     OW28156   0.736   1.456   9.730 -0.4532  0.0709  0.1035
 5565SOL    HW128157   0.821   1.444   9.773  0.1125  0.9241 -0.7927
 5565SOL    HW228158   0.765   1.465   9.640  0.7496 -0.1695  0.4717
 5566SOL     OW28159   2.969   4.620   8.240  0.4997  0.0714 -0.6119
 5566SOL    HW128160   2.881   4.632   8.205 -0.0489 -3.0993 -0.2592
 5566SOL    HW228161   2.947   4.566   8.316  0.4922  0.7591 -0.1265
 5567SOL     OW28162   2.145   3.390   4.270  0.4810  0.4131  0.3188
 5567SOL    HW128163   2.132   3.470   4.321 -0.6194 -0.2844  1.1254
 5567SOL    HW228164   2.222   3.405   4.215  0.7569 -0.2686  0.5271
 5568SOL     OW28165   4.379   1.809   4.264 -0.4941  0.2092  0.1531
 5568SOL    HW128166   4.381   1.715   4.280  1.4042  0.3709  0.8123
 5568SOL    HW228167   4.465   1.832   4.299 -0.4641  0.1102  0.1437
 5569SOL     OW28168   2.821   2.681   8.329  0.3916  0.1987 -0.0581
 5569SOL    HW128169   2.734   2.653   8.300  0.2899 -0.4302  0.8497
 5569SOL    HW228170   2.840   2.609   8.390 -0.6229  1.8457  2.2159
 5570SOL     OW28171   0.096   1.334   8.537 -0.2476  0.0142 -0.0187
 5570SOL    HW128172   0.136   1.419   8.555 -1.0845 -0.0743  2.1836
 5570SOL    HW228173   0.107   1.303   8.626 -1.8678 -0.0858  0.1519
 5571SOL     OW28174   2.912   4.249   4.297  0.4128  0.4802  0.0823
 5571SOL    HW128175   2.910   4.331   4.346 -0.6548  0.5497 -0.0665
 5571SOL    HW228176   3.001   4.215   4.307  1.8585  3.5237 -2.4223
 5572SOL     OW28177   1.292   2.684  15.247  0.4211 -0.8380 -0.2653
 5572SOL    HW128178   1.202   2.650  15.250 -0.4849  1.3785 -1.6792
 5572SOL    HW228179   1.301   2.707  15.339 -0.5389 -2.5644  0.2451
 5573SOL     OW28180   1.696   0.229   8.111  0.4653  0.4527  0.3472
 5573SOL    HW128181   1.621   0.256   8.165 -0.6746 -2.8253  0.3887
 5573SOL    HW228182   1.687   0.136   8.129  1.6113  0.1207 -0.8193
 5574SOL     OW28183   0.008   2.087  16.325 -0.4204 -0.5575  0.2196
 5574SOL    HW128184   0.047   2.119  16.243  1.3891 -3.1843  0.0678
 5574SOL    HW228185   4.646   2.053  16.301  0.0933 -1.1459 -0.8199
 5575SOL     OW28186   1.530   1.254  15.799 -0.0441 -0.2919 -0.5931
 5575SOL    HW128187   1.545   1.209  15.882  0.4722 -0.3108 -0.6972
 5575SOL    HW228188   1.542   1.345  15.823 -0.6976 -0.1293 -0.8729
 5576SOL     OW28189   3.359   4.463   6.528 -0.1315  0.7378 -0.1521
 5576SOL    HW128190   3.363   4.555   6.554 -3.5493  0.7983  0.1842
 5576SOL    HW228191   3.329   4.478   6.439 -2.2610 -2.6431 -0.0126
 5577SOL     OW28192   0.962   3.863   7.137 -0.2061 -0.0294 -0.2379
 5577SOL    HW128193   0.882   3.810   7.135  0.1385 -0.4970 -1.5285
 5577SOL    HW228194   0.926   3.949   7.116  0.8651  0.4217 -0.2254
 5578SOL     OW28195   1.579   3.461   5.105 -0.1760 -0.1950 -0.5134
 5578SOL    HW128196   1.613   3.547   5.132 -2.2984  0.6092 -0.4146
 5578SOL    HW228197   1.588   3.471   5.010  1.5726 -3.0560 -0.6561
 5579SOL     OW28198   0.050   4.344   8.923 -0.0859  0.4467  0.3895
 5579SOL    HW128199   4.687   4.385   8.917 -0.3250 -0.4946 -2.3435
 5579SOL    HW228200   0.109   4.411   8.958  0.4606  1.5452 -2.6011
 5580SOL     OW28201   2.788   0.638   2.195  0.1172 -0.0267  0.3398
 5580SOL    HW128202   2.735   0.615   2.119  0.1875 -0.4339  0.4161
 5580SOL    HW228203   2.879   0.629   2.165  0.0638 -2.7248  0.9579
 5581SOL     OW28204   2.647   0.008   9.588  0.0221 -0.1100 -0.6195
 5581SOL    HW128205   2.635   4.638   9.600 -0.2241 -0.1346 -1.0863
 5581SOL    HW228206   2.671   0.036   9.677 -2.4965  0.3930 -0.0960
 5582SOL     OW28207   1.936   4.175   8.264 -0.3476 -0.7219 -0.2540
 5582SOL    HW128208   1.993   4.140   8.195  1.0778  0.9266  0.0951
 5582SOL    HW228209   1.928   4.105   8.328 -1.0193 -2.1208 -1.8524
 5583SOL     OW28210   2.350   1.514   3.861 -0.1611 -0.0647 -0.2431
 5583SOL    HW128211   2.424   1.571   3.842  0.1852 -0.6620 -0.6700
 5583SOL    HW228212   2.282   1.537   3.798  1.7322  2.8478 -1.2138
 5584SOL     OW28213   3.463   1.478   3.016 -0.2293 -0.5055  0.5476
 5584SOL    HW128214   3.468   1.490   3.111  1.4349  0.6610  0.3136
 5584SOL    HW228215   3.379   1.521   2.999  1.2216  2.4376  0.7887
 5585SOL     OW28216   3.849   1.758   6.321  0.0910  0.1565  0.0176
 5585SOL    HW128217   3.921   1.786   6.265  0.7396 -3.4224 -0.9423
 5585SOL    HW228218   3.780   1.758   6.255 -0.8509  0.0641  0.9830
 5586SOL     OW28219   3.244   3.778   9.507 -0.1464 -0.4179 -0.2623
 5586SOL    HW128220   3.219   3.799   9.417  0.5453  2.5779  0.2490
 5586SOL    HW228221   3.312   3.715   9.482  0.9423  0.0508  1.4908
 5587SOL     OW28222   3.877   4.016   7.188  0.1622  0.0891  0.2750
 5587SOL    HW128223   3.846   4.106   7.188 -0.6639 -0.1936  1.8158
 5587SOL    HW228224   3.793   3.971   7.198  1.6646 -2.3326  1.9166
 5588SOL     OW28225   0.917   3.541   2.866  0.0137 -0.3251 -0.3085
 5588SOL    HW128226   0.910   3.573   2.776 -0.4667 -0.4537 -0.3185
 5588SOL    HW228227   0.921   3.623   2.915  0.5194 -1.4849  1.5903
 5589SOL     OW28228   1.158   3.774  15.606 -0.1734  0.1784 -0.1409
 5589SOL    HW128229   1.194   3.708  15.548 -0.7844  0.2059 -0.5467
 5589SOL    HW228230   1.072   3.798  15.570  0.3573 -1.9406 -2.7439
 5590SOL     OW28231   1.966   0.686   1.819 -0.0491 -0.0944  0.3315
 5590SOL    HW128232   1.955   0.775   1.851 -2.0802 -0.2400  0.0258
 5590SOL    HW228233   1.875   0.659   1.809 -0.1881 -0.5585  2.8475
 5591SOL     OW28234   4.284   1.405   2.555 -0.1700 -0.3191 -0.1415
 5591SOL    HW128235   4.350   1.415   2.624  0.3564 -0.2903 -0.6514
 5591SOL    HW228236   4.326   1.333   2.508 -0.9203 -1.7440  1.3692
 5592SOL     OW28237   4.167   2.476  15.362  0.2665  0.0012 -0.6361
 5592SOL    HW128238   4.247   2.517  15.395  0.8844  0.4195 -2.6766
 5592SOL    HW228239   4.195   2.468  15.271  3.4792 -2.1194  0.5202
 5593SOL     OW28240   3.904   4.578   2.897  0.2901 -0.0637  0.1349
 5593SOL    HW128241   3.835   4.591   2.832  0.3282 -0.7337 -0.0422
 5593SOL    HW228242   3.906   4.482   2.900 -1.0993 -0.0042  2.6212
 5594SOL     OW28243   1.032   4.347   0.733  0.0872  0.4788  0.3689
 5594SOL    HW128244   0.989   4.289   0.796 -1.1591  0.9186 -0.0734
 5594SOL    HW228245   1.103   4.387   0.782  1.0798  0.3907 -0.9821
 5595SOL     OW28246   0.766   4.471   2.703 -0.1269 -0.8051  0.4167
 5595SOL    HW128247   0.719   4.543   2.662 -1.4724 -1.9279 -0.0161
 5595SOL    HW228248   0.857   4.502   2.709  0.6035 -2.4939 -1.8496
 5596SOL     OW28249   3.565   4.653   5.354  0.2455 -0.2858  0.0744
 5596SOL    HW128250   3.617   4.577   5.382 -0.3101 -0.9545 -0.7153
 5596SOL    HW228251   3.485   4.636   5.403  0.4100  0.2986  0.5450
 5597SOL     OW28252   4.619   2.200  16.664  0.2600  0.2044  0.0398
 5597SOL    HW128253   4.700   2.156  16.638  1.1685  0.9388  1.6770
 5597SOL    HW228254   4.621   2.277  16.607  0.3984  0.7743  0.8191
 5598SOL     OW28255   3.215   0.036   2.914 -0.1109  0.1527 -0.0489
 5598SOL    HW128256   3.198   4.717   2.998  0.8640 -0.1496 -0.0027
 5598SOL    HW228257   3.148   0.103   2.899  0.9874  1.5372  1.2585
 5599SOL     OW28258   4.246   2.510   7.024 -0.3300  0.2331 -0.4398
 5599SOL    HW128259   4.285   2.481   6.942  1.4930 -0.4138  0.6688
 5599SOL    HW228260   4.245   2.430   7.076  0.1542  0.6444  0.2097
 5600SOL     OW28261   2.422   3.863   4.650 -0.0971  0.2789  0.0178
 5600SOL    HW128262   2.427   3.861   4.554 -2.5129  0.3051 -0.1208
 5600SOL    HW228263   2.335   3.827   4.670  0.2265 -0.3392  0.3188
 5601SOL     OW28264   1.651   2.963   8.366  0.3598  0.0218 -0.2814
 5601SOL    HW128265   1.621   2.896   8.305 -0.4822  1.6746 -1.6752
 5601SOL    HW228266   1.578   3.023   8.352  0.4248 -0.1258 -1.2498
 5602SOL     OW28267   2.438   2.325   2.113 -0.5166  0.0722  0.4901
 5602SOL    HW128268   2.511   2.371   2.154 -0.3821 -0.3930  0.7733
 5602SOL    HW228269   2.471   2.263   2.048 -2.2653 -1.0256  0.6614
 5603SOL     OW28270   1.760   2.488   7.954  0.2372 -0.2181 -0.1819
 5603SOL    HW128271   1.727   2.462   8.040  0.9215  3.2771  1.1232
 5603SOL    HW228272   1.680   2.496   7.903  0.5335  0.7662 -0.4803
 5604SOL     OW28273   3.588   4.075   7.992  0.2441  0.3728  0.3387
 5604SOL    HW128274   3.530   4.135   8.039 -1.3146 -0.5823 -0.3765
 5604SOL    HW228275   3.671   4.099   8.033  0.7737  1.1008 -1.1901
 5605SOL     OW28276   0.741   0.050   9.639 -0.2131 -0.1326  0.4713
 5605SOL    HW128277   0.727   4.681   9.661  1.1415 -0.2623  0.7657
 5605SOL    HW228278   0.661   0.065   9.589 -1.1197 -0.2754  1.8814
 5606SOL     OW28279   3.479   2.832   2.272 -0.1976 -0.3143 -0.3581
 5606SOL    HW128280   3.450   2.835   2.363  0.5156 -1.7125 -0.0889
 5606SOL    HW228281   3.505   2.741   2.259 -4.5049 -1.6098  0.2919
 5607SOL     OW28282   0.317   0.548   1.699  0.2535 -0.0114 -0.1209
 5607SOL    HW128283   0.340   0.598   1.777  2.8383 -0.8091 -0.3627
 5607SOL    HW228284   0.394   0.507   1.658  0.3295 -0.4521  0.4616
 5608SOL     OW28285   0.925   2.450  17.041  0.6166  0.2134  0.0363
 5608SOL    HW128286   0.879   2.471  16.960  1.9529 -1.3749 -1.1169
 5608SOL    HW228287   0.905   2.534  17.084  0.5048  0.3643 -0.3091
 5609SOL     OW28288   0.110   1.976   2.063  0.3595  0.1070 -0.1510
 5609SOL    HW128289   0.080   2.067   2.067 -0.7581 -0.2627 -0.1029
 5609SOL    HW228290   0.042   1.940   2.005 -1.5781  1.8368  1.0723
 5610SOL     OW28291   2.492   1.829   1.981 -0.4349 -0.1356 -0.2582
 5610SOL    HW128292   2.567   1.819   1.923  0.0630 -0.2985  0.4153
 5610SOL    HW228293   2.548   1.858   2.053  0.5822 -3.2457  0.1797
 5611SOL     OW28294   3.346   0.060  10.485 -0.1966 -0.4241  0.3393
 5611SOL    HW128295   3.366   4.692  10.507 -0.3872 -1.2904 -3.1054
 5611SOL    HW228296   3.426   0.097  10.523 -0.0765  0.4051 -0.7386
 5612SOL     OW28297   2.445   1.649  12.132 -0.9537  0.5928  0.0026
 5612SOL    HW128298   2.527   1.626  12.176 -0.7574 -0.3886 -0.8639
 5612SOL    HW228299   2.474   1.709  12.064  0.3003  2.1567  1.9499
 5613SOL     OW28300   4.628   1.814   3.068  0.1183  0.1550  0.0788
 5613SOL    HW128301   4.620   1.836   3.160  4.8235 -0.2876  0.5895
 5613SOL    HW228302   4.627   1.721   3.087 -0.8461  0.4823  1.5716
 5614SOL     OW28303   4.238   0.354   7.847 -0.9221 -0.6043  0.6459
 5614SOL    HW128304   4.224   0.421   7.780  2.2941 -0.9122 -0.3466
 5614SOL    HW228305   4.320   0.392   7.879 -0.8566 -2.4318  2.6566
 5615SOL     OW28306   0.056   1.927   7.000 -0.4434  0.1014 -0.0682
 5615SOL    HW128307   0.063   1.959   6.910 -1.5327 -0.1158 -0.2349
 5615SOL    HW228308   4.717   1.987   7.041  0.5239  1.6500 -0.8770
 5616SOL     OW28309   4.589   2.376   2.394  0.0474  0.1196 -0.0050
 5616SOL    HW128310   4.611   2.286   2.420 -1.4367  0.3569  2.0955
 5616SOL    HW228311   4.536   2.397   2.471  1.4539 -1.0393  1.2817
 5617SOL     OW28312   4.037   2.686  11.505  0.6750  0.5559  0.0536
 5617SOL    HW128313   4.056   2.621  11.572  1.9582  1.4176  0.5219
 5617SOL    HW228314   4.127   2.696  11.472  0.1588  1.1689 -1.1842
 5618SOL     OW28315   1.348   1.951   6.034 -0.1351 -0.0500  0.4086
 5618SOL    HW128316   1.257   1.941   6.061  0.0733 -0.4533  0.9484
 5618SOL    HW228317   1.352   1.877   5.973 -1.1763  0.9968 -0.9145
 5619SOL     OW28318   2.462   2.207  16.159  0.1187  0.6154 -0.0820
 5619SOL    HW128319   2.372   2.234  16.141 -0.8049 -1.6506  1.1627
 5619SOL    HW228320   2.514   2.250  16.091  0.2237 -0.2426 -0.5425
 5620SOL     OW28321   0.856   3.727   9.866  0.1583 -0.6700 -0.1016
 5620SOL    HW128322   0.928   3.709   9.927  0.4988 -0.6302 -0.4955
 5620SOL    HW228323   0.812   3.793   9.921  0.3668 -0.6588  0.0559
 5621SOL     OW28324   4.127   2.506   2.323 -0.1785  0.3167 -0.2306
 5621SOL    HW128325   4.057   2.485   2.261 -3.7055  1.5356  3.3358
 5621SOL    HW228326   4.193   2.441   2.299  0.4706  1.5367 -1.7568
 5622SOL     OW28327   4.330   3.568   1.102 -0.0407  0.2766  0.5494
 5622SOL    HW128328   4.305   3.529   1.186 -0.3845 -0.0336  0.3007
 5622SOL    HW228329   4.392   3.501   1.074 -0.4948 -0.4892  1.4092
 5623SOL     OW28330   2.538   3.079   5.220  0.6930 -0.1214  0.0132
 5623SOL    HW128331   2.530   3.166   5.259  0.8805 -1.5217  3.2116
 5623SOL    HW228332   2.449   3.062   5.191  1.1190 -0.6308 -0.9709
 5624SOL     OW28333   1.942   0.593   9.266  0.5535  0.5333 -0.0247
 5624SOL    HW128334   1.884   0.560   9.197 -0.1812 -2.8534  2.2172
 5624SOL    HW228335   2.019   0.607   9.210  1.1940  1.1533  1.0096
 5625SOL     OW28336   4.463   3.719   7.054  0.1368  0.6798  0.0659
 5625SOL    HW128337   4.454   3.702   7.148 -2.7222  1.0864 -0.1345
 5625SOL    HW228338   4.438   3.809   7.033  0.1364  0.6853  0.0891
 5626SOL     OW28339   3.613   3.550  13.856 -0.0206 -0.0455 -0.5137
 5626SOL    HW128340   3.569   3.491  13.917  2.1993 -0.1354  0.9649
 5626SOL    HW228341   3.695   3.505  13.835 -0.5549 -1.9695  1.5174
 5627SOL     OW28342   1.491   3.929   1.385  0.1203 -0.1038  0.5045
 5627SOL    HW128343   1.553   3.863   1.355  0.6277  1.3373 -1.6121
 5627SOL    HW228344   1.517   3.931   1.477 -1.8897  0.6331  1.0652
 5628SOL     OW28345   0.420   1.879  11.145 -0.2474  0.0733 -0.3020
 5628SOL    HW128346   0.377   1.925  11.217 -0.0441 -2.1454  1.2153
 5628SOL    HW228347   0.440   1.796  11.187  1.9054  1.1544  0.8339
 5629SOL     OW28348   1.772   2.524   7.109 -0.3840  0.5945 -0.0160
 5629SOL    HW128349   1.737   2.612   7.123  2.3204  1.6345  0.2477
 5629SOL    HW228350   1.864   2.538   7.130  0.2326 -4.2749  0.3309
 5630SOL     OW28351   0.190   1.978   7.983  0.1068  0.4851  0.1201
 5630SOL    HW128352   0.192   1.886   8.010  0.7130  0.0113 -1.5063
 5630SOL    HW228353   0.277   2.003   8.014  0.9684 -0.2254 -1.7342
 5631SOL     OW28354   1.040   3.627  11.198 -0.1460  0.5010  0.3411
 5631SOL    HW128355   1.075   3.605  11.284  2.3065 -0.9833 -1.0129
 5631SOL    HW228356   1.055   3.546  11.150  0.1659  0.5884  0.2844
 5632SOL     OW28357   3.379   3.466   7.256  0.1972 -0.7429 -0.0139
 5632SOL    HW128358   3.307   3.479   7.318 -0.7294 -1.5580 -0.9261
 5632SOL    HW228359   3.351   3.508   7.175 -0.7246 -1.2973  0.0278
 5633SOL     OW28360   3.737   0.532   7.113  0.5544  0.0288  0.1073
 5633SOL    HW128361   3.762   0.451   7.158 -0.4961  0.6198  1.7283
 5633SOL    HW228362   3.651   0.556   7.146  0.6807 -0.8413  1.0728
 5634SOL     OW28363   1.198   0.166   2.518  0.5243 -0.2174  0.5899
 5634SOL    HW128364   1.284   0.141   2.554  1.9931  1.0607 -2.0395
 5634SOL    HW228365   1.139   0.155   2.592 -0.9645 -0.8497 -0.6768
 5635SOL     OW28366   0.418   1.393   4.490  0.3659 -0.2043  0.2480
 5635SOL    HW128367   0.463   1.310   4.510  1.7767  0.3322 -0.6831
 5635SOL    HW228368   0.348   1.391   4.555 -0.8249  1.3507 -0.9685
 5636SOL     OW28369   2.350   3.588   2.670  0.3670  0.2916 -0.4502
 5636SOL    HW128370   2.433   3.609   2.628  0.1974 -0.5086 -1.1935
 5636SOL    HW228371   2.285   3.631   2.614  1.1356 -0.3826 -1.8622
 5637SOL     OW28372   0.083   4.140   4.939 -0.6498  0.0828  0.4844
 5637SOL    HW128373   0.157   4.167   4.993 -1.0454  0.8790  0.6252
 5637SOL    HW228374   0.021   4.147   5.011 -0.5301  0.3865  0.5569
 5638SOL     OW28375   3.812   2.316   7.296  0.2843  0.0676 -0.5444
 5638SOL    HW128376   3.764   2.237   7.319 -2.2927  1.4138 -1.3074
 5638SOL    HW228377   3.764   2.368   7.361 -0.5697  1.3424 -2.1952
 5639SOL     OW28378   1.345   3.112   3.303  0.2367  0.0288 -0.3395
 5639SOL    HW128379   1.423   3.167   3.296 -0.2699  0.6845 -0.7159
 5639SOL    HW228380   1.304   3.146   3.383 -1.0018 -1.8816 -0.1532
 5640SOL     OW28381   1.888   0.436   8.039 -0.5307  0.6081 -0.3440
 5640SOL    HW128382   1.848   0.446   7.953 -1.3782  2.7015  0.2736
 5640SOL    HW228383   1.818   0.382   8.075 -0.8881 -0.3961 -2.5995
 5641SOL     OW28384   1.734   1.147  14.863  0.0651 -0.3160  0.0218
 5641SOL    HW128385   1.771   1.109  14.943 -1.9211 -1.8808  0.1874
 5641SOL    HW228386   1.663   1.195  14.907  0.7349  0.1222  0.6277
 5642SOL     OW28387   4.264   2.346   7.558 -0.2600  0.0591 -0.2753
 5642SOL    HW128388   4.338   2.298   7.522  0.9908  0.4460  1.7687
 5642SOL    HW228389   4.186   2.317   7.510  0.6216  1.8319 -2.7505
 5643SOL     OW28390   2.851   1.887  16.695  0.1055 -0.0686  0.3331
 5643SOL    HW128391   2.845   1.849  16.608  1.2786  1.6631 -0.5040
 5643SOL    HW228392   2.808   1.822  16.751  0.4906 -1.0481 -0.5259
 5644SOL     OW28393   1.034   4.206   4.885 -0.0818  0.6253 -0.4400
 5644SOL    HW128394   0.968   4.159   4.936  0.5082  1.0280  0.7090
 5644SOL    HW228395   1.019   4.297   4.910 -1.0622  0.0836  0.9657
 5645SOL     OW28396   4.636   2.184   4.386 -0.2977 -0.0020 -0.3582
 5645SOL    HW128397   4.557   2.188   4.440  0.1841  1.3923  0.2697
 5645SOL    HW228398   4.626   2.102   4.339  2.9834  0.4077 -1.7479
 5646SOL     OW28399   0.789   0.476   5.763  0.2323 -0.8503 -0.2116
 5646SOL    HW128400   0.697   0.455   5.751 -0.3611  0.1239  2.5368
 5646SOL    HW228401   0.829   0.452   5.679  1.5918  1.2239 -0.1671
 5647SOL     OW28402   3.322   1.291   1.811 -0.2601  0.6902 -0.3079
 5647SOL    HW128403   3.233   1.325   1.816 -0.7009 -0.6710  1.3371
 5647SOL    HW228404   3.364   1.376   1.820  1.1393  0.1568 -1.7797
 5648SOL     OW28405   1.705   2.733   4.259 -0.1808 -0.1712  0.0647
 5648SOL    HW128406   1.786   2.780   4.279  0.4315 -1.8475  1.4992
 5648SOL    HW228407   1.739   2.680   4.188  2.1607 -0.1500  1.1857
 5649SOL     OW28408   3.406   1.523  17.085  0.4174 -0.1641 -0.4367
 5649SOL    HW128409   3.323   1.475  17.081  0.0203  0.3202  1.7157
 5649SOL    HW228410   3.375   1.607  17.051 -3.9042 -1.9938 -1.0237
 5650SOL     OW28411   0.420   4.310  13.876 -0.4544  0.2527  0.0210
 5650SOL    HW128412   0.501   4.333  13.922 -0.5674 -1.8821  1.2880
 5650SOL    HW228413   0.420   4.216  13.893  1.9426  0.1452 -0.6251
 5651SOL     OW28414   4.179   3.008   5.715 -0.2098  0.0244  0.0013
 5651SOL    HW128415   4.245   2.938   5.714 -0.7778 -0.5108 -0.1620
 5651SOL    HW228416   4.105   2.955   5.745 -0.5417  0.4281 -0.1093
 5652SOL     OW28417   3.305   1.893   5.579 -0.4677 -0.1891  0.0212
 5652SOL    HW128418   3.220   1.884   5.536 -1.2242  0.1678  1.4440
 5652SOL    HW228419   3.366   1.878   5.507  0.8360  1.3632  0.7830
 5653SOL     OW28420   0.904   0.161   1.366  0.1020 -0.3557  0.2209
 5653SOL    HW128421   0.918   0.256   1.369  1.7703 -0.6423  1.4728
 5653SOL    HW228422   0.988   0.139   1.325  1.1489  3.3103  0.3915
 5654SOL     OW28423   3.499   2.821  12.294 -0.0311  0.3398 -1.1819
 5654SOL    HW128424   3.411   2.851  12.318  0.9778  2.3246  0.0329
 5654SOL    HW228425   3.538   2.877  12.361 -2.2364 -0.8481  1.1048
 5655SOL     OW28426   4.037   0.971  14.832  0.1557  0.0673 -0.1015
 5655SOL    HW128427   4.115   1.017  14.863 -1.2064  1.6284  0.9868
 5655SOL    HW228428   4.070   0.904  14.772 -0.9121  2.0744 -2.9507
 5656SOL     OW28429   2.006   4.128   0.644  0.5915  0.1527 -0.3773
 5656SOL    HW128430   1.978   4.218   0.626 -1.8793 -0.4447  0.4392
 5656SOL    HW228431   1.995   4.141   0.739  0.6682 -0.1302 -0.3304
 5657SOL     OW28432   3.195   2.903   6.933  0.9553  0.0382 -0.6103
 5657SOL    HW128433   3.258   2.860   6.875 -1.8495 -1.9937 -2.1757
 5657SOL    HW228434   3.250   2.958   6.988 -0.5797  3.2386 -2.2617
 5658SOL     OW28435   4.051   3.958   5.018 -0.0461 -0.5993 -0.0532
 5658SOL    HW128436   3.961   3.975   4.993 -0.7089 -0.7367  2.2202
 5658SOL    HW228437   4.054   4.014   5.096 -0.5711 -1.8511  0.8630
 5659SOL     OW28438   4.495   4.332   4.132 -0.3177  0.0429  0.0198
 5659SOL    HW128439   4.572   4.329   4.189 -1.3977 -1.1835  1.4295
 5659SOL    HW228440   4.444   4.397   4.181 -0.3655  0.4662 -0.6001
 5660SOL     OW28441   1.371   0.408   6.445 -0.5366 -0.0974  0.2003
 5660SOL    HW128442   1.323   0.362   6.376 -0.8914 -0.4947  0.7065
 5660SOL    HW228443   1.409   0.474   6.388  0.0044 -1.2118 -0.7253
 5661SOL     OW28444   2.566   1.283  17.479 -0.1358  0.4327  0.8404
 5661SOL    HW128445   2.508   1.229  17.533 -1.7618 -0.4788 -1.8052
 5661SOL    HW228446   2.653   1.242  17.485 -0.0040  0.9647  2.4413
 5662SOL     OW28447   3.175   2.552   0.313 -0.1386 -0.0696 -0.1924
 5662SOL    HW128448   3.148   2.496   0.240  1.1517  0.4326 -1.0690
 5662SOL    HW228449   3.262   2.569   0.275  0.7309 -2.6739  0.5786
 5663SOL     OW28450   3.735   0.848  15.518 -0.7283 -0.1691  0.1180
 5663SOL    HW128451   3.806   0.794  15.482 -0.3520  0.3078  0.1408
 5663SOL    HW228452   3.748   0.823  15.609  0.4640  1.6944  0.4570
 5664SOL     OW28453   1.448   0.501   7.864 -0.3501 -0.8136  0.2080
 5664SOL    HW128454   1.498   0.424   7.837 -0.5138 -0.8448 -0.0041
 5664SOL    HW228455   1.386   0.488   7.793  0.5072 -0.1927 -0.6514
 5665SOL     OW28456   3.010   2.179   8.956 -0.0078  0.3244 -0.5408
 5665SOL    HW128457   2.986   2.238   9.027  0.7077 -1.0480  0.8418
 5665SOL    HW228458   2.930   2.193   8.905  0.4879 -0.8664 -1.6679
 5666SOL     OW28459   2.051   4.703   2.134 -0.4268  0.3694  0.0041
 5666SOL    HW128460   2.037   0.034   2.056 -2.1774  2.1406  1.5302
 5666SOL    HW228461   2.129   4.651   2.113 -0.1688  0.0250  1.8258
 5667SOL     OW28462   4.581   0.341  11.434 -0.3015 -0.5369  0.2133
 5667SOL    HW128463   4.623   0.401  11.374  2.4943 -0.4860  2.2152
 5667SOL    HW228464   4.605   0.389  11.513 -2.0264  0.7709 -0.0832
 5668SOL     OW28465   1.413   4.079  10.400  0.2732 -0.5106  0.1453
 5668SOL    HW128466   1.430   4.128  10.481 -1.8226 -1.6053  1.2328
 5668SOL    HW228467   1.498   4.041  10.379  0.6705 -0.5328  1.7697
 5669SOL     OW28468   2.734   0.398   0.829 -0.3554  0.0493 -0.2577
 5669SOL    HW128469   2.743   0.367   0.739  0.2744  0.1250 -0.2197
 5669SOL    HW228470   2.745   0.317   0.878 -3.6195 -0.5437 -0.4868
 5670SOL     OW28471   0.848   0.097   6.525  0.4259  0.5760  0.4753
 5670SOL    HW128472   0.884   0.085   6.437 -0.8848  1.2320 -0.1677
 5670SOL    HW228473   0.927   0.094   6.578 -1.1615 -0.3847  2.7860
 5671SOL     OW28474   2.895   1.361   2.642 -0.3595  0.4496 -0.7943
 5671SOL    HW128475   2.837   1.328   2.710  1.4076 -2.3599 -0.6694
 5671SOL    HW228476   2.918   1.279   2.599  2.0222 -0.3837  2.1367
 5672SOL     OW28477   4.406   3.953   5.776 -0.5390 -0.3244 -0.4708
 5672SOL    HW128478   4.441   3.962   5.687 -2.2300  0.8172 -1.0344
 5672SOL    HW228479   4.352   3.876   5.759 -3.9746  1.3072  2.9166
 5673SOL     OW28480   0.466   4.677   4.354  0.6026  0.6464 -0.4467
 5673SOL    HW128481   0.391   4.694   4.410 -0.4287 -1.5936 -1.1489
 5673SOL    HW228482   0.537   4.704   4.413  1.2122 -1.7080 -0.0703
 5674SOL     OW28483   1.206   1.937  12.339  0.0227 -0.4204  0.2468
 5674SOL    HW128484   1.242   1.878  12.405 -1.1258  0.1803  1.4199
 5674SOL    HW228485   1.226   2.018  12.386 -1.0051  1.0727 -1.8961
 5675SOL     OW28486   1.238   0.126   0.848 -0.3435  0.0316 -0.1825
 5675SOL    HW128487   1.205   0.063   0.912  0.4532 -0.0208  0.1771
 5675SOL    HW228488   1.312   0.170   0.891  1.0136 -1.3670 -1.0594
 5676SOL     OW28489   0.474   1.259   8.163 -0.1481  0.0309 -0.1647
 5676SOL    HW128490   0.404   1.262   8.097 -0.5826  1.3857  0.3544
 5676SOL    HW228491   0.539   1.319   8.127  0.0363  0.0904  0.2660
 5677SOL     OW28492   3.893   0.337   2.245 -0.2138  0.2827  0.3038
 5677SOL    HW128493   3.799   0.353   2.256 -0.0684 -0.4205  2.5557
 5677SOL    HW228494   3.926   0.419   2.282 -1.6387 -0.8779  4.1396
 5678SOL     OW28495   3.232   4.615   4.606 -0.1501 -0.4361 -1.0376
 5678SOL    HW128496   3.242   4.679   4.536  0.6206  1.3336  0.7149
 5678SOL    HW228497   3.310   4.623   4.659 -1.1143 -0.7670  0.4251
 5679SOL     OW28498   1.132   0.900  13.217  0.4386 -0.3970 -0.0861
 5679SOL    HW128499   1.135   0.853  13.134 -2.2480 -0.8838  0.0734
 5679SOL    HW228500   1.123   0.990  13.186  1.5990  0.2383  1.4281
 5680SOL     OW28501   2.032   1.102   4.467 -0.2972  0.1825 -0.0325
 5680SOL    HW128502   1.937   1.102   4.471 -0.2851 -0.0484  0.2779
 5680SOL    HW228503   2.043   1.102   4.372  0.9371  1.9086  0.0946
 5681SOL     OW28504   2.367   2.283  17.241 -0.2202 -0.5647 -0.1672
 5681SOL    HW128505   2.396   2.253  17.155  2.3858  2.5546 -0.3840
 5681SOL    HW228506   2.288   2.229  17.246 -0.1073 -0.8550 -1.5099
 5682SOL     OW28507   3.085   1.855   2.976 -0.5939 -0.1943 -0.5504
 5682SOL    HW128508   3.036   1.934   2.955 -0.8484 -0.5981 -1.4743
 5682SOL    HW228509   3.026   1.825   3.045 -0.3907  2.6874  0.8767
 5683SOL     OW28510   0.423   0.722  10.935 -0.2243  0.4840 -0.6652
 5683SOL    HW128511   0.469   0.730  10.851 -0.3822 -0.0735 -0.8012
 5683SOL    HW228512   0.483   0.703  11.007 -1.2136  1.4502  0.3990
 5684SOL     OW28513   2.396   1.587   1.621  0.6122 -0.2027  0.3205
 5684SOL    HW128514   2.318   1.547   1.661  0.5293 -0.6108 -0.2434
 5684SOL    HW228515   2.411   1.663   1.677 -1.3077  0.9074 -0.6556
 5685SOL     OW28516   0.823   3.568  17.253  0.4195  0.3027  0.0357
 5685SOL    HW128517   0.804   3.660  17.269  2.0226  0.9746 -1.9950
 5685SOL    HW228518   0.917   3.571  17.234  0.3558  3.8364  0.3095
 5686SOL     OW28519   1.100   0.875   4.126  0.8787 -0.5446  0.2523
 5686SOL    HW128520   1.171   0.920   4.172 -0.5800  0.2831  1.6798
 5686SOL    HW228521   1.036   0.942   4.104 -0.0047 -0.9966  1.4898
 5687SOL     OW28522   0.579   3.702   5.823 -0.6616  0.3119  0.0509
 5687SOL    HW128523   0.646   3.647   5.863  2.4860  2.3071 -2.4930
 5687SOL    HW228524   0.503   3.652   5.852 -1.2830  0.9131 -0.5509
 5688SOL     OW28525   3.282   2.970  12.375  0.3161 -0.2736  0.4639
 5688SOL    HW128526   3.276   3.014  12.290 -0.8523  0.3318  0.8634
 5688SOL    HW228527   3.219   3.016  12.429 -0.7784 -0.0275 -1.0371
 5689SOL     OW28528   2.129   0.937  15.391  0.6708  0.6478 -0.2272
 5689SOL    HW128529   2.112   1.023  15.354  1.6569  0.3527 -1.3526
 5689SOL    HW228530   2.212   0.944  15.439  0.5539 -0.6975  0.1781
 5690SOL     OW28531   0.967   4.247   8.655 -0.0764 -0.0860  0.6535
 5690SOL    HW128532   1.023   4.252   8.733  1.0593 -0.3906 -0.1462
 5690SOL    HW228533   0.893   4.301   8.682 -0.0117 -0.0231  0.7060
 5691SOL     OW28534   4.595   4.608   3.484  0.3210  0.0797 -0.0358
 5691SOL    HW128535   4.616   4.651   3.567 -0.8071 -0.9916  0.8163
 5691SOL    HW228536   4.681   4.583   3.451 -0.0130 -1.6742  0.4062
 5692SOL     OW28537   4.082   0.632  13.375  0.3101  0.8187 -0.7559
 5692SOL    HW128538   4.085   0.547  13.418 -0.1913  0.8303 -0.7034
 5692SOL    HW228539   3.996   0.631  13.335  0.5621 -0.7850 -1.2370
 5693SOL     OW28540   2.016   2.097   2.858 -0.4423  0.1045 -0.3962
 5693SOL    HW128541   1.960   2.170   2.833  0.4120  0.5562 -0.9942
 5693SOL    HW228542   2.017   2.107   2.953  0.5359  0.3763 -0.4269
 5694SOL     OW28543   1.316   3.787  10.196 -0.1885 -0.0176 -0.0900
 5694SOL    HW128544   1.248   3.850  10.220  0.9601  2.1865 -2.6885
 5694SOL    HW228545   1.380   3.836  10.145  1.7328 -0.8339  1.5552
 5695SOL     OW28546   3.787   4.104   0.364 -0.0341  0.1307 -0.8751
 5695SOL    HW128547   3.861   4.144   0.409  0.9478 -0.4824 -1.9534
 5695SOL    HW228548   3.750   4.044   0.429 -0.9546  0.3529 -1.1974
 5696SOL     OW28549   4.457   0.077   8.446  0.4603  0.6311  0.3835
 5696SOL    HW128550   4.496   0.163   8.431  3.5762 -0.9197 -0.4742
 5696SOL    HW228551   4.382   0.104   8.393  0.5297 -0.3187 -0.2111
 5697SOL     OW28552   2.833   2.644   6.147 -0.3073  0.2796  0.3385
 5697SOL    HW128553   2.747   2.670   6.113 -0.1241  2.1410  1.3238
 5697SOL    HW228554   2.885   2.723   6.140  0.3754 -0.3060 -1.0646
 5698SOL     OW28555   2.701   2.546  16.402  0.4278  0.0941 -0.3329
 5698SOL    HW128556   2.714   2.640  16.411  4.3276 -0.3533 -1.4569
 5698SOL    HW228557   2.740   2.518  16.485  0.6819 -1.7594 -1.0867
 5699SOL     OW28558   3.975   2.618   0.964 -0.0287  0.3799 -0.1927
 5699SOL    HW128559   3.956   2.645   1.054  1.1381 -0.4011  0.2715
 5699SOL    HW228560   4.025   2.538   0.978  0.7937  0.9009 -0.2058
 5700SOL     OW28561   3.153   1.751   2.393 -0.9096  0.7934 -0.0550
 5700SOL    HW128562   3.152   1.694   2.470 -2.2648 -1.9157 -2.0649
 5700SOL    HW228563   3.115   1.689   2.332  0.6736 -0.4153  0.1745
 5701SOL     OW28564   1.784   3.634   8.184 -0.0000 -0.4455 -0.5965
 5701SOL    HW128565   1.818   3.705   8.129  0.3672 -1.1765 -1.3263
 5701SOL    HW228566   1.693   3.620   8.158 -0.8592  0.7069  1.8409
 5702SOL     OW28567   3.084   2.166   3.244  0.2701 -0.1076 -0.0004
 5702SOL    HW128568   3.159   2.111   3.221 -0.0599  0.5933 -2.8422
 5702SOL    HW228569   3.029   2.147   3.168 -1.2354  1.8877  0.5905
 5703SOL     OW28570   4.251   3.251   6.779  0.2672 -0.3096 -0.3176
 5703SOL    HW128571   4.202   3.328   6.809  1.7205  0.3053  0.4322
 5703SOL    HW228572   4.183   3.190   6.750 -0.0425  0.3604 -1.0011
 5704SOL     OW28573   1.750   2.677  11.176 -0.4705  1.0430  0.5144
 5704SOL    HW128574   1.684   2.703  11.111 -2.6713  0.8655  2.6497
 5704SOL    HW228575   1.747   2.581  11.174 -0.3646  1.0442  0.3480
 5705SOL     OW28576   4.371   0.355   1.530 -0.1997 -0.4242 -0.7850
 5705SOL    HW128577   4.403   0.445   1.525  2.7916 -1.4342  0.2144
 5705SOL    HW228578   4.282   0.367   1.561 -0.4992 -1.1287 -1.3658
 5706SOL     OW28579   1.279   3.013  11.120 -0.0993 -0.1629 -0.3334
 5706SOL    HW128580   1.347   2.966  11.071  0.2799 -0.5979  0.6015
 5706SOL    HW228581   1.213   3.018  11.051 -0.4447  0.8826  0.0790
 5707SOL     OW28582   2.628   2.674   7.913 -0.2750 -0.3093 -0.3760
 5707SOL    HW128583   2.712   2.721   7.906 -0.1901 -0.2364  1.2696
 5707SOL    HW228584   2.663   2.595   7.871  0.8946 -1.1059  2.1227
 5708SOL     OW28585   4.406   1.429  10.433 -0.0049  0.3090 -0.0739
 5708SOL    HW128586   4.464   1.504  10.440  2.1573 -1.4013  0.1611
 5708SOL    HW228587   4.365   1.446  10.348  1.6078  1.9725 -0.4951
 5709SOL     OW28588   3.407   1.462   6.364  0.1802  0.1445 -0.4409
 5709SOL    HW128589   3.405   1.517   6.286  0.6562 -0.0814 -0.6102
 5709SOL    HW228590   3.492   1.420   6.347  0.5404  1.8066 -2.7669
 5710SOL     OW28591   3.802   1.484   3.135 -0.3269 -0.2745  0.0614
 5710SOL    HW128592   3.763   1.398   3.122 -3.0260  1.3971 -2.9448
 5710SOL    HW228593   3.893   1.470   3.109 -0.1221 -0.4582  0.8846
 5711SOL     OW28594   1.288   4.109  10.724  0.5633  0.0713  0.6310
 5711SOL    HW128595   1.204   4.097  10.680 -0.2406 -0.2194  2.2384
 5711SOL    HW228596   1.331   4.027  10.701 -1.2707 -0.5175 -0.7318
 5712SOL     OW28597   0.762   2.763   5.889  0.8715  0.2748  0.0763
 5712SOL    HW128598   0.728   2.690   5.941  1.3542 -1.2241 -1.6944
 5712SOL    HW228599   0.680   2.810   5.872  0.8825  0.6276  1.0002
 5713SOL     OW28600   4.209   0.252   6.907 -0.7488  0.4130 -0.6926
 5713SOL    HW128601   4.137   0.213   6.857 -0.9256 -1.4336  1.0020
 5713SOL    HW228602   4.245   0.173   6.947  0.4318  1.1707 -0.2783
 5714SOL     OW28603   2.147   0.047   5.664 -0.8692 -0.0363 -1.0415
 5714SOL    HW128604   2.125   0.087   5.580  0.7409  0.2366 -1.3391
 5714SOL    HW228605   2.196   4.693   5.635 -0.4477  0.2276 -1.0451
 5715SOL     OW28606   0.373   2.792   3.860 -0.3919  0.0595  0.2028
 5715SOL    HW128607   0.387   2.825   3.949  1.9082 -2.3959  0.7557
 5715SOL    HW228608   0.461   2.795   3.821 -0.1450  1.4685  0.8610
 5716SOL     OW28609   2.703   3.269   6.865  0.1497  0.6045  0.0232
 5716SOL    HW128610   2.744   3.348   6.829 -1.6122  1.7846  0.6060
 5716SOL    HW228611   2.781   3.216   6.882 -0.1411 -0.1913 -1.1424
 5717SOL     OW28612   1.910   2.400   0.343 -0.1265 -0.0460  0.9259
 5717SOL    HW128613   1.995   2.443   0.337 -0.4459  0.3213 -0.9338
 5717SOL    HW228614   1.873   2.415   0.256 -0.7014 -0.5558  1.0859
 5718SOL     OW28615   1.820   0.948  15.608 -0.3856 -0.0489  0.1280
 5718SOL    HW128616   1.733   0.967  15.645 -0.4071 -0.4865  0.3008
 5718SOL    HW228617   1.857   0.882  15.667 -0.7754  1.3405  1.9169
 5719SOL     OW28618   2.552   1.905  10.188  0.7932 -0.0467  0.2986
 5719SOL    HW128619   2.566   1.811  10.199 -0.0641  0.1581  3.2178
 5719SOL    HW228620   2.457   1.918  10.178  0.7241 -0.2616  0.6953
 5720SOL     OW28621   0.915   0.682   4.196 -0.2420 -0.2214  0.2424
 5720SOL    HW128622   0.989   0.742   4.205 -0.6016  0.3441 -0.5368
 5720SOL    HW228623   0.889   0.670   4.288  1.6148 -2.1575  0.5216
 5721SOL     OW28624   2.345   1.519   8.719  0.3069 -0.5262 -0.3835
 5721SOL    HW128625   2.420   1.507   8.777 -0.0959  0.1705  0.2733
 5721SOL    HW228626   2.314   1.604   8.750  2.0187 -0.4596  1.1533
 5722SOL     OW28627   0.338   3.161   6.953  0.0115  0.2512 -0.0515
 5722SOL    HW128628   0.360   3.166   6.860  0.1823 -0.7752 -0.0629
 5722SOL    HW228629   0.297   3.074   6.958  0.1910  0.1605 -0.1648
 5723SOL     OW28630   0.172   3.560   6.806  0.4256 -0.5005 -0.0210
 5723SOL    HW128631   0.224   3.635   6.778  0.8049 -1.7603 -2.7147
 5723SOL    HW228632   0.119   3.546   6.728  1.1077 -1.4405 -0.3089
 5724SOL     OW28633   1.559   0.955   4.173 -0.4526 -0.0091  0.3570
 5724SOL    HW128634   1.631   0.975   4.114  0.7203 -0.1407  1.7566
 5724SOL    HW228635   1.525   0.883   4.119 -0.7624 -1.0600  1.9564
 5725SOL     OW28636   4.059   2.605   6.182  0.6260  0.6181 -0.6905
 5725SOL    HW128637   4.080   2.608   6.275 -0.0268 -2.5233 -0.4200
 5725SOL    HW228638   3.963   2.609   6.183  0.6145 -0.4897  2.3072
 5726SOL     OW28639   2.495   3.634   7.256 -0.2454 -0.2140 -0.0213
 5726SOL    HW128640   2.555   3.562   7.241 -0.1531  0.0193 -0.7712
 5726SOL    HW228641   2.520   3.694   7.185 -0.7787  0.1236  0.0720
 5727SOL     OW28642   0.710   1.491  16.400 -0.2372 -0.1586 -0.4337
 5727SOL    HW128643   0.691   1.562  16.462 -0.7247 -1.3464  0.7733
 5727SOL    HW228644   0.626   1.445  16.392 -0.5514  0.3117  0.1779
 5728SOL     OW28645   2.069   2.855   3.273  0.8752 -0.9574 -0.1065
 5728SOL    HW128646   2.060   2.786   3.207  0.1079 -1.7703  0.8577
 5728SOL    HW228647   2.126   2.818   3.341  0.5315  0.0569  0.7265
 5729SOL     OW28648   3.937   0.922   3.442  0.0717 -0.1071 -0.0791
 5729SOL    HW128649   3.847   0.938   3.415  0.4561  0.6848 -0.8690
 5729SOL    HW228650   3.956   0.840   3.396 -0.9274 -0.1400 -0.4374
 5730SOL     OW28651   1.845   2.090   0.434 -0.0102 -0.1520  0.0712
 5730SOL    HW128652   1.912   2.056   0.374  0.4553  1.0530 -0.0883
 5730SOL    HW228653   1.816   2.016   0.486 -1.4795  0.4856  0.1590
 5731SOL     OW28654   1.935   0.510   6.322  0.1648  0.3367  0.5471
 5731SOL    HW128655   2.006   0.552   6.274  1.8522  0.2487  2.9684
 5731SOL    HW228656   1.855   0.515   6.268  0.6343  0.6812 -0.1122
 5732SOL     OW28657   0.985   0.130   2.730 -0.2840  0.1195  0.1855
 5732SOL    HW128658   0.992   0.163   2.820  1.2863  3.1681 -1.0429
 5732SOL    HW228659   1.008   0.039   2.749  4.2519  0.7827 -2.2381
 5733SOL     OW28660   1.434   0.559   6.214 -0.0674  0.7461 -0.6750
 5733SOL    HW128661   1.462   0.526   6.128 -0.6997 -1.5536 -0.0116
 5733SOL    HW228662   1.490   0.636   6.222 -0.3167  0.7688  0.8193
 5734SOL     OW28663   2.022   0.895   5.588 -0.4351 -0.9928 -0.0330
 5734SOL    HW128664   2.109   0.920   5.559  0.0252 -0.0136  2.1716
 5734SOL    HW228665   2.005   0.813   5.543 -0.7347 -0.4654 -0.8748
 5735SOL     OW28666   3.499   3.990  16.543  0.4218 -0.6557 -0.0932
 5735SOL    HW128667   3.571   4.049  16.520 -1.2404  1.5773  0.4219
 5735SOL    HW228668   3.451   4.027  16.468  0.5284 -1.0730 -0.3701
 5736SOL     OW28669   4.538   3.404   7.667  0.5911 -0.2704 -0.6642
 5736SOL    HW128670   4.457   3.431   7.624 -0.2670 -3.1329 -0.8682
 5736SOL    HW228671   4.573   3.488   7.694  0.7795 -1.4396  2.6668
 5737SOL     OW28672   4.652   3.810  14.263 -0.0580 -0.3745  0.3614
 5737SOL    HW128673   4.558   3.822  14.279  0.6701  3.7146  1.5803
 5737SOL    HW228674   4.666   3.717  14.277  3.8502 -0.1288 -2.0322
 5738SOL     OW28675   2.976   4.460   5.334  0.1227  0.0718  0.4242
 5738SOL    HW128676   3.026   4.435   5.256  1.7386 -0.7985  1.7404
 5738SOL    HW228677   3.026   4.538   5.357 -1.4895  1.5628 -1.0421
 5739SOL     OW28678   3.665   2.520   7.839  0.0592 -0.2410  0.5426
 5739SOL    HW128679   3.634   2.431   7.820  0.9396 -0.1857 -1.2284
 5739SOL    HW228680   3.626   2.568   7.766  1.1363  0.8754  0.6965
 5740SOL     OW28681   2.793   0.366  16.623 -0.3749 -0.4885  0.0070
 5740SOL    HW128682   2.820   0.452  16.656  0.0519 -0.4550 -0.4246
 5740SOL    HW228683   2.707   0.355  16.664  0.1476  0.0901  1.2717
 5741SOL     OW28684   0.395   1.220   1.448  0.0489  0.3199  0.2404
 5741SOL    HW128685   0.377   1.296   1.504  0.9325  0.0059  0.9422
 5741SOL    HW228686   0.343   1.237   1.369  3.6055  1.3706 -1.8995
 5742SOL     OW28687   4.436   4.563   6.685 -0.2938  0.3054  0.4442
 5742SOL    HW128688   4.399   4.641   6.642  1.1549 -0.4328 -2.1653
 5742SOL    HW228689   4.378   4.558   6.760 -0.6181 -2.4904  0.0260
 5743SOL     OW28690   3.687   0.707   8.421 -0.2822 -0.0268  0.6048
 5743SOL    HW128691   3.677   0.781   8.361  1.5656 -1.1646 -1.0845
 5743SOL    HW228692   3.751   0.656   8.372 -4.0572 -1.6795 -2.5420
 5744SOL     OW28693   4.637   4.542   5.560 -0.4843  0.0925 -0.5620
 5744SOL    HW128694   4.672   4.561   5.473  0.7324 -1.2478 -0.3716
 5744SOL    HW228695   4.703   4.590   5.610 -0.8266 -0.4223  0.3929
 5745SOL     OW28696   3.335   3.471   0.038 -0.2381 -0.0031 -0.4115
 5745SOL    HW128697   3.324   3.434   0.126 -0.1874 -1.8847 -1.1931
 5745SOL    HW228698   3.279   3.548   0.052  1.5502  1.1153  0.4979
 5746SOL     OW28699   1.158   0.098   5.464 -0.2503  0.6764 -0.4513
 5746SOL    HW128700   1.214   0.172   5.488  1.7314 -0.4170 -1.7169
 5746SOL    HW228701   1.110   0.130   5.388  0.2851  0.2066 -0.9871
 5747SOL     OW28702   2.080   4.163   8.531 -0.0002 -0.0881 -0.1722
 5747SOL    HW128703   2.096   4.072   8.505 -0.7702  0.2988 -2.0018
 5747SOL    HW228704   2.074   4.164   8.627 -0.9203  0.6295 -0.2397
 5748SOL     OW28705   4.016   1.873   2.043 -0.4792  0.1731  0.5821
 5748SOL    HW128706   4.084   1.813   2.073  0.8430  1.3493 -0.0479
 5748SOL    HW228707   4.044   1.912   1.960 -0.0732  0.3516  0.7989
 5749SOL     OW28708   2.000   4.428   1.620  0.2363 -0.1487  0.1066
 5749SOL    HW128709   2.077   4.382   1.586  0.7544 -0.1863  1.3538
 5749SOL    HW228710   1.934   4.367   1.586 -1.6945  1.2606  1.2949
 5750SOL     OW28711   2.387   3.671   6.128  0.1644 -0.6865  0.4791
 5750SOL    HW128712   2.467   3.667   6.180  0.7964 -1.3671 -0.5584
 5750SOL    HW228713   2.382   3.765   6.110  0.3765 -0.4935  1.4219
 5751SOL     OW28714   1.014   1.171   1.686  0.4928  0.1236 -0.1407
 5751SOL    HW128715   1.060   1.254   1.672  0.9507  0.0311  0.7953
 5751SOL    HW228716   0.959   1.201   1.758  0.7601  0.4504 -0.0703
 5752SOL     OW28717   1.943   4.236  14.232  0.0152 -0.1591 -0.1222
 5752SOL    HW128718   1.879   4.191  14.176 -1.8338  0.8220  1.2000
 5752SOL    HW228719   2.025   4.191  14.212 -0.3775 -0.4987 -0.9903
 5753SOL     OW28720   1.734   0.410   1.890 -0.0650 -0.3702  0.2340
 5753SOL    HW128721   1.764   0.379   1.975  1.4021  1.0988  0.2642
 5753SOL    HW228722   1.717   0.332   1.838  0.4314 -0.5861  0.3975
 5754SOL     OW28723   2.545   3.478  16.459 -0.4902 -0.6228  0.0132
 5754SOL    HW128724   2.527   3.415  16.389  1.4785  0.4132 -1.4523
 5754SOL    HW228725   2.637   3.490  16.433 -0.9246 -0.9938 -1.7196
 5755SOL     OW28726   4.158   2.520  11.717  0.0823 -1.3735 -0.4443
 5755SOL    HW128727   4.138   2.516  11.811  0.9838 -1.0298 -0.2379
 5755SOL    HW228728   4.233   2.579  11.721 -0.4715 -0.7316  0.4385
 5756SOL     OW28729   0.796   1.641   3.288 -0.3632 -0.3622  0.7589
 5756SOL    HW128730   0.747   1.573   3.243 -0.2595 -0.0583  0.1915
 5756SOL    HW228731   0.755   1.721   3.256  1.8382 -0.1558 -1.5652
 5757SOL     OW28732   3.454   3.488   0.769 -0.2819 -0.7044  0.2135
 5757SOL    HW128733   3.412   3.554   0.825  1.1742  1.6362 -1.4781
 5757SOL    HW228734   3.381   3.484   0.707  1.1554  1.6028 -1.6184
 5758SOL     OW28735   4.478   3.929  13.387  0.1404  1.0164  0.4659
 5758SOL    HW128736   4.557   3.899  13.341  1.8778  1.2438  3.2517
 5758SOL    HW228737   4.425   3.850  13.375 -0.3657  1.3413  0.5596
 5759SOL     OW28738   4.529   1.348   0.669  0.4509  0.4975 -0.5369
 5759SOL    HW128739   4.508   1.255   0.676  0.2252  0.6336  0.6561
 5759SOL    HW228740   4.611   1.362   0.716  1.2778 -0.9044 -1.5935
 5760SOL     OW28741   3.486   4.100   2.922 -0.1442  0.2415 -0.7661
 5760SOL    HW128742   3.559   4.106   2.861 -0.0135 -0.8710 -0.7056
 5760SOL    HW228743   3.415   4.125   2.862  0.0022  0.1016 -0.9980
 5761SOL     OW28744   1.422   1.572   7.304  0.1810 -0.5438  0.3101
 5761SOL    HW128745   1.428   1.574   7.399 -0.7109 -1.0632  0.3708
 5761SOL    HW228746   1.382   1.487   7.286  1.4815 -1.2140  0.5361
 5762SOL     OW28747   0.693   2.978   4.031  0.0984 -0.0743  0.3908
 5762SOL    HW128748   0.614   2.929   4.056  0.0101 -0.0250  0.2038
 5762SOL    HW228749   0.719   2.929   3.953  0.3463  1.5933 -0.5564
 5763SOL     OW28750   2.748   3.788  17.395  0.1014 -0.2695  0.7770
 5763SOL    HW128751   2.661   3.756  17.371  0.4395 -0.9572  0.4720
 5763SOL    HW228752   2.764   3.860  17.333 -0.7676 -1.8214 -1.2453
 5764SOL     OW28753   1.895   1.874   5.277  0.2389 -0.6941 -0.0732
 5764SOL    HW128754   1.980   1.832   5.289 -0.7860 -2.7233  0.1703
 5764SOL    HW228755   1.834   1.800   5.272 -1.1314  0.4707 -0.6659
 5765SOL     OW28756   2.273   3.873   1.211  0.8263 -0.1652  0.4711
 5765SOL    HW128757   2.192   3.901   1.167 -0.0128 -0.9679  1.5003
 5765SOL    HW228758   2.338   3.919   1.159 -0.4541 -0.5789 -1.4841
 5766SOL     OW28759   0.991   0.774  14.741  0.1457 -0.3348 -0.0192
 5766SOL    HW128760   1.056   0.743  14.678  0.3111  1.7907 -0.8710
 5766SOL    HW228761   0.925   0.822  14.692  1.0783 -0.0778 -1.0249
 5767SOL     OW28762   2.554   0.821   4.787 -0.3531  0.2292 -0.8835
 5767SOL    HW128763   2.649   0.809   4.787 -0.0756  2.3324  3.2180
 5767SOL    HW228764   2.543   0.839   4.693 -0.5738 -1.1094 -1.1046
 5768SOL     OW28765   1.020   3.121  12.141 -0.3134  0.4343  0.1667
 5768SOL    HW128766   1.110   3.153  12.141  0.6975 -2.3220 -0.1741
 5768SOL    HW228767   0.985   3.133  12.229  0.8898  0.6604  0.6121
 5769SOL     OW28768   4.217   3.686   2.732  0.1139 -1.0313  0.2753
 5769SOL    HW128769   4.157   3.756   2.708  1.5433 -0.5925 -2.0815
 5769SOL    HW228770   4.271   3.678   2.653 -1.0304 -0.8991 -0.5171
 5770SOL     OW28771   3.116   4.099   5.205 -0.2289 -0.3206 -0.4367
 5770SOL    HW128772   3.130   4.073   5.114  2.7575 -0.5068  0.1090
 5770SOL    HW228773   3.105   4.009   5.235  0.5500 -0.5723 -0.9367
 5771SOL     OW28774   0.180   1.625   2.318 -0.1334  0.0022  0.0962
 5771SOL    HW128775   0.087   1.639   2.340  0.2795  3.0104 -0.1005
 5771SOL    HW228776   0.206   1.717   2.320 -3.8243  1.0256  0.9463
 5772SOL     OW28777   1.561   4.370  11.867  0.2038 -0.3198 -0.7676
 5772SOL    HW128778   1.594   4.450  11.908 -2.4344 -0.3826  1.4658
 5772SOL    HW228779   1.473   4.401  11.849 -0.3172 -0.9360  0.7342
 5773SOL     OW28780   4.195   0.535   7.641  0.4124 -0.0010  0.2241
 5773SOL    HW128781   4.184   0.478   7.565 -0.0643  0.9219 -0.4115
 5773SOL    HW228782   4.120   0.595   7.633  1.0059  0.6462 -0.4967
 5774SOL     OW28783   4.297   2.305   5.801 -0.3402 -0.2934  0.1789
 5774SOL    HW128784   4.347   2.364   5.857 -0.7021  0.5525 -0.4051
 5774SOL    HW228785   4.237   2.368   5.762 -0.0998 -0.4980 -0.5183
 5775SOL     OW28786   4.529   2.497  17.107 -0.3586  0.5172  0.0730
 5775SOL    HW128787   4.526   2.409  17.144 -0.5306  0.9258  1.0293
 5775SOL    HW228788   4.437   2.505  17.081 -0.6208  2.4975  1.6306
 5776SOL     OW28789   2.149   4.362   4.165 -0.8777 -0.6662 -0.0237
 5776SOL    HW128790   2.193   4.280   4.143 -0.7262 -0.9374  1.2911
 5776SOL    HW228791   2.156   4.345   4.259 -2.3982  3.1037  0.7730
 5777SOL     OW28792   0.023   1.668   3.793  0.3016  0.0059 -0.3137
 5777SOL    HW128793   0.050   1.702   3.878 -0.7159 -1.3897  0.5740
 5777SOL    HW228794   0.097   1.611   3.770  0.5861 -0.0053  0.6370
 5778SOL     OW28795   1.763   3.730   6.835 -0.1469 -0.2213  0.0141
 5778SOL    HW128796   1.803   3.728   6.749  1.7309 -1.6298  0.9239
 5778SOL    HW228797   1.779   3.638   6.854 -1.1236 -0.3584  0.2034
 5779SOL     OW28798   3.191   0.513   0.064 -0.6521  0.4142  0.4613
 5779SOL    HW128799   3.108   0.556   0.083 -1.7738 -2.3825  1.7983
 5779SOL    HW228800   3.233   0.513   0.150  3.2122  0.8043 -1.3914
 5780SOL     OW28801   2.009   2.855   8.874  0.4374  0.7725  0.0614
 5780SOL    HW128802   2.009   2.788   8.806  0.2295  0.5858  0.2491
 5780SOL    HW228803   2.065   2.919   8.830  0.9542  0.8689  0.8596
 5781SOL     OW28804   4.559   0.149   1.572  0.6287  0.1960 -0.2029
 5781SOL    HW128805   4.626   0.179   1.633  1.1701  1.8915 -1.6538
 5781SOL    HW228806   4.515   0.231   1.552  1.3428  0.8336  0.9103
 5782SOL     OW28807   1.545   2.896   9.733 -0.0434  0.1842 -0.8795
 5782SOL    HW128808   1.630   2.926   9.764  0.2759  0.0460 -1.6186
 5782SOL    HW228809   1.576   2.878   9.644 -1.6502  1.1272 -1.6277
 5783SOL     OW28810   0.166   0.279  17.227  0.0872  0.0989 -0.0385
 5783SOL    HW128811   0.135   0.295  17.137 -1.1441 -1.7871  0.0551
 5783SOL    HW228812   0.259   0.260  17.214  0.1112  0.4670 -0.4010
 5784SOL     OW28813   4.334   4.127   8.493 -0.1658 -0.8979  0.2022
 5784SOL    HW128814   4.294   4.214   8.501  1.4215 -0.4507  3.6169
 5784SOL    HW228815   4.320   4.097   8.583  1.3780  0.7592  1.0077
 5785SOL     OW28816   1.830   0.543   7.074 -0.0068 -1.0548  0.3855
 5785SOL    HW128817   1.832   0.613   7.139  1.3896 -0.9505  0.2183
 5785SOL    HW228818   1.837   0.595   6.993  1.6372 -0.0283  1.1922
 5786SOL     OW28819   0.850   0.349  12.778 -1.6617 -0.4167  0.3472
 5786SOL    HW128820   0.827   0.441  12.763 -0.0278 -0.3995 -2.0582
 5786SOL    HW228821   0.899   0.327  12.699 -1.3264  1.2718  0.0963
 5787SOL     OW28822   2.507   3.783   7.480 -0.4158 -0.3631  0.2131
 5787SOL    HW128823   2.452   3.724   7.532 -1.8452  0.4908 -0.3534
 5787SOL    HW228824   2.495   3.744   7.393 -0.8220 -1.4785  0.7629
 5788SOL     OW28825   1.648   2.302   5.511 -0.0401 -0.5242 -0.1522
 5788SOL    HW128826   1.577   2.337   5.565  0.0168 -3.1973  1.6861
 5788SOL    HW228827   1.708   2.271   5.579  1.4991 -0.8740 -1.6751
 5789SOL     OW28828   4.233   3.321   1.629 -0.1412 -0.2470  0.7057
 5789SOL    HW128829   4.199   3.374   1.701  0.0051  2.1566 -0.9797
 5789SOL    HW228830   4.221   3.234   1.666 -0.5507 -0.2817  0.4941
 5790SOL     OW28831   1.537   0.896   1.185  0.0946  0.3145  0.1256
 5790SOL    HW128832   1.488   0.827   1.139 -0.1936  0.5037  0.1503
 5790SOL    HW228833   1.539   0.853   1.271 -0.1537  0.0759  0.0132
 5791SOL     OW28834   3.848   0.000  12.714 -0.1632  0.5523 -0.0807
 5791SOL    HW128835   3.753   4.720  12.722 -0.1616  0.8356  0.0640
 5791SOL    HW228836   3.871   4.649  12.658 -1.7326  0.5761 -0.7564
 5792SOL     OW28837   0.029   3.995   3.956 -0.0163 -0.0644 -0.0906
 5792SOL    HW128838   0.020   3.944   4.036  2.7179  0.5077  0.5969
 5792SOL    HW228839   4.707   4.077   3.972 -1.7138 -0.5378 -2.4178
 5793SOL     OW28840   0.704   2.300   5.666  0.5372 -0.2823  0.0163
 5793SOL    HW128841   0.724   2.233   5.732 -0.9085 -1.3946 -0.6816
 5793SOL    HW228842   0.748   2.381   5.692  1.5252 -0.3186 -1.5237
 5794SOL     OW28843   3.599   0.107  14.442  0.2488  0.3831  0.0493
 5794SOL    HW128844   3.587   0.146  14.529  0.6861 -4.0862  2.0891
 5794SOL    HW228845   3.644   0.182  14.403  0.2775 -1.4742 -3.4101
 5795SOL     OW28846   0.102   0.414  14.856 -0.6678  0.3916  0.2681
 5795SOL    HW128847   0.121   0.406  14.762  0.1256  1.7561  0.3254
 5795SOL    HW228848   0.061   0.329  14.872  0.6169  0.1514  2.2532
 5796SOL     OW28849   1.945   2.323   9.027  0.7578  0.2907 -0.0025
 5796SOL    HW128850   1.893   2.384   8.974 -0.1424  1.1501  1.8603
 5796SOL    HW228851   2.020   2.361   9.072  1.6375 -1.5648  0.1077
 5797SOL     OW28852   2.228   3.763   3.999 -0.0118 -0.2794 -0.5926
 5797SOL    HW128853   2.220   3.740   3.906 -0.2127 -1.6890 -0.2252
 5797SOL    HW228854   2.171   3.699   4.041 -1.1071  1.4780  0.6393
 5798SOL     OW28855   2.445   0.191   8.318 -0.1282 -0.4682  0.0453
 5798SOL    HW128856   2.519   0.240   8.281  0.1519  0.8979  2.3917
 5798SOL    HW228857   2.392   0.189   8.239 -1.8487 -0.9253  1.2107
 5799SOL     OW28858   3.059   0.840   5.733  0.3350  0.3508  0.6833
 5799SOL    HW128859   3.073   0.777   5.663  2.1913  3.4513 -1.7700
 5799SOL    HW228860   3.083   0.920   5.687  2.8142 -0.3490  0.7445
 5800SOL     OW28861   3.834   4.580   9.583  0.2263 -0.3934 -0.5907
 5800SOL    HW128862   3.776   4.560   9.657  0.2620 -0.2009 -0.5100
 5800SOL    HW228863   3.887   4.656   9.609 -2.1250  1.5637 -1.5355
 5801SOL     OW28864   0.841   0.737  15.809  0.2009  0.4811  0.0227
 5801SOL    HW128865   0.780   0.671  15.843 -0.5062  0.5042 -1.1937
 5801SOL    HW228866   0.785   0.796  15.758 -2.7071 -0.6061  1.9367
 5802SOL     OW28867   3.656   0.114   6.159 -0.1327 -0.1926  0.4891
 5802SOL    HW128868   3.679   0.136   6.249 -0.4555  1.0028  0.2778
 5802SOL    HW228869   3.742   0.107   6.118 -0.4415 -1.1596  0.0110
 5803SOL     OW28870   0.669   0.085   9.184  0.5360  0.0696 -0.4281
 5803SOL    HW128871   0.720   0.146   9.237 -0.2858 -0.7440  1.2986
 5803SOL    HW228872   0.679   0.008   9.240 -0.8395  2.2880  2.8894
 5804SOL     OW28873   2.420   2.179   4.522  0.7536 -0.0023 -0.4910
 5804SOL    HW128874   2.327   2.187   4.547  0.1235 -1.6058 -2.2900
 5804SOL    HW228875   2.459   2.266   4.515  0.1889  0.1243 -2.0962
 5805SOL     OW28876   0.570   0.929   5.150  0.4898 -0.0240 -0.3455
 5805SOL    HW128877   0.659   0.954   5.126 -0.8372  3.0002 -2.1526
 5805SOL    HW228878   0.560   0.834   5.145  0.4810 -0.0117 -0.5422
 5806SOL     OW28879   1.953   3.409  10.388  0.9234 -0.4720 -0.3483
 5806SOL    HW128880   1.958   3.360  10.469  0.0200  0.6618  0.3940
 5806SOL    HW228881   1.982   3.493  10.423  2.5220 -1.3597  0.4390
 5807SOL     OW28882   2.304   2.942   1.223 -0.0032  0.1357  0.3494
 5807SOL    HW128883   2.334   3.033   1.219 -1.2316  0.5655  1.0767
 5807SOL    HW228884   2.289   2.924   1.315  0.1392  2.0971  0.7545
 5808SOL     OW28885   0.587   0.479   8.632 -0.9132 -0.4750  0.6520
 5808SOL    HW128886   0.569   0.511   8.720 -1.1264  1.8700 -0.2401
 5808SOL    HW228887   0.588   0.385   8.647  0.5509 -0.6439 -0.5218
 5809SOL     OW28888   3.505   0.199  13.046  0.0120  0.8607 -0.2692
 5809SOL    HW128889   3.423   0.155  13.070  0.9798 -1.0394 -0.4624
 5809SOL    HW228890   3.563   0.126  13.028  0.3460  0.8814  0.7241
 5810SOL     OW28891   4.148   4.439   8.307  0.1956 -0.3909  0.1469
 5810SOL    HW128892   4.195   4.417   8.388 -0.8811 -0.4722  0.7498
 5810SOL    HW228893   4.098   4.517   8.330 -4.7784 -3.1740 -1.1485
 5811SOL     OW28894   0.467   1.443   6.746 -0.0377  0.0170 -0.8824
 5811SOL    HW128895   0.555   1.460   6.711  0.4711 -3.5370 -1.3585
 5811SOL    HW228896   0.464   1.500   6.822 -2.5116 -1.7693  0.3569
 5812SOL     OW28897   3.477   2.978   5.612  0.4753 -0.1636  0.0898
 5812SOL    HW128898   3.396   2.926   5.610 -0.1858  0.8583  0.2154
 5812SOL    HW228899   3.463   3.047   5.547 -0.3690 -0.4355 -0.0232
 5813SOL     OW28900   0.788   0.827   7.548 -0.0864  0.6177  0.2887
 5813SOL    HW128901   0.706   0.837   7.597 -0.3227 -0.2328  0.0646
 5813SOL    HW228902   0.846   0.792   7.615 -0.3383 -2.0632 -0.9099
 5814SOL     OW28903   1.541   2.117   5.192 -0.1349  0.3129  0.3570
 5814SOL    HW128904   1.531   2.101   5.098 -0.1061 -1.9478  0.7587
 5814SOL    HW228905   1.564   2.028   5.217  0.1397  0.2839 -0.0010
 5815SOL     OW28906   2.647   3.643   1.329 -0.3642  0.1158 -0.4114
 5815SOL    HW128907   2.667   3.714   1.268  1.7907  0.7616  1.0422
 5815SOL    HW228908   2.730   3.596   1.339  0.8175  2.4869  0.9509
 5816SOL     OW28909   2.254   3.241   7.234 -0.6517 -0.3340  0.0790
 5816SOL    HW128910   2.293   3.318   7.277 -0.6770 -0.1553 -0.2172
 5816SOL    HW228911   2.296   3.238   7.148  0.6219 -0.4711  0.7089
 5817SOL     OW28912   1.877   3.405  13.691  0.1532 -0.0858 -0.2681
 5817SOL    HW128913   1.891   3.429  13.782 -1.8604 -1.2496  0.3403
 5817SOL    HW228914   1.947   3.458  13.652  1.9478 -1.5213  1.0384
 5818SOL     OW28915   1.473   4.497   2.057  0.0160 -0.0802  0.0207
 5818SOL    HW128916   1.387   4.460   2.078  0.5721 -0.9899  0.7328
 5818SOL    HW228917   1.488   4.452   1.974 -0.9434 -1.2635  0.4809
 5819SOL     OW28918   1.367   4.208  11.631  0.2976  0.1562  0.4384
 5819SOL    HW128919   1.277   4.210  11.665  0.4253 -0.9991  0.8520
 5819SOL    HW228920   1.398   4.299  11.639  2.6573 -0.5586 -0.5943
 5820SOL     OW28921   2.533   3.409  12.243 -1.1257 -0.0945  0.1855
 5820SOL    HW128922   2.536   3.462  12.164 -1.8950  4.3439  3.1215
 5820SOL    HW228923   2.605   3.349  12.224  0.1957  1.7726 -0.7300
 5821SOL     OW28924   4.091   2.193  15.035  0.1670 -0.2993 -0.1583
 5821SOL    HW128925   4.142   2.157  14.963 -0.5044 -0.4213 -0.5682
 5821SOL    HW228926   4.154   2.258  15.066 -0.6091  0.4944 -0.2378
 5822SOL     OW28927   0.602   1.152   3.095  0.2063 -0.1065 -0.2025
 5822SOL    HW128928   0.627   1.232   3.048 -0.2269 -1.2829 -2.4581
 5822SOL    HW228929   0.655   1.085   3.052 -1.4532 -0.9483 -0.9018
 5823SOL     OW28930   4.100   3.938   0.462 -0.4164 -0.1671  0.2923
 5823SOL    HW128931   4.118   3.884   0.539  3.1948  0.7964  0.0822
 5823SOL    HW228932   4.081   4.027   0.492 -2.4017  0.1212 -1.8023
 5824SOL     OW28933   4.458   0.756  14.754  0.5014  0.0486  0.4458
 5824SOL    HW128934   4.501   0.701  14.819 -0.3600 -1.1904 -0.0479
 5824SOL    HW228935   4.365   0.737  14.764  0.8248 -0.7217  1.9501
 5825SOL     OW28936   0.867   1.873   5.805  0.2388 -0.0939  0.4263
 5825SOL    HW128937   0.911   1.944   5.759  0.1133 -0.3094 -0.0281
 5825SOL    HW228938   0.906   1.793   5.770  2.0765 -0.3508  3.0385
 5826SOL     OW28939   3.254   1.611   0.310  0.0141  0.2802 -0.1479
 5826SOL    HW128940   3.278   1.523   0.340 -1.5793  0.8190  2.7960
 5826SOL    HW228941   3.286   1.601   0.221 -1.4180  0.2658 -0.6708
 5827SOL     OW28942   2.131   1.346   1.021  0.2138  0.3129 -0.2103
 5827SOL    HW128943   2.086   1.264   1.038 -0.4752  0.5809 -0.6992
 5827SOL    HW228944   2.225   1.333   1.026 -0.1940 -2.2910  0.2316
 5828SOL     OW28945   1.352   3.781   8.066 -0.3754  0.6048 -0.4495
 5828SOL    HW128946   1.281   3.844   8.077 -1.4961 -0.8376  0.7625
 5828SOL    HW228947   1.399   3.831   8.000  2.0270 -0.4270  0.5020
 5829SOL     OW28948   4.091   0.991   7.326 -0.4351 -0.2056 -0.3231
 5829SOL    HW128949   4.184   0.970   7.317 -0.0885  1.8951 -1.6414
 5829SOL    HW228950   4.095   1.080   7.362 -0.9378 -0.1996 -0.2796
 5830SOL     OW28951   3.578   1.189   8.336 -0.0546  0.1925  0.4653
 5830SOL    HW128952   3.504   1.133   8.313 -0.7011  1.4213 -0.3818
 5830SOL    HW228953   3.571   1.190   8.432  0.8835  0.4092  0.5313
 5831SOL     OW28954   3.438   2.844   6.081 -0.2114  0.5519 -0.1308
 5831SOL    HW128955   3.392   2.905   6.138 -0.8346 -0.1853  0.1498
 5831SOL    HW228956   3.373   2.836   6.011 -0.1125  1.9006 -0.3691
 5832SOL     OW28957   2.519   4.523   3.942 -0.3589  0.4787  0.6301
 5832SOL    HW128958   2.573   4.460   3.990  0.0488  0.4725  0.1620
 5832SOL    HW228959   2.591   4.575   3.908  2.4083 -2.8750  1.3947
 5833SOL     OW28960   1.564   0.465   5.500  0.5896  0.2595 -0.1139
 5833SOL    HW128961   1.637   0.513   5.462  1.2295 -0.0122  0.7660
 5833SOL    HW228962   1.607   0.380   5.510  0.1323 -0.2151 -2.2444
 5834SOL     OW28963   3.662   4.497   2.527 -0.6214  0.2016  0.0211
 5834SOL    HW128964   3.627   4.555   2.460  0.2468  1.1445  0.3833
 5834SOL    HW228965   3.598   4.488   2.598 -1.1644  2.2584 -0.2087
 5835SOL     OW28966   2.900   1.497   8.148 -0.4853 -0.5247 -0.8615
 5835SOL    HW128967   2.995   1.488   8.156 -0.3354 -0.3368 -2.3687
 5835SOL    HW228968   2.887   1.514   8.054 -0.0078  2.2662 -0.3977
 5836SOL     OW28969   3.107   1.261   4.864 -0.1108 -0.2797  0.4611
 5836SOL    HW128970   3.078   1.297   4.780 -0.9877  0.1091  0.9307
 5836SOL    HW228971   3.181   1.211   4.830 -0.2583  0.9317 -1.6394
 5837SOL     OW28972   1.835   0.268   2.091 -0.4704 -0.1360  0.5038
 5837SOL    HW128973   1.856   0.237   2.179  1.9147  1.4490  0.4857
 5837SOL    HW228974   1.892   0.214   2.036 -0.7545  0.0996 -0.0213
 5838SOL     OW28975   3.960   1.062   5.741 -0.0852  0.6858  0.3172
 5838SOL    HW128976   4.038   1.052   5.795 -1.7594 -1.7175  2.3032
 5838SOL    HW228977   3.908   0.998   5.790  2.3365 -0.4055  1.4637
 5839SOL     OW28978   0.955   3.861   7.454  0.0862 -0.0193 -0.3140
 5839SOL    HW128979   0.973   3.955   7.462  0.5954 -0.1413 -0.0015
 5839SOL    HW228980   1.044   3.825   7.454  0.5681  1.1472 -0.1089
 5840SOL     OW28981   1.049   2.702   8.281  0.2016 -0.6547 -0.3340
 5840SOL    HW128982   1.020   2.612   8.267  0.2796 -0.8515  0.7027
 5840SOL    HW228983   1.142   2.697   8.304  0.2296 -0.9078 -0.5053
 5841SOL     OW28984   1.184   3.603   6.146 -0.5266  0.2235  0.5180
 5841SOL    HW128985   1.191   3.684   6.197  0.7066  0.5257 -0.1283
 5841SOL    HW228986   1.141   3.539   6.203 -0.6602  0.2585  0.4587
 5842SOL     OW28987   0.020   1.148  16.935 -0.6218  0.0001 -0.7572
 5842SOL    HW128988   0.032   1.213  17.004  1.4085 -1.5014  0.3048
 5842SOL    HW228989   4.659   1.106  16.954 -0.9113  1.4483  1.2031
 5843SOL     OW28990   0.327   1.919  15.933  0.0958  0.3493 -0.6700
 5843SOL    HW128991   0.247   1.876  15.963  1.1292 -1.3747 -0.4108
 5843SOL    HW228992   0.319   1.889  15.842  1.7868 -0.7379 -0.4674
 5844SOL     OW28993   4.355   2.109   3.271  0.2030 -0.9380  0.4195
 5844SOL    HW128994   4.297   2.071   3.336 -0.9548  0.4731  0.2147
 5844SOL    HW228995   4.354   2.053   3.193 -1.2686  1.5444 -1.3505
 5845SOL     OW28996   4.592   0.698   5.947 -0.2432  0.3427  0.3197
 5845SOL    HW128997   4.551   0.621   5.907 -2.0224  0.2212  2.4336
 5845SOL    HW228998   4.671   0.650   5.973 -0.6959 -0.1923  0.6804
 5846SOL     OW28999   2.396   1.706  10.435  0.2849 -0.2521  0.4315
 5846SOL    HW129000   2.392   1.654  10.516  0.3505 -0.5842  0.2246
 5846SOL    HW229001   2.407   1.638  10.368  0.6010  0.7533 -0.5250
 5847SOL     OW29002   0.377   2.509  13.568  0.9618  0.4012 -0.9049
 5847SOL    HW129003   0.309   2.469  13.514  0.7053  0.4594 -0.6279
 5847SOL    HW229004   0.395   2.445  13.637  1.0580  0.0340 -1.2647
 5848SOL     OW29005   4.614   0.592  14.921  0.3845  0.6700  0.4050
 5848SOL    HW129006   4.610   0.607  15.016  0.8797 -0.4539  0.6042
 5848SOL    HW229007   4.678   0.521  14.922 -0.3924 -0.0446 -0.6576
 5849SOL     OW29008   3.247   1.637   1.779 -0.2083 -0.0347  0.1603
 5849SOL    HW129009   3.286   1.709   1.729 -1.0653 -0.2922 -0.8572
 5849SOL    HW229010   3.327   1.588   1.797  0.2363 -0.1768 -2.1845
 5850SOL     OW29011   3.066   3.601   4.000  0.2439 -0.3363  0.0600
 5850SOL    HW129012   3.065   3.649   4.083  0.6877  3.6020 -2.2614
 5850SOL    HW229013   3.119   3.661   3.948  1.5426 -0.9993  0.5930
 5851SOL     OW29014   2.780   2.977   5.347 -0.1329 -0.3100 -0.0008
 5851SOL    HW129015   2.713   3.019   5.292  2.1545  1.1768 -1.6477
 5851SOL    HW229016   2.729   2.937   5.418  1.6512  1.0442  2.0686
 5852SOL     OW29017   1.877   4.359   1.896  0.7383 -0.2329  0.4352
 5852SOL    HW129018   1.969   4.383   1.911  1.4710 -3.1966  0.5775
 5852SOL    HW229019   1.875   4.331   1.805 -1.9396 -0.8842  0.6953
 5853SOL     OW29020   3.794   2.618   6.229  0.1121  0.1455 -0.5429
 5853SOL    HW129021   3.713   2.608   6.180 -0.4644 -1.0924  0.6508
 5853SOL    HW229022   3.757   2.685   6.287 -0.6292 -1.7207  1.1482
 5854SOL     OW29023   1.849   0.955   7.478  0.4482  0.3073  0.1872
 5854SOL    HW129024   1.756   0.973   7.491  0.2942 -1.7714  2.0003
 5854SOL    HW229025   1.863   0.939   7.572  2.7012 -0.1277 -0.2185
 5855SOL     OW29026   3.283   1.770  14.342 -0.5890  0.7017  0.5836
 5855SOL    HW129027   3.309   1.702  14.279  1.3706  3.4691 -1.5417
 5855SOL    HW229028   3.229   1.830  14.289 -0.9680  0.9557  1.2617
 5856SOL     OW29029   2.167   3.648   8.311 -0.7354  0.2172 -0.2964
 5856SOL    HW129030   2.260   3.636   8.332 -0.8728 -0.6520 -0.2078
 5856SOL    HW229031   2.163   3.649   8.215 -1.0453  2.1773 -0.2653
 5857SOL     OW29032   2.241   2.734   6.656 -0.4901 -0.2797  0.3422
 5857SOL    HW129033   2.253   2.726   6.751 -0.0186 -0.9753  0.2225
 5857SOL    HW229034   2.323   2.772   6.625 -0.7624  1.1885  1.4042
 5858SOL     OW29035   2.994   1.319   2.106  0.2449  0.1389 -0.4865
 5858SOL    HW129036   2.973   1.288   2.018  3.5313 -2.6985 -0.2668
 5858SOL    HW229037   3.025   1.239   2.148 -2.2296  0.8508  2.6764
 5859SOL     OW29038   1.323   4.322   4.934  0.0918 -0.2389 -0.4664
 5859SOL    HW129039   1.361   4.235   4.941 -0.4416 -0.3347  1.1186
 5859SOL    HW229040   1.246   4.314   4.990  0.8841 -0.9554  0.5258
 5860SOL     OW29041   3.376   4.344   4.370 -0.3912  0.7505  0.3126
 5860SOL    HW129042   3.413   4.429   4.392  2.5128 -0.6364  0.7516
 5860SOL    HW229043   3.411   4.335   4.281 -0.8407  1.1510  0.0927
 5861SOL     OW29044   2.276   1.637  16.917 -0.2979  0.0578 -0.0831
 5861SOL    HW129045   2.219   1.587  16.976  0.7861  2.0322  2.6034
 5861SOL    HW229046   2.232   1.608  16.837  1.5927 -0.2003 -1.0257
 5862SOL     OW29047   0.315   3.115   6.161  0.4486  0.2921 -0.5172
 5862SOL    HW129048   0.346   3.035   6.118  1.3292 -0.2316  1.0814
 5862SOL    HW229049   0.394   3.168   6.160  2.2378 -2.3739 -0.8917
 5863SOL     OW29050   2.426   1.500   6.201 -0.2417 -0.0517 -0.0294
 5863SOL    HW129051   2.379   1.569   6.247 -0.7760  0.9910 -2.1346
 5863SOL    HW229052   2.414   1.425   6.259 -0.6667  0.7050  0.8458
 5864SOL     OW29053   0.752   1.010   8.784  0.4221 -0.3430 -0.1701
 5864SOL    HW129054   0.810   1.049   8.719  2.3941  0.7783  2.2847
 5864SOL    HW229055   0.761   0.916   8.773  0.4163 -0.0264 -2.8521
 5865SOL     OW29056   1.523   0.961   8.421  0.0188 -0.4427 -0.4543
 5865SOL    HW129057   1.457   1.021   8.457 -0.4453 -2.7030  2.4335
 5865SOL    HW229058   1.513   0.881   8.472 -0.2921 -0.2553 -0.2230
 5866SOL     OW29059   4.595   3.890   3.038 -0.0726  0.1109  0.2200
 5866SOL    HW129060   4.661   3.926   3.097 -0.4347  0.7617  0.2229
 5866SOL    HW229061   4.570   3.807   3.079  1.7098 -0.5209  0.0220
 5867SOL     OW29062   1.640   4.227   2.621 -0.0667 -0.0421  0.0181
 5867SOL    HW129063   1.649   4.302   2.561  0.9468 -0.7033 -0.6521
 5867SOL    HW229064   1.679   4.262   2.701 -1.1607 -0.3363  0.6847
 5868SOL     OW29065   0.770   2.458   9.229 -0.4343  0.3626  0.6789
 5868SOL    HW129066   0.825   2.533   9.248  1.7282 -0.9430 -0.3413
 5868SOL    HW229067   0.702   2.470   9.295  1.3983  0.1056  2.5878
 5869SOL     OW29068   2.562   0.476   3.747  0.3967 -0.6172  0.0187
 5869SOL    HW129069   2.506   0.542   3.788 -0.1617 -0.3700 -1.1403
 5869SOL    HW229070   2.508   0.397   3.746  2.2980 -1.9107 -0.2247
 5870SOL     OW29071   2.685   1.197  15.816  0.2802  0.4853 -0.0305
 5870SOL    HW129072   2.709   1.205  15.724  0.4547  0.1852 -0.0133
 5870SOL    HW229073   2.651   1.282  15.843  1.1752  0.1783  2.1165
 5871SOL     OW29074   0.737   0.324  16.753  0.3900  0.3089  0.0955
 5871SOL    HW129075   0.785   0.407  16.750  1.6259 -0.3909  0.1214
 5871SOL    HW229076   0.799   0.267  16.708  1.2708  0.9867  0.4449
 5872SOL     OW29077   4.285   0.527  12.996 -0.1016 -0.3832  0.3742
 5872SOL    HW129078   4.219   0.478  12.947 -1.2624  2.3921 -0.8368
 5872SOL    HW229079   4.340   0.461  13.038  1.0477  0.6690  0.5197
 5873SOL     OW29080   4.306   1.554   9.708  0.2674  0.0463 -0.2130
 5873SOL    HW129081   4.333   1.645   9.707 -1.4345  0.5327 -0.9742
 5873SOL    HW229082   4.228   1.570   9.655 -0.7696 -0.7632  1.0887
 5874SOL     OW29083   3.442   0.196   5.427  0.1895  0.3935 -0.0999
 5874SOL    HW129084   3.493   0.123   5.393 -0.3241  0.0144 -0.0613
 5874SOL    HW229085   3.482   0.271   5.382 -3.0198  1.4986 -1.1374
 5875SOL     OW29086   0.692   4.370   9.013  0.9434 -0.2742 -0.5716
 5875SOL    HW129087   0.774   4.348   9.059  1.1517 -0.6617 -1.1192
 5875SOL    HW229088   0.653   4.282   9.010  0.7522 -0.2100  0.0562
 5876SOL     OW29089   0.239   0.189   4.612  0.0509  0.6760  0.6811
 5876SOL    HW129090   0.185   0.110   4.608  0.7311  0.2425 -0.0203
 5876SOL    HW229091   0.193   0.232   4.683  3.3486  0.6474  2.8255
 5877SOL     OW29092   1.600   1.587   4.886 -0.3940  0.0713 -0.1193
 5877SOL    HW129093   1.673   1.541   4.844 -2.6028 -1.8802 -1.8585
 5877SOL    HW229094   1.641   1.672   4.900 -0.8421  0.0253  1.5620
 5878SOL     OW29095   3.808   4.378  17.398  0.5352 -0.1562 -0.5039
 5878SOL    HW129096   3.823   4.442  17.467  0.7660  0.9332 -1.5546
 5878SOL    HW229097   3.826   4.298  17.446 -1.0259  0.2369  0.7182
 5879SOL     OW29098   3.191   3.221   9.629  0.2020 -0.1492  0.4479
 5879SOL    HW129099   3.098   3.231   9.607  0.4816  3.2760  0.9385
 5879SOL    HW229100   3.195   3.128   9.605 -1.9055 -0.3325  0.7956
 5880SOL     OW29101   2.139   2.180   5.963 -0.0662  0.2936 -0.1240
 5880SOL    HW129102   2.069   2.115   5.973  0.1015  0.4963  2.1959
 5880SOL    HW229103   2.164   2.202   6.052 -2.0836  3.4388 -0.3275
 5881SOL     OW29104   3.880   3.700   5.077  0.2211 -0.1171  0.1845
 5881SOL    HW129105   3.854   3.610   5.097 -2.2762  0.8755  1.4579
 5881SOL    HW229106   3.864   3.738   5.162  1.5966  0.6217  0.1108
 5882SOL     OW29107   4.712   0.405   8.848 -0.3489 -0.0871 -0.6745
 5882SOL    HW129108   4.641   0.389   8.786 -0.8614 -1.5869  0.3134
 5882SOL    HW229109   4.682   0.339   8.910 -0.8840  1.9093  1.1835
 5883SOL     OW29110   0.923   0.800   5.290  0.2048  0.4562  0.1564
 5883SOL    HW129111   0.968   0.786   5.207 -1.1910  1.4428 -0.7720
 5883SOL    HW229112   0.889   0.887   5.269 -0.8540  0.0012 -0.0035
 5884SOL     OW29113   1.955   3.284   8.889 -0.2761 -0.2459 -0.7776
 5884SOL    HW129114   2.026   3.343   8.863 -1.7806  1.9324  0.0151
 5884SOL    HW229115   1.984   3.210   8.836  1.8927 -0.7899  1.1555
 5885SOL     OW29116   0.303   1.625   4.361 -0.1163  0.5894 -0.2076
 5885SOL    HW129117   0.338   1.556   4.417 -0.5209  1.8214  1.5838
 5885SOL    HW229118   0.232   1.665   4.412 -1.0072  0.0171 -1.0017
 5886SOL     OW29119   2.238   1.847   2.598 -0.0229  0.3799  0.4037
 5886SOL    HW129120   2.307   1.905   2.630  0.4856 -0.3313  0.5812
 5886SOL    HW229121   2.291   1.770   2.578 -0.5083  0.4024 -0.9969
 5887SOL     OW29122   1.722   2.820   7.023  0.6507 -0.2236 -0.3087
 5887SOL    HW129123   1.745   2.769   6.945 -1.5016 -0.0493 -1.0716
 5887SOL    HW229124   1.798   2.876   7.037  0.4806 -0.2242  0.6173
 5888SOL     OW29125   2.995   1.639   0.185  0.1220 -0.1120  0.3706
 5888SOL    HW129126   3.077   1.620   0.229 -0.1931 -2.2411  0.0822
 5888SOL    HW229127   3.019   1.720   0.140 -0.4579  0.6299  1.4140
 5889SOL     OW29128   2.524   2.137   1.914 -0.5217  0.3959 -0.8926
 5889SOL    HW129129   2.555   2.049   1.933 -0.2076  0.5445 -0.7163
 5889SOL    HW229130   2.571   2.160   1.834  2.9248  0.3061  1.0986
 5890SOL     OW29131   3.582   4.657   7.176 -0.0004  0.8447  0.2517
 5890SOL    HW129132   3.494   4.694   7.180 -0.7468 -0.7561 -1.3432
 5890SOL    HW229133   3.570   4.581   7.233  0.6500  1.8504  1.7079
 5891SOL     OW29134   2.074   0.914  13.337  0.1104  0.0940  0.2859
 5891SOL    HW129135   2.039   0.826  13.352 -0.9638  0.1402 -1.9427
 5891SOL    HW229136   2.109   0.902  13.249  1.6811 -2.6178  1.2611
 5892SOL     OW29137   3.894   0.680  16.084 -0.2184  0.5339  0.4202
 5892SOL    HW129138   3.937   0.624  16.147  1.0298 -2.0672 -2.7332
 5892SOL    HW229139   3.832   0.731  16.137 -0.4019  1.3602 -0.5831
 5893SOL     OW29140   0.207   3.375   4.030  0.1997  0.3107 -0.2035
 5893SOL    HW129141   0.279   3.417   3.983  2.1607 -1.8504  0.8646
 5893SOL    HW229142   0.157   3.451   4.058  0.2091  0.7447 -1.3695
 5894SOL     OW29143   1.856   1.911  14.199  0.3746  0.3304 -0.4650
 5894SOL    HW129144   1.924   1.935  14.135 -0.0460 -0.6711 -1.2904
 5894SOL    HW229145   1.822   1.829  14.164 -0.0008  1.8335 -3.6525
 5895SOL     OW29146   2.323   1.245   3.885 -0.0352  0.8779 -0.4066
 5895SOL    HW129147   2.331   1.339   3.900 -0.5856  0.5920  1.7620
 5895SOL    HW229148   2.409   1.231   3.924 -1.2020  0.3797  2.0012
 5896SOL     OW29149   3.594   4.041   0.170 -0.5465 -0.0173 -0.6357
 5896SOL    HW129150   3.653   4.091   0.226 -0.9078 -1.2173  0.8242
 5896SOL    HW229151   3.582   4.107   0.102  0.4730 -1.2165 -1.9923
 5897SOL     OW29152   2.900   1.861   3.310  0.2326  0.1234  0.6689
 5897SOL    HW129153   2.995   1.854   3.322  0.2334 -3.7062 -1.7346
 5897SOL    HW229154   2.899   1.790   3.247 -0.8727  1.1056 -0.4329
 5898SOL     OW29155   3.241   4.212  12.761 -0.6602 -0.0488 -0.1135
 5898SOL    HW129156   3.313   4.149  12.762  0.4229  1.2638  2.7309
 5898SOL    HW229157   3.266   4.272  12.691  4.1102  1.5159  2.9398
 5899SOL     OW29158   1.096   0.245   7.702  0.5806 -0.0798  0.4290
 5899SOL    HW129159   1.071   0.293   7.623  0.0332  0.7525  1.1075
 5899SOL    HW229160   1.048   0.162   7.695 -0.8438  0.9818 -2.2785
 5900SOL     OW29161   1.078   1.874   6.110  0.3226  0.5935 -0.2158
 5900SOL    HW129162   1.005   1.907   6.057  0.4066  0.4363 -0.4294
 5900SOL    HW229163   1.019   1.842   6.179  1.1045  1.1944  0.7381
 5901SOL     OW29164   2.857   1.653  10.465  0.3013 -0.1724  0.0243
 5901SOL    HW129165   2.857   1.693  10.551 -2.1236 -1.8640  0.7975
 5901SOL    HW229166   2.918   1.714  10.423 -2.5406  2.6318 -0.0375
 5902SOL     OW29167   3.300   2.636   6.198 -0.1976 -0.3523 -0.0698
 5902SOL    HW129168   3.338   2.571   6.257  1.8111  0.4298 -0.5321
 5902SOL    HW229169   3.375   2.690   6.174 -0.5505  0.1726 -0.0155
 5903SOL     OW29170   1.901   0.709   8.097 -0.1981 -0.5531 -0.1465
 5903SOL    HW129171   1.928   0.617   8.097 -0.8209 -0.7249  0.8369
 5903SOL    HW229172   1.858   0.722   8.181 -0.8038 -2.2095 -0.1983
 5904SOL     OW29173   2.081   2.772   6.434  0.0605  0.0695  0.1318
 5904SOL    HW129174   2.106   2.714   6.506  0.8104 -0.9188 -0.9221
 5904SOL    HW229175   2.148   2.741   6.373  0.6372 -0.7601  1.1637
 5905SOL     OW29176   0.614   1.235  11.517 -0.4307  0.4000 -0.2159
 5905SOL    HW129177   0.659   1.225  11.433  0.4652  1.9648  0.0732
 5905SOL    HW229178   0.689   1.249  11.574  1.2029 -0.6226 -2.1218
 5906SOL     OW29179   3.240   1.204  11.358  0.0499 -0.1091 -0.2755
 5906SOL    HW129180   3.175   1.206  11.428 -0.3005 -2.4090 -0.5609
 5906SOL    HW229181   3.319   1.227  11.407  0.4440 -1.7411 -0.1384
 5907SOL     OW29182   2.099   4.421   4.686  0.1539  0.6147  0.2114
 5907SOL    HW129183   2.018   4.398   4.731  1.1609  1.6280  2.5447
 5907SOL    HW229184   2.098   4.363   4.610 -1.4616 -0.5811  1.1249
 5908SOL     OW29185   4.649   1.677   6.649 -0.6569  0.1858  0.4387
 5908SOL    HW129186   0.005   1.713   6.609 -2.0375  1.7597 -0.9231
 5908SOL    HW229187   4.662   1.699   6.741 -0.7035 -0.2870  0.5561
 5909SOL     OW29188   1.882   0.685   2.389  0.7525  0.4164 -0.3218
 5909SOL    HW129189   1.870   0.779   2.402  1.1023  0.3566  0.4485
 5909SOL    HW229190   1.800   0.651   2.354 -0.4484  0.0864  2.8670
 5910SOL     OW29191   1.461   0.687   1.627 -0.3585 -0.0615  0.6012
 5910SOL    HW129192   1.443   0.601   1.589  1.7755 -0.4288  0.4285
 5910SOL    HW229193   1.384   0.690   1.683  1.8717 -0.7344  3.7092
 5911SOL     OW29194   1.006   2.204   8.572  0.7064 -0.4655 -0.4466
 5911SOL    HW129195   1.027   2.276   8.631  0.4263  1.0215 -2.1484
 5911SOL    HW229196   1.094   2.192   8.538  1.8066  3.6765  1.0514
 5912SOL     OW29197   2.833   3.647   7.844  0.4072 -0.3601 -0.1170
 5912SOL    HW129198   2.784   3.727   7.863  1.6805  0.0574  1.4253
 5912SOL    HW229199   2.908   3.655   7.904 -0.2402  0.5287  0.5681
 5913SOL     OW29200   3.509   3.655  15.458 -0.3965 -0.5616  0.4841
 5913SOL    HW129201   3.563   3.620  15.529  0.4721 -0.9767 -0.3754
 5913SOL    HW229202   3.574   3.697  15.402 -2.4422  0.5805 -1.0669
 5914SOL     OW29203   0.055   4.266   8.343 -0.0003  0.1048  0.4150
 5914SOL    HW129204   0.068   4.349   8.298 -1.0920 -1.1231 -2.1683
 5914SOL    HW229205   0.103   4.202   8.290 -1.7883 -0.6329 -0.3379
 5915SOL     OW29206   2.595   4.716   0.779  0.0122  0.3051 -0.5317
 5915SOL    HW129207   2.520   4.679   0.734 -0.0517  1.1063 -1.0844
 5915SOL    HW229208   2.635   4.629   0.789 -1.3943 -0.2234  0.5039
 5916SOL     OW29209   0.544   2.259   7.419 -0.0103 -0.7638  0.4199
 5916SOL    HW129210   0.513   2.340   7.379  0.9564 -1.1096 -1.0417
 5916SOL    HW229211   0.489   2.198   7.368 -2.3728  1.0485  0.7756
 5917SOL     OW29212   2.868   1.209   8.783  0.0310  0.2413  0.0439
 5917SOL    HW129213   2.951   1.204   8.829  0.4380  0.2030 -0.6874
 5917SOL    HW229214   2.888   1.137   8.722 -3.2551  0.1071 -0.9370
 5918SOL     OW29215   1.809   2.692   1.962 -0.1978  0.1918  0.4232
 5918SOL    HW129216   1.847   2.776   1.987 -0.5052  0.7138 -0.8602
 5918SOL    HW229217   1.806   2.655   2.050 -0.4790 -2.4424 -0.7076
 5919SOL     OW29218   2.124   4.274   3.188 -0.2208 -0.2819  0.6120
 5919SOL    HW129219   2.142   4.273   3.282  3.7830 -0.6045 -0.1489
 5919SOL    HW229220   2.103   4.367   3.185 -0.1990 -0.3002 -0.2649
 5920SOL     OW29221   2.152   1.822  17.202 -0.0543  0.3974  0.4650
 5920SOL    HW129222   2.211   1.848  17.131 -2.4069 -1.2113 -2.0432
 5920SOL    HW229223   2.187   1.738  17.231  0.5201  0.6123  0.4052
 5921SOL     OW29224   2.458   2.394   4.822 -0.0815  0.3980  0.3924
 5921SOL    HW129225   2.540   2.345   4.815  1.3359  2.4568  2.7131
 5921SOL    HW229226   2.455   2.444   4.740  0.3512 -0.2283 -0.0055
 5922SOL     OW29227   2.604   4.116   0.379 -0.3264  0.0965  0.0553
 5922SOL    HW129228   2.595   4.130   0.474 -0.6228  2.8185 -0.3612
 5922SOL    HW229229   2.688   4.072   0.372 -1.0313 -1.1661 -0.3316
 5923SOL     OW29230   0.997   2.319   4.644  0.3326  0.0059  0.0849
 5923SOL    HW129231   1.044   2.236   4.635  0.1995 -0.1671  0.9380
 5923SOL    HW229232   1.069   2.368   4.684  1.2074 -1.0897 -0.1328
 5924SOL     OW29233   1.870   1.096   9.900  0.1799 -0.2334 -0.1667
 5924SOL    HW129234   1.793   1.066   9.949 -0.5007  2.7882  0.6473
 5924SOL    HW229235   1.877   1.179   9.947 -0.2043 -0.6190  0.5646
 5925SOL     OW29236   0.173   2.631   8.880  0.4293 -0.3829  0.4892
 5925SOL    HW129237   0.110   2.685   8.832  1.1423 -0.1366 -0.1652
 5925SOL    HW229238   0.177   2.555   8.821 -1.0613 -0.5058  0.5437
 5926SOL     OW29239   4.335   0.341  11.292 -0.1424  0.5057  0.0430
 5926SOL    HW129240   4.423   0.342  11.328 -0.8598  0.1456  1.8011
 5926SOL    HW229241   4.290   0.277  11.346  1.1687 -1.7975 -1.6112
 5927SOL     OW29242   3.697   0.958   7.529  0.4766  0.0231  0.0120
 5927SOL    HW129243   3.715   0.907   7.450 -0.8108  1.2272 -1.0677
 5927SOL    HW229244   3.780   1.006   7.530  1.0392 -0.8356 -4.4405
 5928SOL     OW29245   4.572   0.083  11.437 -0.0567  1.0940  0.1358
 5928SOL    HW129246   4.571   0.178  11.444  0.3469  1.0580  0.7390
 5928SOL    HW229247   4.480   0.059  11.443 -0.1328  1.1258 -0.8928
 5929SOL     OW29248   1.090   3.219   4.877  0.1765 -0.2267 -0.0392
 5929SOL    HW129249   1.097   3.209   4.782 -2.1624 -1.8971 -0.0584
 5929SOL    HW229250   1.167   3.270   4.901  0.0672  0.3683 -0.9740
 5930SOL     OW29251   3.459   2.583   1.949 -0.9634 -0.1665 -0.4940
 5930SOL    HW129252   3.460   2.544   2.036 -2.5256  2.4038  0.7015
 5930SOL    HW229253   3.550   2.606   1.934 -1.0746  0.4355 -0.2705
 5931SOL     OW29254   3.253   1.659   2.999  0.0752  0.3958 -0.2144
 5931SOL    HW129255   3.181   1.597   2.990 -0.6228  0.9402  1.6529
 5931SOL    HW229256   3.201   1.739   2.997 -0.6074 -0.0968 -1.9342
 5932SOL     OW29257   1.150   1.914   9.067  0.2195  0.7085 -0.0875
 5932SOL    HW129258   1.243   1.929   9.053 -0.0272  0.2271 -2.2210
 5932SOL    HW229259   1.142   1.822   9.093  0.9873  0.4366 -0.8093
 5933SOL     OW29260   0.359   0.523  13.578  0.0535 -0.0250  0.1940
 5933SOL    HW129261   0.272   0.484  13.569  0.4736 -1.0354  0.5935
 5933SOL    HW229262   0.374   0.561  13.491 -2.0013 -1.4749 -0.7922
 5934SOL     OW29263   0.703   4.054  15.877  0.8272 -0.0322 -0.5015
 5934SOL    HW129264   0.649   3.976  15.872 -0.9657  1.1242  0.7001
 5934SOL    HW229265   0.759   4.043  15.954 -0.0226 -1.1097 -0.0409
 5935SOL     OW29266   2.970   4.640   7.087 -0.8046 -0.7940 -0.4048
 5935SOL    HW129267   2.889   4.601   7.054 -2.1325  1.3945  0.2740
 5935SOL    HW229268   2.953   4.671   7.176 -0.4885  2.7672 -1.5687
 5936SOL     OW29269   3.227   0.734  15.104 -0.1299  0.8343 -0.6849
 5936SOL    HW129270   3.213   0.786  15.182 -2.5551 -1.5050  0.4271
 5936SOL    HW229271   3.201   0.790  15.031 -1.1809  2.0239  0.6079
 5937SOL     OW29272   3.209   1.330   2.525 -0.4811  0.4138 -0.0344
 5937SOL    HW129273   3.280   1.284   2.480 -1.4171  1.3800 -2.5412
 5937SOL    HW229274   3.132   1.274   2.513 -1.6613  1.2402  3.8180
 5938SOL     OW29275   0.994   4.583   7.605  0.0225  0.1874  0.3841
 5938SOL    HW129276   0.998   4.547   7.516  0.0059 -0.3680  0.6078
 5938SOL    HW229277   0.938   4.510   7.633 -0.9860  1.3262  1.2827
 5939SOL     OW29278   4.060   3.497   8.121 -0.1220 -0.3875 -0.3018
 5939SOL    HW129279   4.042   3.554   8.047  1.7055  1.3045  0.5783
 5939SOL    HW229280   4.033   3.545   8.200  3.0775  0.6601  0.1514
 5940SOL     OW29281   4.150   2.983  15.617 -0.1123  0.3057 -0.8469
 5940SOL    HW129282   4.123   3.075  15.605 -1.0282  0.1515  0.0399
 5940SOL    HW229283   4.197   2.987  15.700  3.4095  1.8660 -2.8971
 5941SOL     OW29284   0.130   0.458   3.631 -0.3316 -0.2332  0.2927
 5941SOL    HW129285   0.217   0.438   3.666 -0.1515 -0.7861 -0.4716
 5941SOL    HW229286   0.100   0.375   3.593  0.2522 -0.3505  0.0928
 5942SOL     OW29287   2.720   2.265   7.562  0.6252 -0.2670  0.4511
 5942SOL    HW129288   2.643   2.211   7.547 -0.4009  1.6035 -0.9972
 5942SOL    HW229289   2.764   2.208   7.625 -0.6293 -0.7032  0.9286
 5943SOL     OW29290   3.453   3.765   4.935 -0.0536 -0.7096  0.2442
 5943SOL    HW129291   3.371   3.720   4.912 -0.7031 -0.0453  1.2638
 5943SOL    HW229292   3.514   3.698   4.902 -0.0028 -0.9464  0.8205
 5944SOL     OW29293   3.833   4.133   8.091 -0.1050 -0.1125  0.3659
 5944SOL    HW129294   3.876   4.067   8.146 -0.8479 -1.3071 -0.5086
 5944SOL    HW229295   3.914   4.170   8.056  1.6952 -3.5487  0.8921
 5945SOL     OW29296   1.790   3.021   3.240 -0.3668 -0.0893  0.1889
 5945SOL    HW129297   1.808   3.089   3.304  0.3223  0.6391 -0.7690
 5945SOL    HW229298   1.868   2.967   3.254 -0.7583 -0.9509 -0.9630
 5946SOL     OW29299   1.585   1.293  15.054 -0.1548  0.2786  0.5011
 5946SOL    HW129300   1.602   1.382  15.083  1.1344 -0.2339  1.2918
 5946SOL    HW229301   1.489   1.294  15.055 -0.1390  1.0317  0.8194
 5947SOL     OW29302   0.645   2.490   6.767 -0.5613  0.0905  0.4386
 5947SOL    HW129303   0.713   2.427   6.744 -0.8523 -0.0429 -0.0506
 5947SOL    HW229304   0.626   2.482   6.861  1.0231  1.1307  0.8613
 5948SOL     OW29305   4.059   3.445   2.623 -0.0942  0.7913 -0.5604
 5948SOL    HW129306   4.144   3.428   2.582 -0.4501 -1.0486 -0.5428
 5948SOL    HW229307   4.075   3.521   2.679  0.2816  0.8933 -0.7998
 5949SOL     OW29308   3.461   3.773   7.005  0.4851  0.2514  0.1855
 5949SOL    HW129309   3.392   3.748   7.066  0.8649  1.2726  1.0248
 5949SOL    HW229310   3.443   3.704   6.941 -0.1857 -0.3267  0.9943
 5950SOL     OW29311   2.488   0.125  13.616 -0.3965  0.1958 -0.0338
 5950SOL    HW129312   2.534   0.208  13.630 -1.3133  0.6470  0.2589
 5950SOL    HW229313   2.445   0.123  13.701  0.0352  1.8904  0.2298
 5951SOL     OW29314   2.673   2.152   1.662 -0.2194  0.3570  0.1129
 5951SOL    HW129315   2.621   2.147   1.582  1.4725 -0.8220 -0.9233
 5951SOL    HW229316   2.684   2.245   1.684  0.3289  0.5007 -0.8014
 5952SOL     OW29317   2.914   1.408  10.383  0.2081 -0.3032 -0.5204
 5952SOL    HW129318   2.918   1.500  10.408 -1.3786 -0.7889  1.5752
 5952SOL    HW229319   2.818   1.401  10.383  0.1980 -0.1878  0.0400
 5953SOL     OW29320   2.087   2.670   3.077 -0.0194 -0.4270 -0.2426
 5953SOL    HW129321   2.075   2.576   3.091 -0.0915 -0.3935 -0.0830
 5953SOL    HW229322   2.001   2.686   3.037 -1.1575  0.1026  2.4071
 5954SOL     OW29323   0.353   2.785  17.237 -0.5275 -0.4107  0.1576
 5954SOL    HW129324   0.427   2.773  17.178 -1.3005  0.1762 -0.9347
 5954SOL    HW229325   0.345   2.702  17.284  0.1810 -2.3782 -3.2163
 5955SOL     OW29326   1.491   4.417   9.315  0.9534  0.4481 -0.3637
 5955SOL    HW129327   1.493   4.322   9.303  0.7695  0.7900 -3.0264
 5955SOL    HW229328   1.578   4.444   9.283  0.5561  1.6496 -0.4516
 5956SOL     OW29329   3.007   1.096   5.843 -0.0227  0.2337  0.2220
 5956SOL    HW129330   2.984   1.003   5.838 -0.2191  0.4176 -2.2787
 5956SOL    HW229331   3.070   1.109   5.772 -0.0429  0.5330  0.2612
 5957SOL     OW29332   4.700   1.694   0.305 -0.4175 -0.1672  0.2174
 5957SOL    HW129333   0.028   1.691   0.225 -1.9125 -1.5195 -0.7084
 5957SOL    HW229334   0.033   1.659   0.374  0.3947 -1.1072 -0.9377
 5958SOL     OW29335   3.162   2.459   7.727 -0.7223  0.5593  0.0496
 5958SOL    HW129336   3.253   2.489   7.725 -0.5882  0.1480 -0.2210
 5958SOL    HW229337   3.128   2.492   7.644  1.1776  0.5928 -0.7174
 5959SOL     OW29338   2.677   4.678   8.867  0.3741  0.0106 -0.1098
 5959SOL    HW129339   2.667   0.050   8.864 -3.3316 -0.4192 -1.3474
 5959SOL    HW229340   2.590   4.644   8.846  1.0798 -1.1878 -1.0354
 5960SOL     OW29341   1.276   1.823  11.720 -0.1446 -0.7124  0.3892
 5960SOL    HW129342   1.231   1.881  11.658 -0.0847 -0.1899  0.8392
 5960SOL    HW229343   1.286   1.874  11.800 -1.1143  0.4154 -0.1960
 5961SOL     OW29344   0.801   3.114   5.863  0.1348 -0.2882 -0.0177
 5961SOL    HW129345   0.799   3.079   5.774  1.8320  0.2087 -0.2578
 5961SOL    HW229346   0.870   3.067   5.911  0.3349  0.0617  0.0467
 5962SOL     OW29347   2.816   2.524  16.938 -0.4074  0.0665  0.0101
 5962SOL    HW129348   2.908   2.510  16.918 -0.8497 -0.3138 -1.7532
 5962SOL    HW229349   2.779   2.451  16.888 -3.9747  0.3973  2.1323
 5963SOL     OW29350   1.081   3.221  10.195 -0.5460 -0.0927  0.0167
 5963SOL    HW129351   1.098   3.140  10.244 -1.8801 -0.9627 -0.9542
 5963SOL    HW229352   1.072   3.192  10.105  3.4267  0.3381 -0.5164
 5964SOL     OW29353   0.825   2.735   1.899 -0.4898  0.6441  0.1592
 5964SOL    HW129354   0.877   2.807   1.935 -0.2585  1.4325 -1.7080
 5964SOL    HW229355   0.742   2.736   1.945 -1.0871  0.0211 -0.9096
 5965SOL     OW29356   2.506   3.580   9.833  0.8833  0.5795 -0.2034
 5965SOL    HW129357   2.418   3.559   9.863  0.7453  0.3066 -0.7948
 5965SOL    HW229358   2.515   3.533   9.750  0.0925  1.9834 -1.0935
 5966SOL     OW29359   3.085   3.081   4.077 -0.5708 -0.4272 -0.2641
 5966SOL    HW129360   3.160   3.083   4.137 -0.8263 -1.8217  0.1009
 5966SOL    HW229361   3.040   3.165   4.083  1.6802  0.6059  1.9646
 5967SOL     OW29362   2.519   2.743   7.042  0.1507  0.6422 -0.2804
 5967SOL    HW129363   2.579   2.778   7.108 -0.9288 -0.9278  1.5362
 5967SOL    HW229364   2.483   2.670   7.092  2.8504  0.1500  0.9702
 5968SOL     OW29365   0.254   0.634   6.768 -0.1972 -0.0265  0.1160
 5968SOL    HW129366   0.318   0.598   6.707 -0.7752  1.5381 -1.4217
 5968SOL    HW229367   0.267   0.587   6.850  0.9223 -0.7024 -0.4551
 5969SOL     OW29368   0.082   2.611   8.036 -0.1879  0.1268  0.0304
 5969SOL    HW129369   4.714   2.600   8.010  0.0250 -0.7756 -0.3326
 5969SOL    HW229370   0.093   2.561   8.117 -0.0167  1.2457  0.6936
 5970SOL     OW29371   0.010   1.035   4.820 -0.5630  0.4320  0.1847
 5970SOL    HW129372   0.033   1.004   4.907  0.9519  0.8256 -0.0641
 5970SOL    HW229373   4.655   0.988   4.793 -0.5882  0.3045  0.4810
 5971SOL     OW29374   1.472   4.545  10.664  0.0187 -0.2125  0.2657
 5971SOL    HW129375   1.418   4.611  10.707 -2.4087 -1.1025 -1.4275
 5971SOL    HW229376   1.557   4.557  10.705  0.7834  1.8113 -1.9329
 5972SOL     OW29377   2.883   4.140   6.770 -0.1504 -0.0959  0.0877
 5972SOL    HW129378   2.963   4.171   6.728  1.1586 -1.3516  1.6525
 5972SOL    HW229379   2.830   4.202   6.720  0.4350  1.5855  1.5732
 5973SOL     OW29380   2.330   3.210   1.280  0.1457 -0.5802  0.4598
 5973SOL    HW129381   2.405   3.218   1.339 -0.0044  1.2645  0.3843
 5973SOL    HW229382   2.276   3.268   1.332 -0.0873  0.3553 -0.8373
 5974SOL     OW29383   3.385   4.350   3.490 -0.0159 -0.2715 -0.3435
 5974SOL    HW129384   3.336   4.296   3.428 -1.0637  1.8114 -1.3203
 5974SOL    HW229385   3.464   4.297   3.499  0.0909 -0.2093 -0.9049
 5975SOL     OW29386   3.282   4.659   2.538 -0.8396  0.3191  0.5088
 5975SOL    HW129387   3.296   0.015   2.589 -1.7663 -0.7360  2.4234
 5975SOL    HW229388   3.194   4.674   2.504 -0.7999  1.7262  1.0664
 5976SOL     OW29389   4.572   4.266   3.532  0.7400 -0.2945  0.1782
 5976SOL    HW129390   4.512   4.322   3.483 -0.8913 -0.4895  1.9237
 5976SOL    HW229391   4.511   4.241   3.602  0.5871 -0.0580  0.1305
 5977SOL     OW29392   4.178   0.354   0.923  0.5215 -0.5656 -0.1779
 5977SOL    HW129393   4.248   0.312   0.874  1.2078  0.0101  0.3102
 5977SOL    HW229394   4.148   0.424   0.866 -1.4566 -1.2915 -0.0437
 5978SOL     OW29395   0.483   0.081   8.978  0.0292  0.0995  0.0906
 5978SOL    HW129396   0.531   0.102   9.058  0.9543 -1.9271  0.0938
 5978SOL    HW229397   0.483   0.165   8.933  1.8307  0.0823  0.0422
 5979SOL     OW29398   1.265   0.970  14.490  0.2119 -0.2116  0.0551
 5979SOL    HW129399   1.346   1.012  14.520  0.8062 -0.8025 -0.7250
 5979SOL    HW229400   1.200   0.994  14.556  0.8653  0.7934  0.3258
 5980SOL     OW29401   2.098   2.095   2.450 -0.0122  0.0906 -0.0715
 5980SOL    HW129402   2.150   2.119   2.374 -0.2336 -0.2227 -0.3241
 5980SOL    HW229403   2.157   2.036   2.496  0.9806  0.6107 -0.6893
 5981SOL     OW29404   4.202   3.398   6.279 -0.0394 -0.1803 -0.3175
 5981SOL    HW129405   4.179   3.478   6.326  0.2459  0.6150 -1.5260
 5981SOL    HW229406   4.150   3.329   6.321  5.2898 -2.9688  1.6617
 5982SOL     OW29407   4.180   1.042   7.059 -0.5847  0.3438  0.1583
 5982SOL    HW129408   4.087   1.018   7.065 -0.4420 -0.3612 -0.3883
 5982SOL    HW229409   4.171   1.137   7.054  1.1617  0.3749 -2.4604
 5983SOL     OW29410   4.699   3.758   9.932  0.4875  0.1179  0.3003
 5983SOL    HW129411   4.679   3.850   9.949 -0.1616 -0.2435  1.5667
 5983SOL    HW229412   0.057   3.743   9.980  0.3764 -0.5983  0.2706
 5984SOL     OW29413   1.065   0.268   3.338  0.1586 -0.4539  0.3417
 5984SOL    HW129414   1.067   0.343   3.279 -0.5067 -0.7115 -0.0084
 5984SOL    HW229415   0.981   0.229   3.315  0.3883 -0.1955 -0.8967
 5985SOL     OW29416   3.699   1.606   7.097 -0.1548  0.0141 -0.1943
 5985SOL    HW129417   3.672   1.633   7.010 -0.1392  0.6675 -0.0000
 5985SOL    HW229418   3.714   1.512   7.099 -1.3644 -0.1705  0.3255
 5986SOL     OW29419   2.132   4.532  17.441 -0.2878  0.1216  0.2406
 5986SOL    HW129420   2.225   4.557  17.437 -0.3166  0.1513 -0.1685
 5986SOL    HW229421   2.098   4.609  17.488 -0.5651  0.1831 -0.0660
 5987SOL     OW29422   3.394   4.075   9.608  0.1974  0.0388 -0.5053
 5987SOL    HW129423   3.414   4.014   9.678  0.6911  0.9756  0.1665
 5987SOL    HW229424   3.298   4.078   9.609  0.2452  0.2260  1.7394
 5988SOL     OW29425   3.936   2.890   5.283 -0.1714  0.3526 -0.0693
 5988SOL    HW129426   4.007   2.945   5.317  0.8172 -1.2748  0.4653
 5988SOL    HW229427   3.900   2.951   5.219  0.2152  1.0733  0.3947
 5989SOL     OW29428   0.498   4.367  17.219 -0.0170  0.0608  0.0540
 5989SOL    HW129429   0.493   4.291  17.277 -0.1785 -0.2808 -0.4124
 5989SOL    HW229430   0.426   4.350  17.159  0.4127 -1.2972 -0.0622
 5990SOL     OW29431   2.791   4.709   4.855  0.1655  0.0291 -0.2943
 5990SOL    HW129432   2.816   4.632   4.905 -1.3437 -0.7787 -0.7809
 5990SOL    HW229433   2.724   4.680   4.792 -1.1052  1.7020  0.2716
 5991SOL     OW29434   0.738   1.411   5.781 -0.1726 -0.0172  0.1185
 5991SOL    HW129435   0.799   1.435   5.850 -0.1322 -0.4827  0.2447
 5991SOL    HW229436   0.765   1.459   5.703 -1.3259 -0.8064 -0.7661
 5992SOL     OW29437   2.946   0.071   2.208  0.4301  0.0590 -0.1023
 5992SOL    HW129438   2.971   0.137   2.273 -2.2285  0.9016  0.0589
 5992SOL    HW229439   3.015   0.012   2.238  0.1983  0.2625  0.8267
 5993SOL     OW29440   0.746   4.427  14.432 -0.0734 -0.3687  0.2517
 5993SOL    HW129441   0.653   4.405  14.433 -0.6531  2.0433 -4.7652
 5993SOL    HW229442   0.771   4.403  14.521 -1.2826 -1.4037  0.3172
 5994SOL     OW29443   2.055   0.134   8.578 -0.1334  0.1773 -0.9314
 5994SOL    HW129444   2.109   0.209   8.554  0.7195  0.3737  1.5889
 5994SOL    HW229445   1.994   0.145   8.505 -1.6930 -0.6085  0.2372
 5995SOL     OW29446   3.138   3.728  13.877  0.1827 -0.3781  0.1506
 5995SOL    HW129447   3.091   3.806  13.847 -1.0914 -0.9037  0.8136
 5995SOL    HW229448   3.093   3.653  13.840  2.6111 -0.9991 -1.5947
 5996SOL     OW29449   1.945   3.980   1.191  0.0064  0.3149 -0.0541
 5996SOL    HW129450   1.880   3.955   1.257  1.0421  0.8640  1.1863
 5996SOL    HW229451   1.999   4.041   1.242 -1.2233  0.7671  0.7114
 5997SOL     OW29452   2.396   2.643   5.954  0.3111 -0.6824  0.3458
 5997SOL    HW129453   2.378   2.598   5.871 -0.6215 -3.7010  2.1492
 5997SOL    HW229454   2.366   2.575   6.015 -0.6912  0.5999  1.2775
 5998SOL     OW29455   1.821   1.077   7.108 -0.3945  0.4714  0.2675
 5998SOL    HW129456   1.831   1.165   7.072  0.0633  0.4399  0.3141
 5998SOL    HW229457   1.897   1.080   7.166 -0.4244  0.6688  0.2977
 5999SOL     OW29458   2.768   1.377   6.954 -0.7618  0.2627  0.0664
 5999SOL    HW129459   2.761   1.469   6.927  1.9537  0.3232 -0.4064
 5999SOL    HW229460   2.833   1.380   7.024 -1.3763  0.1703  0.6466
 6000SOL     OW29461   2.024   3.644  13.740  0.0492  0.4118  0.0207
 6000SOL    HW129462   2.091   3.677  13.800  1.3415 -3.0537  0.4425
 6000SOL    HW229463   1.941   3.671  13.780 -0.5819 -0.7104 -0.5400
 6001SOL     OW29464   1.228   3.630   8.790 -0.2207  0.0829  0.4350
 6001SOL    HW129465   1.153   3.615   8.732  1.4609 -1.7810 -1.2785
 6001SOL    HW229466   1.224   3.545   8.833  0.5398 -1.7909 -3.2041
 6002SOL     OW29467   1.736   4.146  11.874  0.3372 -0.3357 -0.1535
 6002SOL    HW129468   1.659   4.204  11.875 -0.0024 -0.7712 -1.0421
 6002SOL    HW229469   1.785   4.183  11.800 -2.6112  3.3254 -0.3118
 6003SOL     OW29470   4.031   2.091  17.040  0.5671 -0.0520  0.8459
 6003SOL    HW129471   4.055   2.024  17.103 -0.3936  1.3626  2.7235
 6003SOL    HW229472   3.975   2.141  17.099  2.6549  0.3218  2.5120
 6004SOL     OW29473   3.542   2.929  13.953 -0.3222 -0.0991  0.0857
 6004SOL    HW129474   3.539   2.929  14.048 -0.0798 -0.0316  0.0935
 6004SOL    HW229475   3.524   2.839  13.926 -0.4840 -0.2696  0.7856
 6005SOL     OW29476   3.159   1.955   1.138  0.2563  0.1761 -0.7981
 6005SOL    HW129477   3.251   1.980   1.133 -0.0223  1.2158 -0.8234
 6005SOL    HW229478   3.161   1.860   1.143 -0.0482  0.1044 -2.0293
 6006SOL     OW29479   1.258   3.725   2.631  0.0739 -0.1804  0.2352
 6006SOL    HW129480   1.227   3.668   2.701  0.9488 -0.5095  0.3453
 6006SOL    HW229481   1.337   3.758   2.673 -0.2223 -0.3856  0.9580
 6007SOL     OW29482   1.236   3.127   2.877  0.4406 -0.2740  0.0495
 6007SOL    HW129483   1.258   3.185   2.804 -2.9930  1.0087  0.0481
 6007SOL    HW229484   1.298   3.169   2.936  0.7552  0.1373 -0.5650
 6008SOL     OW29485   2.834   4.131  16.925  0.3816  0.1749 -0.0017
 6008SOL    HW129486   2.794   4.112  16.840  0.9681  0.5689 -0.3670
 6008SOL    HW229487   2.895   4.200  16.898 -0.9382  1.0369 -0.7865
 6009SOL     OW29488   2.350   1.005   9.603  0.0954  0.5352  0.2617
 6009SOL    HW129489   2.267   1.025   9.646  0.1298  0.2804  0.4456
 6009SOL    HW229490   2.374   0.925   9.650 -3.1482 -0.6674 -0.1726
 6010SOL     OW29491   0.646   3.200   6.568  0.7297 -0.0138 -0.3527
 6010SOL    HW129492   0.600   3.267   6.619  0.1147  0.4969 -1.5934
 6010SOL    HW229493   0.738   3.216   6.592  1.2490 -1.2558 -1.5285
 6011SOL     OW29494   4.560   4.454  17.616 -0.3931  0.1951 -0.7674
 6011SOL    HW129495   4.497   4.497  17.559 -0.8714  0.9062  0.3139
 6011SOL    HW229496   4.573   4.372  17.568 -2.1177 -0.3439 -0.3251
 6012SOL     OW29497   1.701   4.130   3.416 -0.5924 -0.0471 -0.8675
 6012SOL    HW129498   1.618   4.085   3.400 -2.3372  2.9544 -0.1668
 6012SOL    HW229499   1.762   4.056   3.411 -0.0241  0.3000  1.0770
 6013SOL     OW29500   3.008   3.784   1.353 -0.6719 -0.5826  0.4869
 6013SOL    HW129501   2.946   3.796   1.424  0.5762  1.3496  1.2618
 6013SOL    HW229502   2.963   3.713   1.308 -0.4854 -0.5573  0.2615
 6014SOL     OW29503   0.775   2.944   7.251 -0.1255 -0.0444  0.4013
 6014SOL    HW129504   0.788   2.894   7.331 -3.0697 -1.3643  0.0453
 6014SOL    HW229505   0.683   2.969   7.257 -0.3494 -0.9844  0.7546
 6015SOL     OW29506   4.483   2.040   6.827 -0.1910  0.3511 -0.1966
 6015SOL    HW129507   4.450   1.953   6.850  0.3035  0.4179  0.7548
 6015SOL    HW229508   4.421   2.050   6.755 -1.6786 -2.0932  0.7295
 6016SOL     OW29509   4.693   1.614   6.348 -0.1767  0.0362 -0.3001
 6016SOL    HW129510   4.644   1.581   6.423 -0.4697 -2.0289 -1.4099
 6016SOL    HW229511   4.648   1.583   6.270  0.6917  0.1221 -0.8381
 6017SOL     OW29512   4.428   2.551   3.015 -0.0415 -0.0307  0.7225
 6017SOL    HW129513   4.419   2.487   3.086 -3.3387  0.0994  0.4210
 6017SOL    HW229514   4.352   2.533   2.960  0.4577 -3.2965  1.1293
 6018SOL     OW29515   1.411   4.072   0.559  0.0500  0.0228 -0.1700
 6018SOL    HW129516   1.352   4.004   0.590  2.4924 -1.7407  0.6513
 6018SOL    HW229517   1.492   4.031   0.591 -0.4221 -0.3039  0.5771
 6019SOL     OW29518   0.924   3.261  10.461  0.3607 -0.3257 -0.1224
 6019SOL    HW129519   1.015   3.286  10.442  0.1997 -1.0418 -1.7597
 6019SOL    HW229520   0.923   3.247  10.556  3.5345 -2.2107 -0.3627
 6020SOL     OW29521   1.140   2.535   5.590 -0.2188 -0.3612  0.0046
 6020SOL    HW129522   1.078   2.597   5.550  1.0061 -0.4091 -1.9582
 6020SOL    HW229523   1.090   2.512   5.669  0.1735 -1.8072 -0.1598
 6021SOL     OW29524   3.547   2.192  13.760 -0.5427 -0.7761  0.2178
 6021SOL    HW129525   3.622   2.235  13.803 -1.8401  1.7611 -0.0968
 6021SOL    HW229526   3.492   2.180  13.838 -1.7354  4.0297  0.0852
 6022SOL     OW29527   0.516   1.421   9.178 -0.1015 -0.5511 -0.4489
 6022SOL    HW129528   0.478   1.500   9.217  1.8148 -0.5185  1.3142
 6022SOL    HW229529   0.538   1.449   9.089  2.9642  0.0448  0.5121
 6023SOL     OW29530   1.279   4.234   6.904 -0.9231  0.0420 -0.0144
 6023SOL    HW129531   1.271   4.138   6.910  2.8834 -0.2813 -0.2771
 6023SOL    HW229532   1.256   4.236   6.812  0.2057  0.8635 -0.2803
 6024SOL     OW29533   1.249   3.794   5.932 -0.3172 -0.2149  0.3762
 6024SOL    HW129534   1.314   3.863   5.919 -0.1376  0.3024  3.9034
 6024SOL    HW229535   1.222   3.803   6.024 -0.8284  3.1244 -0.1070
 6025SOL     OW29536   3.856   2.754  15.201 -0.5934  0.2145  0.4805
 6025SOL    HW129537   3.773   2.768  15.156  0.1084  0.3351 -0.7755
 6025SOL    HW229538   3.890   2.831  15.246  0.2696 -0.5121  1.0653
 6026SOL     OW29539   0.053   2.845  13.726 -0.2771  0.0381  0.0175
 6026SOL    HW129540   4.708   2.805  13.672  1.4337 -2.0727 -0.5622
 6026SOL    HW229541   0.103   2.765  13.741 -0.3984 -0.2881 -1.3588
 6027SOL     OW29542   1.702   4.162   8.566  0.2013  0.1007 -0.3117
 6027SOL    HW129543   1.716   4.242   8.515  1.8285  0.6489  0.9835
 6027SOL    HW229544   1.723   4.186   8.657 -2.4592  0.4381  0.2182
 6028SOL     OW29545   4.198   2.350   3.517 -0.2426 -0.4455  0.4920
 6028SOL    HW129546   4.144   2.298   3.576 -2.8626  3.1207  1.2271
 6028SOL    HW229547   4.148   2.328   3.438  0.6536  2.2777 -0.8202
 6029SOL     OW29548   2.522   2.885   7.445 -0.2402  0.6330 -0.2660
 6029SOL    HW129549   2.582   2.885   7.520 -0.9194 -2.2392  0.2944
 6029SOL    HW229550   2.541   2.799   7.407  1.2131  0.8105  0.0693
 6030SOL     OW29551   2.937   2.058   1.268 -0.9814  0.4446  0.3217
 6030SOL    HW129552   2.908   1.990   1.328  2.2450  0.5985  2.0235
 6030SOL    HW229553   3.004   2.012   1.217 -0.8869  0.8130  0.1125
 6031SOL     OW29554   1.535   3.022   4.569  0.0433  0.1200  0.0687
 6031SOL    HW129555   1.502   3.008   4.480 -0.7867 -0.3938  0.4564
 6031SOL    HW229556   1.518   2.936   4.609 -0.3105  0.1283 -0.0675
 6032SOL     OW29557   3.827   0.525  12.695 -0.6430  0.4350 -0.0053
 6032SOL    HW129558   3.872   0.486  12.771 -1.5940 -1.4832 -0.4335
 6032SOL    HW229559   3.739   0.493  12.714 -0.4261  0.5516  1.1950
 6033SOL     OW29560   4.332   3.738  10.475  0.2246 -0.4887 -0.1466
 6033SOL    HW129561   4.357   3.646  10.468  1.0745 -0.2941  0.3237
 6033SOL    HW229562   4.411   3.775  10.434  0.8318 -1.8963 -0.2649
 6034SOL     OW29563   4.091   2.196  13.717  0.5178 -0.0196  0.8557
 6034SOL    HW129564   4.032   2.152  13.778  1.2204 -2.3454 -0.1428
 6034SOL    HW229565   4.154   2.236  13.777  0.7293  2.0050 -0.6881
 6035SOL     OW29566   1.883   3.597  14.731  0.5704  0.6409 -0.1600
 6035SOL    HW129567   1.885   3.640  14.817  0.3213  2.6770 -1.1999
 6035SOL    HW229568   1.904   3.510  14.767  1.7910  0.2000 -1.9627
 6036SOL     OW29569   3.853   3.568   2.477 -0.1130 -0.4230 -0.4102
 6036SOL    HW129570   3.909   3.512   2.530  0.0101 -0.6534 -0.7801
 6036SOL    HW229571   3.801   3.506   2.426  0.0267  0.1723 -1.2753
 6037SOL     OW29572   2.355   2.469  15.458  0.0776  0.1373 -1.2104
 6037SOL    HW129573   2.266   2.433  15.454 -0.2223  0.8227 -0.5839
 6037SOL    HW229574   2.335   2.562  15.444  0.3019  1.0223  4.4150
 6038SOL     OW29575   1.810   2.788  13.938  0.0083  0.3755  0.5521
 6038SOL    HW129576   1.820   2.879  13.913  0.9464 -0.1280 -0.8947
 6038SOL    HW229577   1.819   2.744  13.853 -2.8954 -0.1118  0.5038
 6039SOL     OW29578   0.788   2.854   5.081  0.3683  0.0172  0.3950
 6039SOL    HW129579   0.794   2.765   5.115 -0.5018 -0.8137 -1.6490
 6039SOL    HW229580   0.862   2.893   5.128 -0.8546 -1.0341  3.2007
 6040SOL     OW29581   1.521   4.495   4.568 -0.1911  0.5500 -0.0364
 6040SOL    HW129582   1.605   4.519   4.607 -0.7649 -0.6768  2.0008
 6040SOL    HW229583   1.537   4.540   4.486  0.9157  1.6086  0.7739
 6041SOL     OW29584   1.088   3.055   9.258 -0.3954  0.0585  0.7648
 6041SOL    HW129585   1.175   3.091   9.273 -0.9526  2.0437 -0.8038
 6041SOL    HW229586   1.105   2.966   9.225 -0.9260  1.3839 -3.0694
 6042SOL     OW29587   0.785   1.344  15.270  0.0206 -0.1422 -0.4464
 6042SOL    HW129588   0.794   1.252  15.295  1.7322  0.2842  0.4934
 6042SOL    HW229589   0.822   1.343  15.182  1.7446 -3.1034  0.3195
 6043SOL     OW29590   4.404   3.470   8.828  0.6598  0.4413 -0.5843
 6043SOL    HW129591   4.328   3.416   8.808  2.3721 -2.0049 -0.5593
 6043SOL    HW229592   4.360   3.550   8.856 -2.0261 -2.3938  3.1911
 6044SOL     OW29593   1.700   0.290  10.378  0.4925  0.7823 -0.0676
 6044SOL    HW129594   1.705   0.209  10.429 -0.0550  1.4180  0.9876
 6044SOL    HW229595   1.606   0.288  10.359  0.6656  0.4597 -0.8987
 6045SOL     OW29596   1.639   0.565   2.273 -0.2657  0.7854 -0.1678
 6045SOL    HW129597   1.551   0.538   2.247 -0.2346 -0.0536  0.5926
 6045SOL    HW229598   1.678   0.480   2.295  1.0106  1.8481  1.7066
 6046SOL     OW29599   4.088   3.305   7.177  0.4328  0.1207  0.4406
 6046SOL    HW129600   4.064   3.213   7.183 -0.5402  0.2163 -1.9144
 6046SOL    HW229601   4.020   3.347   7.229 -1.2187 -0.8479 -0.9372
 6047SOL     OW29602   3.065   2.258  13.164 -0.8705  0.2699  0.0301
 6047SOL    HW129603   3.130   2.326  13.182 -1.2439  0.2770  1.3534
 6047SOL    HW229604   2.986   2.309  13.145  0.0611  1.0468 -1.8188
 6048SOL     OW29605   3.801   3.968  16.550  0.5917  0.2820 -0.9883
 6048SOL    HW129606   3.760   3.887  16.581  2.6021 -0.2093  0.4530
 6048SOL    HW229607   3.765   4.037  16.605 -4.1099 -2.5132 -0.5282
 6049SOL     OW29608   2.404   1.840  16.642  0.6009  0.6505 -0.3991
 6049SOL    HW129609   2.472   1.795  16.593  0.8848 -0.0771  0.6683
 6049SOL    HW229610   2.330   1.814  16.587  0.5333 -0.6186  0.2971
 6050SOL     OW29611   1.190   4.290  11.199  0.5995  0.3618  0.1180
 6050SOL    HW129612   1.139   4.209  11.198  1.4646 -0.1701 -1.0734
 6050SOL    HW229613   1.233   4.295  11.114  1.6860 -0.7437  0.6021
 6051SOL     OW29614   2.464   1.071  15.531 -0.0397  0.0728 -0.3079
 6051SOL    HW129615   2.476   1.072  15.436  1.4693  3.0651 -0.0774
 6051SOL    HW229616   2.427   0.983  15.537  0.1222  0.1009  0.9412
 6052SOL     OW29617   3.558   3.763   4.109  0.0249 -1.0509 -0.1052
 6052SOL    HW129618   3.612   3.713   4.171  3.3315  1.2523 -1.1542
 6052SOL    HW229619   3.471   3.780   4.146  1.1500  0.3076  1.9304
 6053SOL     OW29620   0.519   1.687   6.372  0.3112 -0.7442  0.1047
 6053SOL    HW129621   0.543   1.753   6.437 -2.6273  1.7334 -1.3503
 6053SOL    HW229622   0.435   1.662   6.411 -1.1285 -0.1246 -2.5988
 6054SOL     OW29623   0.469   2.210   1.203 -0.1452 -0.2186  0.2752
 6054SOL    HW129624   0.500   2.257   1.125  0.4492  0.4881  0.9301
 6054SOL    HW229625   0.411   2.271   1.248  0.5017 -0.4184  1.3840
 6055SOL     OW29626   1.348   2.739   9.826 -0.1237 -0.0973  0.6190
 6055SOL    HW129627   1.351   2.729   9.921 -0.3879  1.0844  0.7537
 6055SOL    HW229628   1.425   2.791   9.801 -1.2465  0.3924 -1.8359
 6056SOL     OW29629   4.426   3.069   4.385  0.5959 -0.3514  0.5175
 6056SOL    HW129630   4.459   3.030   4.466  1.2245  0.1273  0.4879
 6056SOL    HW229631   4.501   3.123   4.361  0.1425  0.6274  1.3043
 6057SOL     OW29632   3.523   0.319  16.438  0.1113 -0.3166  0.2195
 6057SOL    HW129633   3.567   0.322  16.523 -1.2216 -0.4416  0.9187
 6057SOL    HW229634   3.574   0.388  16.395  2.5316 -2.4520 -0.3760
 6058SOL     OW29635   1.486   1.626   1.575 -0.5791 -0.2286  0.0413
 6058SOL    HW129636   1.479   1.655   1.484 -1.4808 -0.1698  0.1289
 6058SOL    HW229637   1.493   1.536   1.542 -2.1813 -0.1193 -0.5960
 6059SOL     OW29638   4.220   0.778   2.932 -0.0426  0.2003  0.8428
 6059SOL    HW129639   4.232   0.685   2.950  1.5895  0.0197 -1.1789
 6059SOL    HW229640   4.181   0.776   2.844 -1.4432  1.2645  1.4223
 6060SOL     OW29641   0.776   1.823   9.748 -0.5261 -0.2482 -0.2241
 6060SOL    HW129642   0.718   1.771   9.804 -0.3178 -0.7988 -0.5109
 6060SOL    HW229643   0.853   1.766   9.739 -1.4683 -1.5853  0.0244
 6061SOL     OW29644   1.420   1.201   0.302  0.5495 -0.1570 -0.5309
 6061SOL    HW129645   1.345   1.142   0.293 -1.2892  2.0666  0.3456
 6061SOL    HW229646   1.411   1.248   0.219  0.9653  2.5593  0.9703
 6062SOL     OW29647   1.364   3.346   9.514  0.2422 -0.1636  0.0031
 6062SOL    HW129648   1.412   3.421   9.480 -1.6681  2.9354  4.1795
 6062SOL    HW229649   1.417   3.336   9.592  0.5647  0.9451 -0.0769
 6063SOL     OW29650   0.059   2.181   5.633 -0.0697  0.1852 -0.5255
 6063SOL    HW129651   0.043   2.103   5.686 -1.7541 -0.0187 -1.3334
 6063SOL    HW229652   0.034   2.255   5.688 -0.1119 -0.6432  0.5547
 6064SOL     OW29653   1.682   3.232  13.727 -0.2831  0.2433  0.2663
 6064SOL    HW129654   1.745   3.300  13.704  1.1171 -1.1633  0.0245
 6064SOL    HW229655   1.744   3.172  13.768 -0.5338  0.5567  1.1188
 6065SOL     OW29656   1.260   1.881   5.206 -0.5639 -0.4416  0.2330
 6065SOL    HW129657   1.350   1.855   5.224 -0.6097 -0.2027  0.8032
 6065SOL    HW229658   1.256   1.861   5.113  0.0366 -0.6327  0.2468
 6066SOL     OW29659   2.151   0.766   5.071  0.7156 -0.5774  0.2049
 6066SOL    HW129660   2.220   0.817   5.112  0.5928 -1.0895  1.0567
 6066SOL    HW229661   2.188   0.770   4.983  1.8621 -0.3276  0.6990
 6067SOL     OW29662   4.330   3.902   6.217 -0.1110 -0.6549 -0.2662
 6067SOL    HW129663   4.343   3.979   6.272 -1.5478  0.6913 -1.8164
 6067SOL    HW229664   4.401   3.841   6.238  0.6857  0.2729 -0.2471
 6068SOL     OW29665   4.186   2.618  12.823  0.0438  0.3743 -0.4122
 6068SOL    HW129666   4.203   2.685  12.889 -2.7872 -0.5694  1.2304
 6068SOL    HW229667   4.241   2.548  12.860  1.0075  1.4853  0.2662
 6069SOL     OW29668   2.972   1.677   1.280 -0.0055 -0.1298  0.4039
 6069SOL    HW129669   2.979   1.600   1.335 -1.3731 -0.0769  0.6431
 6069SOL    HW229670   2.983   1.751   1.340 -0.6144  0.1263  0.2019
 6070SOL     OW29671   1.908   0.255  13.097 -0.4515  0.4065 -0.2038
 6070SOL    HW129672   1.977   0.303  13.050 -2.0524  2.2939 -0.6326
 6070SOL    HW229673   1.916   0.172  13.050 -0.6829  0.8081 -0.9483
 6071SOL     OW29674   1.765   3.817  13.831  0.5203  0.0076 -1.0000
 6071SOL    HW129675   1.694   3.798  13.893  0.1121  4.0115 -0.2964
 6071SOL    HW229676   1.751   3.901  13.788 -0.7241 -1.0714 -2.7242
 6072SOL     OW29677   1.325   2.440   7.832  0.6387  1.1648 -0.0310
 6072SOL    HW129678   1.293   2.448   7.742 -0.5423  1.6766  0.4480
 6072SOL    HW229679   1.413   2.412   7.806  0.0409  0.3820 -1.1917
 6073SOL     OW29680   3.460   2.819   3.821 -0.0981 -0.2293  0.6511
 6073SOL    HW129681   3.399   2.807   3.748 -1.6601  0.6068  1.8396
 6073SOL    HW229682   3.525   2.866   3.767  0.5071 -2.0895 -0.2529
 6074SOL     OW29683   0.481   3.745   5.533 -0.5239 -0.6100 -0.1753
 6074SOL    HW129684   0.528   3.672   5.495 -0.1389  0.1893 -1.2459
 6074SOL    HW229685   0.535   3.762   5.610  0.7518  2.3382 -1.7331
 6075SOL     OW29686   2.423   2.745  16.702 -0.0012 -0.0036 -0.2074
 6075SOL    HW129687   2.436   2.701  16.618  1.6084  0.3822 -0.1545
 6075SOL    HW229688   2.400   2.676  16.764 -0.9500 -1.6819 -2.4183
 6076SOL     OW29689   1.159   3.054  14.533 -0.4442 -0.0303 -0.1098
 6076SOL    HW129690   1.150   3.146  14.557  1.0456  0.1115 -0.0808
 6076SOL    HW229691   1.171   3.021  14.622  1.0666 -2.1655 -1.0954
 6077SOL     OW29692   1.081   1.280   6.500  0.0040  0.5385  0.8394
 6077SOL    HW129693   0.992   1.306   6.523 -1.1425 -4.0634  1.6262
 6077SOL    HW229694   1.086   1.190   6.532  0.9298 -0.0425 -0.9429
 6078SOL     OW29695   2.979   3.453   5.737 -0.1191 -0.2239 -0.4949
 6078SOL    HW129696   2.994   3.411   5.821 -1.2781 -0.6857 -0.5178
 6078SOL    HW229697   2.966   3.545   5.760  1.4209  0.3022 -1.6917
 6079SOL     OW29698   2.530   1.853  11.850 -0.3898  0.1980 -0.9488
 6079SOL    HW129699   2.468   1.893  11.911  1.1711  1.2761 -0.0749
 6079SOL    HW229700   2.470   1.790  11.810 -1.1068  0.1465  0.2100
 6080SOL     OW29701   4.350   1.520   4.273  0.0105 -0.1209 -0.1208
 6080SOL    HW129702   4.301   1.472   4.206  1.7758  0.1212 -1.5806
 6080SOL    HW229703   4.433   1.510   4.227 -0.3073  0.7869 -0.9148
 6081SOL     OW29704   2.054   4.106   7.965 -0.4302 -0.5707 -0.1754
 6081SOL    HW129705   1.985   4.168   7.942 -1.1489 -1.9429 -1.6933
 6081SOL    HW229706   2.124   4.152   7.918  0.0947 -0.2289  0.9262
 6082SOL     OW29707   0.260   1.520   5.267  0.0804 -0.3431  0.0162
 6082SOL    HW129708   0.247   1.430   5.237 -0.0069 -0.1760 -0.4408
 6082SOL    HW229709   0.338   1.556   5.227 -1.4703  2.5418 -0.4252
 6083SOL     OW29710   2.925   0.988   8.575  0.0142 -0.3938 -0.2839
 6083SOL    HW129711   2.937   0.898   8.546  2.2788 -0.1145 -0.1909
 6083SOL    HW229712   3.011   1.016   8.604 -0.3407  1.2681 -0.8217
 6084SOL     OW29713   1.417   2.165  17.102 -0.2922  0.1389  0.4871
 6084SOL    HW129714   1.390   2.253  17.130 -2.8917  0.2668 -2.3823
 6084SOL    HW229715   1.354   2.139  17.035 -1.2231  0.7718  1.1123
 6085SOL     OW29716   1.125   2.509  10.409 -0.1696  0.0870  0.7573
 6085SOL    HW129717   1.208   2.479  10.371  0.0880  3.9451 -1.7668
 6085SOL    HW229718   1.062   2.471  10.349  2.0122  0.1075 -1.5621
 6086SOL     OW29719   0.114   0.314  16.969  0.0240 -0.4805  0.3881
 6086SOL    HW129720   0.122   0.408  16.953 -0.5379 -0.3103  1.1306
 6086SOL    HW229721   0.105   0.274  16.883  0.3129  1.6727 -0.6298
 6087SOL     OW29722   1.324   0.215   4.930 -0.4579  0.1643  0.3305
 6087SOL    HW129723   1.248   0.156   4.927 -0.1776 -0.0761 -1.7315
 6087SOL    HW229724   1.325   0.239   5.023 -1.3067  0.3602  0.2859
 6088SOL     OW29725   0.435   0.561   5.968 -0.0313  0.0321  0.0877
 6088SOL    HW129726   0.354   0.612   5.967 -1.2464 -1.9378 -0.4558
 6088SOL    HW229727   0.442   0.540   6.062  0.3656 -2.1221 -0.4358
 6089SOL     OW29728   2.766   4.080   3.103  0.1834 -0.0068  0.5459
 6089SOL    HW129729   2.737   4.044   3.019 -2.7388  2.2407  0.5596
 6089SOL    HW229730   2.716   4.025   3.164  0.5147 -0.1182  0.7135
 6090SOL     OW29731   3.871   0.220   0.747  0.8382  0.2098  0.1558
 6090SOL    HW129732   3.905   0.263   0.668  3.0999  0.2152  1.1546
 6090SOL    HW229733   3.827   0.298   0.781  0.2352 -0.4579  0.9123
 6091SOL     OW29734   3.594   3.953   5.040  0.1844 -0.5919 -0.1795
 6091SOL    HW129735   3.526   3.900   4.999  0.9343 -2.1589  0.6353
 6091SOL    HW229736   3.616   4.009   4.965 -4.2245  3.5202  1.5009
 6092SOL     OW29737   2.597   0.613   0.792 -0.2180 -0.0866  0.0222
 6092SOL    HW129738   2.673   0.668   0.772 -0.1421  0.6046  2.1787
 6092SOL    HW229739   2.638   0.527   0.797 -0.7520 -0.4113 -1.3223
 6093SOL     OW29740   3.117   1.356  10.833  0.1097  0.6917  0.3063
 6093SOL    HW129741   3.056   1.289  10.803  0.9309 -0.1233  0.4626
 6093SOL    HW229742   3.069   1.405  10.900  0.3904  1.7074 -0.2328
 6094SOL     OW29743   1.418   2.158   4.425 -0.5678 -0.1654  0.5633
 6094SOL    HW129744   1.345   2.127   4.372  0.1015  1.1917 -1.1423
 6094SOL    HW229745   1.467   2.075   4.428 -0.6045 -0.2157 -0.3466
 6095SOL     OW29746   2.586   0.132   2.521  0.3551  0.4676  0.0029
 6095SOL    HW129747   2.506   0.116   2.570 -0.6173 -1.7953 -2.3719
 6095SOL    HW229748   2.571   0.074   2.447 -1.2883  1.0375 -0.1169
 6096SOL     OW29749   2.220   4.435   5.077 -0.1281  0.3229 -0.9558
 6096SOL    HW129750   2.213   4.515   5.129 -0.6406  1.2331 -2.4178
 6096SOL    HW229751   2.254   4.370   5.138 -1.7893  1.3535  1.0613
 6097SOL     OW29752   3.774   2.564   2.467  0.1512  0.3158 -0.5011
 6097SOL    HW129753   3.685   2.559   2.501 -0.2961 -0.2366 -1.7649
 6097SOL    HW229754   3.765   2.585   2.374 -2.3255  2.4803  0.2599
 6098SOL     OW29755   2.684   3.643  14.603 -0.1742 -0.6680 -0.7635
 6098SOL    HW129756   2.693   3.726  14.557  0.4481 -1.6618 -2.4245
 6098SOL    HW229757   2.591   3.635  14.581 -0.1434 -1.4259 -0.6237
 6099SOL     OW29758   0.656   3.895   6.676 -0.6002  0.2227 -0.3693
 6099SOL    HW129759   0.600   3.942   6.738 -1.2317 -0.6370 -0.2806
 6099SOL    HW229760   0.703   3.959   6.623  0.5325 -1.1103 -0.9818
 6100SOL     OW29761   1.670   1.502   6.856  0.8642 -0.3231 -0.0197
 6100SOL    HW129762   1.607   1.573   6.868  1.5845  0.1886  0.7379
 6100SOL    HW229763   1.749   1.542   6.822  1.3464 -0.6784  0.6804
 6101SOL     OW29764   1.103   4.223   8.374  0.1870 -0.4630 -0.0039
 6101SOL    HW129765   1.088   4.129   8.368 -1.8851 -0.0782 -0.7392
 6101SOL    HW229766   1.036   4.246   8.438  0.1254  2.1589 -1.0056
 6102SOL     OW29767   3.612   1.095   6.464  0.5605  0.4958  0.4996
 6102SOL    HW129768   3.624   1.166   6.400 -0.4388  0.7311  0.5826
 6102SOL    HW229769   3.678   1.033   6.432  2.1461  0.4413  3.8732
 6103SOL     OW29770   0.818   2.060  15.746 -0.2832 -0.5209 -0.7710
 6103SOL    HW129771   0.809   1.976  15.789  1.7955 -0.5552 -0.3982
 6103SOL    HW229772   0.911   2.076  15.767 -0.2981 -1.4682 -0.0144
 6104SOL     OW29773   2.343   3.227   6.490  0.1780 -0.0101  0.6450
 6104SOL    HW129774   2.321   3.262   6.404  1.3735  2.9483  1.5451
 6104SOL    HW229775   2.266   3.171   6.500  0.5167 -0.4710  0.6765
 6105SOL     OW29776   1.320   3.702  15.803  0.4492 -0.4182  0.0869
 6105SOL    HW129777   1.258   3.737  15.739  2.2688  1.7215 -0.4971
 6105SOL    HW229778   1.271   3.635  15.851 -2.5562  1.4714 -0.3284
 6106SOL     OW29779   3.130   2.485   3.956  0.6081  0.2529  0.3170
 6106SOL    HW129780   3.069   2.427   4.002 -0.3397  0.4495 -0.6939
 6106SOL    HW229781   3.089   2.571   3.966  0.2108  0.0506  0.4521
 6107SOL     OW29782   3.316   2.124  15.359  0.0160  0.0772  0.4866
 6107SOL    HW129783   3.395   2.090  15.318 -1.1852 -0.8809 -1.0417
 6107SOL    HW229784   3.266   2.045  15.340  0.7766 -0.6661  1.5603
 6108SOL     OW29785   1.110   3.214   4.525 -0.0263 -0.0268 -0.3281
 6108SOL    HW129786   1.072   3.252   4.446  0.6920  1.1980 -0.0857
 6108SOL    HW229787   1.120   3.119   4.518  0.3235 -0.0087 -0.0873
 6109SOL     OW29788   1.797   2.763   0.188  0.6363 -0.5296 -0.2619
 6109SOL    HW129789   1.844   2.682   0.173 -1.0156 -1.4914 -0.2361
 6109SOL    HW229790   1.707   2.735   0.172  0.5010  0.4316 -1.2106
 6110SOL     OW29791   2.893   2.115  11.980 -0.1704  0.0022  0.3854
 6110SOL    HW129792   2.827   2.049  11.998  0.2690 -0.2154  1.1695
 6110SOL    HW229793   2.883   2.176  12.053 -0.3443  1.2770 -0.6889
 6111SOL     OW29794   1.447   1.228  13.924  0.1971 -0.1106  0.0568
 6111SOL    HW129795   1.520   1.188  13.973 -0.6521  0.2901  1.6487
 6111SOL    HW229796   1.371   1.198  13.973 -0.0219 -0.0809 -0.2667
 6112SOL     OW29797   3.867   4.326   8.322  0.2070  0.0697 -0.1750
 6112SOL    HW129798   3.962   4.334   8.316  0.1266  0.7020 -0.5686
 6112SOL    HW229799   3.848   4.269   8.248  1.3094 -1.3290  0.6185
 6113SOL     OW29800   1.074   0.160   4.548  0.0255 -1.0078 -1.0494
 6113SOL    HW129801   1.151   0.214   4.567 -2.2970  2.2216 -0.7570
 6113SOL    HW229802   1.097   0.074   4.583 -2.2424 -0.6093  1.4108
 6114SOL     OW29803   2.020   1.777   3.213  0.5500  0.6174 -0.1225
 6114SOL    HW129804   1.947   1.743   3.162  1.9448 -2.3504 -0.1498
 6114SOL    HW229805   2.086   1.751   3.148  2.0363 -1.0855  2.0656
 6115SOL     OW29806   0.950   3.990   7.947 -0.2970  0.2551  0.1352
 6115SOL    HW129807   0.926   3.903   7.980  1.0530  0.0350  0.5510
 6115SOL    HW229808   1.002   3.959   7.873 -1.2380  0.5483 -0.6425
 6116SOL     OW29809   1.479   4.000  10.082  0.3360  0.3618  0.3183
 6116SOL    HW129810   1.474   4.096  10.086 -2.4614  0.3422 -2.0395
 6116SOL    HW229811   1.533   3.985  10.159  1.3946 -2.0462 -0.9135
 6117SOL     OW29812   3.927   3.545   3.225  0.3571  0.2100  0.2691
 6117SOL    HW129813   3.886   3.520   3.308 -0.5296 -2.9664 -1.0781
 6117SOL    HW229814   3.850   3.564   3.170  0.2179 -3.0823 -0.7050
 6118SOL     OW29815   1.608   1.355   5.290  0.2372  0.4780  0.3188
 6118SOL    HW129816   1.542   1.411   5.249  1.3401  1.6243  0.1062
 6118SOL    HW229817   1.663   1.356   5.212 -1.1414  0.9282 -0.6314
 6119SOL     OW29818   1.356   2.554   7.319  0.3847  0.6755 -0.4297
 6119SOL    HW129819   1.408   2.627   7.285  0.8357  0.4210 -0.2860
 6119SOL    HW229820   1.418   2.484   7.301  1.6814  0.9089  3.0551
 6120SOL     OW29821   3.042   2.470  11.193 -0.2151  0.3633 -0.2607
 6120SOL    HW129822   3.033   2.433  11.105  0.8958  1.2289 -0.7264
 6120SOL    HW229823   2.959   2.518  11.199  0.3250  1.4465 -1.4255
 6121SOL     OW29824   3.704   4.538  13.865  0.2080 -0.4013  0.0032
 6121SOL    HW129825   3.666   4.479  13.930 -2.1663  1.4349  0.2558
 6121SOL    HW229826   3.649   4.523  13.788 -0.6134  0.1384  0.4872
 6122SOL     OW29827   0.237   1.360   2.313  0.0974 -0.1524 -0.2495
 6122SOL    HW129828   0.301   1.318   2.255 -0.7740  0.6456 -1.7938
 6122SOL    HW229829   0.218   1.450   2.288  1.4879 -0.0196 -0.8240
 6123SOL     OW29830   1.746   0.141  17.581  0.0549  0.2157 -0.0452
 6123SOL    HW129831   1.757   0.105  17.669 -1.8643 -0.3534 -0.0538
 6123SOL    HW229832   1.762   0.064  17.526  0.8013  1.9687 -2.2799
 6124SOL     OW29833   3.015   2.977   2.749  0.7179  0.6106 -0.0094
 6124SOL    HW129834   3.047   2.905   2.695  1.3991 -0.1688  1.4142
 6124SOL    HW229835   2.989   3.044   2.686 -2.1274 -0.3466  0.1349
 6125SOL     OW29836   4.478   4.686   6.300 -0.1776  0.4274  0.3530
 6125SOL    HW129837   4.437   4.715   6.381 -0.5884  0.7048  0.0439
 6125SOL    HW229838   4.531   4.608   6.316 -0.3784  0.3491  0.6254
 6126SOL     OW29839   3.957   4.691   7.820  0.3205 -0.3341 -0.1172
 6126SOL    HW129840   3.906   4.721   7.745  1.0242  1.2117  0.0240
 6126SOL    HW229841   3.922   0.023   7.890 -3.1083 -0.3143 -1.8029
 6127SOL     OW29842   3.055   0.964  15.682  0.2902 -0.3787  0.5023
 6127SOL    HW129843   3.014   0.884  15.715 -1.4523  0.2022 -0.2425
 6127SOL    HW229844   3.124   0.969  15.748 -0.5190 -1.7913  1.4431
 6128SOL     OW29845   2.753   1.841  14.124  0.2260  0.2067  0.5737
 6128SOL    HW129846   2.812   1.816  14.053  0.6107 -0.7737  1.2281
 6128SOL    HW229847   2.697   1.907  14.085 -1.8071 -1.2752  0.9969
 6129SOL     OW29848   4.446   3.333  13.630 -0.7499  0.4326 -0.4281
 6129SOL    HW129849   4.510   3.402  13.615 -1.8276  1.2299 -1.3737
 6129SOL    HW229850   4.357   3.361  13.610  0.0926  2.6672 -1.0051
 6130SOL     OW29851   2.190   1.643   6.710  0.3448  0.3251  0.2415
 6130SOL    HW129852   2.258   1.578   6.730  2.1222  2.1017 -0.0714
 6130SOL    HW229853   2.217   1.723   6.755  1.3595 -1.0973  2.1626
 6131SOL     OW29854   4.265   2.219   9.641  0.8550  0.0813  0.1604
 6131SOL    HW129855   4.299   2.249   9.556 -0.2433  0.8839  0.0083
 6131SOL    HW229856   4.294   2.287   9.702  2.9479  0.2301 -0.9772
 6132SOL     OW29857   2.437   0.599   5.677  0.1635 -0.0763 -0.0374
 6132SOL    HW129858   2.487   0.608   5.596 -0.4636 -3.1046 -0.7611
 6132SOL    HW229859   2.459   0.684   5.715 -2.4914  0.7570 -0.3816
 6133SOL     OW29860   1.914   0.954   1.888  0.1249  0.4093  0.3291
 6133SOL    HW129861   1.916   0.958   1.793 -0.8097  0.6025  0.3241
 6133SOL    HW229862   1.820   0.952   1.903  0.2607  3.0439  1.6339
 6134SOL     OW29863   3.124   3.998   3.441  0.0199  0.2276  0.4388
 6134SOL    HW129864   3.109   4.047   3.360  2.2225  0.0261 -0.1018
 6134SOL    HW229865   3.203   3.951   3.412 -0.1276  0.1253  0.2036
 6135SOL     OW29866   3.315   0.771   6.987  0.3071 -0.0438 -0.0438
 6135SOL    HW129867   3.269   0.781   7.071 -0.8276  1.5437 -0.8466
 6135SOL    HW229868   3.265   0.833   6.935  0.2756  0.7626  0.9402
 6136SOL     OW29869   3.547   3.677   5.197  0.0708  0.4424 -0.5672
 6136SOL    HW129870   3.527   3.732   5.122  1.6283  1.9998  0.1423
 6136SOL    HW229871   3.640   3.659   5.181  0.4645  1.1490  0.9164
 6137SOL     OW29872   1.267   4.478   2.559 -0.2334  0.3017 -0.4683
 6137SOL    HW129873   1.274   4.569   2.585  0.7032  1.0562 -3.3985
 6137SOL    HW229874   1.355   4.444   2.547 -0.1079  1.2095 -2.0854
 6138SOL     OW29875   4.629   1.643   1.955  0.3641  0.0639  0.1996
 6138SOL    HW129876   4.573   1.576   1.914  2.3953 -1.3123 -0.3523
 6138SOL    HW229877   4.714   1.628   1.914  0.2349 -1.4788  0.4893
 6139SOL     OW29878   2.427   4.187   8.485 -0.3392 -0.0888  0.2530
 6139SOL    HW129879   2.378   4.269   8.477 -0.2866 -0.0878 -0.0435
 6139SOL    HW229880   2.374   4.142   8.551  1.2853 -3.3362 -0.6429
 6140SOL     OW29881   1.337   3.704   7.782 -0.0604 -0.5597  0.4039
 6140SOL    HW129882   1.412   3.671   7.830  1.3163 -0.3685 -1.5888
 6140SOL    HW229883   1.338   3.642   7.709 -1.3634 -0.0359 -0.0664
 6141SOL     OW29884   1.765   1.544   7.791  0.7897 -0.5498  0.2323
 6141SOL    HW129885   1.821   1.618   7.815 -0.1811 -1.0140  3.9117
 6141SOL    HW229886   1.692   1.595   7.758  0.0199 -1.6747  0.2079
 6142SOL     OW29887   0.996   1.137   0.853 -0.3168  0.0638  0.1364
 6142SOL    HW129888   1.052   1.213   0.835  0.3418 -0.5401 -0.3787
 6142SOL    HW229889   0.913   1.180   0.873 -1.7858 -2.4873 -0.5849
 6143SOL     OW29890   3.175   0.453  14.214 -0.4381 -0.4572 -0.1951
 6143SOL    HW129891   3.171   0.424  14.305 -0.4080 -0.3205 -0.1501
 6143SOL    HW229892   3.265   0.424  14.198 -0.0095  1.6002 -1.5389
 6144SOL     OW29893   0.335   4.123   3.918  0.3771 -0.5595  0.2412
 6144SOL    HW129894   0.398   4.195   3.913 -0.9927  0.8855  3.7176
 6144SOL    HW229895   0.283   4.144   3.995 -1.0377 -1.1702 -0.5572
 6145SOL     OW29896   1.126   4.314   4.361  0.0114  0.1538  0.2966
 6145SOL    HW129897   1.040   4.276   4.378  0.3071 -0.8283 -0.3739
 6145SOL    HW229898   1.152   4.329   4.452 -2.0462 -2.5190  1.3265
 6146SOL     OW29899   3.503   2.982  16.593  0.2614 -0.0667 -0.7995
 6146SOL    HW129900   3.544   2.913  16.645 -1.8025 -1.1729 -0.6021
 6146SOL    HW229901   3.499   2.947  16.504 -1.2167  0.0125 -0.7717
 6147SOL     OW29902   1.034   2.472   3.827 -0.3840 -0.5990 -0.2865
 6147SOL    HW129903   1.099   2.529   3.786  1.2799 -1.0258  1.7569
 6147SOL    HW229904   1.068   2.387   3.799  0.9353 -0.1147 -0.1205
 6148SOL     OW29905   0.311   1.391  12.409  0.1314  0.1971  0.5532
 6148SOL    HW129906   0.377   1.367  12.344 -0.5905 -2.4738  0.7984
 6148SOL    HW229907   0.313   1.314  12.466 -0.0167 -1.7232 -2.0521
 6149SOL     OW29908   3.747   3.448   4.152 -0.1104 -0.2158  0.6199
 6149SOL    HW129909   3.801   3.497   4.213  0.0478  0.6940 -0.2524
 6149SOL    HW229910   3.722   3.379   4.214  1.2163 -1.2809 -0.0308
 6150SOL     OW29911   2.811   1.376   3.837 -0.5946 -0.5755  0.3094
 6150SOL    HW129912   2.755   1.450   3.816  0.0514 -0.3251 -0.5042
 6150SOL    HW229913   2.893   1.400   3.793 -1.5625  0.1794 -1.0725
 6151SOL     OW29914   1.055   1.021   0.040 -0.4590 -0.2071 -0.4588
 6151SOL    HW129915   1.003   1.086   0.088 -1.7993 -1.6254  0.0243
 6151SOL    HW229916   1.023   0.939   0.078  0.6601 -0.5011 -0.1380
 6152SOL     OW29917   0.130   0.538  16.187  0.6036  0.0543  0.2566
 6152SOL    HW129918   0.074   0.515  16.112 -0.4264 -1.1161  1.3795
 6152SOL    HW229919   0.066   0.519  16.256 -2.8796 -3.3513 -3.9321
 6153SOL     OW29920   1.897   2.051   9.801  0.3164  0.4508 -0.5428
 6153SOL    HW129921   1.950   2.121   9.840  0.1342 -0.2747  0.9953
 6153SOL    HW229922   1.948   1.975   9.830  1.4671  2.0513  1.6621
 6154SOL     OW29923   3.714   4.110   6.681  0.1522  0.3271 -0.3310
 6154SOL    HW129924   3.679   4.062   6.756 -0.6056  0.3453 -0.6713
 6154SOL    HW229925   3.780   4.053   6.642 -2.1793 -2.5389 -0.0330
 6155SOL     OW29926   0.838   1.746   5.398 -0.0087  0.3053 -0.6550
 6155SOL    HW129927   0.824   1.708   5.311  0.5860  1.6421 -1.3363
 6155SOL    HW229928   0.753   1.787   5.411  1.2379  2.4092  0.8203
 6156SOL     OW29929   4.383   1.027   7.921 -0.1010 -0.5220 -0.3799
 6156SOL    HW129930   4.324   1.064   7.855 -0.4224  0.9474  0.7397
 6156SOL    HW229931   4.467   1.031   7.875 -0.2950 -1.8321 -0.8468
 6157SOL     OW29932   0.491   2.859   4.597  0.0663 -0.9751  0.2097
 6157SOL    HW129933   0.538   2.938   4.573  1.6679 -1.3116  2.2223
 6157SOL    HW229934   0.564   2.816   4.642 -0.0469 -0.1729  1.1447
 6158SOL     OW29935   2.694   4.484   2.521  0.3212 -0.3946  0.0247
 6158SOL    HW129936   2.722   4.545   2.589 -0.5461 -0.5036  0.4788
 6158SOL    HW229937   2.605   4.467   2.553  0.2771 -1.4661 -0.6779
 6159SOL     OW29938   3.656   1.000  10.072 -0.3571  0.3905  0.1785
 6159SOL    HW129939   3.684   0.908  10.078  1.6753  0.9961 -0.1865
 6159SOL    HW229940   3.583   1.001  10.135 -1.2731 -2.4648 -0.8282
 6160SOL     OW29941   0.149   0.543  17.421 -0.2269 -0.0715  0.0130
 6160SOL    HW129942   0.194   0.466  17.458 -0.4746  0.3685  1.2529
 6160SOL    HW229943   0.223   0.604  17.420 -1.3356  1.2856  0.7082
 6161SOL     OW29944   4.215   4.450   6.402 -0.5628 -0.8643  1.2249
 6161SOL    HW129945   4.149   4.380   6.398 -0.6264 -0.7618  0.5442
 6161SOL    HW229946   4.275   4.413   6.337 -0.6745 -3.1156  2.3953
 6162SOL     OW29947   3.357   3.238   0.931 -0.2272  0.7145  0.5404
 6162SOL    HW129948   3.381   3.207   0.844  1.9517  0.4121  1.2374
 6162SOL    HW229949   3.346   3.157   0.980  1.4599  1.2122  1.7577
 6163SOL     OW29950   1.562   2.104   2.147 -0.2605  0.5157  0.2981
 6163SOL    HW129951   1.549   2.032   2.085  0.2984  0.8033 -0.1478
 6163SOL    HW229952   1.488   2.162   2.125 -2.7099 -2.1282  1.5718
 6164SOL     OW29953   4.161   1.718   2.385 -0.0181 -0.2786 -0.9969
 6164SOL    HW129954   4.246   1.761   2.374 -0.0695  0.5796  2.0460
 6164SOL    HW229955   4.174   1.679   2.472  0.5962  1.2715 -0.3976
 6165SOL     OW29956   3.097   0.513  12.000  0.0294  0.2828 -1.0601
 6165SOL    HW129957   3.125   0.486  12.088  0.7667  0.6489 -1.1866
 6165SOL    HW229958   3.159   0.582  11.977  1.2868 -0.4552  0.1390
 6166SOL     OW29959   1.119   0.913   2.380  0.6151 -0.1480  0.1414
 6166SOL    HW129960   1.078   0.959   2.306  2.2823  0.7958 -0.1945
 6166SOL    HW229961   1.141   0.984   2.441 -0.1198 -1.2389  1.6529
 6167SOL     OW29962   2.284   1.808   8.859 -0.5534  0.2873 -0.3380
 6167SOL    HW129963   2.219   1.775   8.922 -0.5507 -0.7505 -0.8854
 6167SOL    HW229964   2.368   1.786   8.899 -0.0074  0.3001 -1.4686
 6168SOL     OW29965   3.136   1.180   5.147 -0.0547 -0.3886 -0.0757
 6168SOL    HW129966   3.214   1.126   5.147  0.8355  0.8972 -0.2122
 6168SOL    HW229967   3.119   1.175   5.053  0.4996 -1.3057 -0.1201
 6169SOL     OW29968   0.487   3.543   8.193 -0.3600  0.4799  0.1002
 6169SOL    HW129969   0.423   3.499   8.249 -3.1235  2.7058 -1.3120
 6169SOL    HW229970   0.497   3.630   8.232 -2.0713  0.5269  0.4370
 6170SOL     OW29971   3.862   3.420   6.746  0.0451 -0.7149  0.2043
 6170SOL    HW129972   3.916   3.399   6.822  3.3173  0.9947 -1.6657
 6170SOL    HW229973   3.880   3.514   6.744  2.6624 -1.1864  1.9863
 6171SOL     OW29974   1.027   0.144   2.087  0.2379  0.0869 -0.6305
 6171SOL    HW129975   1.046   0.129   1.994 -1.0547 -2.4517 -0.5009
 6171SOL    HW229976   0.933   0.127   2.088  0.0593  1.2245  1.4047
 6172SOL     OW29977   4.514   1.468   2.718 -0.4746  0.1610  0.5949
 6172SOL    HW129978   4.487   1.555   2.746  0.3594  0.7872 -0.5594
 6172SOL    HW229979   4.605   1.485   2.694 -0.3354 -0.7790  0.4325
 6173SOL     OW29980   0.256   3.617  12.602 -0.2821  0.4069 -0.3054
 6173SOL    HW129981   0.219   3.562  12.670  1.2545 -2.9260 -2.1612
 6173SOL    HW229982   0.345   3.581  12.608 -0.4790 -0.2765 -1.5003
 6174SOL     OW29983   4.342   2.900   4.171  0.1919  0.1338  0.9762
 6174SOL    HW129984   4.433   2.904   4.143  0.1819 -3.5595  0.4866
 6174SOL    HW229985   4.330   2.943   4.256  0.9349  2.9472 -0.3609
 6175SOL     OW29986   3.395   4.091  10.905 -0.3289 -0.1968 -0.0796
 6175SOL    HW129987   3.343   4.012  10.893 -0.6498 -0.1160  0.8022
 6175SOL    HW229988   3.452   4.087  10.828  0.3695  1.1602  0.3789
 6176SOL     OW29989   2.903   1.766  12.259 -0.1559 -0.5107 -0.1536
 6176SOL    HW129990   2.995   1.739  12.264  0.6977  2.5003  0.7629
 6176SOL    HW229991   2.916   1.860  12.272  1.8926 -0.6646 -1.1027
 6177SOL     OW29992   4.361   4.506   7.543 -0.1327 -0.7324 -0.1330
 6177SOL    HW129993   4.420   4.542   7.610  0.1375 -1.2627 -0.0830
 6177SOL    HW229994   4.273   4.534   7.568 -0.0262 -0.4946 -0.0275
 6178SOL     OW29995   4.236   4.105   4.297 -0.3222  0.1740 -0.1665
 6178SOL    HW129996   4.327   4.083   4.276 -0.5467 -0.8277 -0.0608
 6178SOL    HW229997   4.210   4.016   4.321  2.9573 -0.2384  1.8512
 6179SOL     OW29998   1.407   0.025   2.673  0.4871  0.1094  0.1820
 6179SOL    HW129999   1.421   4.691   2.749 -1.2960  2.3672  2.2333
 6179SOL    HW230000   1.495   0.024   2.636 -0.4544 -1.3999 -1.9834
 6180SOL     OW30001   1.141   3.524   4.071 -0.2244 -0.2398  0.5927
 6180SOL    HW130002   1.137   3.438   4.027 -2.3615 -0.7680  1.8089
 6180SOL    HW230003   1.078   3.568   4.014  1.9413  2.1369  0.0560
 6181SOL     OW30004   1.508   3.162   4.945  0.4513  0.5435  0.3299
 6181SOL    HW130005   1.442   3.111   4.897  1.3694 -2.4123  2.1907
 6181SOL    HW230006   1.574   3.168   4.876  0.8839 -1.2644  0.5788
 6182SOL     OW30007   0.360   1.218   7.927  0.2278 -0.2333 -0.3077
 6182SOL    HW130008   0.323   1.234   7.840  0.4244  0.5576 -0.2471
 6182SOL    HW230009   0.281   1.215   7.980  0.1947 -0.6251 -0.3805
 6183SOL     OW30010   1.467   3.404  10.777  0.1938 -0.0336  0.4806
 6183SOL    HW130011   1.523   3.332  10.748 -1.4897 -1.6099  1.1335
 6183SOL    HW230012   1.398   3.352  10.817 -0.2029  0.4301  0.3913
 6184SOL     OW30013   3.112   4.632   4.853 -0.5186 -0.2433 -0.0402
 6184SOL    HW130014   3.184   4.613   4.914 -0.1996  1.3860  0.0931
 6184SOL    HW230015   3.152   4.638   4.766  0.7358  0.6221  0.6039
 6185SOL     OW30016   3.325   2.978   4.733  0.2610  0.5899  0.1007
 6185SOL    HW130017   3.289   3.066   4.722 -0.5378 -0.1485 -3.0238
 6185SOL    HW230018   3.391   2.988   4.802  0.9655 -1.1979 -0.3042
 6186SOL     OW30019   1.163   2.428  11.676  0.3078  0.6149 -0.2644
 6186SOL    HW130020   1.069   2.444  11.671  0.0544 -0.2988  1.3544
 6186SOL    HW230021   1.186   2.461  11.763 -1.0409 -0.0738  0.3579
 6187SOL     OW30022   4.141   1.057  15.144  0.7217 -0.2512  0.1840
 6187SOL    HW130023   4.216   1.060  15.084  0.3908  3.9214 -0.0158
 6187SOL    HW230024   4.100   1.143  15.133 -0.4551 -0.5656  2.1621
 6188SOL     OW30025   3.672   0.415  13.050  0.2872  0.4968  0.0548
 6188SOL    HW130026   3.625   0.468  13.114 -1.2614 -0.6748 -0.1144
 6188SOL    HW230027   3.606   0.348  13.033 -0.6354  1.1980  0.9369
 6189SOL     OW30028   0.969   1.219  12.295  0.4700 -0.0547 -0.2001
 6189SOL    HW130029   1.021   1.274  12.236  0.2099 -2.0081 -2.2432
 6189SOL    HW230030   0.904   1.285  12.320 -0.1828 -1.3373  1.4532
 6190SOL     OW30031   1.672   0.899   5.380 -0.1863  0.1734  0.7869
 6190SOL    HW130032   1.742   0.962   5.392 -0.3506  0.9147 -2.2560
 6190SOL    HW230033   1.597   0.957   5.388  0.2665  0.6963  1.2168
 6191SOL     OW30034   3.566   3.682   4.473 -0.0413 -0.0003  0.7173
 6191SOL    HW130035   3.617   3.759   4.445  1.9597 -2.1532 -1.5518
 6191SOL    HW230036   3.519   3.722   4.546 -1.1452  0.0599 -0.0269
 6192SOL     OW30037   2.570   3.228   1.456  0.9087  0.0233 -0.2917
 6192SOL    HW130038   2.664   3.246   1.452  0.8032  0.7607  0.6990
 6192SOL    HW230039   2.540   3.303   1.507  1.3863  0.0149 -0.0036
 6193SOL     OW30040   2.285   0.277   1.682 -0.1216 -0.2959 -0.0139
 6193SOL    HW130041   2.245   0.224   1.751 -0.3208 -1.6513 -1.1739
 6193SOL    HW230042   2.231   0.352   1.705 -0.7465 -0.5364 -0.6946
 6194SOL     OW30043   3.873   1.397   3.529  0.5491 -0.1858 -0.0474
 6194SOL    HW130044   3.906   1.316   3.490  0.3286 -0.8235  1.0881
 6194SOL    HW230045   3.898   1.385   3.621  0.4190 -2.9985 -0.3798
 6195SOL     OW30046   4.228   4.170   8.211 -0.7662 -0.3499  0.2871
 6195SOL    HW130047   4.172   4.236   8.251 -0.9325  2.1812 -4.0283
 6195SOL    HW230048   4.182   4.164   8.127  0.6564 -0.8274 -0.4519
 6196SOL     OW30049   3.273   2.149  14.425 -0.3070 -0.1576 -0.4061
 6196SOL    HW130050   3.237   2.153  14.336  1.8243 -0.0833 -1.2755
 6196SOL    HW230051   3.223   2.217  14.471  0.4285 -0.2377  0.5054
 6197SOL     OW30052   3.405   2.359   1.082  0.6005 -0.1423 -0.2538
 6197SOL    HW130053   3.446   2.444   1.066 -2.3923  1.6823  1.6883
 6197SOL    HW230054   3.315   2.368   1.049  0.9140  1.1572 -0.7746
 6198SOL     OW30055   2.301   0.259   0.460  0.6023 -0.0303 -0.2006
 6198SOL    HW130056   2.343   0.276   0.544 -0.2337 -1.4985  0.5292
 6198SOL    HW230057   2.329   0.169   0.447  0.0076 -0.3046  0.3829
 6199SOL     OW30058   2.632   1.116   9.784 -0.1629  0.3744 -0.2147
 6199SOL    HW130059   2.582   1.050   9.832 -0.9383  0.6153 -0.7038
 6199SOL    HW230060   2.719   1.098   9.820 -0.0362  0.0841 -0.6641
 6200SOL     OW30061   3.847   3.993   2.189  0.3828 -0.1855  0.2129
 6200SOL    HW130062   3.792   4.008   2.112  1.6761  0.7584 -0.5268
 6200SOL    HW230063   3.841   3.899   2.203 -2.6379  0.2138  1.5860
 6201SOL     OW30064   3.479   3.681   1.293 -0.2734  0.1626  0.4155
 6201SOL    HW130065   3.518   3.697   1.379 -1.8955  1.4736  0.9194
 6201SOL    HW230066   3.413   3.751   1.289 -0.8694 -0.4553 -0.8331
 6202SOL     OW30067   3.597   3.504   3.881  0.0071  0.0204  0.0245
 6202SOL    HW130068   3.631   3.471   3.964  1.4482  0.6222 -0.3156
 6202SOL    HW230069   3.642   3.585   3.858 -0.4214 -0.0686 -1.1541
 6203SOL     OW30070   0.229   0.724   5.991  0.2196 -0.2921 -0.3630
 6203SOL    HW130071   0.210   0.803   6.042  0.6228 -0.5446  0.1751
 6203SOL    HW230072   0.246   0.767   5.907 -1.6556  1.2815  0.0673
 6204SOL     OW30073   3.234   4.500   2.791 -0.2048 -0.7838  0.5543
 6204SOL    HW130074   3.149   4.486   2.750  1.5237  0.4179 -3.4423
 6204SOL    HW230075   3.225   4.594   2.806  0.8405 -0.4200 -1.1567
 6205SOL     OW30076   4.093   2.280   9.910 -0.4196 -0.2936  0.1833
 6205SOL    HW130077   4.038   2.225   9.855 -0.6781  0.8210 -0.6749
 6205SOL    HW230078   4.167   2.221   9.925  0.8858  0.3339 -4.0261
 6206SOL     OW30079   4.329   4.329  13.195  0.1265  0.1957  0.2124
 6206SOL    HW130080   4.389   4.402  13.214 -1.3198  1.2279  0.8167
 6206SOL    HW230081   4.375   4.257  13.240 -1.0110 -0.2094  0.7172
 6207SOL     OW30082   2.696   4.334   4.991  0.3503 -0.1214 -0.0967
 6207SOL    HW130083   2.746   4.307   5.067 -0.2853 -0.5839  0.1570
 6207SOL    HW230084   2.762   4.384   4.943 -0.6419  1.5300  0.2376
 6208SOL     OW30085   2.494   4.586  15.046  0.0222 -0.3001 -0.2483
 6208SOL    HW130086   2.559   4.656  15.042  0.3041 -0.5745 -0.5240
 6208SOL    HW230087   2.511   4.551  15.133 -2.4100  2.2811  1.2643
 6209SOL     OW30088   2.433   1.700   9.808  0.1756 -0.3214  0.0081
 6209SOL    HW130089   2.472   1.670   9.890 -0.7442  0.2419  0.6557
 6209SOL    HW230090   2.366   1.633   9.797  0.0359 -0.2868  0.6246
 6210SOL     OW30091   2.701   2.534   7.574  0.1046  0.4832  0.0922
 6210SOL    HW130092   2.701   2.443   7.543 -1.0989  0.6558 -0.4176
 6210SOL    HW230093   2.774   2.532   7.636  1.0017 -2.6441 -1.0460
 6211SOL     OW30094   2.656   1.146  11.612  0.1580  0.5104  0.3018
 6211SOL    HW130095   2.742   1.135  11.570 -0.5107  0.3811 -1.0150
 6211SOL    HW230096   2.633   1.061  11.649 -1.5049  0.4902 -0.7954
 6212SOL     OW30097   1.789   0.525   7.793 -0.3254 -0.3000 -0.4881
 6212SOL    HW130098   1.710   0.474   7.774  1.3182 -3.3662  0.7741
 6212SOL    HW230099   1.755   0.613   7.784  1.0435  0.3695  0.7618
 6213SOL     OW30100   2.822   0.291  16.355 -0.4020 -0.2106 -0.2160
 6213SOL    HW130101   2.828   0.297  16.450 -1.8182 -2.0775 -0.0112
 6213SOL    HW230102   2.894   0.232  16.335 -1.4070 -1.5712  0.2224
 6214SOL     OW30103   4.371   2.654  12.622  0.8841 -0.1945  0.5854
 6214SOL    HW130104   4.333   2.591  12.560  1.8255  0.7672 -0.9823
 6214SOL    HW230105   4.297   2.669  12.681  0.0874 -1.2816 -0.1383
 6215SOL     OW30106   3.631   3.299   6.095  0.2494 -0.5860  0.6155
 6215SOL    HW130107   3.590   3.273   6.012 -2.3606  0.7567  1.4718
 6215SOL    HW230108   3.656   3.210   6.119 -0.9656 -1.4810 -1.3376
 6216SOL     OW30109   0.037   2.772   6.538 -0.1365 -0.4283  0.0539
 6216SOL    HW130110   0.101   2.760   6.609  1.9257 -0.1682 -1.7488
 6216SOL    HW230111   0.038   2.867   6.529 -0.2536 -0.3622  0.7136
 6217SOL     OW30112   4.034   4.612   7.128  0.4573  0.6066  0.5833
 6217SOL    HW130113   3.971   4.547   7.098 -0.3351  2.2142 -1.2454
 6217SOL    HW230114   3.972   4.684   7.138 -0.3173 -0.0245  0.3134
 6218SOL     OW30115   0.339   2.678   3.175 -0.8951 -0.0265 -0.6902
 6218SOL    HW130116   0.251   2.710   3.157 -0.2665 -0.1655 -4.0541
 6218SOL    HW230117   0.329   2.590   3.137 -0.8900 -1.0997  1.8222
 6219SOL     OW30118   0.347   1.241  11.828  0.5990 -0.2615  0.0191
 6219SOL    HW130119   0.259   1.237  11.864  1.3797  0.5415  1.9994
 6219SOL    HW230120   0.335   1.298  11.752  0.7668 -0.7327 -0.3563
 6220SOL     OW30121   2.085   3.431  11.247  0.3003 -0.5478  0.1829
 6220SOL    HW130122   2.090   3.335  11.240 -0.2874 -0.5963  0.4384
 6220SOL    HW230123   2.059   3.464  11.161  0.2005 -2.8526 -0.6669
 6221SOL     OW30124   2.156   0.896   1.617 -0.5000 -0.2358  0.2522
 6221SOL    HW130125   2.102   0.972   1.639  0.4061  0.4780  0.0196
 6221SOL    HW230126   2.132   0.885   1.525  0.7332  2.1648 -0.3439
 6222SOL     OW30127   3.824   4.052  12.248 -0.1307  0.2546 -0.5154
 6222SOL    HW130128   3.810   3.993  12.173 -0.0073 -0.9258  0.3954
 6222SOL    HW230129   3.918   4.037  12.258 -0.2945  0.6193  1.5013
 6223SOL     OW30130   1.021   4.478   9.948 -0.0617 -0.1310 -0.5378
 6223SOL    HW130131   1.051   4.564   9.980  0.8184 -1.0423  1.0865
 6223SOL    HW230132   1.017   4.432  10.032 -2.1974 -1.8019 -1.5777
 6224SOL     OW30133   0.847   1.079   8.248  0.2456 -0.4331 -0.3434
 6224SOL    HW130134   0.899   1.154   8.276  0.0203 -0.4836  0.2029
 6224SOL    HW230135   0.851   1.102   8.155 -0.1827  0.3518 -0.1680
 6225SOL     OW30136   1.720   3.458   9.989  0.0346  0.5372  0.2901
 6225SOL    HW130137   1.643   3.514  10.004 -1.4497 -1.4917  0.2144
 6225SOL    HW230138   1.771   3.523   9.940 -0.0395  0.9360  0.7434
 6226SOL     OW30139   1.763   2.042   3.448 -0.3406 -0.4637  0.3455
 6226SOL    HW130140   1.753   2.134   3.427 -1.3812 -0.6547 -0.0033
 6226SOL    HW230141   1.697   2.001   3.391 -0.3718 -0.9095  0.6958
 6227SOL     OW30142   1.640   2.543  13.990  0.0300  0.3887  0.6550
 6227SOL    HW130143   1.660   2.633  14.016  1.2762  0.6457 -1.2084
 6227SOL    HW230144   1.552   2.551  13.952 -1.0193 -0.3541  2.9632
 6228SOL     OW30145   2.524   2.785   3.271 -0.6999  0.6268 -0.1306
 6228SOL    HW130146   2.493   2.781   3.180  0.1292 -0.1459 -0.3825
 6228SOL    HW230147   2.616   2.811   3.264 -1.2595  1.9756 -2.5106
 6229SOL     OW30148   0.069   0.634   4.504  0.5616  0.2175  0.4518
 6229SOL    HW130149   0.059   0.651   4.598  0.0322  3.3793 -0.1626
 6229SOL    HW230150   4.712   0.586   4.482  1.3867 -2.0576  2.4208
 6230SOL     OW30151   2.829   3.619   6.016 -0.4190 -0.1834  0.1435
 6230SOL    HW130152   2.860   3.622   5.925  0.5601 -3.1478  0.4033
 6230SOL    HW230153   2.822   3.712   6.040 -0.5792 -0.2747  0.4489
 6231SOL     OW30154   1.762   2.356  11.209  0.1478 -0.5334  0.2628
 6231SOL    HW130155   1.681   2.388  11.250 -1.0230 -0.2598 -2.2785
 6231SOL    HW230156   1.772   2.274  11.258  2.3883  0.3455  1.2292
 6232SOL     OW30157   0.475   1.526   7.235 -0.1168 -0.3448 -1.0707
 6232SOL    HW130158   0.552   1.469   7.235 -1.6745 -2.4248 -1.4146
 6232SOL    HW230159   0.450   1.504   7.325  0.9810  2.6194 -0.0198
 6233SOL     OW30160   0.038   3.642   9.680 -0.6161  0.0378 -0.8152
 6233SOL    HW130161   0.018   3.671   9.769  0.7650 -0.9080 -0.1959
 6233SOL    HW230162   0.034   3.734   9.653 -1.2120 -0.4182 -2.2726
 6234SOL     OW30163   2.918   0.679   7.006 -0.1878 -0.5690  0.0022
 6234SOL    HW130164   2.839   0.680   7.060  0.0447  1.1038  0.2910
 6234SOL    HW230165   2.876   0.682   6.919 -0.8474  1.9202  0.3950
 6235SOL     OW30166   1.092   3.844  11.496 -0.7244  0.0911 -0.3946
 6235SOL    HW130167   1.149   3.870  11.423  0.2501 -0.2568  0.2425
 6235SOL    HW230168   1.102   3.920  11.553 -0.4005 -1.1887  1.2674
 6236SOL     OW30169   1.770   0.736   3.918  0.3635  0.2775  0.5036
 6236SOL    HW130170   1.852   0.707   3.959  2.0029  0.1083 -2.9036
 6236SOL    HW230171   1.788   0.824   3.885  2.5921  0.3909  2.0028
 6237SOL     OW30172   4.526   0.253  11.079  0.2284  0.2024  0.1502
 6237SOL    HW130173   4.609   0.300  11.079  1.6758 -2.3603  1.6489
 6237SOL    HW230174   4.474   0.301  11.144  0.2212 -0.7537  0.8512
 6238SOL     OW30175   1.234   1.105  14.056 -0.4842 -0.1582  0.2703
 6238SOL    HW130176   1.215   1.146  14.140  1.4192  0.7923  0.2380
 6238SOL    HW230177   1.155   1.114  14.002  0.0961 -0.0765 -0.5721
 6239SOL     OW30178   0.356   0.934   2.138  0.2555 -0.7186  0.2531
 6239SOL    HW130179   0.273   0.969   2.104  0.2221 -0.9213  0.1267
 6239SOL    HW230180   0.384   0.880   2.064  2.2929 -0.1764  0.6481
 6240SOL     OW30181   3.936   4.454   7.953  0.2650 -0.0947 -0.2681
 6240SOL    HW130182   3.951   4.523   7.890  1.8056  0.4418  0.6988
 6240SOL    HW230183   3.859   4.485   8.002  1.5742  0.8400  1.1889
 6241SOL     OW30184   1.099   0.310  12.604  0.3043  0.3571  0.0202
 6241SOL    HW130185   1.103   0.234  12.662 -1.7905 -0.1550 -0.4970
 6241SOL    HW230186   1.114   0.260  12.524 -0.4744 -1.3084  0.9104
 6242SOL     OW30187   1.871   3.128   1.039 -0.1078  0.5334  0.1181
 6242SOL    HW130188   1.907   3.205   1.084 -1.5539  1.1599  0.2020
 6242SOL    HW230189   1.952   3.101   0.996 -0.7913 -0.5322 -0.4827
 6243SOL     OW30190   3.465   0.490   7.586  0.5591  0.1758 -0.5103
 6243SOL    HW130191   3.475   0.409   7.536 -0.4958  0.8522 -1.8203
 6243SOL    HW230192   3.423   0.466   7.669  1.6141  0.1452  0.0141
 6244SOL     OW30193   0.548   4.438   4.237  0.1838  0.3922 -0.0799
 6244SOL    HW130194   0.511   4.515   4.279 -1.5985  0.0838 -1.0665
 6244SOL    HW230195   0.622   4.483   4.196 -0.7256  0.0046 -2.1763
 6245SOL     OW30196   1.255   4.643  10.310 -0.2795 -0.1383 -1.0157
 6245SOL    HW130197   1.218   4.644  10.222 -1.4196 -1.7470 -0.5684
 6245SOL    HW230198   1.184   4.590  10.347  0.2553  1.0029  1.6843
 6246SOL     OW30199   4.697   2.776   8.725  1.3436 -0.2893  0.0180
 6246SOL    HW130200   4.700   2.732   8.640 -0.2721  0.5992 -0.5045
 6246SOL    HW230201   4.615   2.743   8.762  0.5444  0.7425 -0.8378
 6247SOL     OW30202   4.474   0.370  13.109 -0.1154  0.3219  0.4385
 6247SOL    HW130203   4.510   0.436  13.168  0.5348 -1.1503  1.6608
 6247SOL    HW230204   4.400   0.329  13.152  0.2766 -1.0810 -0.2250
 6248SOL     OW30205   1.222   3.955   5.115 -0.1353 -0.2272 -0.7533
 6248SOL    HW130206   1.216   3.979   5.207 -2.3257 -0.7063 -0.7667
 6248SOL    HW230207   1.143   3.993   5.077 -0.0133  0.2591 -0.5215
 6249SOL     OW30208   4.106   1.362   4.081 -0.2196 -0.8370  0.1488
 6249SOL    HW130209   4.170   1.392   4.017  0.6257  2.9203  2.7321
 6249SOL    HW230210   4.031   1.360   4.022  1.0768 -0.3532 -1.5063
 6250SOL     OW30211   2.842   0.588   5.542  0.2011 -0.0713 -0.1090
 6250SOL    HW130212   2.812   0.673   5.574  0.1594  0.3315 -1.2052
 6250SOL    HW230213   2.859   0.539   5.622  0.4730 -0.5362 -0.4587
 6251SOL     OW30214   4.415   1.801   2.505  0.4598 -0.0313  0.0684
 6251SOL    HW130215   4.415   1.896   2.517 -1.0922 -0.0617  0.2658
 6251SOL    HW230216   4.411   1.777   2.598 -2.2586 -0.2437 -0.0968
 6252SOL     OW30217   3.224   4.636   5.326 -0.6004 -0.1319 -0.2082
 6252SOL    HW130218   3.261   4.680   5.402 -4.0720  0.0312  1.3885
 6252SOL    HW230219   3.240   4.712   5.270 -0.7615  1.5547  2.0668
 6253SOL     OW30220   0.747   0.053   6.892 -0.7665 -0.5054  0.4149
 6253SOL    HW130221   0.841   0.068   6.904 -0.7010 -0.0267 -0.7914
 6253SOL    HW230222   0.720   0.135   6.934 -1.3587  0.1348 -1.2204
 6254SOL     OW30223   1.650   4.573  12.030  0.0683  0.8324  0.3022
 6254SOL    HW130224   1.584   4.634  12.062 -1.9812 -1.3534  0.2732
 6254SOL    HW230225   1.736   4.608  12.052  1.6122 -1.4149 -2.1680
 6255SOL     OW30226   0.188   3.334   3.345  0.9903 -0.3904 -0.0786
 6255SOL    HW130227   0.198   3.402   3.411  0.0355 -0.3702  0.0393
 6255SOL    HW230228   0.126   3.380   3.289  0.6971 -0.2491  0.3642
 6256SOL     OW30229   4.078   3.260   2.923  0.2144  0.3695 -0.0815
 6256SOL    HW130230   4.125   3.190   2.879  0.1521  0.8227 -0.8655
 6256SOL    HW230231   4.010   3.271   2.857 -0.5864 -1.4055  0.4582
 6257SOL     OW30232   3.065   2.567   6.302  0.3742  0.1733  0.2778
 6257SOL    HW130233   3.146   2.582   6.254  0.6820  0.1085  0.7807
 6257SOL    HW230234   3.000   2.557   6.233 -0.0395 -0.4074  0.7515
 6258SOL     OW30235   1.845   1.530   9.343 -0.2374 -0.1556 -0.9594
 6258SOL    HW130236   1.932   1.500   9.369  0.2399  0.9342 -1.2969
 6258SOL    HW230237   1.793   1.451   9.360  1.7474 -1.6196 -1.6794
 6259SOL     OW30238   4.387   4.386   9.216 -0.1223  0.2545  0.3363
 6259SOL    HW130239   4.416   4.300   9.185  1.5986  1.1377 -0.4825
 6259SOL    HW230240   4.294   4.365   9.222  0.1537 -1.7399 -2.4023
 6260SOL     OW30241   3.324   2.178  15.627 -0.6253 -0.4200  0.0139
 6260SOL    HW130242   3.357   2.089  15.636  1.1783  0.4217  1.7636
 6260SOL    HW230243   3.281   2.169  15.542 -1.4931  0.0740  0.3913
 6261SOL     OW30244   3.732   3.478   2.741  0.7638  0.3577  0.2611
 6261SOL    HW130245   3.751   3.417   2.813 -0.2902  0.4495  0.6051
 6261SOL    HW230246   3.747   3.423   2.664  3.4409  0.4024  0.7453
 6262SOL     OW30247   2.587   4.476  15.279  0.0032 -0.1486 -0.4333
 6262SOL    HW130248   2.605   4.383  15.287  2.3728  0.5222  1.8258
 6262SOL    HW230249   2.526   4.480  15.353  1.2987 -0.4884  0.6384
 6263SOL     OW30250   1.434   2.258  11.522 -0.2243 -0.5344 -0.4666
 6263SOL    HW130251   1.374   2.333  11.518 -0.3675 -0.4862  2.1738
 6263SOL    HW230252   1.370   2.190  11.545 -0.5756  0.7046  2.1646
 6264SOL     OW30253   2.552   0.550   9.926  0.4393 -0.3359 -0.0719
 6264SOL    HW130254   2.543   0.500   9.845 -0.7256 -0.7275  0.3075
 6264SOL    HW230255   2.577   0.484   9.990 -1.9568 -0.5968  0.5912
 6265SOL     OW30256   1.646   1.444  17.653 -0.2774 -0.1775 -1.1262
 6265SOL    HW130257   1.673   1.530  17.686  2.0494 -0.9593 -1.0265
 6265SOL    HW230258   1.727   1.416  17.611 -0.1434  0.9792 -1.6525
 6266SOL     OW30259   2.752   1.711  16.493 -1.0452 -0.3717  0.0597
 6266SOL    HW130260   2.703   1.661  16.558 -0.0780  1.9596  2.5590
 6266SOL    HW230261   2.784   1.629  16.455 -1.3351 -0.3781 -0.1740
 6267SOL     OW30262   3.703   3.236   3.821 -0.5687 -0.6356 -0.0762
 6267SOL    HW130263   3.765   3.310   3.824 -1.6069  0.2483 -0.5464
 6267SOL    HW230264   3.622   3.277   3.850 -0.1841  0.0827 -0.0022
 6268SOL     OW30265   0.500   4.171   5.139  0.3658  0.0081  0.2362
 6268SOL    HW130266   0.539   4.258   5.135 -0.2197  0.1446 -2.6324
 6268SOL    HW230267   0.412   4.185   5.175 -0.4840 -1.8579 -1.1049
 6269SOL     OW30268   4.684   4.004   9.071  0.2056 -0.5308 -0.4214
 6269SOL    HW130269   4.598   4.045   9.081  0.9388  1.0593 -0.6301
 6269SOL    HW230270   0.001   4.061   9.136 -0.3772 -0.2550 -0.3065
 6270SOL     OW30271   0.966   3.047  12.904  0.4562 -0.2732  0.5119
 6270SOL    HW130272   0.933   3.067  12.991  0.6413 -3.0823  1.2285
 6270SOL    HW230273   0.981   2.953  12.913 -0.0074 -0.3899  0.0611
 6271SOL     OW30274   2.334   4.200   0.378  0.1032 -0.2069  0.3252
 6271SOL    HW130275   2.424   4.168   0.367 -0.4600 -2.2475  1.6497
 6271SOL    HW230276   2.288   4.170   0.300 -0.3196 -0.0723  0.5289
 6272SOL     OW30277   1.805   4.720   7.419  0.2361 -0.0292  0.5107
 6272SOL    HW130278   1.890   0.018   7.458  0.0145  2.2664 -0.2643
 6272SOL    HW230279   1.836   4.693   7.333  0.9516 -0.6471  0.9641
 6273SOL     OW30280   0.137   3.606   2.314 -0.0164  0.2219  0.2652
 6273SOL    HW130281   0.198   3.543   2.351  0.6692  1.9327  2.0412
 6273SOL    HW230282   0.066   3.558   2.271  0.7576 -0.0521 -0.6954
 6274SOL     OW30283   1.182   1.110   2.528 -0.2805  0.3115  0.1459
 6274SOL    HW130284   1.135   1.175   2.581 -0.4077 -0.2918  0.7723
 6274SOL    HW230285   1.273   1.114   2.558  0.3482 -0.6391 -1.6273
 6275SOL     OW30286   3.809   3.534  15.417  0.0880 -0.1938  0.6844
 6275SOL    HW130287   3.745   3.480  15.371 -0.2727 -0.5519  1.5917
 6275SOL    HW230288   3.776   3.533  15.507  0.0028 -2.2783  0.6353
 6276SOL     OW30289   4.462   1.761   3.825  0.6900  0.4382 -0.0742
 6276SOL    HW130290   4.489   1.839   3.873  1.3675  0.4633 -0.4969
 6276SOL    HW230291   4.552   1.729   3.815  0.6005  0.2084 -0.1628
 6277SOL     OW30292   1.805   0.962   7.739 -0.7278  0.1460 -0.2471
 6277SOL    HW130293   1.775   1.019   7.810 -0.8865 -2.8135  2.0531
 6277SOL    HW230294   1.761   0.879   7.758  0.8324  0.0728  3.0744
 6278SOL     OW30295   3.565   1.526  17.302 -0.1068  0.4978 -0.5072
 6278SOL    HW130296   3.507   1.525  17.225 -2.0666  1.3594  0.9457
 6278SOL    HW230297   3.607   1.440  17.302  0.6695  0.8743 -1.4086
 6279SOL     OW30298   2.396   1.863  10.728  0.2439 -0.3391  0.3803
 6279SOL    HW130299   2.352   1.780  10.712 -1.5814  0.5013  1.0094
 6279SOL    HW230300   2.385   1.879  10.822 -0.3293  0.4701  0.1731
 6280SOL     OW30301   2.550   1.453   1.158 -0.2761 -0.5500 -0.0416
 6280SOL    HW130302   2.540   1.462   1.252  0.6990  0.8187 -0.0633
 6280SOL    HW230303   2.639   1.420   1.144 -0.4244 -0.9628 -0.0007
 6281SOL     OW30304   4.712   2.638   2.905  0.2169 -0.6057 -0.0373
 6281SOL    HW130305   0.020   2.590   2.981  0.0150  0.4961  0.7514
 6281SOL    HW230306   4.618   2.621   2.903 -0.3284  1.8028  4.0097
 6282SOL     OW30307   3.840   0.075   7.129 -0.3323  0.6806  0.2267
 6282SOL    HW130308   3.769   0.011   7.134  2.6541 -2.7686 -0.8484
 6282SOL    HW230309   3.801   0.155   7.164  1.1819  1.0681  1.0072
 6283SOL     OW30310   1.794   1.879   0.590 -0.0283 -0.1896 -0.0276
 6283SOL    HW130311   1.847   1.803   0.563 -1.0569 -0.6731 -0.7006
 6283SOL    HW230312   1.740   1.829   0.652  0.1179 -1.3865 -0.8608
 6284SOL     OW30313   2.875   1.423   0.322  0.2812  0.0854  0.2319
 6284SOL    HW130314   2.936   1.428   0.396  2.5623  1.1772 -1.7189
 6284SOL    HW230315   2.913   1.494   0.270  2.0666  1.0657  2.8569
 6285SOL     OW30316   3.791   1.487  12.844 -0.1978  0.3015 -0.7016
 6285SOL    HW130317   3.851   1.562  12.852 -1.2759  1.1904 -0.8757
 6285SOL    HW230318   3.717   1.530  12.888  0.9155  0.2424  1.2440
 6286SOL     OW30319   4.069   4.247   3.548  0.0914 -0.4658  0.2075
 6286SOL    HW130320   4.131   4.174   3.554 -0.4196 -0.8420  0.8599
 6286SOL    HW230321   4.086   4.274   3.457 -2.0380  0.2882  0.0490
 6287SOL     OW30322   2.607   2.663  13.321  0.2026 -0.2345 -0.1189
 6287SOL    HW130323   2.655   2.585  13.293 -1.1971 -1.0079 -0.3759
 6287SOL    HW230324   2.606   2.665  13.417  2.2467  1.5678 -0.1456
 6288SOL     OW30325   1.713   1.119  17.682  0.0225 -0.0778  0.0046
 6288SOL    HW130326   1.768   1.189  17.647  0.5670 -1.0865 -1.1858
 6288SOL    HW230327   1.715   1.135   0.080 -0.4461 -1.3520  0.2326
 6289SOL     OW30328   1.452   1.713   4.649 -0.1071 -0.0682  0.2498
 6289SOL    HW130329   1.409   1.771   4.586  0.7386  0.3878  0.0927
 6289SOL    HW230330   1.535   1.761   4.654 -0.6304  0.8960 -0.4059
 6290SOL     OW30331   1.746   3.015   7.300 -0.2603 -0.5128  0.4476
 6290SOL    HW130332   1.766   2.922   7.311 -3.6218 -1.2313  0.5641
 6290SOL    HW230333   1.822   3.038   7.247 -1.5376 -0.0244 -1.1853
 6291SOL     OW30334   0.484   3.526  17.046  0.7611 -0.2168  0.3687
 6291SOL    HW130335   0.475   3.442  17.090  0.3722 -1.1143 -1.4546
 6291SOL    HW230336   0.533   3.507  16.967 -0.0083 -3.3406  0.6320
 6292SOL     OW30337   0.825   3.142   8.338  0.3382  0.3337  0.4085
 6292SOL    HW130338   0.835   3.057   8.382 -2.5357 -1.8104 -3.0720
 6292SOL    HW230339   0.803   3.102   8.253 -0.8702 -2.3150  1.9669
 6293SOL     OW30340   4.462   1.379   3.496 -0.0590 -0.3378 -0.7829
 6293SOL    HW130341   4.427   1.325   3.567  0.4326  0.2807 -0.0781
 6293SOL    HW230342   4.556   1.372   3.514 -0.1883  0.2351  0.0939
 6294SOL     OW30343   2.881   2.837   7.963 -0.3673 -0.6271  0.5906
 6294SOL    HW130344   2.890   2.925   8.001 -0.3835 -2.0195  3.7766
 6294SOL    HW230345   2.965   2.802   7.991  0.1169  3.1932  3.9902
 6295SOL     OW30346   1.906   0.716  15.751 -0.7760  0.4657  0.2547
 6295SOL    HW130347   1.918   0.681  15.839  1.1913 -0.1309 -0.2595
 6295SOL    HW230348   1.811   0.713  15.740 -0.9033  0.2894  1.3454
 6296SOL     OW30349   3.952   2.085  14.222  0.0057 -0.5598  0.1406
 6296SOL    HW130350   3.859   2.107  14.213  0.4340  0.3313 -2.1131
 6296SOL    HW230351   3.971   2.050  14.136 -0.1170  0.2872 -0.2329
 6297SOL     OW30352   2.751   3.098   8.735 -0.1688  0.4538 -0.9100
 6297SOL    HW130353   2.748   3.004   8.752 -2.9195  0.7914  0.5844
 6297SOL    HW230354   2.683   3.114   8.669  0.1168 -2.8025 -1.9582
 6298SOL     OW30355   0.744   0.148   2.581 -0.2205 -0.3463  0.3191
 6298SOL    HW130356   0.832   0.142   2.618 -0.2419 -1.6330  0.1523
 6298SOL    HW230357   0.715   0.057   2.576 -4.4250  0.9080  1.8439
 6299SOL     OW30358   3.146   3.236   2.422  0.2032  0.3984 -0.0845
 6299SOL    HW130359   3.135   3.330   2.411 -1.6227  0.1937  0.0748
 6299SOL    HW230360   3.056   3.204   2.421 -0.2843  1.8183 -2.0448
 6300SOL     OW30361   1.647   4.611   4.073 -0.5219  0.3860 -1.1254
 6300SOL    HW130362   1.643   4.646   3.984  2.2980  0.0517 -1.3811
 6300SOL    HW230363   1.724   4.655   4.108 -1.3902  1.8944 -1.1224
 6301SOL     OW30364   0.461   0.407   3.185 -0.2182 -0.4748 -0.2455
 6301SOL    HW130365   0.390   0.468   3.167 -0.5827 -0.5057  1.0616
 6301SOL    HW230366   0.521   0.443   3.120  1.8967 -2.2244  0.7386
 6302SOL     OW30367   0.372   4.512   7.468  0.0476  0.0773 -0.6262
 6302SOL    HW130368   0.342   4.518   7.558  0.3079  0.5847 -0.5737
 6302SOL    HW230369   0.317   4.572   7.418 -0.5589  0.4731  0.5225
 6303SOL     OW30370   3.514   2.532   2.211  0.5198  0.3268 -0.5062
 6303SOL    HW130371   3.602   2.501   2.191  1.7445  1.4115  3.2260
 6303SOL    HW230372   3.479   2.463   2.266  0.9333 -0.4199 -1.1810
 6304SOL     OW30373   2.515   1.464   1.963 -0.1072  0.1896  0.1054
 6304SOL    HW130374   2.434   1.514   1.954  0.5558  1.1288 -0.5673
 6304SOL    HW230375   2.484   1.373   1.970  0.5364 -0.0908 -0.6714
 6305SOL     OW30376   1.906   3.716  11.643 -0.0680 -0.6281 -0.0571
 6305SOL    HW130377   1.926   3.801  11.681  2.6238 -1.1922 -0.1981
 6305SOL    HW230378   1.966   3.654  11.684  2.2751  1.7905  0.1673
 6306SOL     OW30379   2.182   2.777   2.132 -0.0266 -0.3432 -0.2369
 6306SOL    HW130380   2.251   2.724   2.093 -1.9597 -1.6296 -1.8964
 6306SOL    HW230381   2.136   2.712   2.185 -2.2609 -0.0391 -1.7859
 6307SOL     OW30382   3.100   2.482  16.943 -0.0050 -0.3053 -0.1497
 6307SOL    HW130383   3.101   2.423  16.868  0.3145 -0.9777  0.3741
 6307SOL    HW230384   3.190   2.478  16.975 -0.6986  1.4309  2.0045
 6308SOL     OW30385   3.007   2.850   0.206 -0.3329 -0.0872  0.1177
 6308SOL    HW130386   2.927   2.797   0.211 -0.5572  0.0665 -1.9743
 6308SOL    HW230387   2.991   2.921   0.269  0.2085 -0.1852  0.3596
 6309SOL     OW30388   4.570   1.870  12.539  0.1964 -0.3980 -0.0538
 6309SOL    HW130389   4.596   1.781  12.516  2.0062 -0.1335  0.9685
 6309SOL    HW230390   4.650   1.897  12.584  0.9634 -1.6842 -0.6410
 6310SOL     OW30391   0.551   1.560   5.012 -0.0369  0.0935 -0.1425
 6310SOL    HW130392   0.508   1.629   5.063  0.8896  0.6548 -0.1157
 6310SOL    HW230393   0.561   1.499   5.085 -0.6484 -1.5700 -1.4421
 6311SOL     OW30394   1.635   0.151   4.211  0.0081 -0.4972  0.1574
 6311SOL    HW130395   1.696   0.093   4.164 -0.5132  0.2439 -1.4246
 6311SOL    HW230396   1.600   0.199   4.137  0.1874 -0.3145  0.1914
 6312SOL     OW30397   1.112   3.881   2.264  0.2046  0.0070  0.1943
 6312SOL    HW130398   1.208   3.889   2.268  0.0354  3.5528 -2.5273
 6312SOL    HW230399   1.092   3.913   2.176  0.9947 -1.1372 -0.3945
 6313SOL     OW30400   1.424   1.571  10.653 -0.3656 -0.0747 -0.1640
 6313SOL    HW130401   1.394   1.542  10.739 -1.5136  1.4876 -0.0375
 6313SOL    HW230402   1.496   1.509  10.644  0.9989  1.2548  1.6069
 6314SOL     OW30403   3.389   1.657   3.779  0.4965 -0.1199  0.8124
 6314SOL    HW130404   3.435   1.728   3.736 -2.2437  1.5400  0.6101
 6314SOL    HW230405   3.416   1.586   3.722  2.2328  1.8762 -0.8467
 6315SOL     OW30406   1.480   2.706   0.095 -0.0904  0.1728  0.1987
 6315SOL    HW130407   1.453   2.769   0.162 -2.6631 -0.0618 -0.5999
 6315SOL    HW230408   1.459   2.623   0.138  1.2716  0.7453  1.9756
 6316SOL     OW30409   2.214   0.949   3.089  0.3710  0.0596 -0.7710
 6316SOL    HW130410   2.140   1.008   3.100 -0.3911 -0.8202 -1.1336
 6316SOL    HW230411   2.290   1.008   3.090 -0.5160  1.1665  0.9857
 6317SOL     OW30412   2.751   1.558   2.050  0.3541  0.2755  0.1323
 6317SOL    HW130413   2.672   1.507   2.032 -0.2426  1.1034  0.3844
 6317SOL    HW230414   2.820   1.497   2.073 -0.6061 -0.4439  1.1062
 6318SOL     OW30415   2.816   2.806   3.293 -0.9891  0.6115 -0.3264
 6318SOL    HW130416   2.828   2.725   3.341  1.5021  1.0260 -0.2728
 6318SOL    HW230417   2.831   2.783   3.201  1.2126 -1.1691  0.4775
 6319SOL     OW30418   4.693   0.924   6.612  0.0186 -0.4753  0.9949
 6319SOL    HW130419   0.034   0.861   6.581 -0.9231 -0.4778 -1.0368
 6319SOL    HW230420   4.681   0.906   6.705  2.5094 -1.1942  1.1540
 6320SOL     OW30421   0.395   1.327   3.959  0.3978 -0.2935  0.3604
 6320SOL    HW130422   0.353   1.246   3.930 -0.3205  1.0373 -2.2753
 6320SOL    HW230423   0.482   1.298   3.986  1.3890  1.5491 -0.8176
 6321SOL     OW30424   1.320   2.253   0.468 -0.6507  0.1277 -0.1433
 6321SOL    HW130425   1.383   2.250   0.540  2.2329 -0.7757 -2.6730
 6321SOL    HW230426   1.349   2.180   0.413  1.1633  2.1850 -1.9175
 6322SOL     OW30427   3.836   2.594   1.969 -0.9032  0.3137 -0.2223
 6322SOL    HW130428   3.925   2.569   1.995 -0.9525  1.9482  1.5096
 6322SOL    HW230429   3.843   2.586   1.873 -1.7489 -2.3141 -0.0922
 6323SOL     OW30430   4.403   4.145   3.737 -0.2291  0.7651  0.3822
 6323SOL    HW130431   4.405   4.109   3.825  0.1501 -0.4670 -0.1350
 6323SOL    HW230432   4.309   4.137   3.725  0.0384  0.7295 -1.6952
 6324SOL     OW30433   3.483   2.149   8.769  0.1668 -0.2651 -0.1045
 6324SOL    HW130434   3.482   2.191   8.855  0.6163  1.0948 -0.7644
 6324SOL    HW230435   3.494   2.059   8.797 -1.3777 -0.2417  0.5643
 6325SOL     OW30436   2.228   3.518   8.564  0.6568  0.4399 -0.5132
 6325SOL    HW130437   2.318   3.545   8.582  0.8605  1.1422 -2.5360
 6325SOL    HW230438   2.210   3.574   8.488 -0.3698  3.2605  1.7882
 6326SOL     OW30439   3.311   0.141  16.424  0.0370 -0.1702  0.1130
 6326SOL    HW130440   3.343   0.080  16.491 -0.2947  0.5638  0.9377
 6326SOL    HW230441   3.389   0.196  16.426  0.1687 -0.4004  1.5356
 6327SOL     OW30442   0.856   4.431   7.313  0.1552  0.1146 -0.2672
 6327SOL    HW130443   0.793   4.382   7.365  0.1916  2.4760  1.9766
 6327SOL    HW230444   0.800   4.506   7.297  1.1860  0.3487 -2.8518
 6328SOL     OW30445   4.410   1.798   8.511  0.0518  0.3351 -0.3090
 6328SOL    HW130446   4.343   1.864   8.489  0.2074  0.6314  0.0989
 6328SOL    HW230447   4.494   1.840   8.492 -0.0127  0.6881  0.1877
 6329SOL     OW30448   1.195   3.941   2.870  0.5033  1.4240 -0.8411
 6329SOL    HW130449   1.289   3.932   2.852  0.4073 -0.4430 -0.3453
 6329SOL    HW230450   1.157   3.986   2.795  0.9541 -0.6509 -2.3077
 6330SOL     OW30451   4.387   0.708   9.981 -0.5471  0.0674  0.2634
 6330SOL    HW130452   4.306   0.670   9.948 -1.6238  2.1301  0.5167
 6330SOL    HW230453   4.412   0.770   9.912 -1.4631  0.7762  0.5649
 6331SOL     OW30454   1.831   3.946   2.461  0.3151  0.5362  0.0311
 6331SOL    HW130455   1.906   4.003   2.475  1.0573 -0.4051 -0.0814
 6331SOL    HW230456   1.862   3.882   2.397  3.0340 -0.6187  2.5241
 6332SOL     OW30457   0.133   1.671  13.851  0.4344 -0.0122 -0.7898
 6332SOL    HW130458   0.077   1.629  13.785 -0.8669  2.1817 -1.0694
 6332SOL    HW230459   0.130   1.759  13.812  0.3226  1.3734  2.3909
 6333SOL     OW30460   2.076   0.745   4.386 -0.1327 -0.5927 -0.1827
 6333SOL    HW130461   2.171   0.738   4.389  0.0674  2.2447  0.1609
 6333SOL    HW230462   2.059   0.829   4.341  1.9253  0.0765  0.3061
 6334SOL     OW30463   1.070   2.481   6.761 -0.1244 -0.3124 -0.2431
 6334SOL    HW130464   1.030   2.474   6.847  0.0850 -0.2718 -0.1431
 6334SOL    HW230465   1.051   2.575   6.761  0.7683 -0.1165 -1.9445
 6335SOL     OW30466   4.460   1.965   3.591  0.2602 -0.1900 -0.2715
 6335SOL    HW130467   4.404   1.964   3.669 -0.9728  0.3581 -1.1414
 6335SOL    HW230468   4.470   2.060   3.588  2.4847 -0.4263 -0.1034
 6336SOL     OW30469   2.662   3.486   5.615 -0.8526 -0.2212  0.1763
 6336SOL    HW130470   2.684   3.567   5.661 -1.3403 -0.5341  0.9491
 6336SOL    HW230471   2.570   3.468   5.636 -0.6387 -1.1046  0.3799
 6337SOL     OW30472   0.358   0.962   6.544  0.2869  0.2299 -0.3243
 6337SOL    HW130473   0.416   1.031   6.513  0.4704  1.5452  2.9339
 6337SOL    HW230474   0.294   0.960   6.473 -0.0333 -0.9207 -0.0109
 6338SOL     OW30475   3.051   0.729  14.361 -0.3703  0.7645  0.4549
 6338SOL    HW130476   3.116   0.800  14.359 -0.5230  0.8426 -1.6499
 6338SOL    HW230477   3.117   0.660  14.373 -2.0181 -0.5706  1.8926
 6339SOL     OW30478   1.871   4.467  15.633  0.1347 -0.5063 -0.1006
 6339SOL    HW130479   1.936   4.537  15.632 -0.3164 -0.0979 -0.8362
 6339SOL    HW230480   1.878   4.427  15.720  0.5439  0.7336  0.4372
 6340SOL     OW30481   4.265   1.314   3.271 -0.1611 -0.1358 -0.5425
 6340SOL    HW130482   4.347   1.275   3.241 -0.1975 -0.8253  0.2684
 6340SOL    HW230483   4.263   1.294   3.364 -0.7685  2.3751 -0.0338
 6341SOL     OW30484   2.124   1.991   4.422 -0.7479  0.7971 -0.0560
 6341SOL    HW130485   2.146   2.065   4.478 -0.9957  1.8465 -1.3359
 6341SOL    HW230486   2.139   1.915   4.478  0.6124  0.9795 -0.1830
 6342SOL     OW30487   0.819   3.397  14.688 -0.1513  0.1479  0.1547
 6342SOL    HW130488   0.732   3.399  14.649 -0.9448  0.2959  1.9616
 6342SOL    HW230489   0.836   3.488  14.711  1.4509  0.1732 -1.0874
 6343SOL     OW30490   4.063   2.702   7.083  0.3359 -0.2076  0.1837
 6343SOL    HW130491   4.103   2.616   7.073  0.0798 -0.5741  2.3666
 6343SOL    HW230492   4.055   2.709   7.178 -1.5159 -1.2464  0.0933
 6344SOL     OW30493   2.888   1.908  17.034 -0.1438  0.1942  0.0977
 6344SOL    HW130494   2.897   1.833  16.975  0.9899  1.0404 -0.8229
 6344SOL    HW230495   2.798   1.896  17.063 -1.0214  0.3234 -2.5193
 6345SOL     OW30496   1.656   3.164   2.348  0.1253  0.3894  0.0516
 6345SOL    HW130497   1.670   3.135   2.258 -0.0940 -0.3620  0.2580
 6345SOL    HW230498   1.580   3.220   2.332  0.8522  0.5294 -2.7860
 6346SOL     OW30499   2.918   4.082  15.117 -0.3318 -0.0468  0.1798
 6346SOL    HW130500   2.855   4.153  15.103  0.1897 -0.1009 -2.5092
 6346SOL    HW230501   2.882   4.007  15.069  2.1017  0.0886 -1.8418
 6347SOL     OW30502   3.055   4.440  16.000 -0.8104 -0.3984  0.0865
 6347SOL    HW130503   3.086   4.350  15.993  0.2222  0.1810 -2.9580
 6347SOL    HW230504   3.115   4.467  16.070 -0.0980  1.6740 -1.3099
 6348SOL     OW30505   1.578   2.636   7.642 -0.2706 -0.1018  0.0468
 6348SOL    HW130506   1.547   2.721   7.610 -2.4025 -1.2149 -0.8666
 6348SOL    HW230507   1.669   2.628   7.616 -0.4285 -2.1268  0.1430
 6349SOL     OW30508   2.314   3.808   0.330  0.5933  0.0930 -0.3598
 6349SOL    HW130509   2.398   3.804   0.376 -0.3968 -1.7983  1.3000
 6349SOL    HW230510   2.268   3.880   0.374 -1.0850 -0.5383 -1.0771
 6350SOL     OW30511   2.725   4.296   6.609 -0.1160 -0.3338 -0.0672
 6350SOL    HW130512   2.676   4.341   6.678 -0.7034 -1.4678  0.2541
 6350SOL    HW230513   2.699   4.347   6.532 -1.9984  0.7017  1.2337
 6351SOL     OW30514   4.281   1.461   2.165  0.5032 -0.7142 -0.4903
 6351SOL    HW130515   4.255   1.369   2.177 -0.7482 -0.5914 -2.2635
 6351SOL    HW230516   4.368   1.453   2.204  0.7186 -1.6481 -1.1536
 6352SOL     OW30517   1.769   1.308  16.822 -0.0079 -0.0277 -0.3518
 6352SOL    HW130518   1.798   1.384  16.872 -1.4815  0.9472 -0.9661
 6352SOL    HW230519   1.738   1.352  16.742 -1.5592 -0.4428  0.0152
 6353SOL     OW30520   3.634   3.571   1.115  0.0979 -0.4061  0.2093
 6353SOL    HW130521   3.690   3.551   1.190 -2.0607  1.8418  2.4018
 6353SOL    HW230522   3.564   3.620   1.158  0.5290 -0.1424  0.6161
 6354SOL     OW30523   1.684   3.088   1.589  0.2029  0.1607 -0.2581
 6354SOL    HW130524   1.629   3.138   1.529 -0.8333 -0.4102  0.2153
 6354SOL    HW230525   1.741   3.040   1.529  1.1561  2.1063 -0.8957
 6355SOL     OW30526   1.351   4.254  10.929 -0.0165 -0.5286 -0.1724
 6355SOL    HW130527   1.414   4.184  10.948  1.4442  0.2532 -2.2027
 6355SOL    HW230528   1.321   4.222  10.844  0.5598 -0.1027 -0.5392
 6356SOL     OW30529   4.474   0.020  17.420  0.0766 -0.2273 -0.3282
 6356SOL    HW130530   4.443   0.045  17.332 -0.1494  0.5801 -0.0219
 6356SOL    HW230531   4.410   4.678  17.448 -1.9081  2.0945  0.5630
 6357SOL     OW30532   1.445   1.759   7.132  0.4233 -0.2023 -0.2145
 6357SOL    HW130533   1.428   1.696   7.202  1.1790 -1.2689 -0.9906
 6357SOL    HW230534   1.527   1.799   7.162  0.4668 -0.6859  0.3140
 6358SOL     OW30535   3.930   0.634  12.473  0.2339 -0.1996  0.2901
 6358SOL    HW130536   3.894   0.588  12.548 -2.1748 -0.1250 -0.8470
 6358SOL    HW230537   3.857   0.679  12.430  1.2909  1.1375 -0.1365
 6359SOL     OW30538   3.757   1.818  16.078 -0.2284  0.0965 -0.3109
 6359SOL    HW130539   3.847   1.842  16.100  0.0502 -1.5578  0.3535
 6359SOL    HW230540   3.726   1.883  16.014 -1.3836 -1.5201 -1.3865
 6360SOL     OW30541   0.968   3.119  15.705  0.2583 -0.3811  0.0376
 6360SOL    HW130542   0.948   3.096  15.796 -0.6969 -1.6955 -0.5082
 6360SOL    HW230543   0.901   3.187  15.693 -0.2814 -1.0421 -0.6489
 6361SOL     OW30544   3.643   3.582  15.116 -0.1015 -0.3499 -0.2405
 6361SOL    HW130545   3.650   3.677  15.118  1.6833 -0.4691 -1.5228
 6361SOL    HW230546   3.610   3.566  15.028  2.4374  1.3119 -1.4951
 6362SOL     OW30547   1.461   3.725   6.273  0.0747  0.1452 -0.2612
 6362SOL    HW130548   1.392   3.750   6.211  1.0146 -0.2520 -1.4681
 6362SOL    HW230549   1.513   3.806   6.276  0.4808 -0.0250 -2.3428
 6363SOL     OW30550   3.081   1.201   2.799  0.1931 -0.3042  0.7965
 6363SOL    HW130551   3.155   1.243   2.755 -1.1062  1.6766  0.5339
 6363SOL    HW230552   3.028   1.170   2.725 -0.3857  0.3793  0.9309
 6364SOL     OW30553   0.801   4.422   3.766 -0.1346  0.0064  0.4881
 6364SOL    HW130554   0.885   4.459   3.791  0.4465 -0.2083 -1.1335
 6364SOL    HW230555   0.747   4.413   3.844 -0.5646 -0.7181  0.1109
 6365SOL     OW30556   1.052   4.604   3.007 -0.2888  0.4509 -0.1999
 6365SOL    HW130557   1.145   4.624   3.019  0.0731 -1.7947  0.7323
 6365SOL    HW230558   1.044   4.513   3.036 -0.0536  0.0243 -1.4698
 6366SOL     OW30559   2.646   0.465  14.537  0.3162  0.7298  0.4221
 6366SOL    HW130560   2.711   0.435  14.600 -0.8351  1.4601  1.9617
 6366SOL    HW230561   2.566   0.453  14.588  0.7918 -1.8220  0.5330
 6367SOL     OW30562   0.575   3.502  13.146 -0.7230  0.3825  0.1482
 6367SOL    HW130563   0.560   3.561  13.220 -1.4946  1.8667 -1.2033
 6367SOL    HW230564   0.509   3.517  13.078  0.6298  1.0206 -1.0255
 6368SOL     OW30565   2.803   4.659   1.103 -0.1081 -0.3443  0.2837
 6368SOL    HW130566   2.751   4.618   1.172  2.0997 -2.8596  0.4731
 6368SOL    HW230567   2.888   4.673   1.146 -0.1350 -3.8468  1.4319
 6369SOL     OW30568   2.134   2.596   3.999  0.8298  0.7731 -0.0576
 6369SOL    HW130569   2.143   2.522   3.938 -1.4950  1.7809 -1.6553
 6369SOL    HW230570   2.129   2.667   3.935  0.5366  0.1159 -0.7564
 6370SOL     OW30571   1.637   0.036   5.648  0.1955  0.3205  0.2381
 6370SOL    HW130572   1.628   0.055   5.554  1.3439  1.5437  0.3807
 6370SOL    HW230573   1.726   0.065   5.668  0.4994 -0.0977 -0.5095
 6371SOL     OW30574   2.900   0.550   8.602 -0.9065  0.4227 -0.1858
 6371SOL    HW130575   2.814   0.571   8.564 -1.3993 -1.4035 -0.0698
 6371SOL    HW230576   2.946   0.634   8.605  1.0423 -0.7275  1.8167
 6372SOL     OW30577   0.095   2.612   6.091 -0.2629 -0.1867 -0.2760
 6372SOL    HW130578   0.094   2.637   5.998  2.4036  1.0325  0.0188
 6372SOL    HW230579   0.130   2.524   6.074  0.5328 -0.4390  2.7384
 6373SOL     OW30580   1.712   0.363   1.265  0.1667  0.4546  0.2164
 6373SOL    HW130581   1.638   0.306   1.288  1.6789 -0.5630  2.5693
 6373SOL    HW230582   1.740   0.398   1.349 -0.1386  0.2839  0.3921
 6374SOL     OW30583   0.149   0.664   7.843  0.2058  0.7712  0.0612
 6374SOL    HW130584   0.094   0.599   7.799 -0.7470  1.3679  0.3553
 6374SOL    HW230585   0.218   0.603   7.869 -0.3328  0.1240 -0.0265
 6375SOL     OW30586   3.351   3.663   3.107  0.1450 -0.4029  0.3045
 6375SOL    HW130587   3.326   3.576   3.075  0.0363 -0.9692  1.8901
 6375SOL    HW230588   3.382   3.647   3.197 -0.4168  1.1611  0.7734
 6376SOL     OW30589   4.255   4.646   0.687  0.4936  0.0365  0.3403
 6376SOL    HW130590   4.272   4.632   0.594 -0.8284  1.9570 -0.1982
 6376SOL    HW230591   4.329   4.698   0.719  0.0826  0.6712  0.2586
 6377SOL     OW30592   0.473   4.704  13.456 -0.0977  0.3512  0.1431
 6377SOL    HW130593   0.521   0.038  13.397  1.5039 -1.9058 -0.7839
 6377SOL    HW230594   0.434   4.652  13.386  2.3165 -0.2910 -0.7209
 6378SOL     OW30595   3.157   3.186   0.667 -0.4349 -0.0692  0.9424
 6378SOL    HW130596   3.148   3.095   0.696  1.6396  0.1545  2.2979
 6378SOL    HW230597   3.250   3.173   0.652 -0.4069  0.1596  0.9245
 6379SOL     OW30598   1.687   2.494   3.695 -0.3364  0.4366 -0.5005
 6379SOL    HW130599   1.703   2.548   3.618 -1.2135  1.2225 -0.1268
 6379SOL    HW230600   1.773   2.455   3.714  0.4470  2.8512  0.8298
 6380SOL     OW30601   4.224   2.651   0.690 -0.3621 -0.2363  0.2621
 6380SOL    HW130602   4.249   2.616   0.776  0.9369  2.5193  1.0054
 6380SOL    HW230603   4.129   2.643   0.692 -0.1261 -2.6471  3.0174
 6381SOL     OW30604   0.700   1.261   6.693 -0.2219 -0.3026 -0.3250
 6381SOL    HW130605   0.668   1.244   6.782  0.7125 -1.9627 -0.2913
 6381SOL    HW230606   0.773   1.322   6.707 -0.4536  0.2714 -1.6832
 6382SOL     OW30607   3.204   1.580   2.610  0.1377 -0.1339  0.0040
 6382SOL    HW130608   3.298   1.563   2.620  0.3576  1.2809  0.2864
 6382SOL    HW230609   3.178   1.490   2.590  0.5736 -0.4438  0.8468
 6383SOL     OW30610   1.655   2.351  15.663  0.2748  0.4394  0.1225
 6383SOL    HW130611   1.681   2.402  15.740  0.9936  0.9223 -0.4360
 6383SOL    HW230612   1.724   2.284  15.658  0.1207  0.2228  0.8131
 6384SOL     OW30613   3.940   4.317   3.890 -0.1017  0.5184 -0.1376
 6384SOL    HW130614   4.006   4.252   3.862 -0.9637 -2.1380  4.0255
 6384SOL    HW230615   3.908   4.282   3.973 -1.2798  0.3423 -0.6718
 6385SOL     OW30616   0.833   2.385   2.891  0.3750  0.0685 -0.3693
 6385SOL    HW130617   0.822   2.458   2.952  0.0750 -1.1508  1.0406
 6385SOL    HW230618   0.745   2.372   2.858  0.6052  0.9232 -1.3122
 6386SOL     OW30619   2.794   3.967  15.420  0.4616 -0.5351 -0.5094
 6386SOL    HW130620   2.748   3.989  15.501  0.9201  2.2418 -1.0297
 6386SOL    HW230621   2.852   3.897  15.451  1.0280 -0.3813 -1.2339
 6387SOL     OW30622   2.289   2.096   4.881  0.7860  0.0187  0.0335
 6387SOL    HW130623   2.385   2.103   4.875  0.8915 -1.5403 -0.0390
 6387SOL    HW230624   2.285   2.001   4.892  0.0432  0.0865  0.2802
 6388SOL     OW30625   1.122   3.258   2.643 -0.1752  0.3399  0.2745
 6388SOL    HW130626   1.097   3.288   2.556 -1.4949  1.3984  1.0167
 6388SOL    HW230627   1.087   3.169   2.635 -0.3196  0.4077  0.1507
 6389SOL     OW30628   2.033   0.385   5.381  0.3052 -0.0840 -0.8620
 6389SOL    HW130629   2.101   0.428   5.329  0.1937 -0.3804 -1.2577
 6389SOL    HW230630   1.993   0.459   5.427 -1.0441 -1.2910 -0.0893
 6390SOL     OW30631   4.501   4.304   7.159 -0.4421  0.3073  0.6243
 6390SOL    HW130632   4.425   4.288   7.215 -1.1599 -1.2424 -0.7909
 6390SOL    HW230633   4.511   4.397   7.178 -5.3963  0.5799  2.0228
 6391SOL     OW30634   1.474   1.193   1.372 -0.5835 -0.3828 -0.8026
 6391SOL    HW130635   1.476   1.262   1.306  1.5099 -1.1068 -1.5080
 6391SOL    HW230636   1.425   1.233   1.444  0.6673  0.4140 -0.4001
 6392SOL     OW30637   1.039   1.948   5.459 -0.0430  0.5337  0.7297
 6392SOL    HW130638   0.956   1.905   5.439 -0.3667  0.9907  1.0766
 6392SOL    HW230639   1.043   2.011   5.387  1.6748  1.6459  1.8109
 6393SOL     OW30640   1.757   2.339   6.244  0.4458  0.4944 -0.1722
 6393SOL    HW130641   1.715   2.380   6.168  0.8831  0.2150 -0.5609
 6393SOL    HW230642   1.730   2.399   6.314  2.0040  0.3225  0.5638
 6394SOL     OW30643   1.668   0.750  16.074 -0.4966  0.1190  0.2215
 6394SOL    HW130644   1.620   0.682  16.122 -0.8404 -0.4110 -0.8817
 6394SOL    HW230645   1.667   0.816  16.144  0.9818  1.2854 -0.8826
 6395SOL     OW30646   3.496   2.934   2.035  0.3032  0.1402 -0.6420
 6395SOL    HW130647   3.467   2.902   2.121 -0.4818 -1.5256 -1.5101
 6395SOL    HW230648   3.489   3.028   2.049  1.2470  0.1342 -0.1811
 6396SOL     OW30649   2.610   2.134  11.764  0.0576  0.5464 -0.2449
 6396SOL    HW130650   2.602   2.109  11.856  3.0132 -1.9213 -0.6499
 6396SOL    HW230651   2.553   2.072  11.718  0.8013 -0.7681  0.5901
 6397SOL     OW30652   3.416   2.094  14.661  0.0030  0.2586 -0.5575
 6397SOL    HW130653   3.480   2.165  14.657  0.2357  0.1133  0.4562
 6397SOL    HW230654   3.369   2.097  14.578  1.1574 -3.9944 -1.3740
 6398SOL     OW30655   3.573   2.287   7.706  0.0593 -0.8934  0.6921
 6398SOL    HW130656   3.487   2.247   7.698 -1.5801  2.5131  1.4366
 6398SOL    HW230657   3.627   2.207   7.708 -0.4403 -1.2434  0.0358
 6399SOL     OW30658   2.699   0.814   9.851  0.0059 -0.0008 -0.7334
 6399SOL    HW130659   2.751   0.735   9.862 -1.5297 -0.7810  0.9796
 6399SOL    HW230660   2.759   0.871   9.803 -0.4338  2.6072  1.8004
 6400SOL     OW30661   1.952   4.703   8.274  0.1997  0.3342 -0.0548
 6400SOL    HW130662   1.926   4.611   8.268 -1.2822  0.6417  1.5043
 6400SOL    HW230663   1.877   0.004   8.220 -0.6565  0.1873  1.0525
 6401SOL     OW30664   4.159   3.679   5.987  0.7984 -0.5390 -0.2002
 6401SOL    HW130665   4.069   3.711   5.989  1.2613  0.7584  0.1469
 6401SOL    HW230666   4.186   3.697   5.897  1.0663 -1.3921 -0.2912
 6402SOL     OW30667   4.652   1.689   2.376 -0.8959 -0.5589 -0.2122
 6402SOL    HW130668   4.559   1.677   2.398 -0.0317 -1.6473  2.8505
 6402SOL    HW230669   4.676   1.736   2.456 -1.0059 -0.0554 -0.4766
 6403SOL     OW30670   3.393   4.428   8.900 -0.3951 -0.2954  0.2945
 6403SOL    HW130671   3.468   4.435   8.842  1.0793  1.3525  2.4052
 6403SOL    HW230672   3.341   4.500   8.863  1.1077  1.6960  2.0343
 6404SOL     OW30673   1.257   4.586   4.014  0.3111  0.2291  0.2492
 6404SOL    HW130674   1.301   4.509   4.049 -1.6442 -0.5328  1.0019
 6404SOL    HW230675   1.307   4.652   4.063 -0.9431  1.0202  0.4455
 6405SOL     OW30676   3.852   2.150  17.257  0.4151 -0.4976 -0.0141
 6405SOL    HW130677   3.834   2.223  17.317  0.2376 -0.9698  0.5010
 6405SOL    HW230678   3.822   2.084  17.319 -0.0069 -0.1775  0.1291
 6406SOL     OW30679   3.777   0.561   3.426  0.2012  0.2026  0.6709
 6406SOL    HW130680   3.825   0.598   3.500  1.0561 -0.3546  0.3976
 6406SOL    HW230681   3.811   0.607   3.350  0.1578 -1.6366 -0.4815
 6407SOL     OW30682   0.043   3.984   0.295 -0.4030 -0.7940 -0.3775
 6407SOL    HW130683   0.113   3.961   0.356 -0.4850 -1.9269 -0.7131
 6407SOL    HW230684   0.021   4.068   0.334 -1.5804 -1.1509 -0.2788
 6408SOL     OW30685   1.993   2.227   7.593  0.5216 -0.9994  0.4673
 6408SOL    HW130686   1.961   2.143   7.624  1.2804 -1.3342  0.3613
 6408SOL    HW230687   1.918   2.272   7.555  0.4663 -2.1479 -0.7649
 6409SOL     OW30688   4.019   0.860   8.262  0.2325 -0.1409 -0.2285
 6409SOL    HW130689   3.993   0.833   8.350 -0.0387  0.5534 -0.0920
 6409SOL    HW230690   4.113   0.842   8.261 -0.0854 -1.7275 -1.8526
 6410SOL     OW30691   2.681   1.375   2.932 -0.5071  0.2220  0.5441
 6410SOL    HW130692   2.718   1.288   2.946 -1.7170  0.1372  3.2497
 6410SOL    HW230693   2.609   1.346   2.877  0.8033 -0.2497 -0.9270
 6411SOL     OW30694   0.673   1.124   6.220  0.2176 -0.1028  0.0875
 6411SOL    HW130695   0.634   1.203   6.182 -1.5602 -1.5912 -1.1199
 6411SOL    HW230696   0.619   1.111   6.298 -0.0835 -0.4944 -0.1850
 6412SOL     OW30697   2.257   1.604   7.648  0.3996  0.1439  0.4983
 6412SOL    HW130698   2.194   1.584   7.717  1.0992  0.4033  1.2057
 6412SOL    HW230699   2.248   1.699   7.658  0.1429  0.0441  1.2163
 6413SOL     OW30700   3.661   0.281   4.969 -0.4096  0.3763 -0.0003
 6413SOL    HW130701   3.688   0.219   5.037 -0.1436  0.9903  0.4471
 6413SOL    HW230702   3.572   0.306   4.994 -0.8827 -0.0450 -1.2841
 6414SOL     OW30703   2.719   4.039   7.240 -0.5983 -0.5860 -0.3456
 6414SOL    HW130704   2.804   4.077   7.222  0.0266 -1.2234  1.2626
 6414SOL    HW230705   2.672   4.060   7.159  2.2212 -0.4854 -1.9286
 6415SOL     OW30706   1.208   1.450   0.128  0.4156 -0.4731  0.5551
 6415SOL    HW130707   1.149   1.408   0.065 -1.1611 -1.9953  3.0164
 6415SOL    HW230708   1.285   1.394   0.123  0.8462  0.2699 -0.8841
 6416SOL     OW30709   4.527   1.270  11.887 -0.3174 -0.1722  0.6697
 6416SOL    HW130710   4.501   1.308  11.802  0.5589 -0.5045  0.2542
 6416SOL    HW230711   4.521   1.176  11.875  0.1863  0.2054 -2.7733
 6417SOL     OW30712   1.936   0.234   1.605  0.0242  0.1552 -0.2695
 6417SOL    HW130713   1.889   0.296   1.550 -0.5474  0.9338  1.0834
 6417SOL    HW230714   1.920   0.268   1.693 -1.4141  1.2210 -0.9405
 6418SOL     OW30715   0.112   1.065   1.782 -0.2390 -0.0166 -0.7239
 6418SOL    HW130716   0.187   1.066   1.722  0.6447  0.3355  0.3690
 6418SOL    HW230717   0.151   1.076   1.869 -2.6569  0.6464  0.2563
 6419SOL     OW30718   1.242   2.390   2.889  0.0639  0.6923 -0.0461
 6419SOL    HW130719   1.324   2.387   2.937 -0.4869 -2.1737  0.7631
 6419SOL    HW230720   1.229   2.484   2.891 -3.5476  0.2387 -1.7519
 6420SOL     OW30721   1.759   3.681   9.398 -0.8511 -0.0288  0.2334
 6420SOL    HW130722   1.829   3.712   9.454 -0.5811  1.9958 -1.2407
 6420SOL    HW230723   1.805   3.625   9.336 -0.2115  0.3736  0.3549
 6421SOL     OW30724   0.149   0.040  11.072 -0.4447 -0.5952 -0.3014
 6421SOL    HW130725   0.232   0.031  11.117  0.1779  1.6446 -0.9650
 6421SOL    HW230726   0.174   0.091  10.994 -1.5338  0.1467 -0.1799
 6422SOL     OW30727   1.947   2.525   0.101  0.3185  0.5053 -0.0498
 6422SOL    HW130728   1.904   2.456   0.051  0.1343 -0.6379  1.6741
 6422SOL    HW230729   1.938   2.591   0.033  1.0233  0.7946  0.1353
 6423SOL     OW30730   3.593   4.512   0.785 -0.2848 -0.2684  0.1225
 6423SOL    HW130731   3.529   4.582   0.792 -0.2336 -0.2014 -0.0643
 6423SOL    HW230732   3.648   4.561   0.724  1.4737 -0.6338  1.4086
 6424SOL     OW30733   2.583   2.174   8.944  0.0105  0.1628  0.0351
 6424SOL    HW130734   2.552   2.159   9.033 -1.9895 -1.5162 -0.9420
 6424SOL    HW230735   2.674   2.199   8.961  0.0631  1.1811 -1.7936
 6425SOL     OW30736   1.445   0.797   4.902 -0.2164  0.0401  0.2052
 6425SOL    HW130737   1.356   0.782   4.869 -0.0756 -0.2526 -0.0416
 6425SOL    HW230738   1.474   0.708   4.918 -1.7127 -0.5496 -0.2828
 6426SOL     OW30739   0.230   3.233   4.606  0.3302  0.2582 -0.2086
 6426SOL    HW130740   0.278   3.271   4.532 -0.3066 -0.4204 -0.9573
 6426SOL    HW230741   0.245   3.139   4.594 -1.5080 -0.2663  1.6215
 6427SOL     OW30742   3.175   3.074   2.105 -0.7243  0.0301  0.1249
 6427SOL    HW130743   3.103   3.127   2.140  0.6961  2.1590 -0.1493
 6427SOL    HW230744   3.229   3.133   2.053 -0.8058  0.6021  0.6855
 6428SOL     OW30745   2.712   1.298   4.884  0.1301 -0.4369  0.0552
 6428SOL    HW130746   2.763   1.219   4.899  0.6567 -0.0594  0.2880
 6428SOL    HW230747   2.783   1.357   4.856  0.2131  0.3863  2.0017
 6429SOL     OW30748   4.552   2.622   7.957  0.1252 -0.1439  0.5605
 6429SOL    HW130749   4.534   2.692   8.019  2.3938  0.9456  0.0056
 6429SOL    HW230750   4.484   2.563   7.990  1.1926 -1.4637  0.4067
 6430SOL     OW30751   2.554   0.502   0.269 -0.0476 -0.1581 -0.6818
 6430SOL    HW130752   2.636   0.465   0.301  0.0661 -0.6350 -1.5274
 6430SOL    HW230753   2.550   0.571   0.335 -1.2465 -0.7650 -0.1222
 6431SOL     OW30754   1.240   2.385   8.866 -0.4838  0.1524 -0.5138
 6431SOL    HW130755   1.239   2.390   8.962  2.3839  0.6672 -0.5235
 6431SOL    HW230756   1.168   2.323   8.850  0.3208 -1.1108  0.7831
 6432SOL     OW30757   2.555   0.931   4.543  0.1703 -0.1500 -0.1995
 6432SOL    HW130758   2.485   0.992   4.563  0.7068  0.4521 -0.1534
 6432SOL    HW230759   2.631   0.989   4.547  1.7186 -2.1024 -1.3514
 6433SOL     OW30760   1.894   4.439   4.279 -0.2689  0.3196 -0.3326
 6433SOL    HW130761   1.927   4.519   4.320  0.1715  0.3850 -0.8123
 6433SOL    HW230762   1.969   4.423   4.221 -0.8903  0.2546 -1.1260
 6434SOL     OW30763   2.672   2.795  16.775 -0.1879  0.4188 -0.1239
 6434SOL    HW130764   2.665   2.890  16.785 -0.7998  0.6144 -2.4033
 6434SOL    HW230765   2.590   2.775  16.729 -0.6935  2.7820 -0.2250
 6435SOL     OW30766   2.355   2.361   7.915  0.4263  0.4028 -0.3679
 6435SOL    HW130767   2.275   2.388   7.869  1.4823  0.5447 -2.1417
 6435SOL    HW230768   2.353   2.429   7.981 -4.9368 -1.2899  1.1925
 6436SOL     OW30769   1.390   2.810   8.596  0.2413 -0.4399  0.1296
 6436SOL    HW130770   1.363   2.752   8.525 -2.0170  0.7529  0.0256
 6436SOL    HW230771   1.330   2.773   8.662  1.9470 -0.1086  1.8737
 6437SOL     OW30772   0.087   2.367   5.280 -0.2509  0.3284  0.5655
 6437SOL    HW130773   0.144   2.306   5.326  1.6410  0.4564 -1.6057
 6437SOL    HW230774   0.129   2.453   5.280  0.4266 -0.0044  0.9489
 6438SOL     OW30775   3.007   2.739  16.616  0.1393 -0.4743 -0.1521
 6438SOL    HW130776   3.100   2.753  16.599  0.6405 -1.2992  2.0132
 6438SOL    HW230777   2.994   2.795  16.693  1.6645 -0.9051  0.4076
 6439SOL     OW30778   1.083   2.387  11.357 -0.3441  0.1403 -0.6341
 6439SOL    HW130779   1.178   2.394  11.367 -0.2343 -0.7935 -1.0847
 6439SOL    HW230780   1.055   2.323  11.422 -4.0496  2.5916  0.2126
 6440SOL     OW30781   0.469   4.408   5.754 -0.2916 -0.2054  0.1225
 6440SOL    HW130782   0.415   4.328   5.751  0.3765 -0.6618  0.2854
 6440SOL    HW230783   0.548   4.368   5.719 -0.7559 -0.1259 -1.0006
 6441SOL     OW30784   0.631   2.451   9.002  0.9438 -0.1815  0.3059
 6441SOL    HW130785   0.563   2.385   8.989 -0.5504  1.7148 -1.5467
 6441SOL    HW230786   0.669   2.421   9.085 -0.9325  0.7894  1.5386
 6442SOL     OW30787   2.799   3.893   8.429  0.1549 -0.1147 -0.2817
 6442SOL    HW130788   2.882   3.864   8.392  0.9953  1.0108  0.7167
 6442SOL    HW230789   2.767   3.811   8.467  3.6509 -1.2176  0.2657
 6443SOL     OW30790   2.182   0.292   3.770  0.3354  0.2365 -1.1012
 6443SOL    HW130791   2.133   0.372   3.750 -0.3346  0.9062  3.2434
 6443SOL    HW230792   2.271   0.327   3.760  0.6099  0.1930  1.1677
 6444SOL     OW30793   3.720   2.274   6.951 -0.3291 -0.3504 -0.1805
 6444SOL    HW130794   3.695   2.190   6.913 -1.3143  0.5295 -1.4558
 6444SOL    HW230795   3.708   2.327   6.872 -0.9031  0.2662  0.3247
 6445SOL     OW30796   4.593   4.698   4.320 -0.3454 -0.0723 -0.0651
 6445SOL    HW130797   4.675   4.648   4.325  0.1475  0.7389 -0.0073
 6445SOL    HW230798   4.541   4.643   4.261 -1.8866  1.6362 -0.3060
 6446SOL     OW30799   0.730   4.154   3.514  0.1073 -0.7006 -0.1587
 6446SOL    HW130800   0.641   4.145   3.481 -0.8722  2.0635  1.6567
 6446SOL    HW230801   0.709   4.152   3.608 -0.0006  1.4198 -0.1492
 6447SOL     OW30802   0.217   2.699   7.379 -0.3177 -0.0598 -0.0430
 6447SOL    HW130803   0.174   2.735   7.456  0.9434  0.0800  0.5937
 6447SOL    HW230804   0.198   2.773   7.321  3.2243  0.3625 -0.6493
 6448SOL     OW30805   2.767   0.643  13.147 -0.7889 -0.0845  0.1123
 6448SOL    HW130806   2.859   0.631  13.124  0.2140  2.9848  2.5123
 6448SOL    HW230807   2.744   0.721  13.097 -4.2402 -0.9563  0.3279
 6449SOL     OW30808   3.819   1.186   4.651 -0.1343 -0.2428 -0.5463
 6449SOL    HW130809   3.894   1.181   4.592 -0.4951 -0.9126 -0.9519
 6449SOL    HW230810   3.745   1.162   4.596 -1.3303  1.4886  0.3271
 6450SOL     OW30811   2.947   4.647   4.049 -0.0479 -0.6776  0.1531
 6450SOL    HW130812   2.921   4.623   3.960 -1.0640  1.4890 -0.1304
 6450SOL    HW230813   3.021   4.586   4.056  1.2294  0.7657 -0.7007
 6451SOL     OW30814   1.737   1.689  16.543  0.0966  0.2215 -0.0190
 6451SOL    HW130815   1.704   1.652  16.626  1.0131  0.6849  0.5465
 6451SOL    HW230816   1.682   1.766  16.532 -2.5006 -1.1301  3.1424
 6452SOL     OW30817   2.294   2.932   0.143  0.5636  0.3114 -0.1803
 6452SOL    HW130818   2.279   2.943   0.049 -0.1311 -0.7848 -0.2113
 6452SOL    HW230819   2.221   2.882   0.182  1.1783 -0.7121 -0.3406
 6453SOL     OW30820   2.648   1.865   3.053  0.1660 -0.2837 -0.0489
 6453SOL    HW130821   2.657   1.771   3.045  0.3392 -0.3218  0.5847
 6453SOL    HW230822   2.686   1.890   2.968 -1.3236  0.7312 -0.4298
 6454SOL     OW30823   3.156   2.866  11.482  0.2069 -0.3369 -0.1335
 6454SOL    HW130824   3.212   2.845  11.557 -1.1816 -0.2050  0.9514
 6454SOL    HW230825   3.124   2.779  11.458 -2.4370  0.7397 -0.5128
 6455SOL     OW30826   4.714   4.322  10.123  0.2302 -0.4416 -0.3608
 6455SOL    HW130827   0.001   4.232  10.155  1.6841  0.6060  2.1114
 6455SOL    HW230828   0.052   4.313  10.050 -1.6641  2.6037 -2.2680
 6456SOL     OW30829   0.760   2.550   8.436 -0.0930 -0.0961  0.1110
 6456SOL    HW130830   0.802   2.544   8.522 -1.3652 -0.8785  0.6818
 6456SOL    HW230831   0.826   2.517   8.375 -1.5591  1.9728 -2.5689
 6457SOL     OW30832   3.734   4.112  11.000 -0.5023  0.0269 -0.2917
 6457SOL    HW130833   3.681   4.142  11.075  0.7032  0.0702  0.5496
 6457SOL    HW230834   3.746   4.022  11.030 -2.1042 -0.3334 -0.7429
 6458SOL     OW30835   0.037   4.645  14.817  0.0261  0.0332  0.0798
 6458SOL    HW130836   4.669   4.641  14.789 -0.1456 -0.9979  0.8166
 6458SOL    HW230837   0.069   4.566  14.773  0.4765  0.0895  0.3106
 6459SOL     OW30838   0.455   1.830   2.214  0.2856 -0.1332  0.3379
 6459SOL    HW130839   0.373   1.855   2.255  0.0401 -1.1791  0.5026
 6459SOL    HW230840   0.424   1.827   2.123  2.6236 -1.5289 -0.4267
 6460SOL     OW30841   4.195   4.604   4.663  0.5842  0.8227  0.0700
 6460SOL    HW130842   4.140   4.682   4.652 -0.4729  0.3733  2.1597
 6460SOL    HW230843   4.138   4.535   4.698 -0.0601  0.3441 -1.9294
 6461SOL     OW30844   2.239   3.592  11.423  0.1657  0.0124 -0.4230
 6461SOL    HW130845   2.170   3.658  11.431  0.9331  0.3451  3.5255
 6461SOL    HW230846   2.192   3.531  11.366  1.2000  0.4428 -1.7427
 6462SOL     OW30847   2.693   2.214   0.647  0.2489 -0.1955  0.4628
 6462SOL    HW130848   2.684   2.275   0.721 -1.3788 -1.5461  1.3902
 6462SOL    HW230849   2.751   2.142   0.671 -1.3313 -1.2523  1.1028
 6463SOL     OW30850   0.950   2.003   6.517  0.0004  0.0583  0.0158
 6463SOL    HW130851   0.924   1.914   6.493 -0.4599  0.0218  0.6209
 6463SOL    HW230852   1.035   1.987   6.557  0.9967 -0.8812 -2.5430
 6464SOL     OW30853   1.626   0.308   7.845 -0.4750  0.5654 -0.0014
 6464SOL    HW130854   1.658   0.227   7.806 -0.5439 -0.1508  1.4377
 6464SOL    HW230855   1.636   0.276   7.935  1.3099  1.5236  0.1457
 6465SOL     OW30856   2.451   2.938   8.705 -0.2553  0.4700 -0.5625
 6465SOL    HW130857   2.531   2.893   8.679  0.0203  0.8765 -0.4126
 6465SOL    HW230858   2.448   2.922   8.799  0.6978  0.5204 -0.5309
 6466SOL     OW30859   1.219   1.819  12.114 -0.4288 -0.1586 -0.4595
 6466SOL    HW130860   1.133   1.838  12.076 -0.3023  0.3254 -0.4999
 6466SOL    HW230861   1.214   1.862  12.199 -1.1266  0.3508 -0.7577
 6467SOL     OW30862   1.872   3.350   8.222 -0.2960 -0.2007 -0.8339
 6467SOL    HW130863   1.782   3.317   8.227  0.2299 -1.2308  1.9219
 6467SOL    HW230864   1.848   3.440   8.198 -1.2502 -0.8432 -2.2377
 6468SOL     OW30865   2.793   0.340  14.747  0.3148  0.3820  0.0768
 6468SOL    HW130866   2.755   0.310  14.830  2.1741 -0.6969  0.5297
 6468SOL    HW230867   2.885   0.342  14.775 -0.5204 -0.3304  2.9477
 6469SOL     OW30868   0.745   0.145   2.080  0.4882  0.6712 -0.1131
 6469SOL    HW130869   0.771   0.224   2.128 -1.3882  1.3291 -0.1675
 6469SOL    HW230870   0.683   0.094   2.133 -1.0305  2.8633  0.2097
 6470SOL     OW30871   1.365   1.089   3.903  0.6173 -0.1537  0.4274
 6470SOL    HW130872   1.288   1.117   3.951  0.2525  3.0926 -2.0208
 6470SOL    HW230873   1.332   1.119   3.818  0.6713  1.8750  1.1137
 6471SOL     OW30874   1.053   4.161   0.122 -0.1974  0.1665 -0.7285
 6471SOL    HW130875   1.085   4.222   0.188 -0.9407  0.2881 -0.4863
 6471SOL    HW230876   1.056   4.082   0.177  0.4146 -0.2745 -1.3855
 6472SOL     OW30877   0.340   0.229   9.304  0.1950 -0.4721  0.2001
 6472SOL    HW130878   0.383   0.257   9.223 -2.9393  1.2694 -0.8515
 6472SOL    HW230879   0.305   0.149   9.265  2.7371 -0.8091 -1.3643
 6473SOL     OW30880   2.551   1.369   5.637  0.3624 -0.1946 -0.2945
 6473SOL    HW130881   2.482   1.430   5.663  0.5342  1.9441 -4.8076
 6473SOL    HW230882   2.628   1.424   5.650  1.4962 -2.3041  1.8388
 6474SOL     OW30883   0.458   0.242   1.783 -0.0559 -0.6570 -0.7869
 6474SOL    HW130884   0.502   0.192   1.851 -0.8294  1.9645  1.6539
 6474SOL    HW230885   0.433   0.320   1.834  1.0433 -0.2447 -0.8784
 6475SOL     OW30886   3.981   3.139   6.085  0.5487 -0.8928  0.0074
 6475SOL    HW130887   3.905   3.196   6.069 -0.8084 -3.1689 -1.5672
 6475SOL    HW230888   4.001   3.157   6.177 -1.4529 -0.1826  0.2974
 6476SOL     OW30889   3.289   0.435  13.261 -0.3561  0.0820  0.2862
 6476SOL    HW130890   3.216   0.449  13.321 -0.7499 -1.1238  0.0946
 6476SOL    HW230891   3.357   0.384  13.307 -0.4979  0.3809  0.8209
 6477SOL     OW30892   1.719   1.430   9.990 -0.2366 -0.2786 -0.9270
 6477SOL    HW130893   1.717   1.412   9.896  0.2313  0.6712 -1.1193
 6477SOL    HW230894   1.814   1.419   9.996 -0.1436  0.4357 -1.0593
 6478SOL     OW30895   2.621   2.882   3.533 -0.5070  0.3966  0.1161
 6478SOL    HW130896   2.616   2.811   3.469  0.3915  1.0826 -0.7221
 6478SOL    HW230897   2.591   2.834   3.610 -0.5850 -0.9386 -0.7516
 6479SOL     OW30898   4.356   2.452   6.388 -0.4413 -0.5885  0.4568
 6479SOL    HW130899   4.390   2.366   6.366  0.6502 -0.0699  0.1479
 6479SOL    HW230900   4.434   2.503   6.407  0.3877 -2.5605  2.3473
 6480SOL     OW30901   2.421   3.541   1.427 -0.1966  0.6281 -0.1973
 6480SOL    HW130902   2.499   3.570   1.380  0.7806 -0.2849  0.8866
 6480SOL    HW230903   2.458   3.511   1.509  0.0926 -0.1446 -0.6094
 6481SOL     OW30904   4.130   2.928   6.461  0.0681 -0.3906  0.0840
 6481SOL    HW130905   4.093   2.854   6.413  0.5724 -0.8937  0.4566
 6481SOL    HW230906   4.223   2.910   6.445  0.4455  0.5492  1.2014
 6482SOL     OW30907   3.172   2.741   7.149 -0.2100  0.2505 -0.4583
 6482SOL    HW130908   3.191   2.800   7.222 -0.8638  0.0763 -0.1439
 6482SOL    HW230909   3.190   2.804   7.080  0.0581 -0.5169 -1.0807
 6483SOL     OW30910   4.511   2.537   4.407 -0.6063 -0.1051 -0.1152
 6483SOL    HW130911   4.503   2.533   4.312 -0.0640  1.4289 -0.2241
 6483SOL    HW230912   4.434   2.486   4.434  1.1832 -1.7921  1.7708
 6484SOL     OW30913   2.642   3.305   6.447 -0.0632 -0.1622  0.0212
 6484SOL    HW130914   2.553   3.273   6.433 -0.1458  0.6594 -1.3648
 6484SOL    HW230915   2.628   3.393   6.484  0.2239  0.2013 -0.7375
 6485SOL     OW30916   3.302   3.458   3.542 -0.2281 -0.4234 -0.7090
 6485SOL    HW130917   3.359   3.532   3.560  0.5273 -0.6892 -2.0884
 6485SOL    HW230918   3.352   3.383   3.576  1.3724  1.3648  0.8534
 6486SOL     OW30919   3.958   2.454   1.469 -0.1557 -0.2985 -0.3943
 6486SOL    HW130920   4.049   2.465   1.442  0.3507  0.5273  1.6257
 6486SOL    HW230921   3.965   2.477   1.562  0.2968 -0.7906 -0.3075
 6487SOL     OW30922   0.481   2.759   7.204  0.0180  0.9082  0.1112
 6487SOL    HW130923   0.421   2.716   7.143  1.3559  1.0913 -1.3433
 6487SOL    HW230924   0.432   2.841   7.211 -2.8964 -0.8296  0.0026
 6488SOL     OW30925   1.705   4.325   0.590  0.0961  0.1876 -0.0958
 6488SOL    HW130926   1.760   4.402   0.609  0.4348  0.6215 -2.8494
 6488SOL    HW230927   1.736   4.299   0.503 -0.9717 -1.4916  0.0254
 6489SOL     OW30928   0.686   3.144   3.705 -0.3464  0.5854  0.4183
 6489SOL    HW130929   0.612   3.117   3.650  0.5231 -2.1711  0.6458
 6489SOL    HW230930   0.747   3.118   3.636  1.0688  1.8629  1.1837
 6490SOL     OW30931   4.721   3.404   7.010  0.3937  0.5166 -0.0159
 6490SOL    HW130932   0.015   3.439   7.097  1.6941  1.9983 -0.8697
 6490SOL    HW230933   0.047   3.464   6.954 -2.4514  0.5561 -2.4800
 6491SOL     OW30934   1.389   1.872  14.067  0.3732  0.0561  0.1556
 6491SOL    HW130935   1.367   1.787  14.104  3.0235 -1.4235 -1.7016
 6491SOL    HW230936   1.409   1.833  13.982 -1.5862 -0.0304 -0.2459
 6492SOL     OW30937   2.158   0.587  15.625  0.5308 -1.0195  0.0126
 6492SOL    HW130938   2.133   0.608  15.535  3.1150 -0.1654 -0.5040
 6492SOL    HW230939   2.073   0.600  15.668  0.5915 -2.4726  0.5638
 6493SOL     OW30940   2.507   1.612   2.210 -0.0395 -0.4251 -0.0725
 6493SOL    HW130941   2.458   1.646   2.135 -3.2897  1.5675  2.9395
 6493SOL    HW230942   2.595   1.608   2.172 -0.0884  0.7605 -0.3189
 6494SOL     OW30943   0.553   4.585   7.004  0.8070 -0.1684  0.7997
 6494SOL    HW130944   0.624   4.648   6.991 -0.2581  1.4505  2.7731
 6494SOL    HW230945   0.575   4.529   6.930 -0.3130 -0.4380  0.6644
 6495SOL     OW30946   0.510   4.192   8.642  0.0926  0.1993 -0.0375
 6495SOL    HW130947   0.469   4.254   8.582  0.5240  0.3412 -0.1833
 6495SOL    HW230948   0.594   4.174   8.599 -0.3688 -1.6394 -0.1731
 6496SOL     OW30949   0.046   2.754   4.721 -0.0008 -0.1817  0.0816
 6496SOL    HW130950   0.044   2.786   4.811  0.8723 -0.2012  0.1059
 6496SOL    HW230951   4.677   2.732   4.709 -0.3838  1.3393  0.1850
 6497SOL     OW30952   2.818   1.681  12.750  0.0812  0.3731 -0.3770
 6497SOL    HW130953   2.795   1.603  12.699 -0.8466  0.7997 -0.6183
 6497SOL    HW230954   2.854   1.638  12.827 -2.0812 -1.9001 -0.6388
 6498SOL     OW30955   1.971   1.729   7.865 -0.1888  0.5825 -0.2239
 6498SOL    HW130956   2.058   1.696   7.843 -0.6122 -0.8490  0.2233
 6498SOL    HW230957   1.961   1.704   7.957 -2.2146  0.9588 -0.3405
 6499SOL     OW30958   3.854   3.280   3.567 -0.2620  0.1099  0.1290
 6499SOL    HW130959   3.868   3.190   3.537 -0.6785  0.0451  0.1343
 6499SOL    HW230960   3.762   3.260   3.582  0.1971 -1.3327  1.0649
 6500SOL     OW30961   4.561   4.212   1.632 -0.2668 -0.1121  0.7993
 6500SOL    HW130962   4.627   4.197   1.564 -1.4015  0.3760 -0.4191
 6500SOL    HW230963   4.618   4.257   1.695 -0.0160 -0.7423  1.0243
 6501SOL     OW30964   0.517   0.753   0.308  0.0661 -0.1244 -0.1291
 6501SOL    HW130965   0.527   0.697   0.385 -2.7081  1.0336  1.0711
 6501SOL    HW230966   0.435   0.800   0.319 -0.8301 -1.5336 -0.6931
 6502SOL     OW30967   4.596   2.963   3.464 -0.4420  0.0891  0.2899
 6502SOL    HW130968   4.635   2.951   3.550 -0.9340 -0.7242  0.4091
 6502SOL    HW230969   4.665   3.008   3.415  1.5567 -1.0269  2.0508
 6503SOL     OW30970   4.633   3.313   8.389  0.5522  0.0921 -0.1355
 6503SOL    HW130971   4.616   3.230   8.345  0.0748  0.1270 -0.0200
 6503SOL    HW230972   4.612   3.376   8.321  0.9097 -1.9306 -2.1020
 6504SOL     OW30973   3.664   0.172   4.715  0.4785 -0.2853  0.5006
 6504SOL    HW130974   3.665   0.207   4.804  4.1740 -3.3993  1.6874
 6504SOL    HW230975   3.612   0.093   4.731  1.4609 -0.2879  3.6463
 6505SOL     OW30976   2.111   0.061   4.102  0.7217  0.5189 -0.4475
 6505SOL    HW130977   2.130   0.130   4.166 -0.7453 -0.5648  1.1498
 6505SOL    HW230978   2.184   0.000   4.108  0.3994  0.1623 -0.1757
 6506SOL     OW30979   2.298   2.407   3.200 -0.0724  0.1670  0.4476
 6506SOL    HW130980   2.230   2.340   3.193  1.2628 -1.0138 -1.3808
 6506SOL    HW230981   2.301   2.437   3.109  1.8432  0.8987  0.7348
 6507SOL     OW30982   0.841   4.199   6.323 -0.1331  0.1775 -0.2254
 6507SOL    HW130983   0.875   4.124   6.275 -0.9700  0.5279 -1.3627
 6507SOL    HW230984   0.895   4.274   6.297 -1.1482  0.4076 -1.6284
 6508SOL     OW30985   0.335   3.638   9.045 -0.0723 -0.2524  0.3198
 6508SOL    HW130986   0.416   3.588   9.054  0.0784 -0.1136 -0.2374
 6508SOL    HW230987   0.283   3.582   8.988  1.1897 -1.5585  0.4588
 6509SOL     OW30988   3.895   1.768   2.337  0.2549 -0.0718 -0.0455
 6509SOL    HW130989   3.870   1.682   2.304  1.1813 -0.3666  0.0142
 6509SOL    HW230990   3.988   1.747   2.341  0.1788 -0.5712 -0.9115
 6510SOL     OW30991   3.861   0.922   4.730  0.1336 -0.1491  0.3542
 6510SOL    HW130992   3.823   1.002   4.693  0.9290  0.6038  1.1670
 6510SOL    HW230993   3.888   0.946   4.819 -0.0404 -1.2525  0.7071
 6511SOL     OW30994   3.654   2.843   9.500  0.3580  0.9184 -0.4092
 6511SOL    HW130995   3.642   2.920   9.444 -1.6796 -0.4193 -1.8080
 6511SOL    HW230996   3.664   2.873   9.590  0.9487  1.1428 -0.5471
 6512SOL     OW30997   1.961   2.678   5.905  0.5215  0.3136 -0.1252
 6512SOL    HW130998   1.961   2.683   5.810 -2.1325  1.1702 -0.0697
 6512SOL    HW230999   1.932   2.589   5.925  0.6753  0.6437  1.5906
 6513SOL     OW31000   1.620   1.950   9.790  0.0439  0.5175 -0.2206
 6513SOL    HW131001   1.660   1.961   9.704 -1.4055  1.0217 -0.8206
 6513SOL    HW231002   1.546   2.009   9.781 -0.5465 -0.3732 -1.3066
 6514SOL     OW31003   1.198   1.632  10.500  0.6408  0.2769  0.1572
 6514SOL    HW131004   1.221   1.643  10.408  1.7226  1.1583  0.5427
 6514SOL    HW231005   1.280   1.616  10.546 -0.1660  0.3774  1.6678
 6515SOL     OW31006   4.178   0.972   4.932  0.2337 -0.7603 -0.2089
 6515SOL    HW131007   4.242   1.041   4.951 -1.4704  0.8829 -0.4545
 6515SOL    HW231008   4.209   0.946   4.845  1.4265 -0.0137 -0.0073
 6516SOL     OW31009   1.141   1.122   7.660  0.3048 -0.0664 -0.7494
 6516SOL    HW131010   1.075   1.191   7.653  0.8199  0.6868  1.6512
 6516SOL    HW231011   1.181   1.115   7.573  0.0329  0.8770 -0.9459
 6517SOL     OW31012   3.728   2.387  12.829 -0.6977 -0.0728  0.4571
 6517SOL    HW131013   3.814   2.362  12.861 -1.5415  0.3832  3.1034
 6517SOL    HW231014   3.713   2.474  12.866 -1.9432 -0.5805  1.1568
 6518SOL     OW31015   4.421   0.590   0.441  0.5043 -0.0439 -0.2047
 6518SOL    HW131016   4.403   0.684   0.434  1.8896  0.0951 -1.9129
 6518SOL    HW231017   4.432   0.594   0.536  4.0078  0.3647 -0.6332
 6519SOL     OW31018   1.359   3.062   7.361  0.4790  0.0394  0.3370
 6519SOL    HW131019   1.394   3.090   7.277  1.5446  2.4756  1.6014
 6519SOL    HW231020   1.285   3.005   7.338  0.6786 -0.6880  1.4831
 6520SOL     OW31021   2.509   2.697   3.719  0.4825  0.3990  0.3994
 6520SOL    HW131022   2.546   2.629   3.662 -0.4809 -1.7956  2.3825
 6520SOL    HW231023   2.539   2.669   3.805 -1.3819  0.3223  1.0327
 6521SOL     OW31024   0.081   2.931  13.406 -0.5185  0.1716 -0.0064
 6521SOL    HW131025   0.112   2.853  13.359 -1.8238  0.0583 -0.6965
 6521SOL    HW231026   0.034   2.905  13.485  0.8128 -1.6812  0.1720
 6522SOL     OW31027   2.906   3.704  16.178 -0.3610 -0.1042 -0.0960
 6522SOL    HW131028   2.822   3.671  16.145  0.1726 -0.8899 -0.6785
 6522SOL    HW231029   2.959   3.728  16.101  0.3238  0.3321  0.5126
 6523SOL     OW31030   2.574   3.091   7.022  0.4902 -0.1859 -0.1825
 6523SOL    HW131031   2.618   3.157   6.969  0.4636 -1.0545 -1.2951
 6523SOL    HW231032   2.482   3.115   7.013  0.5171  1.0991  2.9005
 6524SOL     OW31033   4.453   1.008   5.195 -0.3619  0.2200  0.2901
 6524SOL    HW131034   4.494   0.958   5.265  0.8949  2.7186  1.3554
 6524SOL    HW231035   4.461   1.098   5.229  0.8842  0.6546 -1.2021
 6525SOL     OW31036   3.104   2.115   5.350  0.0214 -0.2170  0.3428
 6525SOL    HW131037   3.057   2.156   5.422 -1.0157 -3.1351  1.3409
 6525SOL    HW231038   3.180   2.174   5.354  2.7393 -3.6075 -0.9344
 6526SOL     OW31039   2.548   1.232  10.071  0.1058 -0.3387 -0.2965
 6526SOL    HW131040   2.639   1.259  10.084  0.3341 -1.1607 -0.1891
 6526SOL    HW231041   2.533   1.229  10.165  1.4752  1.2540 -0.0135
 6527SOL     OW31042   3.870   4.391  11.551 -0.0711  0.5337  0.6539
 6527SOL    HW131043   3.842   4.468  11.600 -0.7902 -0.0765  1.2090
 6527SOL    HW231044   3.901   4.332  11.619 -1.1897 -1.1454 -0.2833
 6528SOL     OW31045   0.750   1.603   9.137 -0.2182  0.1602 -0.9191
 6528SOL    HW131046   0.753   1.597   9.042 -3.7329  0.1158 -1.0390
 6528SOL    HW231047   0.742   1.514   9.170  0.9093 -0.2619 -1.7989
 6529SOL     OW31048   1.833   3.685   9.812  0.0014  0.4632  0.6331
 6529SOL    HW131049   1.795   3.764   9.775 -0.4760 -1.1309 -2.2766
 6529SOL    HW231050   1.862   3.648   9.729  0.2824  0.0880  0.8958
 6530SOL     OW31051   3.504   4.062  15.032 -0.4358  0.0808  0.2474
 6530SOL    HW131052   3.443   4.035  15.100  1.6468 -0.6009  1.8650
 6530SOL    HW231053   3.549   3.980  15.008 -0.7297 -0.7388  2.5553
 6531SOL     OW31054   2.926   2.557   3.373  0.9111  0.1530 -0.2430
 6531SOL    HW131055   2.994   2.580   3.310 -0.0116  1.8192 -0.6226
 6531SOL    HW231056   2.911   2.463   3.363  1.2803  0.0592  0.0812
 6532SOL     OW31057   0.884   4.678   6.270  0.3864 -0.3078  0.1618
 6532SOL    HW131058   0.877   0.021   6.201  3.4994  0.6471  0.7700
 6532SOL    HW231059   0.795   4.659   6.300 -0.2657  0.8614 -1.0207
 6533SOL     OW31060   2.655   4.275  10.412 -0.1828 -0.0357 -0.4137
 6533SOL    HW131061   2.641   4.280  10.506  1.2812 -1.6575 -0.1289
 6533SOL    HW231062   2.716   4.201  10.408 -0.6496 -0.3472 -1.8059
 6534SOL     OW31063   3.681   3.798   3.871 -0.4890 -0.8476 -0.0338
 6534SOL    HW131064   3.628   3.788   3.950  1.8090 -2.9826  1.2450
 6534SOL    HW231065   3.748   3.860   3.898  0.6720 -2.4004  0.6796
 6535SOL     OW31066   0.376   4.607   0.866  0.6951  0.2483 -0.2109
 6535SOL    HW131067   0.363   4.679   0.804 -1.3468  0.7983  0.8913
 6535SOL    HW231068   0.378   4.662   0.944  0.8908  0.4672 -0.3697
 6536SOL     OW31069   1.320   3.395   4.927 -0.4092 -0.2106  0.6012
 6536SOL    HW131070   1.332   3.488   4.943  1.6408 -0.6254  1.5276
 6536SOL    HW231071   1.405   3.358   4.904 -0.6187  0.3444 -1.0087
 6537SOL     OW31072   0.023   1.786   0.857 -0.0861 -0.0319  0.2988
 6537SOL    HW131073   0.023   1.820   0.767 -2.1415 -2.3922 -0.5878
 6537SOL    HW231074   4.675   1.839   0.892 -1.2477 -0.8115 -0.8860
 6538SOL     OW31075   2.343   2.739   3.024  0.4017 -0.1771 -0.0764
 6538SOL    HW131076   2.371   2.675   2.959 -1.2559 -0.5329 -0.4550
 6538SOL    HW231077   2.261   2.699   3.051 -0.0103 -0.4482 -1.6977
 6539SOL     OW31078   3.047   0.212   2.776  0.6166 -0.8147 -0.3346
 6539SOL    HW131079   3.048   0.302   2.809 -0.7798 -0.4689 -1.2740
 6539SOL    HW231080   2.961   0.200   2.737 -0.8952  0.2505  2.6893
 6540SOL     OW31081   3.695   1.270   1.374 -0.2574 -0.3201 -1.3298
 6540SOL    HW131082   3.655   1.351   1.406  0.0833 -0.1175 -1.4022
 6540SOL    HW231083   3.661   1.264   1.285  2.3635  1.1461 -2.4540
 6541SOL     OW31084   3.874   4.289   4.144  0.0859  0.1529  0.0537
 6541SOL    HW131085   3.830   4.365   4.181  1.5733  1.1534 -0.2403
 6541SOL    HW231086   3.812   4.220   4.167  1.7816 -0.7409  1.9409
 6542SOL     OW31087   4.280   4.299   0.460 -0.3807  0.5787  0.4974
 6542SOL    HW131088   4.195   4.271   0.495 -0.3398 -0.8215 -0.5493
 6542SOL    HW231089   4.277   4.395   0.464 -1.4906  0.4598  2.4050
 6543SOL     OW31090   3.094   3.619  15.733 -0.2740  0.6602 -0.0719
 6543SOL    HW131091   3.099   3.582  15.644 -4.4918 -0.3907  0.1258
 6543SOL    HW231092   3.132   3.545  15.781 -0.0508  2.3312  2.2833
 6544SOL     OW31093   1.649   2.147  11.365  0.0484 -0.2651 -0.9742
 6544SOL    HW131094   1.622   2.060  11.335 -1.1422 -0.1113 -0.3085
 6544SOL    HW231095   1.571   2.195  11.391  1.1444  1.5944 -1.0685
 6545SOL     OW31096   3.033   0.306  14.879 -0.5504  0.7196  0.0010
 6545SOL    HW131097   3.019   0.301  14.974  0.5686  0.2641  0.1484
 6545SOL    HW231098   3.118   0.350  14.873 -0.5770  0.5512 -1.4776
 6546SOL     OW31099   0.976   1.384   3.846  0.3800 -0.3541  0.1402
 6546SOL    HW131100   0.887   1.351   3.833  0.6612 -0.5613 -1.1917
 6546SOL    HW231101   0.964   1.463   3.900 -0.4661 -0.9901  0.8849
 6547SOL     OW31102   0.893   0.208  13.511  0.5009  0.2180 -0.1142
 6547SOL    HW131103   0.905   0.247  13.425  2.9518 -0.6525 -0.1697
 6547SOL    HW231104   0.893   0.115  13.488  0.5893 -0.2706  1.8046
 6548SOL     OW31105   3.335   0.502  12.950 -0.4513  0.0758  0.8585
 6548SOL    HW131106   3.322   0.430  13.012  2.5008 -1.6270 -0.4757
 6548SOL    HW231107   3.292   0.579  12.986  0.2729  0.8923 -0.0065
 6549SOL     OW31108   4.378   0.295   1.249  0.6349  0.0192 -0.4687
 6549SOL    HW131109   4.338   0.325   1.330 -1.0982  1.7158 -1.9697
 6549SOL    HW231110   4.432   0.222   1.279 -2.5260 -2.3444 -0.5466
 6550SOL     OW31111   4.313   0.067   6.505  0.0383  0.3499 -0.0919
 6550SOL    HW131112   4.221   0.055   6.529  0.2282 -0.8879  0.0369
 6550SOL    HW231113   4.334   0.141   6.562 -0.5326 -1.8352  3.0235
 6551SOL     OW31114   3.166   0.608   4.805  0.0360  0.2355  0.4527
 6551SOL    HW131115   3.100   0.633   4.870  0.1751  0.2932  0.5702
 6551SOL    HW231116   3.244   0.650   4.840 -0.7103  1.8079  0.2297
 6552SOL     OW31117   3.468   2.580   0.284 -0.1594  0.0104 -0.0846
 6552SOL    HW131118   3.472   2.672   0.313 -2.2866  0.3368 -0.8264
 6552SOL    HW231119   3.533   2.545   0.345 -1.6886 -0.6042  1.1926
 6553SOL     OW31120   1.069   2.636   9.013  0.4115  0.1251  0.3026
 6553SOL    HW131121   1.111   2.693   9.078  2.7811 -1.9138  0.5875
 6553SOL    HW231122   1.057   2.548   9.049 -1.1929  0.2704  0.1219
 6554SOL     OW31123   2.139   2.281  17.544  0.2624  0.8375 -0.7735
 6554SOL    HW131124   2.115   2.202  17.495  2.8241 -0.7551  0.5396
 6554SOL    HW231125   2.218   2.249  17.586  0.0926  0.5815 -0.6457
 6555SOL     OW31126   3.573   1.610   2.047  0.6753  0.3683  0.1619
 6555SOL    HW131127   3.666   1.632   2.040  0.7830  0.0151  0.4677
 6555SOL    HW231128   3.548   1.601   2.139 -1.7402  0.9071 -0.4369
 6556SOL     OW31129   0.808   4.321  15.532  0.1788  0.1872 -0.1686
 6556SOL    HW131130   0.825   4.245  15.477  0.0543  1.4149 -1.9273
 6556SOL    HW231131   0.892   4.366  15.524 -0.3166  0.9740 -1.0551
 6557SOL     OW31132   2.332   2.540  17.300  0.8527  0.2234 -0.1637
 6557SOL    HW131133   2.255   2.544  17.356  0.1110  0.4807 -1.2026
 6557SOL    HW231134   2.314   2.452  17.266  0.5871 -0.2780  1.2663
 6558SOL     OW31135   3.779   3.797   1.991 -0.5181  0.0283 -0.8736
 6558SOL    HW131136   3.814   3.816   2.079 -1.3477 -2.6825  0.0263
 6558SOL    HW231137   3.734   3.715   2.009  1.1343 -0.3849  1.5217
 6559SOL     OW31138   3.833   1.592   2.601  0.4647  0.1235 -0.4602
 6559SOL    HW131139   3.759   1.631   2.647  0.3133 -1.1132  0.3215
 6559SOL    HW231140   3.823   1.615   2.508  0.4646 -0.1747 -0.5334
 6560SOL     OW31141   3.636   1.052   6.077 -0.4085 -0.6414  0.4071
 6560SOL    HW131142   3.603   1.011   6.158 -0.3254 -1.5890 -0.0322
 6560SOL    HW231143   3.724   1.077   6.105 -1.3433  2.0661  0.9019
 6561SOL     OW31144   2.633   2.295   2.775  0.2804 -0.4241  0.1014
 6561SOL    HW131145   2.565   2.228   2.782  0.2920 -0.5496 -0.9968
 6561SOL    HW231146   2.667   2.289   2.864 -1.8581 -0.5108  0.9172
 6562SOL     OW31147   3.422   4.267  13.656 -0.0923 -0.1066  0.3532
 6562SOL    HW131148   3.440   4.290  13.747 -0.3901  3.5154 -0.4962
 6562SOL    HW231149   3.379   4.182  13.667  2.2842 -1.1974  1.3939
 6563SOL     OW31150   2.563   3.548   6.952  0.4541 -0.1187  0.7109
 6563SOL    HW131151   2.628   3.536   7.021  1.1056 -0.4016  0.0446
 6563SOL    HW231152   2.623   3.517   6.884 -4.6333 -2.8224 -2.5611
 6564SOL     OW31153   4.226   1.928   5.250  0.6472  0.0200 -0.3577
 6564SOL    HW131154   4.271   1.916   5.334  0.7842 -1.8499 -0.6894
 6564SOL    HW231155   4.304   1.950   5.200  0.1280  0.3612 -1.0101
 6565SOL     OW31156   4.443   3.262  13.190  0.3094 -0.5752 -0.4420
 6565SOL    HW131157   4.380   3.201  13.150  1.1254 -1.0018 -1.0838
 6565SOL    HW231158   4.464   3.208  13.266  1.6724  1.4580  0.6225
 6566SOL     OW31159   3.120   4.030   2.797 -0.7686 -0.4854  0.1658
 6566SOL    HW131160   3.146   3.991   2.713  2.5824  2.1559 -0.0272
 6566SOL    HW231161   3.192   4.092   2.803 -0.7642 -0.4632 -0.1016
 6567SOL     OW31162   3.627   1.491  12.076 -0.4355  0.3419 -0.5592
 6567SOL    HW131163   3.675   1.572  12.095 -2.2480  1.1283  0.6273
 6567SOL    HW231164   3.693   1.431  12.041  0.2754  0.0290  1.3169
 6568SOL     OW31165   4.462   1.236   4.159  0.6966  0.2937 -0.1039
 6568SOL    HW131166   4.525   1.203   4.223 -1.9722  0.9233  2.8719
 6568SOL    HW231167   4.519   1.304   4.124  0.0107  0.2714 -1.2771
 6569SOL     OW31168   1.408   0.238   3.589 -0.2373  0.2192 -0.4127
 6569SOL    HW131169   1.427   0.164   3.646  1.7384  0.4542 -0.7580
 6569SOL    HW231170   1.429   0.207   3.500  2.0458 -0.5108  0.3852
 6570SOL     OW31171   1.742   4.352  10.370  0.3601 -0.3143 -0.1217
 6570SOL    HW131172   1.764   4.411  10.442 -2.6407  1.1467 -0.3713
 6570SOL    HW231173   1.818   4.351  10.312 -1.0033 -1.9699 -1.8800
 6571SOL     OW31174   2.949   1.853   1.489  0.0947 -0.2365 -0.2811
 6571SOL    HW131175   2.948   1.911   1.565  0.9717  0.8602 -1.0841
 6571SOL    HW231176   2.863   1.815   1.502  1.3360 -1.2986  4.6281
 6572SOL     OW31177   0.283   4.288   9.069  0.1157  0.2820  0.4318
 6572SOL    HW131178   0.195   4.251   9.080 -0.0579  1.1789  1.9802
 6572SOL    HW231179   0.304   4.254   8.981 -0.2471  1.1829 -0.0028
 6573SOL     OW31180   1.285   2.845   2.168 -0.2890  0.6905  0.5603
 6573SOL    HW131181   1.296   2.868   2.076  2.8308  0.0238  0.7463
 6573SOL    HW231182   1.323   2.757   2.165 -0.3612  0.6733  0.2031
 6574SOL     OW31183   1.850   3.664   8.454 -0.2114 -0.0618 -0.1476
 6574SOL    HW131184   1.759   3.665   8.426 -0.3859 -0.5463  0.4045
 6574SOL    HW231185   1.900   3.688   8.375  1.0056 -1.3656  0.2124
 6575SOL     OW31186   1.137   2.237   3.728  0.0097  0.4311 -0.3698
 6575SOL    HW131187   1.214   2.191   3.695 -0.5442  0.6543 -1.9812
 6575SOL    HW231188   1.100   2.256   3.642  2.2652  0.9399 -1.2208
 6576SOL     OW31189   1.329   3.842  15.340 -0.5829 -0.5666 -0.3575
 6576SOL    HW131190   1.423   3.846  15.318 -0.8757  0.1038 -1.4984
 6576SOL    HW231191   1.315   3.754  15.376  0.2778  0.4076  2.2952
 6577SOL     OW31192   4.317   3.853  16.227  0.0385  0.1967 -0.2238
 6577SOL    HW131193   4.407   3.878  16.250 -0.0764 -1.3453  1.8682
 6577SOL    HW231194   4.264   3.884  16.300 -0.5556 -0.2378 -0.4713
 6578SOL     OW31195   4.264   3.698   8.892  0.2092  0.4389  0.0829
 6578SOL    HW131196   4.277   3.791   8.877 -1.6103  0.5912 -0.5407
 6578SOL    HW231197   4.203   3.695   8.966 -1.9605 -1.1205 -1.7878
 6579SOL     OW31198   3.233   3.388   8.497  0.0232  0.0114  0.2214
 6579SOL    HW131199   3.276   3.359   8.417 -1.4854 -1.3175 -0.1176
 6579SOL    HW231200   3.166   3.452   8.472 -0.3497 -2.0911 -4.2016
 6580SOL     OW31201   4.069   1.873   8.017  0.0913 -0.0108  0.7249
 6580SOL    HW131202   4.099   1.907   8.102  1.6344  1.5106 -0.4269
 6580SOL    HW231203   4.097   1.781   8.019  2.4884  0.6617 -2.2811
 6581SOL     OW31204   2.279   1.037   8.264  0.0585  0.1284  0.0470
 6581SOL    HW131205   2.334   0.985   8.205  0.3512  0.7287 -0.2126
 6581SOL    HW231206   2.193   0.995   8.255  0.1311 -0.0923  0.4029
 6582SOL     OW31207   0.958   0.636   4.703 -0.5971  0.0093 -0.0604
 6582SOL    HW131208   0.915   0.592   4.777 -0.3109 -1.1171 -0.5680
 6582SOL    HW231209   0.921   0.600   4.623  0.6661  1.0374 -1.1003
 6583SOL     OW31210   0.532   2.153   0.488 -0.6160  0.0007 -0.8036
 6583SOL    HW131211   0.554   2.236   0.530 -3.9980  0.5839 -0.2145
 6583SOL    HW231212   0.611   2.103   0.507 -1.5038 -0.1170  2.4542
 6584SOL     OW31213   0.751   3.358   3.121  0.2852 -0.4126  0.8679
 6584SOL    HW131214   0.821   3.416   3.152 -0.1564  1.3553 -1.4239
 6584SOL    HW231215   0.684   3.369   3.188  0.8767 -2.5428  1.8008
 6585SOL     OW31216   2.297   1.628  17.342  0.1809 -0.2491  0.6282
 6585SOL    HW131217   2.389   1.602  17.351  0.8161  2.0219  0.8650
 6585SOL    HW231218   2.260   1.600  17.425 -1.1261 -0.7388 -0.1167
 6586SOL     OW31219   1.030   1.513   3.288 -0.4263  0.0054  0.2858
 6586SOL    HW131220   1.008   1.420   3.286 -3.9621  0.8683 -1.1221
 6586SOL    HW231221   0.948   1.561   3.284 -0.4259  0.1691  2.1325
 6587SOL     OW31222   0.916   2.642   4.370 -0.1709 -0.3211 -0.3656
 6587SOL    HW131223   0.916   2.641   4.275 -3.1811 -0.9627 -0.3589
 6587SOL    HW231224   0.925   2.547   4.377 -0.5057 -0.6142 -4.2140
 6588SOL     OW31225   3.673   4.570   3.690  0.4125  0.0731 -0.1426
 6588SOL    HW131226   3.696   4.661   3.709  1.1976  0.0524 -0.9820
 6588SOL    HW231227   3.613   4.551   3.762 -1.1037  2.5418 -0.7587
 6589SOL     OW31228   1.851   0.263  12.391 -0.2537  0.0714 -0.2013
 6589SOL    HW131229   1.928   0.254  12.335  1.4588  2.1900  1.8378
 6589SOL    HW231230   1.870   0.306  12.474 -1.1618  1.2820 -0.6115
 6590SOL     OW31231   3.427   0.564   2.038  0.0962  0.1089  0.0257
 6590SOL    HW131232   3.365   0.518   2.094 -0.4393  1.0572  0.1983
 6590SOL    HW231233   3.420   0.658   2.055 -0.8873 -0.0681  0.6023
 6591SOL     OW31234   1.442   1.231   8.020 -0.2401 -0.4181 -0.5773
 6591SOL    HW131235   1.385   1.289   8.070  0.5040 -1.5512  1.6090
 6591SOL    HW231236   1.523   1.281   8.012 -0.4145  0.0362  0.4737
 6592SOL     OW31237   1.790   1.196   8.879  0.5268 -0.2403  0.0101
 6592SOL    HW131238   1.744   1.279   8.881  0.0607 -0.4878 -0.6870
 6592SOL    HW231239   1.729   1.132   8.915  0.1422 -0.2412 -0.6467
 6593SOL     OW31240   3.107   0.588  14.683  0.1013  0.2636 -0.1090
 6593SOL    HW131241   3.059   0.664  14.650  2.2202  0.7670 -2.0507
 6593SOL    HW231242   3.161   0.558  14.610 -1.8811 -2.5802 -0.4279
 6594SOL     OW31243   3.024   0.438   8.085 -0.0658 -0.2849  0.0059
 6594SOL    HW131244   2.977   0.369   8.132 -0.7577 -0.4092 -0.8694
 6594SOL    HW231245   2.950   0.497   8.070 -0.1419 -0.6808 -1.1592
 6595SOL     OW31246   3.810   2.267   5.645  0.0738 -0.1519 -0.3729
 6595SOL    HW131247   3.804   2.354   5.685  0.3983 -0.5730  0.5766
 6595SOL    HW231248   3.717   2.254   5.625  0.0626  2.3146 -1.9085
 6596SOL     OW31249   1.866   4.597   7.202  0.0805  0.2318 -0.0464
 6596SOL    HW131250   1.958   4.571   7.197  1.1511  3.7129  1.4954
 6596SOL    HW231251   1.840   4.596   7.110 -0.4306  1.1033  0.0901
 6597SOL     OW31252   1.959   3.773   9.531  0.6054  0.1059  0.4138
 6597SOL    HW131253   2.050   3.768   9.563  0.6908  0.6608  0.2730
 6597SOL    HW231254   1.932   3.853   9.578 -1.9065 -0.2690 -0.4256
 6598SOL     OW31255   0.428   4.481   2.158  0.2386  0.0381 -0.2307
 6598SOL    HW131256   0.452   4.466   2.067 -0.2560 -4.7414  0.4478
 6598SOL    HW231257   0.400   4.573   2.156  1.6024  0.4718  1.4309
 6599SOL     OW31258   4.368   1.242  13.028  0.5766 -0.1752  0.1981
 6599SOL    HW131259   4.302   1.174  13.012  0.4378 -0.3755  1.6017
 6599SOL    HW231260   4.446   1.213  12.981  1.1923  1.9193 -0.0769
 6600SOL     OW31261   1.349   0.744  10.303 -0.5508 -0.1331  0.1382
 6600SOL    HW131262   1.333   0.741  10.397  4.4438 -1.2922  0.9633
 6600SOL    HW231263   1.299   0.667  10.276  2.1975 -1.5800 -0.8610
 6601SOL     OW31264   1.105   1.526   7.508  0.6329  0.0607  0.2596
 6601SOL    HW131265   1.051   1.544   7.585  1.3240 -1.1647  1.0386
 6601SOL    HW231266   1.140   1.614   7.495 -1.2595  0.5762 -1.3140
 6602SOL     OW31267   2.437   2.553   6.491  0.1385 -0.5118  0.1241
 6602SOL    HW131268   2.353   2.552   6.538 -0.0945 -0.1216 -0.2786
 6602SOL    HW231269   2.498   2.575   6.561  0.7256 -0.1141 -0.5163
 6603SOL     OW31270   3.630   3.407   6.557 -0.3695  0.5349  0.1727
 6603SOL    HW131271   3.623   3.479   6.495 -3.5136 -0.7772 -0.9971
 6603SOL    HW231272   3.708   3.428   6.608  0.2740 -2.6055  0.4837
 6604SOL     OW31273   4.067   0.215   2.779  0.2300  0.2176 -0.1502
 6604SOL    HW131274   4.131   0.228   2.710  1.4621  1.3023  1.2119
 6604SOL    HW231275   4.078   0.121   2.796  1.9355  0.0179 -2.4639
 6605SOL     OW31276   0.655   0.828   2.511 -0.3207  0.1875  0.3972
 6605SOL    HW131277   0.605   0.761   2.465  2.1658 -1.2015 -0.2796
 6605SOL    HW231278   0.603   0.830   2.592 -0.0904  0.6563  0.5349
 6606SOL     OW31279   4.157   3.665  14.137  0.7802  0.5439 -0.2736
 6606SOL    HW131280   4.135   3.647  14.046 -1.1400 -0.2862  0.3479
 6606SOL    HW231281   4.069   3.675  14.175  0.5609 -0.6562 -0.4597
 6607SOL     OW31282   1.082   2.763   6.756 -0.0591 -0.1552  0.3321
 6607SOL    HW131283   1.113   2.797   6.840  0.0071  0.5891  0.0016
 6607SOL    HW231284   1.004   2.818   6.749 -0.7085 -1.2160 -0.6862
 6608SOL     OW31285   3.917   3.423   7.781 -0.0465  0.5719  0.1545
 6608SOL    HW131286   3.840   3.378   7.816  0.2655  1.6607  2.2036
 6608SOL    HW231287   3.884   3.473   7.706  2.1145 -0.0291 -1.1934
 6609SOL     OW31288   3.983   0.950   3.132  0.1601  0.0304  0.0612
 6609SOL    HW131289   3.959   1.022   3.073  0.5130  0.6100  0.6200
 6609SOL    HW231290   4.036   0.892   3.078 -0.8315  0.7243 -1.6501
 6610SOL     OW31291   0.347   1.604   2.547 -0.2771  0.0957 -0.3424
 6610SOL    HW131292   0.308   1.587   2.461 -1.1625  2.5723 -0.4139
 6610SOL    HW231293   0.345   1.515   2.584 -2.6894 -0.1340 -1.0351
 6611SOL     OW31294   2.059   3.556   4.917 -0.5513  0.3945 -0.3352
 6611SOL    HW131295   2.058   3.476   4.970 -1.4626  0.8380  0.3299
 6611SOL    HW231296   2.135   3.599   4.954 -1.4403  0.4630  1.4423
 6612SOL     OW31297   4.483   2.563   9.219 -0.5126  0.1080  0.1175
 6612SOL    HW131298   4.514   2.638   9.270 -1.9983 -1.1212  2.8276
 6612SOL    HW231299   4.563   2.526   9.183 -0.6594 -2.3880  2.4007
 6613SOL     OW31300   2.152   1.217   2.867 -0.1621  0.2400  0.2060
 6613SOL    HW131301   2.108   1.291   2.909 -2.1355 -0.3370 -0.8339
 6613SOL    HW231302   2.079   1.169   2.827  2.0278 -3.2914  0.4679
 6614SOL     OW31303   0.558   4.162  10.959  0.2852  0.1191 -0.1848
 6614SOL    HW131304   0.518   4.094  11.014  1.3528 -1.2929 -1.1540
 6614SOL    HW231305   0.638   4.194  11.000  0.6986  0.8668 -1.5838
 6615SOL     OW31306   1.152   0.539  12.744 -0.1367  0.0795  0.0734
 6615SOL    HW131307   1.139   0.460  12.692  0.3710 -0.1484  0.3010
 6615SOL    HW231308   1.072   0.585  12.719 -1.3279 -2.4456 -0.8250
 6616SOL     OW31309   2.731   2.935  17.091  0.0210  0.2295  0.0022
 6616SOL    HW131310   2.707   3.016  17.047 -0.1321  0.2647  0.1510
 6616SOL    HW231311   2.731   2.954  17.185  0.9851  0.7798 -0.1095
 6617SOL     OW31312   0.257   3.069   7.831  0.2926 -0.7268  0.0195
 6617SOL    HW131313   0.273   3.163   7.827 -1.7145 -0.4706 -1.4709
 6617SOL    HW231314   0.297   3.041   7.749 -0.7327  1.5065 -1.2201
 6618SOL     OW31315   2.268   0.031   6.074  0.0010 -0.2078 -0.9154
 6618SOL    HW131316   2.194   0.072   6.119  0.3640 -0.7153  0.1518
 6618SOL    HW231317   2.312   4.720   6.152 -1.6449 -1.5746 -0.5836
 6619SOL     OW31318   2.180   1.717  13.259  0.3487 -0.8752 -0.0227
 6619SOL    HW131319   2.155   1.690  13.171 -1.3010 -1.0036  0.4954
 6619SOL    HW231320   2.163   1.811  13.248 -2.4177 -1.3952 -0.1886
 6620SOL     OW31321   0.535   1.959   7.579  0.6289  0.2224  0.2791
 6620SOL    HW131322   0.533   1.963   7.674  1.4651  0.3168  0.3001
 6620SOL    HW231323   0.596   2.033   7.569  2.6731 -2.0013 -3.9690
 6621SOL     OW31324   3.086   4.288   6.683  0.6754  0.3537  0.5131
 6621SOL    HW131325   3.176   4.321   6.678  1.0951 -0.9841 -0.5447
 6621SOL    HW231326   3.056   4.300   6.593 -1.9965 -3.1057  0.9649
 6622SOL     OW31327   2.164   0.571   8.472  0.2411 -0.1679  0.4345
 6622SOL    HW131328   2.074   0.551   8.449 -0.4900  1.1222  2.2032
 6622SOL    HW231329   2.197   0.482   8.487 -0.7934 -0.9738 -2.0611
 6623SOL     OW31330   2.312   4.072  10.173 -0.1348 -0.3902  0.1452
 6623SOL    HW131331   2.404   4.046  10.178 -0.3028 -0.7647  1.4097
 6623SOL    HW231332   2.288   4.060  10.265 -1.7169 -0.0655 -0.2310
 6624SOL     OW31333   1.194   0.710   8.265 -0.1235 -0.1321  0.3376
 6624SOL    HW131334   1.254   0.783   8.279 -2.6851  1.5575  2.4341
 6624SOL    HW231335   1.249   0.651   8.213  1.6468  0.5275  1.4713
 6625SOL     OW31336   2.564   0.901  10.163  0.0957 -0.0786  0.5105
 6625SOL    HW131337   2.492   0.937  10.216  0.4005  0.6337  0.4254
 6625SOL    HW231338   2.626   0.973  10.165 -1.3211  1.1200  1.6836
 6626SOL     OW31339   2.134   3.576  10.537  0.6185 -0.3434 -0.6396
 6626SOL    HW131340   2.220   3.570  10.578 -0.4916 -0.1266  1.6683
 6626SOL    HW231341   2.116   3.666  10.562  1.8004 -0.3895  0.3297
 6627SOL     OW31342   0.514   3.701  13.910 -0.0057 -0.4076 -0.0734
 6627SOL    HW131343   0.605   3.682  13.934  0.0032 -0.5852 -0.2501
 6627SOL    HW231344   0.522   3.754  13.831 -2.1584 -0.5249 -0.3633
 6628SOL     OW31345   2.345   0.895   5.926  0.1065 -0.0709  0.0311
 6628SOL    HW131346   2.260   0.939   5.927  0.4010  0.4705  0.9694
 6628SOL    HW231347   2.376   0.907   6.016  0.8772  1.8008 -0.4898
 6629SOL     OW31348   2.158   1.265   8.050 -0.4184  0.0143  0.6654
 6629SOL    HW131349   2.073   1.220   8.049 -0.3432 -0.1055 -1.1725
 6629SOL    HW231350   2.175   1.272   8.144 -0.4916 -0.3528  0.7050
 6630SOL     OW31351   4.130   0.990   2.047  0.0594  0.3578  0.1793
 6630SOL    HW131352   4.086   1.011   2.129  0.2696 -0.3472  0.4683
 6630SOL    HW231353   4.194   1.059   2.031  1.9079 -1.4003  0.0100
 6631SOL     OW31354   2.079   0.545  12.372 -0.3090  0.6061 -0.1874
 6631SOL    HW131355   2.154   0.499  12.335  0.9535  3.4763 -1.1549
 6631SOL    HW231356   2.127   0.600  12.434 -3.1147  0.0541  2.4765
 6632SOL     OW31357   0.950   4.260   9.104  0.1751 -0.1886  0.5461
 6632SOL    HW131358   0.991   4.344   9.123 -0.9109  1.3595 -3.8615
 6632SOL    HW231359   1.017   4.206   9.147  1.3898  0.0351 -1.0452
 6633SOL     OW31360   0.072   3.536  10.515  0.4605  0.3744 -0.5491
 6633SOL    HW131361   0.155   3.528  10.561  0.4958  0.3221 -0.6212
 6633SOL    HW231362   0.018   3.568  10.587  4.1445  1.5312  1.6729
 6634SOL     OW31363   0.465   4.163   3.436 -0.9091 -0.4092 -0.3672
 6634SOL    HW131364   0.409   4.235   3.409 -2.6620 -1.3307  0.7751
 6634SOL    HW231365   0.409   4.122   3.503  1.2202  2.2039  2.9865
 6635SOL     OW31366   2.274   3.786   2.995  0.2148  0.2069  0.2624
 6635SOL    HW131367   2.307   3.734   3.069 -0.0114  0.2824  0.4180
 6635SOL    HW231368   2.206   3.834   3.043  0.0057  2.4094 -2.2538
 6636SOL     OW31369   2.123   3.164  13.844  0.1066 -0.5158  0.6279
 6636SOL    HW131370   2.178   3.088  13.825 -0.1023 -0.2839 -0.9491
 6636SOL    HW231371   2.158   3.217  13.772  1.0028 -0.8546  0.8081
 6637SOL     OW31372   3.068   1.852   7.385  0.0489  0.0431  0.0763
 6637SOL    HW131373   3.041   1.833   7.295 -0.3289  1.2409 -0.0609
 6637SOL    HW231374   3.115   1.934   7.372  0.6024 -0.3299 -0.2925
 6638SOL     OW31375   1.232   2.922   6.415 -0.3773 -0.1236 -0.3300
 6638SOL    HW131376   1.190   2.836   6.423 -1.1380  0.1827 -1.0115
 6638SOL    HW231377   1.318   2.901   6.452  0.1376 -1.2242 -2.1806
 6639SOL     OW31378   2.633   2.955   1.541 -0.3537 -1.0580  0.8532
 6639SOL    HW131379   2.540   2.964   1.519  0.2549 -0.9119 -1.6725
 6639SOL    HW231380   2.656   3.043   1.512  1.6472 -1.7489  0.3433
 6640SOL     OW31381   2.679   4.107   0.700  0.1767 -0.0650 -0.5079
 6640SOL    HW131382   2.647   4.179   0.755  0.2724 -0.5715  0.2199
 6640SOL    HW231383   2.751   4.150   0.653 -0.6334  0.5784 -1.1664
 6641SOL     OW31384   3.784   3.993   5.863  0.6654  0.0838 -0.2750
 6641SOL    HW131385   3.839   3.924   5.900 -1.0204 -1.3759 -0.5288
 6641SOL    HW231386   3.709   3.982   5.921  0.4722 -0.8615 -0.7055
 6642SOL     OW31387   3.044   2.152   3.599 -0.6981 -0.0974 -0.0385
 6642SOL    HW131388   3.002   2.192   3.674 -1.6902  1.4058 -1.3913
 6642SOL    HW231389   2.984   2.174   3.527 -1.4267  0.2443  0.6754
 6643SOL     OW31390   4.117   1.748   8.305  0.2796 -0.0395 -0.5942
 6643SOL    HW131391   4.110   1.683   8.374  0.8838  1.0011  0.4356
 6643SOL    HW231392   4.142   1.697   8.228  2.6551  0.3530 -0.0619
 6644SOL     OW31393   1.711   0.021  10.173  0.1944 -0.4067 -0.0543
 6644SOL    HW131394   1.632   0.037  10.224 -0.7912 -2.4593 -0.9392
 6644SOL    HW231395   1.764   4.723  10.249 -3.0160 -1.8487  1.7639
 6645SOL     OW31396   3.242   3.839  14.525  0.6676  0.7463  0.1925
 6645SOL    HW131397   3.271   3.750  14.503  3.5691  2.4078 -2.7301
 6645SOL    HW231398   3.278   3.882  14.447 -2.0886  2.3232 -0.2068
 6646SOL     OW31399   0.933   0.265   4.010 -0.3922 -0.2447 -0.0321
 6646SOL    HW131400   0.944   0.357   3.984  0.1051 -0.3581 -0.2142
 6646SOL    HW231401   0.990   0.245   4.084 -0.7250  0.5394  0.4319
 6647SOL     OW31402   2.785   2.205  16.945  0.1290 -0.4188  0.2823
 6647SOL    HW131403   2.785   2.224  17.039  1.8886 -0.1152  0.2159
 6647SOL    HW231404   2.820   2.116  16.954 -0.1565 -0.5234  0.3773
 6648SOL     OW31405   2.021   2.273   4.016  0.5846  0.8022 -0.0715
 6648SOL    HW131406   2.052   2.333   3.948  1.2285 -0.2464 -0.7221
 6648SOL    HW231407   2.092   2.259   4.079  1.2721  2.2693 -0.5125
 6649SOL     OW31408   4.216   0.682   2.126 -0.7872  0.3933 -0.4589
 6649SOL    HW131409   4.157   0.702   2.054 -1.1436  2.1806  0.3347
 6649SOL    HW231410   4.233   0.770   2.159  0.5749  0.4972 -1.4395
 6650SOL     OW31411   4.073   0.640   1.845 -0.1430  0.3661  0.2469
 6650SOL    HW131412   4.076   0.545   1.844 -1.2348  0.3082  2.1272
 6650SOL    HW231413   4.075   0.655   1.751  2.6804 -0.4949  0.1696
 6651SOL     OW31414   1.272   2.925   1.355 -0.0349  0.1450 -0.2180
 6651SOL    HW131415   1.346   2.899   1.300  1.0818  2.2516  0.2819
 6651SOL    HW231416   1.213   2.854   1.331  0.9648 -0.6196 -0.3788
 6652SOL     OW31417   0.384   1.773  15.544 -0.1780  0.4589  0.0208
 6652SOL    HW131418   0.443   1.698  15.549 -0.3777  0.2138 -1.3947
 6652SOL    HW231419   0.438   1.847  15.573 -1.9827  0.6890  2.7260
 6653SOL     OW31420   3.562   3.712  17.082  0.4022  0.2603  0.5952
 6653SOL    HW131421   3.576   3.773  17.154  0.4687  0.0601  0.7547
 6653SOL    HW231422   3.467   3.725  17.077  0.7513  3.0208  1.2926
 6654SOL     OW31423   4.454   0.335   5.006 -0.7423  0.1526  0.4132
 6654SOL    HW131424   4.464   0.390   5.084  2.3229 -0.1882  0.2785
 6654SOL    HW231425   4.491   0.391   4.937 -0.3608  0.9768  1.2811
 6655SOL     OW31426   2.527   2.373   6.969  0.5248 -0.6763 -0.1606
 6655SOL    HW131427   2.600   2.435   6.969 -0.1694  0.1430 -1.9787
 6655SOL    HW231428   2.504   2.364   7.061 -0.8043  0.5134 -0.3871
 6656SOL     OW31429   2.543   3.637   3.085 -0.1397 -0.3396  0.0075
 6656SOL    HW131430   2.526   3.555   3.038 -4.6418 -0.3689  1.7574
 6656SOL    HW231431   2.582   3.609   3.168 -0.8920 -1.1960  0.0704
 6657SOL     OW31432   2.795   0.725   4.792 -0.2939 -0.0481 -0.4472
 6657SOL    HW131433   2.821   0.729   4.884  0.8339  0.0896 -0.7627
 6657SOL    HW231434   2.880   0.734   4.748  0.0978 -1.9716 -0.1028
 6658SOL     OW31435   0.468   3.315  13.746  0.3291 -0.2713  0.5545
 6658SOL    HW131436   0.546   3.366  13.723  1.2640 -2.1088 -0.3140
 6658SOL    HW231437   0.429   3.369  13.815  1.7648  1.7447 -0.2046
 6659SOL     OW31438   4.367   3.145   2.970  0.2956  0.3646  0.0453
 6659SOL    HW131439   4.361   3.148   3.065 -1.6633 -0.0744 -0.0610
 6659SOL    HW231440   4.458   3.163   2.950  0.4621 -1.4163 -0.7713
 6660SOL     OW31441   1.166   0.751   4.829 -0.1645 -0.2829 -0.0586
 6660SOL    HW131442   1.134   0.831   4.787  0.5384 -0.8851 -1.7353
 6660SOL    HW231443   1.128   0.686   4.770  1.2826 -1.1563 -0.0310
 6661SOL     OW31444   2.314   2.910  13.863 -0.5805 -0.2927  0.1451
 6661SOL    HW131445   2.319   2.968  13.939  2.1614 -2.0506  1.3306
 6661SOL    HW231446   2.255   2.844  13.898 -0.1634  0.4178  2.1582
 6662SOL     OW31447   4.458   1.499  14.177 -0.1208  0.1439  0.4184
 6662SOL    HW131448   4.363   1.499  14.193 -0.3843 -1.7568 -1.1940
 6662SOL    HW231449   4.483   1.581  14.220 -1.1079 -1.0538  3.2829
 6663SOL     OW31450   2.371   3.363   4.101  0.0547  0.3147 -0.9030
 6663SOL    HW131451   2.443   3.347   4.162 -1.1428 -2.4061 -0.2380
 6663SOL    HW231452   2.413   3.368   4.016 -1.1793 -0.1783 -1.5329
 6664SOL     OW31453   2.530   4.364   6.261 -0.3079 -0.0474 -0.4383
 6664SOL    HW131454   2.562   4.412   6.337  3.0186 -0.0801 -1.8411
 6664SOL    HW231455   2.514   4.443   6.209 -1.0839  0.3125  0.3436
 6665SOL     OW31456   1.140   3.185   6.762 -0.0173 -0.2203  0.1621
 6665SOL    HW131457   1.214   3.125   6.754 -0.0631  0.0039 -1.7998
 6665SOL    HW231458   1.149   3.224   6.849  1.2867 -0.9702  0.3636
 6666SOL     OW31459   0.867   2.202   4.940 -0.7002  0.0830 -0.2416
 6666SOL    HW131460   0.935   2.176   5.002 -0.7605 -2.6806 -1.3384
 6666SOL    HW231461   0.878   2.129   4.879 -1.5391  0.8340 -1.2972
 6667SOL     OW31462   2.591   4.067   7.492 -0.0748 -0.0487 -0.4500
 6667SOL    HW131463   2.637   4.049   7.410 -0.7287 -0.0859 -0.8073
 6667SOL    HW231464   2.542   3.985   7.499  0.4689 -0.4568 -1.4256
 6668SOL     OW31465   3.297   0.383   6.805  0.0672 -0.2026 -0.1055
 6668SOL    HW131466   3.344   0.325   6.746 -0.8877 -1.7158  0.6417
 6668SOL    HW231467   3.257   0.318   6.863 -0.5197  0.7296  0.5375
 6669SOL     OW31468   4.422   0.793   2.618 -0.5474  0.3633  0.2912
 6669SOL    HW131469   4.385   0.851   2.685 -1.9109  1.9186 -1.8267
 6669SOL    HW231470   4.377   0.823   2.539  2.0705 -1.2697 -1.8125
 6670SOL     OW31471   1.150   0.570  11.249 -0.4503  0.2081 -0.5104
 6670SOL    HW131472   1.117   0.480  11.248 -1.5070  0.5858 -0.2762
 6670SOL    HW231473   1.136   0.597  11.340  0.0220 -1.1662 -0.0355
 6671SOL     OW31474   3.569   4.486  13.616  0.6889 -1.0551 -0.5212
 6671SOL    HW131475   3.548   4.500  13.524  1.1726 -0.5105 -0.5495
 6671SOL    HW231476   3.538   4.399  13.638  0.3789 -0.1816  2.5162
 6672SOL     OW31477   3.555   4.521  12.577 -0.3534 -0.0204  0.2790
 6672SOL    HW131478   3.613   4.449  12.552 -0.7617  0.6551 -2.5670
 6672SOL    HW231479   3.470   4.481  12.558  0.2038 -0.6687 -0.8820
 6673SOL     OW31480   4.214   1.926   0.830 -0.2911  0.7707 -0.6298
 6673SOL    HW131481   4.172   2.005   0.865  2.1647  1.2753  1.1540
 6673SOL    HW231482   4.274   1.909   0.902  0.4638 -0.2188 -1.5017
 6674SOL     OW31483   1.189   1.136   7.345  0.0832 -0.0421  0.1780
 6674SOL    HW131484   1.174   1.203   7.278  1.6605  0.1630  0.0439
 6674SOL    HW231485   1.253   1.080   7.300 -1.8586 -1.4843 -0.8002
 6675SOL     OW31486   3.412   4.582   9.949  0.1625 -0.0524 -0.2354
 6675SOL    HW131487   3.348   4.525   9.993 -0.3056  1.4933  1.0647
 6675SOL    HW231488   3.480   4.584  10.016  0.5740  1.9903 -0.7323
 6676SOL     OW31489   0.277   1.289   5.591  0.4112 -0.3593  0.3384
 6676SOL    HW131490   0.189   1.322   5.575  0.7515  0.3076 -0.1440
 6676SOL    HW231491   0.309   1.353   5.654 -2.2493 -1.0922  2.4065
 6677SOL     OW31492   2.372   3.178   5.736 -0.2819 -0.4354 -0.0754
 6677SOL    HW131493   2.279   3.182   5.716 -0.2584  1.8398  0.2366
 6677SOL    HW231494   2.365   3.144   5.825 -0.6786 -1.5654 -0.5461
 6678SOL     OW31495   4.384   4.083   4.005  0.4706 -0.7968 -0.0686
 6678SOL    HW131496   4.404   4.005   4.057  0.9581  0.4903  1.6892
 6678SOL    HW231497   4.423   4.153   4.057  0.4897 -0.9757  0.1592
 6679SOL     OW31498   3.895   2.797   0.762  0.7926 -0.1599 -0.5184
 6679SOL    HW131499   3.909   2.743   0.683  0.1868  0.6070 -1.1514
 6679SOL    HW231500   3.928   2.744   0.834 -1.4955 -0.3759  0.3564
 6680SOL     OW31501   4.650   3.392   5.739 -0.1794 -0.5161 -0.4207
 6680SOL    HW131502   4.568   3.383   5.786 -0.0404  0.5666  0.0392
 6680SOL    HW231503   4.669   3.485   5.750 -0.0639 -0.5227 -0.5622
 6681SOL     OW31504   1.807   2.089  10.361  0.2759  0.0404  0.2692
 6681SOL    HW131505   1.888   2.105  10.314  0.9071 -1.8793  0.7108
 6681SOL    HW231506   1.810   2.155  10.431  1.1624  1.7571 -1.3960
 6682SOL     OW31507   4.432   2.665  10.002  0.0033  0.4205  0.2367
 6682SOL    HW131508   4.491   2.723   9.954 -0.3077  1.0025  0.5587
 6682SOL    HW231509   4.348   2.696   9.967 -0.2361 -2.2118 -1.5649
 6683SOL     OW31510   1.172   3.916  13.614 -0.3545  0.5947 -0.0702
 6683SOL    HW131511   1.130   3.964  13.543  0.1452 -1.3617 -1.7005
 6683SOL    HW231512   1.235   3.860  13.569  0.3653  0.0249  1.6426
 6684SOL     OW31513   2.749   0.312   7.860  0.0226  0.2076  0.5522
 6684SOL    HW131514   2.793   0.381   7.909  1.0051 -0.1061  0.1276
 6684SOL    HW231515   2.752   0.340   7.768 -0.5826 -0.9951  0.1638
 6685SOL     OW31516   0.688   1.152   5.834  0.1908  0.1613 -0.0278
 6685SOL    HW131517   0.704   1.246   5.835 -2.2663  0.5714 -0.2020
 6685SOL    HW231518   0.755   1.125   5.771 -1.3951 -1.8406 -0.8425
 6686SOL     OW31519   0.325   3.925   2.402  0.0028 -0.1981  0.3378
 6686SOL    HW131520   0.287   3.988   2.464  2.1244  1.6819 -0.2606
 6686SOL    HW231521   0.383   3.871   2.455 -1.5518 -1.8322  0.4059
 6687SOL     OW31522   2.585   0.165   5.989 -0.0137 -0.3193 -0.6882
 6687SOL    HW131523   2.547   0.129   5.908 -0.4963 -0.5670 -0.3556
 6687SOL    HW231524   2.677   0.160   5.966 -0.1446  0.5334 -1.4016
 6688SOL     OW31525   1.421   4.380   4.082  0.5044 -0.3158  0.7368
 6688SOL    HW131526   1.359   4.308   4.089  0.6792 -0.4004  1.4208
 6688SOL    HW231527   1.508   4.340   4.094  1.2240  1.7851  2.5344
 6689SOL     OW31528   0.956   3.089   7.164 -0.3967  0.0730 -0.1231
 6689SOL    HW131529   0.990   3.106   7.252  0.6745  0.9313 -0.6943
 6689SOL    HW231530   0.889   3.026   7.191  0.5918 -1.1238 -0.4749
 6690SOL     OW31531   4.283   1.507   2.968 -0.0722 -0.2660  0.1301
 6690SOL    HW131532   4.352   1.460   3.016 -3.1141 -1.4145  3.3284
 6690SOL    HW231533   4.321   1.585   2.928  0.9925 -1.9366 -2.1249
 6691SOL     OW31534   3.251   2.894   7.349  0.2510 -0.2456  0.0963
 6691SOL    HW131535   3.325   2.884   7.409  0.6353 -1.4232 -0.5670
 6691SOL    HW231536   3.246   2.990   7.350 -0.2818 -0.3076  3.6048
 6692SOL     OW31537   0.343   3.426   6.970 -0.0624  0.2068  0.7755
 6692SOL    HW131538   0.327   3.332   6.978 -1.2534  0.0616 -3.3491
 6692SOL    HW231539   0.272   3.450   6.911  2.3536  0.1370 -2.1315
 6693SOL     OW31540   4.578   4.119   9.561  0.1376 -0.1206 -0.1588
 6693SOL    HW131541   4.551   4.118   9.653 -0.4222 -0.3423 -0.3292
 6693SOL    HW231542   4.631   4.199   9.557 -0.2690  0.2295  1.3276
 6694SOL     OW31543   0.306   3.007   0.655 -0.3472  0.1506 -0.4458
 6694SOL    HW131544   0.356   2.927   0.636 -1.7532 -0.2733 -2.3195
 6694SOL    HW231545   0.348   3.062   0.589 -0.4880 -1.2629 -1.7181
 6695SOL     OW31546   1.857   1.189  16.504  0.0213  0.3034 -0.4971
 6695SOL    HW131547   1.765   1.187  16.528 -0.3983  0.2524 -2.1283
 6695SOL    HW231548   1.844   1.197  16.410  0.2820  0.3358 -0.5301
 6696SOL     OW31549   1.389   3.551  11.512  0.3896  0.7236  0.3977
 6696SOL    HW131550   1.351   3.601  11.439  1.5689 -0.5036 -1.0557
 6696SOL    HW231551   1.391   3.616  11.583  0.5391 -0.0109  1.0599
 6697SOL     OW31552   0.051   3.656   1.318 -0.1964  0.6043 -0.2373
 6697SOL    HW131553   0.019   3.677   1.230 -2.4786 -2.7203 -0.1922
 6697SOL    HW231554   0.133   3.615   1.290 -0.1077  0.4008  0.3238
 6698SOL     OW31555   2.434   0.642   2.494 -0.2779 -0.3965  0.1550
 6698SOL    HW131556   2.346   0.645   2.457 -0.4222  2.3926  0.7891
 6698SOL    HW231557   2.465   0.571   2.438 -0.3679 -0.9238  0.7720
 6699SOL     OW31558   3.629   1.006  14.680 -0.3362 -0.6013 -0.3351
 6699SOL    HW131559   3.592   1.093  14.666  0.3281 -0.3739 -0.6488
 6699SOL    HW231560   3.683   1.031  14.755  0.9877 -1.8175 -0.8793
 6700SOL     OW31561   4.169   0.908   7.651 -0.4632  0.0761  0.0220
 6700SOL    HW131562   4.155   0.997   7.619 -0.3768  0.8174  2.0286
 6700SOL    HW231563   4.092   0.859   7.622  1.3234 -1.8155 -1.5375
 6701SOL     OW31564   1.046   3.744   6.812  0.1400  0.0149  0.3031
 6701SOL    HW131565   1.109   3.690   6.765  0.5686  0.3712  0.4628
 6701SOL    HW231566   0.996   3.693   6.875  1.4167  0.3326  1.5751
 6702SOL     OW31567   1.727   3.111   4.196 -0.6308  0.3788  0.1730
 6702SOL    HW131568   1.818   3.122   4.221 -1.0135  0.5830  1.4555
 6702SOL    HW231569   1.693   3.200   4.196  0.2667  0.7270 -1.9033
 6703SOL     OW31570   2.355   2.441   7.591  0.2209 -0.1267  0.1761
 6703SOL    HW131571   2.397   2.494   7.658 -0.7252 -0.5460  1.0875
 6703SOL    HW231572   2.267   2.432   7.627  0.5559 -1.9874  0.5207
 6704SOL     OW31573   4.466   1.676   4.584 -0.1120 -0.4662  0.3060
 6704SOL    HW131574   4.472   1.755   4.638  0.5775 -0.6843  0.5471
 6704SOL    HW231575   4.373   1.653   4.578 -0.5775  1.3789  0.4641
 6705SOL     OW31576   0.238   0.826   4.780  0.1521 -0.8584 -0.6204
 6705SOL    HW131577   0.241   0.887   4.707 -0.4048 -0.7477 -0.5542
 6705SOL    HW231578   0.287   0.866   4.852 -2.9762  3.9273 -1.1921
 6706SOL     OW31579   3.171   2.725   0.767 -0.2758  0.1740 -0.4906
 6706SOL    HW131580   3.093   2.708   0.713 -0.1000 -0.2184 -0.6195
 6706SOL    HW231581   3.143   2.809   0.803  1.7056  0.8528 -0.5424
 6707SOL     OW31582   0.230   3.049  15.632  0.9069 -0.0281 -0.6985
 6707SOL    HW131583   0.241   2.983  15.700  0.1780  2.2099  1.5806
 6707SOL    HW231584   0.303   3.106  15.654  0.6455 -0.4393  1.2085
 6708SOL     OW31585   0.495   0.312   7.517 -0.3734  0.3012  0.8184
 6708SOL    HW131586   0.404   0.304   7.546  0.0119 -0.2762  1.8668
 6708SOL    HW231587   0.484   0.390   7.463 -0.0280 -1.6359 -2.0615
 6709SOL     OW31588   1.827   3.582   1.846 -0.1762  0.0598 -0.1969
 6709SOL    HW131589   1.765   3.548   1.782 -1.8113  0.1349  1.3579
 6709SOL    HW231590   1.897   3.532   1.804 -0.3453 -1.0338  0.8410
 6710SOL     OW31591   4.272   0.656   3.287  0.2162  0.1406  0.2188
 6710SOL    HW131592   4.279   0.729   3.349 -0.3931 -0.3959  0.9252
 6710SOL    HW231593   4.365   0.653   3.265 -0.2837 -0.0904 -1.8773
 6711SOL     OW31594   3.240   1.967   8.488  0.4482  0.0463  0.6304
 6711SOL    HW131595   3.216   2.022   8.563 -0.6148 -0.0709  0.3879
 6711SOL    HW231596   3.303   1.905   8.524  1.4561  0.9093  0.3196
 6712SOL     OW31597   2.436   4.026   5.829  0.8065  0.2542 -0.3415
 6712SOL    HW131598   2.420   3.943   5.783 -1.7671  0.4262  0.2604
 6712SOL    HW231599   2.366   4.085   5.802  1.9636  2.0056  0.4558
 6713SOL     OW31600   3.144   2.470  16.117 -0.5493 -0.7277  0.2536
 6713SOL    HW131601   3.154   2.382  16.080  2.5184 -0.3630  0.2086
 6713SOL    HW231602   3.129   2.521  16.039  0.0050  0.0952  0.6882
 6714SOL     OW31603   1.315   1.093   1.104  0.2440 -0.1553 -0.2885
 6714SOL    HW131604   1.394   1.147   1.113  0.0776  0.4549 -2.5803
 6714SOL    HW231605   1.352   1.018   1.151 -0.8331 -1.6872 -1.8739
 6715SOL     OW31606   1.506   2.929   0.253  0.6369 -0.1546  0.8335
 6715SOL    HW131607   1.540   2.956   0.338  1.8509  4.5494 -1.1266
 6715SOL    HW231608   1.510   3.013   0.207 -1.4725 -0.3248  0.2989
 6716SOL     OW31609   3.992   1.180   3.374 -0.2211 -0.4815 -0.3958
 6716SOL    HW131610   4.053   1.185   3.300  2.6024  0.9153  2.0240
 6716SOL    HW231611   3.984   1.085   3.385  2.2392 -1.1463 -4.1366
 6717SOL     OW31612   1.570   4.312   6.582 -0.4145 -0.8109 -0.1384
 6717SOL    HW131613   1.617   4.284   6.661  0.3007 -1.6993 -0.8902
 6717SOL    HW231614   1.586   4.407   6.588  0.2158 -1.0359  1.9969
 6718SOL     OW31615   2.481   0.090   4.063  0.3851  0.2642  0.4455
 6718SOL    HW131616   2.426   0.012   4.052  1.6934 -0.9316  2.4612
 6718SOL    HW231617   2.555   0.057   4.113 -0.7398  0.2866  2.1190
 6719SOL     OW31618   1.676   4.293  12.131  0.0854 -0.3700 -0.1680
 6719SOL    HW131619   1.675   4.367  12.071 -0.6438 -1.2811 -1.2784
 6719SOL    HW231620   1.583   4.293  12.155  0.2016 -0.0618  0.2896
 6720SOL     OW31621   1.363   2.570   5.210 -0.0796  0.5112 -0.3274
 6720SOL    HW131622   1.317   2.511   5.270  0.8739  1.6689  1.5384
 6720SOL    HW231623   1.414   2.505   5.161 -1.4852 -0.1067 -0.9715
 6721SOL     OW31624   0.718   0.113   3.996  0.1976  0.0847 -0.0688
 6721SOL    HW131625   0.676   0.170   3.931 -0.5703 -0.8595 -0.4155
 6721SOL    HW231626   0.799   0.160   4.014  1.1948 -1.0554 -1.6305
 6722SOL     OW31627   1.868   0.586   2.634 -0.1165 -0.0734 -0.6372
 6722SOL    HW131628   1.774   0.568   2.636 -0.2136  0.3200 -1.4767
 6722SOL    HW231629   1.881   0.625   2.547  0.2848  1.2249  0.0125
 6723SOL     OW31630   1.258   1.952   0.615 -0.6427 -0.3053 -0.3344
 6723SOL    HW131631   1.180   2.003   0.594 -1.9656 -1.9216  0.6564
 6723SOL    HW231632   1.235   1.866   0.578 -1.8965 -0.3156  0.4947
 6724SOL     OW31633   4.296   0.688   7.916  0.2619 -0.2693  0.3394
 6724SOL    HW131634   4.345   0.729   7.845 -1.5456 -1.1265 -1.4054
 6724SOL    HW231635   4.206   0.716   7.897 -1.1408 -3.6009  2.0049
 6725SOL     OW31636   1.683   3.452   6.934  0.0320  0.3293  0.1951
 6725SOL    HW131637   1.591   3.468   6.910 -0.2626  1.5760  2.1440
 6725SOL    HW231638   1.669   3.411   7.019 -3.3093  3.1148  1.0067
 6726SOL     OW31639   0.746   4.327  14.038 -0.6481 -0.2431  0.1163
 6726SOL    HW131640   0.776   4.238  14.017 -0.1772  0.2686 -1.4117
 6726SOL    HW231641   0.712   4.300  14.123  1.9873  0.3539  1.3482
 6727SOL     OW31642   3.255   1.049  13.212 -0.0968  0.5477  0.2267
 6727SOL    HW131643   3.329   1.102  13.183 -0.6395 -0.1597 -2.4950
 6727SOL    HW231644   3.190   1.108  13.249  0.8558  2.2327 -0.7804
 6728SOL     OW31645   2.413   2.381  13.422 -0.1229 -0.1901 -0.1205
 6728SOL    HW131646   2.348   2.398  13.490 -1.5141 -0.2856 -1.4419
 6728SOL    HW231647   2.491   2.405  13.472  0.4903  0.5790 -1.4447
 6729SOL     OW31648   0.604   0.072   3.395  0.3765 -0.1397  0.1359
 6729SOL    HW131649   0.578   0.010   3.463  2.3522 -1.2485 -0.0989
 6729SOL    HW231650   0.564   0.153   3.425 -1.2582 -1.9110  2.6909
 6730SOL     OW31651   2.945   4.136  16.165 -0.3141  0.3035 -0.8363
 6730SOL    HW131652   2.996   4.145  16.085  0.6385  2.1359 -0.0299
 6730SOL    HW231653   2.858   4.135  16.124 -1.0942 -0.7614  0.8348
 6731SOL     OW31654   1.658   0.416  10.063 -0.5259 -0.1808  1.3342
 6731SOL    HW131655   1.631   0.354   9.995 -1.7695  1.2698  0.5136
 6731SOL    HW231656   1.592   0.486  10.067  0.3124  0.7558 -1.0323
 6732SOL     OW31657   0.037   0.280   8.200  0.2059  0.2622  0.2532
 6732SOL    HW131658   0.080   0.235   8.127 -0.8993  1.6947 -1.2896
 6732SOL    HW231659   0.045   0.373   8.179 -3.1474 -0.5625 -4.6513
 6733SOL     OW31660   3.989   3.838   7.543 -0.0347  0.0436  0.2027
 6733SOL    HW131661   4.083   3.826   7.557 -0.0563 -0.9002 -0.4700
 6733SOL    HW231662   3.985   3.875   7.454 -0.6768 -0.0800  0.1772
 6734SOL     OW31663   1.143   1.252   6.221  0.2357  0.0531  0.0001
 6734SOL    HW131664   1.121   1.260   6.314  0.7490  0.9568  0.0463
 6734SOL    HW231665   1.059   1.237   6.177  0.1361  0.6744 -0.0297
 6735SOL     OW31666   2.638   2.327   0.906  0.1502 -0.2566 -0.4714
 6735SOL    HW131667   2.673   2.305   0.992 -0.8344  1.4762  0.3614
 6735SOL    HW231668   2.552   2.285   0.910  0.0728 -0.1999 -1.6396
 6736SOL     OW31669   4.354   3.662  13.035 -0.2249 -0.3009 -0.4488
 6736SOL    HW131670   4.271   3.617  13.046  0.3793 -1.7275 -1.6233
 6736SOL    HW231671   4.418   3.592  13.051 -0.9623 -0.8991 -0.1147
 6737SOL     OW31672   0.666   1.044   2.198 -0.1542 -0.1983  0.5689
 6737SOL    HW131673   0.584   1.057   2.246  0.3035  2.5173  0.6138
 6737SOL    HW231674   0.646   1.079   2.111  0.0349 -1.4073  0.0371
 6738SOL     OW31675   2.368   3.637   4.213  0.4016  0.6242 -0.2456
 6738SOL    HW131676   2.356   3.661   4.121 -1.7060  0.3817 -0.0329
 6738SOL    HW231677   2.357   3.543   4.202  1.0569  0.2838  1.8428
 6739SOL     OW31678   3.896   4.444   1.568 -1.1365 -0.8651  0.1651
 6739SOL    HW131679   3.926   4.464   1.480 -0.6553 -0.0852  0.5040
 6739SOL    HW231680   3.873   4.533   1.595  0.1854 -0.3754 -0.3465
 6740SOL     OW31681   2.871   0.265   8.582 -0.8004 -0.1279 -0.3335
 6740SOL    HW131682   2.883   0.347   8.629  2.2871 -1.0201  0.4555
 6740SOL    HW231683   2.821   0.298   8.507  0.6153  1.3715 -0.6082
 6741SOL     OW31684   2.877   1.665   2.771  0.0451  0.2950 -0.1363
 6741SOL    HW131685   2.882   1.628   2.682 -0.5368  0.6110 -0.2998
 6741SOL    HW231686   2.782   1.658   2.786  0.2073  0.3339  0.8777
 6742SOL     OW31687   0.170   1.329  12.182 -0.1165  0.6559  0.1265
 6742SOL    HW131688   0.217   1.350  12.263  0.5793 -0.4305 -0.0005
 6742SOL    HW231689   0.183   1.414  12.140 -1.4813  0.8249  0.0317
 6743SOL     OW31690   1.883   0.747   9.717  0.1960 -0.4400 -0.4597
 6743SOL    HW131691   1.788   0.747   9.706 -0.0906  0.9177  1.9632
 6743SOL    HW231692   1.884   0.706   9.803 -1.6895  1.1704  0.3234
 6744SOL     OW31693   0.726   4.104   8.519  0.2765  0.3650 -0.2290
 6744SOL    HW131694   0.738   4.022   8.566  1.0261  1.0767  0.8444
 6744SOL    HW231695   0.813   4.137   8.496  0.8951 -0.9623  0.2264
 6745SOL     OW31696   1.213   2.060   4.282  0.1746 -0.0620 -0.6139
 6745SOL    HW131697   1.136   2.108   4.313 -1.5090 -1.6477 -2.3608
 6745SOL    HW231698   1.202   2.082   4.189 -0.8482 -0.6492 -0.6333
 6746SOL     OW31699   3.425   2.096   3.848 -0.6641 -0.7923  0.0929
 6746SOL    HW131700   3.372   2.175   3.852  0.3944 -0.1558  1.9914
 6746SOL    HW231701   3.374   2.040   3.790  1.3414 -0.7328 -1.7348
 6747SOL     OW31702   1.293   3.776   8.532 -0.0730 -0.1571 -0.1729
 6747SOL    HW131703   1.289   3.859   8.579 -2.8064 -0.0842 -0.5362
 6747SOL    HW231704   1.232   3.733   8.592 -1.3790  2.0310  0.0684
 6748SOL     OW31705   1.704   1.629   7.495 -0.7847 -0.4269  0.1874
 6748SOL    HW131706   1.638   1.560   7.491  0.6772 -1.8651  0.8698
 6748SOL    HW231707   1.662   1.695   7.551  0.1002 -0.4249  0.8506
 6749SOL     OW31708   0.834   1.091   3.813  0.3907  0.0711 -0.1335
 6749SOL    HW131709   0.904   1.040   3.773  1.3708  0.3151  1.2444
 6749SOL    HW231710   0.757   1.079   3.757  0.3966 -1.0926  0.1262
 6750SOL     OW31711   4.670   0.493   9.517  0.3370  0.0457  0.1454
 6750SOL    HW131712   4.597   0.505   9.456  0.1313  0.8046  0.5379
 6750SOL    HW231713   0.010   0.444   9.465 -1.1114  0.8734 -2.4253
 6751SOL     OW31714   0.952   2.353  10.274 -0.0432  0.3281  0.7436
 6751SOL    HW131715   0.985   2.276  10.321  0.5492  0.2652  0.2368
 6751SOL    HW231716   0.861   2.352  10.304 -0.3479 -0.5380 -0.2335
 6752SOL     OW31717   2.277   4.329   1.551 -0.4490 -0.2197 -0.1944
 6752SOL    HW131718   2.308   4.316   1.461 -1.7245 -0.8675 -0.5392
 6752SOL    HW231719   2.239   4.243   1.571  1.5050 -1.2736 -1.0130
 6753SOL     OW31720   3.833   2.034   1.720 -0.0970  0.8208 -0.3702
 6753SOL    HW131721   3.753   2.001   1.762  0.4651 -0.3144 -0.1822
 6753SOL    HW231722   3.861   2.106   1.777 -3.5764  0.0423  2.3213
 6754SOL     OW31723   0.704   1.477  12.986 -0.8571 -0.6241  0.6587
 6754SOL    HW131724   0.692   1.566  13.021  1.6957 -0.1461  0.3630
 6754SOL    HW231725   0.635   1.466  12.921  0.3859  1.6169 -1.0217
 6755SOL     OW31726   3.975   2.192   4.111 -0.3668  0.8507 -0.1127
 6755SOL    HW131727   4.063   2.190   4.074  0.3600  2.6564  1.5154
 6755SOL    HW231728   3.947   2.101   4.104 -0.1797  0.6474  1.6550
 6756SOL     OW31729   3.165   1.325   0.182  0.5958  0.4786 -0.3498
 6756SOL    HW131730   3.237   1.261   0.184 -0.3277 -0.5221  0.5494
 6756SOL    HW231731   3.220   1.401   0.161 -0.1771  1.3160  0.6944
 6757SOL     OW31732   0.826   3.466   5.500 -0.0654 -0.1239 -0.2077
 6757SOL    HW131733   0.877   3.395   5.462  0.5818 -0.4996  1.4066
 6757SOL    HW231734   0.886   3.541   5.496  3.7744 -3.2289 -0.4531
 6758SOL     OW31735   3.438   1.227   5.884  0.1951 -0.4000  0.2029
 6758SOL    HW131736   3.387   1.150   5.908  0.3610 -0.4095  0.5226
 6758SOL    HW231737   3.501   1.239   5.955 -2.0263 -0.6338  2.2094
 6759SOL     OW31738   1.313   0.622   9.628  0.1155 -0.1333  0.1722
 6759SOL    HW131739   1.362   0.691   9.582 -0.2397 -0.1818 -0.2811
 6759SOL    HW231740   1.257   0.671   9.687 -1.5609 -0.1791 -1.3763
 6760SOL     OW31741   2.100   0.451   0.431 -0.3291  0.4149  0.4437
 6760SOL    HW131742   2.170   0.393   0.462 -0.0340 -0.3992 -1.7516
 6760SOL    HW231743   2.157   0.519   0.394 -0.0079 -0.2419 -0.2635
 6761SOL     OW31744   1.674   1.549   6.216 -0.3388 -0.4427 -0.0066
 6761SOL    HW131745   1.611   1.493   6.173 -0.1967 -1.0540  0.5770
 6761SOL    HW231746   1.747   1.565   6.156 -0.5475 -0.3434 -0.2330
 6762SOL     OW31747   1.755   2.308   8.570 -0.3623  0.0764  0.1266
 6762SOL    HW131748   1.792   2.250   8.504  0.7910 -0.1078  0.9315
 6762SOL    HW231749   1.825   2.373   8.565 -0.2969  0.0097  0.1716
 6763SOL     OW31750   0.270   0.978  16.844  0.0242  0.2962 -0.3794
 6763SOL    HW131751   0.253   0.895  16.888 -1.0903  1.5562  1.5965
 6763SOL    HW231752   0.210   1.032  16.897 -0.0571  0.4192 -0.5966
 6764SOL     OW31753   0.414   2.750   3.438  0.2156  0.4106 -0.1760
 6764SOL    HW131754   0.447   2.677   3.489  0.4926  2.2053  2.2062
 6764SOL    HW231755   0.402   2.715   3.349  1.2012 -0.4368  0.0259
 6765SOL     OW31756   3.467   3.829   7.934 -0.0921 -0.5769  0.0909
 6765SOL    HW131757   3.492   3.919   7.954  0.6210 -0.8802  0.5873
 6765SOL    HW231758   3.422   3.842   7.851  1.7416  2.8550 -0.3622
 6766SOL     OW31759   2.852   4.675  10.045  0.0294 -0.0709 -0.1050
 6766SOL    HW131760   2.881   4.603  10.101 -0.3930  0.5945  0.9621
 6766SOL    HW231761   2.938   4.709  10.019 -0.4033  2.1591  1.3988
 6767SOL     OW31762   4.557   3.050   6.222  0.1396  0.2948 -0.8210
 6767SOL    HW131763   4.492   3.111   6.187 -0.1784  0.9913  0.9684
 6767SOL    HW231764   4.616   3.056   6.147  1.4794 -1.3543  0.1112
 6768SOL     OW31765   2.153   2.728  10.272  0.3256 -0.1748  0.2682
 6768SOL    HW131766   2.089   2.798  10.284  1.2317  0.6826  0.1392
 6768SOL    HW231767   2.175   2.751  10.181  1.2802 -2.0051  0.0268
 6769SOL     OW31768   0.352   3.993   4.347 -0.2981 -0.0624  0.0805
 6769SOL    HW131769   0.428   4.048   4.365  0.5316 -1.4330  0.7661
 6769SOL    HW231770   0.340   4.011   4.254  0.1457  2.1782  0.4653
 6770SOL     OW31771   0.130   1.501  11.359  0.3235  0.1942  0.1858
 6770SOL    HW131772   0.202   1.538  11.410 -1.7268  0.4906  2.8800
 6770SOL    HW231773   0.167   1.436  11.300  0.2571  0.0121  0.3425
 6771SOL     OW31774   3.358   2.187  13.959 -0.0657  0.3263  0.5203
 6771SOL    HW131775   3.376   2.094  13.945  2.9557  1.4821 -3.4463
 6771SOL    HW231776   3.263   2.190  13.949 -0.3022 -1.0279  2.3584
 6772SOL     OW31777   3.423   3.866   7.539  0.2050 -0.3018  0.7989
 6772SOL    HW131778   3.415   3.948   7.490 -0.6780 -0.7104  0.2616
 6772SOL    HW231779   3.513   3.861   7.570  0.3776 -0.7142  0.2250
 6773SOL     OW31780   1.086   3.700   3.396  0.1191 -0.1488 -0.1068
 6773SOL    HW131781   1.103   3.791   3.420 -0.4762  0.2115 -1.0869
 6773SOL    HW231782   1.086   3.667   3.486 -1.5806 -0.8030 -0.3647
 6774SOL     OW31783   1.402   3.524   5.672 -0.5831  0.0312 -0.8234
 6774SOL    HW131784   1.312   3.509   5.701 -0.3160  0.2234  0.1163
 6774SOL    HW231785   1.399   3.537   5.577  1.6733  1.7519 -0.6632
 6775SOL     OW31786   3.225   3.540   1.212 -0.4790 -0.0204 -0.3927
 6775SOL    HW131787   3.195   3.536   1.303  2.0963  1.2536  0.5279
 6775SOL    HW231788   3.284   3.615   1.217 -0.5118  0.0098 -0.4595
 6776SOL     OW31789   3.605   1.717   6.830  0.4243 -0.1190  0.2015
 6776SOL    HW131790   3.653   1.703   6.748  0.7440  1.0968  0.1849
 6776SOL    HW231791   3.531   1.657   6.821  1.1882 -1.2439  1.3814
 6777SOL     OW31792   0.799   4.166  10.688  0.1236 -0.5670 -0.3789
 6777SOL    HW131793   0.858   4.159  10.763 -0.4878 -1.9675 -0.0108
 6777SOL    HW231794   0.718   4.172  10.739  0.9930  1.0207  0.7960
 6778SOL     OW31795   0.392   0.927   7.322 -0.4520 -0.5146 -0.3117
 6778SOL    HW131796   0.334   0.857   7.352 -1.5848 -0.1699 -1.6898
 6778SOL    HW231797   0.480   0.890   7.330  0.2355  0.9489 -1.0225
 6779SOL     OW31798   4.433   2.979   9.332  0.3030  0.3347  0.2452
 6779SOL    HW131799   4.462   3.023   9.252 -1.2711 -2.5010 -1.8729
 6779SOL    HW231800   4.491   2.903   9.338  1.8626  1.5202 -0.0062
 6780SOL     OW31801   0.881   0.590   7.947 -0.2681 -0.7559 -0.0350
 6780SOL    HW131802   0.844   0.563   8.031 -0.3882  1.0868  0.5021
 6780SOL    HW231803   0.975   0.578   7.956 -0.2851 -0.5097  0.4849
 6781SOL     OW31804   1.035   3.962   8.377  0.2334  0.0861 -0.5570
 6781SOL    HW131805   0.955   3.913   8.360 -0.3345  1.0814 -0.7474
 6781SOL    HW231806   1.088   3.893   8.417  0.3086  0.0207 -0.7709
 6782SOL     OW31807   1.634   0.765   2.073  0.0978  0.5679 -0.3460
 6782SOL    HW131808   1.649   0.689   2.131 -3.0076 -0.6481 -1.1407
 6782SOL    HW231809   1.682   0.733   1.997  0.0413  2.4123 -1.1525
 6783SOL     OW31810   2.593   1.501   7.257  0.5101  0.4724 -0.3010
 6783SOL    HW131811   2.543   1.522   7.336 -2.2378 -2.4528 -1.2482
 6783SOL    HW231812   2.632   1.420   7.288 -0.4483 -0.0792 -0.5174
 6784SOL     OW31813   3.084   4.198   4.657  0.2377 -0.4030  0.0264
 6784SOL    HW131814   3.059   4.192   4.750 -1.2277 -1.2125 -0.4188
 6784SOL    HW231815   2.999   4.231   4.628  1.3681  0.9027 -1.7562
 6785SOL     OW31816   3.389   0.129  17.594 -0.2514 -0.2104  0.4536
 6785SOL    HW131817   3.385   0.120  17.689  0.9131 -0.7004  0.4611
 6785SOL    HW231818   3.367   0.222  17.589  0.4941 -0.1230 -1.1372
 6786SOL     OW31819   1.999   4.003   8.769  0.2875  0.0952 -0.7623
 6786SOL    HW131820   1.971   3.916   8.740  0.2408 -0.1108 -0.1131
 6786SOL    HW231821   2.045   3.984   8.851  0.9462  1.7937 -0.7529
 6787SOL     OW31822   4.641   2.404  10.335 -0.4661 -0.6240 -0.1978
 6787SOL    HW131823   4.673   2.322  10.299 -0.4914 -0.9385  0.4943
 6787SOL    HW231824   4.573   2.437  10.276 -0.0005 -0.8725 -0.8702
 6788SOL     OW31825   2.936   2.458   2.429 -0.9633  0.0889  0.3953
 6788SOL    HW131826   2.862   2.406   2.462 -2.4123  1.3190 -0.9789
 6788SOL    HW231827   2.942   2.537   2.483  1.0750  2.0063 -2.6774
 6789SOL     OW31828   0.233   1.702   7.015  0.1188  0.4732 -0.4419
 6789SOL    HW131829   0.168   1.658   7.070  2.3589 -1.6804  0.4884
 6789SOL    HW231830   0.208   1.793   7.001 -0.4758  0.7004  2.1485
 6790SOL     OW31831   3.117   3.210   3.129 -0.0924 -0.0207 -0.1200
 6790SOL    HW131832   3.152   3.145   3.068  1.1523  1.1509 -0.6365
 6790SOL    HW231833   3.107   3.155   3.207  0.0605 -0.0073 -0.0915
 6791SOL     OW31834   1.108   0.568  14.576 -0.2416  0.5031  0.2858
 6791SOL    HW131835   1.196   0.575  14.537 -0.5514 -0.5446 -0.5997
 6791SOL    HW231836   1.112   0.546  14.669 -1.2749  1.2902  0.5159
 6792SOL     OW31837   3.933   4.092  14.003 -0.2561 -0.0491 -0.3699
 6792SOL    HW131838   3.992   4.113  13.930 -0.5931 -0.0923 -0.6556
 6792SOL    HW231839   3.880   4.023  13.962 -0.2834 -0.3290  0.1370
 6793SOL     OW31840   0.782   2.748   9.520  0.2647  0.2481 -0.1366
 6793SOL    HW131841   0.848   2.746   9.589  0.1044  0.6293  0.0275
 6793SOL    HW231842   0.752   2.838   9.534 -0.5691 -0.1589  0.7280
 6794SOL     OW31843   3.442   4.146   6.557  0.0600 -0.4001  0.0122
 6794SOL    HW131844   3.444   4.241   6.568  1.0177 -0.4864  0.6014
 6794SOL    HW231845   3.525   4.122   6.600  1.1529  1.0908 -1.2626
 6795SOL     OW31846   0.155   3.049   1.448  0.7557  0.1363 -0.1544
 6795SOL    HW131847   0.135   2.975   1.504 -0.1885  0.6456  0.1762
 6795SOL    HW231848   0.138   3.125   1.504  1.3659  1.3576 -1.6360
 6796SOL     OW31849   2.994   1.127   3.879  0.1801  0.2638 -0.2159
 6796SOL    HW131850   2.975   1.209   3.833  0.4803  0.1707 -0.5024
 6796SOL    HW231851   3.086   1.106   3.859  0.4111  0.4461  0.6745
 6797SOL     OW31852   0.441   3.775   7.971 -0.0649  0.4160  0.1685
 6797SOL    HW131853   0.521   3.729   7.942 -0.7228  0.0626 -1.0885
 6797SOL    HW231854   0.411   3.783   7.880 -1.3174  0.7114  0.6143
 6798SOL     OW31855   0.841   3.520   6.892  0.0599  0.2185  0.2380
 6798SOL    HW131856   0.758   3.499   6.935  0.9270  0.9272  2.2405
 6798SOL    HW231857   0.894   3.444   6.917  1.3446  1.2232  0.5593
 6799SOL     OW31858   0.057   2.077   4.795  0.1043  0.0331  0.3893
 6799SOL    HW131859   0.060   2.138   4.870 -1.6816 -0.5355  0.9231
 6799SOL    HW231860   0.148   2.085   4.766 -0.5728  0.9358 -1.4668
 6800SOL     OW31861   3.693   4.521   8.392 -0.0999  0.3027  0.4594
 6800SOL    HW131862   3.624   4.462   8.423  1.0491 -0.5284  1.4374
 6800SOL    HW231863   3.768   4.463   8.382 -0.1534  0.2114  0.5905
 6801SOL     OW31864   4.600   0.745  10.987  0.3852  0.6721  0.3670
 6801SOL    HW131865   4.555   0.792  11.057 -2.6805  0.0093 -1.1321
 6801SOL    HW231866   4.679   0.797  10.973  1.7766 -0.9214  2.1410
 6802SOL     OW31867   2.412   1.990   0.902  0.0734  0.1447  0.5734
 6802SOL    HW131868   2.336   2.013   0.955  1.0259  2.0471  1.1311
 6802SOL    HW231869   2.409   2.060   0.837  3.8137  1.6171  1.9907
 6803SOL     OW31870   0.097   1.392   3.265 -0.4169  0.0418 -0.2030
 6803SOL    HW131871   0.048   1.310   3.274 -1.0861  0.3342 -1.1150
 6803SOL    HW231872   0.033   1.439   3.211  1.2901  0.2597 -2.0439
 6804SOL     OW31873   4.611   0.640   2.341  0.0609 -0.2692  0.1422
 6804SOL    HW131874   4.596   0.699   2.268  0.6724  0.5564  0.6919
 6804SOL    HW231875   4.547   0.571   2.321  1.0419 -1.1705  0.1024
 6805SOL     OW31876   4.027   2.713   1.348  1.2133  0.0051  0.7550
 6805SOL    HW131877   3.969   2.740   1.277  0.2121 -1.9029  0.8545
 6805SOL    HW231878   3.967   2.653   1.392 -0.2240  0.5533 -0.4648
 6806SOL     OW31879   2.758   1.392  10.102  0.5734  0.0957  0.5985
 6806SOL    HW131880   2.732   1.384  10.194 -0.8632  0.2353  0.2141
 6806SOL    HW231881   2.837   1.446  10.102 -1.8700  3.6459  1.0345
 6807SOL     OW31882   4.210   0.367  17.441 -0.4700  0.3086 -0.3393
 6807SOL    HW131883   4.291   0.321  17.463 -1.7363 -0.5627  2.5919
 6807SOL    HW231884   4.240   0.456  17.455 -1.0561  0.3034  1.0005
 6808SOL     OW31885   1.158   2.820   7.306 -0.1543  0.4210  1.1572
 6808SOL    HW131886   1.149   2.754   7.238  1.7109  0.9755  0.3882
 6808SOL    HW231887   1.074   2.802   7.349 -0.4299 -0.9911  0.0371
 6809SOL     OW31888   4.335   1.909   5.782 -0.0503 -0.3429 -0.4142
 6809SOL    HW131889   4.258   1.953   5.818  1.3685  1.4795  0.3983
 6809SOL    HW231890   4.366   1.982   5.728 -3.7000  1.8966  0.4742
 6810SOL     OW31891   2.869   3.589   0.174  0.3056 -0.0757 -0.2009
 6810SOL    HW131892   2.800   3.619   0.233  1.1754 -0.0462  0.8006
 6810SOL    HW231893   2.842   3.618   0.086 -1.4203  0.2731  0.4465
 6811SOL     OW31894   1.340   4.184   3.744 -0.7527 -0.3750 -0.6087
 6811SOL    HW131895   1.396   4.143   3.810  0.8739  1.8767 -0.5926
 6811SOL    HW231896   1.395   4.186   3.666 -0.6194  2.0379 -0.4484
 6812SOL     OW31897   0.887   3.081   2.292  0.5758 -0.2232  0.0899
 6812SOL    HW131898   0.815   3.120   2.341  0.0084  1.5155 -2.1138
 6812SOL    HW231899   0.955   3.082   2.360  1.1021 -0.5657 -0.4348
 6813SOL     OW31900   2.009   1.246   9.036 -0.2196  0.3414  0.4133
 6813SOL    HW131901   1.943   1.231   8.968 -0.7160  2.0678  0.4989
 6813SOL    HW231902   2.050   1.163   9.059  0.1038 -0.4641 -3.1105
 6814SOL     OW31903   4.058   1.170  10.539 -0.2620  0.5591 -0.4357
 6814SOL    HW131904   4.047   1.168  10.634 -1.3874  3.5128 -0.5145
 6814SOL    HW231905   4.142   1.215  10.538 -0.8775  1.6547 -2.6858
 6815SOL     OW31906   2.137   3.556  11.718  0.5335 -0.7497 -0.6559
 6815SOL    HW131907   2.231   3.569  11.726  0.3674 -0.3407  0.7377
 6815SOL    HW231908   2.131   3.471  11.675  0.7291 -1.5823  0.9500
 6816SOL     OW31909   2.342   2.590  16.908  1.0080 -0.5918  0.2953
 6816SOL    HW131910   2.258   2.586  16.954  1.2884 -0.4445  0.8249
 6816SOL    HW231911   2.330   2.512  16.854  1.0850 -1.9397  2.2305
 6817SOL     OW31912   3.109   3.672   7.963 -0.3424 -0.2349 -0.0192
 6817SOL    HW131913   3.136   3.619   8.038 -1.8522  1.3852  1.6627
 6817SOL    HW231914   3.075   3.753   8.000  0.6951  1.2620 -2.3413
 6818SOL     OW31915   1.559   2.732   8.264  0.0407 -0.0290 -0.2562
 6818SOL    HW131916   1.467   2.750   8.282  0.2472  3.0050 -2.2721
 6818SOL    HW231917   1.581   2.663   8.327  1.9177 -0.0870 -0.9879
 6819SOL     OW31918   2.745   1.509   5.702  0.8731 -0.1055 -0.0908
 6819SOL    HW131919   2.728   1.602   5.716 -1.4048 -0.5830  0.3255
 6819SOL    HW231920   2.803   1.490   5.775  0.2804  2.5140  1.0321
 6820SOL     OW31921   2.814   2.939   8.336 -0.1720 -0.0383  0.1272
 6820SOL    HW131922   2.755   2.947   8.412 -1.4771 -1.1029 -0.7777
 6820SOL    HW231923   2.838   2.847   8.334 -1.2287 -0.2722 -1.3290
 6821SOL     OW31924   2.222   3.829   6.744 -0.2897 -0.1057  0.0700
 6821SOL    HW131925   2.240   3.856   6.834  0.4410  2.8969 -0.9954
 6821SOL    HW231926   2.189   3.908   6.701 -1.3646  1.1156  3.1046
 6822SOL     OW31927   3.127   2.373   5.555  0.0929 -0.1435 -0.0958
 6822SOL    HW131928   3.180   2.431   5.500 -0.0682  0.8230  0.7609
 6822SOL    HW231929   3.160   2.368   5.645  1.1725  3.5174 -0.2609
 6823SOL     OW31930   1.450   1.716  11.997  0.1656 -0.0118  1.1301
 6823SOL    HW131931   1.518   1.784  11.996 -0.5619  0.7012 -0.3733
 6823SOL    HW231932   1.374   1.752  12.043 -0.9897 -0.1853 -0.6138
 6824SOL     OW31933   3.395   4.041   5.842  0.5449  0.0468 -0.5980
 6824SOL    HW131934   3.410   4.000   5.757 -0.2391  0.0959 -0.7653
 6824SOL    HW231935   3.468   4.013   5.897  0.9487  2.3302  0.0132
 6825SOL     OW31936   2.443   1.732   0.364  0.2931 -0.1914  0.1994
 6825SOL    HW131937   2.361   1.782   0.360  0.1034 -0.5398 -0.3710
 6825SOL    HW231938   2.502   1.792   0.408 -1.3261  2.3117 -1.0015
 6826SOL     OW31939   4.065   3.255   7.575  0.2089 -0.1928 -0.1554
 6826SOL    HW131940   4.090   3.199   7.649 -0.4382  1.0225  0.9866
 6826SOL    HW231941   3.970   3.249   7.562 -0.1321  2.5010  1.2295
 6827SOL     OW31942   3.200   4.642   7.484 -0.7898  0.0066 -0.2255
 6827SOL    HW131943   3.210   4.612   7.575 -1.4275 -0.4474 -0.3059
 6827SOL    HW231944   3.178   0.010   7.500 -0.5963  0.2576 -1.4051
 6828SOL     OW31945   0.476   4.347  16.053  0.1867  0.1852  0.1502
 6828SOL    HW131946   0.391   4.306  16.040  0.1251  0.0621  0.9420
 6828SOL    HW231947   0.487   4.352  16.148  0.4155  0.2961  0.1180
 6829SOL     OW31948   2.327   2.343   5.510  0.6417  0.1073  0.3901
 6829SOL    HW131949   2.330   2.262   5.459  0.2619 -0.3496  1.0935
 6829SOL    HW231950   2.378   2.401   5.454 -0.7382 -0.1832 -1.1501
 6830SOL     OW31951   1.989   2.611   9.595  0.0765 -0.1050  0.3993
 6830SOL    HW131952   1.897   2.597   9.572  0.3367 -0.2439 -0.5912
 6830SOL    HW231953   2.024   2.654   9.516 -2.7168  1.0847 -0.1860
 6831SOL     OW31954   1.377   1.466   3.387 -0.0650  0.1955  0.2295
 6831SOL    HW131955   1.392   1.533   3.321 -2.5327  0.2542 -0.2728
 6831SOL    HW231956   1.282   1.470   3.398 -0.0246  1.4496  0.1383
 6832SOL     OW31957   1.454   0.117  10.322 -0.1347 -0.7818  0.3155
 6832SOL    HW131958   1.431   0.207  10.297  4.0254  0.7754  2.1795
 6832SOL    HW231959   1.365   0.082  10.325 -0.9908  1.3371 -0.6171
 6833SOL     OW31960   3.100   2.141   6.980 -0.1811 -0.0716  0.0119
 6833SOL    HW131961   3.115   2.167   6.889 -0.5065  0.2882  0.0583
 6833SOL    HW231962   3.004   2.136   6.985 -0.2553  0.9076 -0.4017
 6834SOL     OW31963   0.421   4.464   9.253  0.2373 -0.2330 -0.0639
 6834SOL    HW131964   0.353   4.398   9.266  0.4657 -0.5981 -0.7408
 6834SOL    HW231965   0.410   4.466   9.158 -1.3030  0.2370  0.1223
 6835SOL     OW31966   0.944   3.301   9.658  0.1514 -0.0716 -0.8537
 6835SOL    HW131967   0.962   3.268   9.570  2.0555 -1.4690  0.0964
 6835SOL    HW231968   0.931   3.393   9.635 -0.3057 -0.2604 -1.3498
 6836SOL     OW31969   3.031   1.882   5.485 -0.5069  0.1470  0.2160
 6836SOL    HW131970   3.062   1.954   5.430 -0.3846  0.6770  0.9726
 6836SOL    HW231971   3.021   1.809   5.424  1.5588  0.1001 -0.0722
 6837SOL     OW31972   3.583   2.095   3.280  0.1051  0.2179  0.2331
 6837SOL    HW131973   3.539   2.174   3.246 -1.7954 -1.0118 -0.1833
 6837SOL    HW231974   3.650   2.092   3.212  0.2536  1.3997  0.3233
 6838SOL     OW31975   4.469   2.965   4.662 -0.0897  0.4689 -0.0661
 6838SOL    HW131976   4.452   2.881   4.706  0.3204 -0.8191 -2.3876
 6838SOL    HW231977   4.522   3.005   4.730 -0.7573  3.2310 -1.1489
 6839SOL     OW31978   3.662   2.781   6.873  0.1681  0.6517 -0.1880
 6839SOL    HW131979   3.668   2.733   6.956 -1.1197  0.6888 -0.0783
 6839SOL    HW231980   3.569   2.763   6.857 -0.3297  2.1216  1.0111
 6840SOL     OW31981   1.834   1.480   4.829 -0.1638  0.0540 -0.4765
 6840SOL    HW131982   1.864   1.463   4.740  0.2759 -0.8066 -0.1621
 6840SOL    HW231983   1.911   1.458   4.882 -2.4569 -0.2309  2.7615
 6841SOL     OW31984   3.893   4.630   4.882  0.2185  0.0827  0.2289
 6841SOL    HW131985   3.948   4.558   4.852  0.5992  1.2660 -1.9028
 6841SOL    HW231986   3.957   4.698   4.905  0.4343 -0.4601  1.1955
 6842SOL     OW31987   1.514   1.802   8.486  0.0551  0.9545 -0.1960
 6842SOL    HW131988   1.587   1.753   8.524 -1.7792 -0.5069  1.4389
 6842SOL    HW231989   1.446   1.800   8.553  0.8417 -0.8053  0.5539
 6843SOL     OW31990   2.411   0.211   6.777  0.4860  0.3732 -0.8645
 6843SOL    HW131991   2.422   0.299   6.811  2.0806 -0.4086  0.6290
 6843SOL    HW231992   2.392   0.154   6.851 -0.1501  0.0354 -1.2773
 6844SOL     OW31993   0.126   1.137   6.541 -0.0067  0.0442  0.3584
 6844SOL    HW131994   0.198   1.090   6.582  1.5320  1.7751 -0.3424
 6844SOL    HW231995   0.063   1.072   6.568 -0.0149 -0.8856 -1.8654
 6845SOL     OW31996   0.986   0.731   8.567  0.2431 -0.3334 -0.1498
 6845SOL    HW131997   1.056   0.708   8.507 -0.1305 -1.6826 -0.0598
 6845SOL    HW231998   0.915   0.676   8.534 -0.7201  0.9267 -0.1766
 6846SOL     OW31999   1.567   3.280   3.281  0.3917  0.2647 -0.1242
 6846SOL    HW132000   1.654   3.311   3.307  0.7048  2.9377 -4.3005
 6846SOL    HW232001   1.525   3.365   3.267  0.0957  0.0133 -0.7728
 6847SOL     OW32002   1.933   0.458   3.024  0.2366 -0.2538 -0.7041
 6847SOL    HW132003   2.021   0.421   3.025  0.2003 -0.2869  1.5786
 6847SOL    HW232004   1.956   0.551   3.020 -0.6875 -0.0768 -1.8168
 6848SOL     OW32005   1.214   3.152   4.285  0.3516  0.3214 -0.2076
 6848SOL    HW132006   1.244   3.126   4.198  0.4674  3.9036 -1.2374
 6848SOL    HW232007   1.237   3.073   4.333 -0.7994  0.6745  0.9362
 6849SOL     OW32008   4.646   0.135   0.353  0.2394  0.2171  0.3754
 6849SOL    HW132009   4.664   0.121   0.260  2.7039 -1.4486  1.0759
 6849SOL    HW232010   4.555   0.164   0.354  0.9988  2.5668 -1.4879
 6850SOL     OW32011   2.775   3.857   1.185  0.2871  0.0435  0.2401
 6850SOL    HW132012   2.834   3.895   1.250 -1.0500  0.0719  1.4513
 6850SOL    HW232013   2.715   3.932   1.184 -0.0252 -0.1955  0.6457
 6851SOL     OW32014   2.721   1.766   1.825  0.2812 -0.3668  0.0315
 6851SOL    HW132015   2.753   1.728   1.743  2.1314 -0.6967  0.9164
 6851SOL    HW232016   2.728   1.690   1.882 -1.2158  0.1585  0.9060
 6852SOL     OW32017   4.549   0.671   8.039 -0.1351  0.9348 -0.7074
 6852SOL    HW132018   4.618   0.737   8.047 -1.4573  2.1734  0.5618
 6852SOL    HW232019   4.496   0.699   7.964 -1.9131  0.4444  0.3826
 6853SOL     OW32020   2.947   1.031  14.544  0.5273  0.8429  0.5443
 6853SOL    HW132021   2.950   1.115  14.589 -1.7621  2.0209 -1.4827
 6853SOL    HW232022   3.029   1.019  14.497 -0.4744 -0.1986 -0.9469
 6854SOL     OW32023   2.054   2.900   5.690  0.0284 -0.1110  0.4891
 6854SOL    HW132024   2.060   2.995   5.680  0.0601 -0.2485 -0.7512
 6854SOL    HW232025   2.126   2.884   5.752  0.1099  0.6123  0.5852
 6855SOL     OW32026   2.616   2.565   6.712  0.0109  0.3564 -0.4762
 6855SOL    HW132027   2.705   2.529   6.717 -0.4778 -0.5762  1.1682
 6855SOL    HW232028   2.627   2.652   6.751  1.1985  1.2644 -2.8412
 6856SOL     OW32029   0.968   1.415   1.239  0.1984 -0.0463 -0.3524
 6856SOL    HW132030   0.884   1.460   1.250 -0.2640 -1.1057  0.5390
 6856SOL    HW232031   1.003   1.454   1.160  0.8424  0.4275  0.1735
 6857SOL     OW32032   3.274   3.843   1.303 -0.1092  0.1250 -0.0619
 6857SOL    HW132033   3.250   3.935   1.296  0.4401  0.1024 -2.2797
 6857SOL    HW232034   3.195   3.811   1.347 -0.2615  0.3442 -0.1755
 6858SOL     OW32035   4.123   4.100   5.264 -0.4180  0.4023  0.2123
 6858SOL    HW132036   4.186   4.074   5.330  1.1302  1.2906 -0.9008
 6858SOL    HW232037   4.087   4.175   5.311  0.7235  0.6637  0.6687
 6859SOL     OW32038   3.430   3.982  13.038 -0.2619  0.5038 -0.3404
 6859SOL    HW132039   3.497   4.045  13.064 -1.2551  1.8511 -1.0538
 6859SOL    HW232040   3.474   3.906  13.077 -1.4642 -0.2569 -0.4793
 6860SOL     OW32041   3.077   3.403   6.562  0.1499  0.8820 -0.0013
 6860SOL    HW132042   3.055   3.310   6.573 -1.0757  1.1278 -0.3828
 6860SOL    HW232043   3.155   3.403   6.617  1.2776 -0.1494 -1.5904
 6861SOL     OW32044   2.694   0.061   9.856  0.1760  0.3345 -0.0906
 6861SOL    HW132045   2.608   0.043   9.895  0.4284  1.8825  1.1438
 6861SOL    HW232046   2.752   0.007   9.909  0.4830  0.7020 -0.0529
 6862SOL     OW32047   3.409   1.156   7.786  0.4322 -0.2379  0.0218
 6862SOL    HW132048   3.363   1.225   7.835 -0.2051 -0.3035 -0.4759
 6862SOL    HW232049   3.361   1.079   7.816 -0.7016 -0.9384 -3.5837
 6863SOL     OW32050   2.107   3.990  12.013  0.3882 -0.1616  0.4728
 6863SOL    HW132051   2.045   4.036  12.069  0.0853 -0.4590  0.3774
 6863SOL    HW232052   2.149   4.069  11.977 -1.5010 -0.1369 -1.6339
 6864SOL     OW32053   3.777   2.744  16.533  0.2142  0.5704  0.7203
 6864SOL    HW132054   3.811   2.766  16.447  0.4880 -1.2250  0.3724
 6864SOL    HW232055   3.818   2.813  16.585  0.7029  1.9280 -1.4985
 6865SOL     OW32056   1.167   4.698  10.079  0.1794 -0.1114 -0.6170
 6865SOL    HW132057   1.238   0.014  10.029 -0.3195 -0.0916 -1.3031
 6865SOL    HW232058   1.112   0.036  10.031 -0.9306 -1.4760 -1.1255
 6866SOL     OW32059   3.244   3.433   6.329  0.3718  0.6074 -0.3002
 6866SOL    HW132060   3.227   3.350   6.285 -0.2276  0.4556  0.2213
 6866SOL    HW232061   3.162   3.454   6.374  0.6466 -1.0503  0.9613
 6867SOL     OW32062   2.697   1.624   6.827 -0.4718  0.0478  0.9710
 6867SOL    HW132063   2.757   1.602   6.755  1.3451 -0.2021  2.5670
 6867SOL    HW232064   2.649   1.701   6.797  2.9385  0.5427 -3.1616
 6868SOL     OW32065   0.739   4.688   7.292 -0.2107 -1.2651 -0.2579
 6868SOL    HW132066   0.706   4.720   7.376 -0.9785 -1.8835 -0.3260
 6868SOL    HW232067   0.748   0.052   7.254  1.8096 -0.7268  1.4333
 6869SOL     OW32068   0.279   2.360   9.108  0.0119  0.1870  0.2728
 6869SOL    HW132069   0.261   2.448   9.142  0.9368 -0.4652  2.5257
 6869SOL    HW232070   0.364   2.350   9.151  0.9929  0.3531 -1.6347
 6870SOL     OW32071   4.313   4.714   5.815 -0.1229  0.5290  0.2755
 6870SOL    HW132072   4.230   4.667   5.808  0.2741  0.1062 -1.7469
 6870SOL    HW232073   4.355   4.662   5.884  1.5922  0.2435 -0.9663
 6871SOL     OW32074   1.596   3.112   3.861  0.0869 -0.5924 -0.4013
 6871SOL    HW132075   1.666   3.047   3.866 -1.2887 -2.2176 -2.3231
 6871SOL    HW232076   1.567   3.128   3.950 -1.5792  1.8807 -1.3975
 6872SOL     OW32077   2.877   4.087   8.669 -0.4050  0.0254  0.2312
 6872SOL    HW132078   2.814   4.159   8.661  0.3291  0.5887 -0.4859
 6872SOL    HW232079   2.923   4.109   8.751 -3.3832  0.3575  1.8158
 6873SOL     OW32080   4.307   0.260   3.097  0.5322 -0.3986  0.0239
 6873SOL    HW132081   4.259   0.189   3.139 -2.5212  1.5469 -0.1597
 6873SOL    HW232082   4.276   0.253   3.007  2.5537  3.5900 -0.9891
 6874SOL     OW32083   0.356   3.872  17.398  0.3258  0.6805 -0.1346
 6874SOL    HW132084   0.404   3.810  17.343 -0.4914  1.2989 -1.5308
 6874SOL    HW232085   0.288   3.821  17.443  0.5046  2.3853  2.1158
 6875SOL     OW32086   1.610   1.774   5.787 -0.5248  0.5132  0.2893
 6875SOL    HW132087   1.632   1.730   5.869 -2.3331 -0.1271  0.4291
 6875SOL    HW232088   1.516   1.782   5.802 -0.6662 -0.8272  0.1291
 6876SOL     OW32089   2.761   0.253   6.305 -0.1259  0.5042  0.4181
 6876SOL    HW132090   2.812   0.297   6.237 -0.2984  1.3777  0.8603
 6876SOL    HW232091   2.700   0.322   6.333  0.3045  1.0409  0.0316
 6877SOL     OW32092   2.480   1.415   3.252 -0.4282  0.5053  0.2177
 6877SOL    HW132093   2.535   1.344   3.284  0.2216 -0.0580 -2.1946
 6877SOL    HW232094   2.392   1.379   3.246 -0.1517 -0.2524  0.6995
 6878SOL     OW32095   0.975   1.845   2.065 -0.4392 -0.1234 -0.4848
 6878SOL    HW132096   0.884   1.830   2.092 -1.6980  2.3243 -3.4543
 6878SOL    HW232097   0.965   1.939   2.056 -2.4124 -0.1879  0.8232
 6879SOL     OW32098   1.145   3.886   5.678  0.1043 -0.5283 -0.0546
 6879SOL    HW132099   1.070   3.912   5.731 -1.8208 -0.6106 -2.7300
 6879SOL    HW232100   1.203   3.851   5.745  0.9781 -1.1611 -1.1337
 6880SOL     OW32101   3.199   1.756  16.635  0.1470  0.0063 -0.1727
 6880SOL    HW132102   3.157   1.715  16.559 -3.1658  2.2158  0.4655
 6880SOL    HW232103   3.290   1.736  16.614 -0.0076 -1.2456  0.3458
 6881SOL     OW32104   3.338   3.056  17.390  0.5911  0.7747 -0.0991
 6881SOL    HW132105   3.338   3.083  17.482  2.7251 -0.5075  0.2811
 6881SOL    HW232106   3.256   3.073  17.345 -0.9031 -1.2357  1.8513
 6882SOL     OW32107   3.795   1.333   2.629  0.0473  0.5786  0.0516
 6882SOL    HW132108   3.819   1.424   2.613 -1.4802  0.9562 -0.0245
 6882SOL    HW232109   3.720   1.344   2.687 -0.3103 -1.9210  0.0662
 6883SOL     OW32110   1.867   2.627  12.392 -0.1292  0.1881  0.2020
 6883SOL    HW132111   1.912   2.622  12.308 -0.6394  1.2624 -0.1191
 6883SOL    HW232112   1.927   2.590  12.457 -0.7721 -1.8043 -0.3332
 6884SOL     OW32113   1.040   4.654   5.816  1.1481  0.2805 -0.3305
 6884SOL    HW132114   0.992   4.595   5.874  0.1990  2.1815  0.8257
 6884SOL    HW232115   0.994   0.014   5.827  0.6975  0.1339 -1.1804
 6885SOL     OW32116   3.262   2.437   4.704 -0.4846 -0.0289 -0.2791
 6885SOL    HW132117   3.305   2.410   4.623 -0.0636 -2.5206  0.7887
 6885SOL    HW232118   3.172   2.409   4.684 -0.6251  0.2446 -0.0314
 6886SOL     OW32119   1.852   3.882   3.232 -0.2474  0.6096  0.3773
 6886SOL    HW132120   1.850   3.789   3.255  1.0654 -0.0950 -2.3621
 6886SOL    HW232121   1.862   3.921   3.319 -1.1704  2.5963 -0.4317
 6887SOL     OW32122   3.668   2.550   4.211  0.5691  0.0188  0.1383
 6887SOL    HW132123   3.625   2.474   4.171  1.3590  0.3261 -1.3114
 6887SOL    HW232124   3.646   2.615   4.144  1.1869 -0.2794 -0.3562
 6888SOL     OW32125   4.298   0.562   9.579  0.1668  0.1653  0.1378
 6888SOL    HW132126   4.311   0.469   9.599  0.9875  0.2492  0.0247
 6888SOL    HW232127   4.267   0.594   9.664  0.0200  1.1234 -0.2861
 6889SOL     OW32128   3.834   4.590  11.731  0.0097  0.1160 -0.1192
 6889SOL    HW132129   3.841   4.645  11.808 -0.1695  0.8564 -0.6316
 6889SOL    HW232130   3.748   4.625  11.707  0.0195  0.9827  1.1292
 6890SOL     OW32131   2.770   2.801   1.883 -0.2709 -0.0129  0.2206
 6890SOL    HW132132   2.852   2.820   1.929 -1.8432  0.6224  2.7562
 6890SOL    HW232133   2.734   2.889   1.876  1.3535  0.4151 -2.7866
 6891SOL     OW32134   3.559   3.558   5.625 -0.1673  0.1469 -0.1059
 6891SOL    HW132135   3.505   3.582   5.551 -0.0327 -0.8407 -0.5291
 6891SOL    HW232136   3.498   3.570   5.699 -0.2931  2.4799 -0.6026
 6892SOL     OW32137   3.391   3.534   7.867  0.1438 -0.5001  0.3773
 6892SOL    HW132138   3.402   3.621   7.906  3.7953 -1.4852  1.5028
 6892SOL    HW232139   3.298   3.521   7.888  0.1166 -1.3232 -0.2708
 6893SOL     OW32140   1.747   0.349   6.174  0.5324  0.1203  0.3923
 6893SOL    HW132141   1.811   0.347   6.103  2.2380 -0.3262  1.9674
 6893SOL    HW232142   1.707   0.265   6.151 -0.9517  1.4917 -2.0303
 6894SOL     OW32143   1.871   1.068  10.222  0.2553 -0.0405  0.3659
 6894SOL    HW132144   1.840   1.153  10.254 -2.8703 -1.4135  0.9532
 6894SOL    HW232145   1.806   1.005  10.252  0.1458  0.8198  1.9558
 6895SOL     OW32146   2.211   4.188  16.748 -0.4242  0.4996  0.4022
 6895SOL    HW132147   2.257   4.229  16.821  0.2250 -2.3106  1.5999
 6895SOL    HW232148   2.126   4.233  16.753 -1.4146 -1.3660  0.6818
 6896SOL     OW32149   2.515   0.445  11.068  0.6102  0.0442  0.4903
 6896SOL    HW132150   2.440   0.504  11.054  0.7242 -0.0578 -0.5554
 6896SOL    HW232151   2.581   0.507  11.098 -0.9422  2.5970 -1.3072
 6897SOL     OW32152   3.127   0.469   4.231 -0.0408  0.0712 -0.2584
 6897SOL    HW132153   3.043   0.513   4.223  0.3577  0.7810 -0.5325
 6897SOL    HW232154   3.167   0.500   4.313  0.5123 -3.3715  0.7908
 6898SOL     OW32155   2.027   2.627   4.446  0.1110 -0.6011  0.1882
 6898SOL    HW132156   2.099   2.603   4.504 -0.9385  0.1622  1.7786
 6898SOL    HW232157   1.949   2.642   4.500 -1.0264 -0.5927 -1.4587
 6899SOL     OW32158   1.318   1.092   8.564 -0.5581 -0.6113 -0.3175
 6899SOL    HW132159   1.393   1.108   8.621 -1.4823  3.9808 -0.3771
 6899SOL    HW232160   1.272   1.176   8.571  0.7959  0.0047  1.2874
 6900SOL     OW32161   4.550   0.655   3.148  0.1189 -0.4862  0.5431
 6900SOL    HW132162   4.553   0.644   3.053  2.3421 -0.0891  0.5555
 6900SOL    HW232163   4.542   0.565   3.178 -0.6859 -0.6277 -0.1020
 6901SOL     OW32164   2.642   2.261   9.216  0.1317 -0.5979 -0.1800
 6901SOL    HW132165   2.694   2.209   9.278  0.6627 -2.4498 -2.1725
 6901SOL    HW232166   2.558   2.272   9.260 -0.0064 -0.2114 -0.5332
 6902SOL     OW32167   3.381   3.215   2.585  0.3112 -0.5480  0.1528
 6902SOL    HW132168   3.410   3.305   2.570 -1.8671  0.0827 -0.2569
 6902SOL    HW232169   3.320   3.212   2.511 -0.2644 -1.5730  0.6754
 6903SOL     OW32170   0.005   4.545  15.710  0.0632 -0.0515 -0.4778
 6903SOL    HW132171   4.695   4.521  15.797 -0.0797  0.2796 -0.4437
 6903SOL    HW232172   4.687   4.629  15.691  1.5298  0.9532  0.8243
 6904SOL     OW32173   1.426   4.070   2.531  0.4266 -0.7554  0.1353
 6904SOL    HW132174   1.482   4.142   2.560 -1.0311  0.5990 -0.3636
 6904SOL    HW232175   1.343   4.088   2.575  0.2667 -0.5273 -0.2543
 6905SOL     OW32176   0.980   0.633   7.040  0.0453 -0.1860  0.2476
 6905SOL    HW132177   0.944   0.719   7.016 -0.8663 -0.4708  0.6057
 6905SOL    HW232178   1.011   0.609   6.952  2.2501  1.8909  0.4425
 6906SOL     OW32179   1.738   4.623   6.953  0.0830 -0.6011  1.0192
 6906SOL    HW132180   1.746   4.713   6.987 -0.8897 -0.6738  1.4437
 6906SOL    HW232181   1.645   4.616   6.932  0.8378  0.5344 -2.5829
 6907SOL     OW32182   4.114   0.122   3.265 -0.1103 -0.4134 -0.1774
 6907SOL    HW132183   4.028   0.119   3.223  0.6776  1.5019 -1.9594
 6907SOL    HW232184   4.131   0.029   3.282  0.2088 -0.2083  0.5914
 6908SOL     OW32185   0.959   4.186   0.937 -0.3154  0.1580 -0.1885
 6908SOL    HW132186   0.883   4.222   0.984 -0.6253 -2.7395  1.5611
 6908SOL    HW232187   1.015   4.206   1.012 -1.6980 -0.1425  0.9427
 6909SOL     OW32188   0.750   4.165   0.482 -0.6326 -0.2971 -1.0093
 6909SOL    HW132189   0.815   4.140   0.547 -2.0113 -0.5941  0.2619
 6909SOL    HW232190   0.806   4.223   0.431  0.9028  1.4785  2.6361
 6910SOL     OW32191   2.489   4.367   2.699  0.1626 -0.0119 -0.0196
 6910SOL    HW132192   2.429   4.442   2.701  0.0537 -0.0960 -0.1500
 6910SOL    HW232193   2.529   4.372   2.786 -1.5739  1.0377  0.7348
 6911SOL     OW32194   3.794   4.566  17.591  0.7015  0.2716 -0.2700
 6911SOL    HW132195   3.753   4.549  17.676  0.3678  1.2244 -0.2359
 6911SOL    HW232196   3.733   4.627  17.550 -0.0521 -1.5993 -1.9147
 6912SOL     OW32197   3.182   4.175   8.236 -0.1625  0.3696  0.0947
 6912SOL    HW132198   3.156   4.100   8.183  0.9955 -0.0224  0.0961
 6912SOL    HW232199   3.114   4.163   8.302  0.2148 -1.1532  0.1873
 6913SOL     OW32200   2.295   1.290   1.774 -0.2200  0.6282  0.5590
 6913SOL    HW132201   2.218   1.338   1.742 -1.4579 -2.5718 -1.2850
 6913SOL    HW232202   2.265   1.262   1.860  3.9492  0.4135  1.9204
 6914SOL     OW32203   1.095   3.577  11.458 -0.4989  0.0895 -0.2592
 6914SOL    HW132204   1.017   3.541  11.498 -0.9475  0.1522 -1.0742
 6914SOL    HW232205   1.076   3.671  11.462  1.1392  0.4208 -0.2492
 6915SOL     OW32206   1.313   1.932   7.903 -0.5907 -0.2252  0.1524
 6915SOL    HW132207   1.334   2.026   7.903 -1.1719 -0.0969  0.2424
 6915SOL    HW232208   1.395   1.898   7.938 -1.7007 -2.7161  0.3438
 6916SOL     OW32209   0.589   1.076   1.283 -0.1625 -0.2867 -0.6580
 6916SOL    HW132210   0.581   1.000   1.339  0.8096 -2.0267 -2.8608
 6916SOL    HW232211   0.533   1.140   1.327 -0.4745  0.1818 -1.7187
 6917SOL     OW32212   1.203   0.462   2.791  0.1770  0.1477 -0.2539
 6917SOL    HW132213   1.292   0.468   2.827  0.9731 -0.7861 -2.0572
 6917SOL    HW232214   1.151   0.487   2.867 -2.6128 -1.4676 -1.6254
 6918SOL     OW32215   3.827   3.621   5.386  0.5370 -0.4542  0.2206
 6918SOL    HW132216   3.922   3.610   5.392  0.3491 -0.7959  2.8685
 6918SOL    HW232217   3.799   3.530   5.400 -2.3625  0.6934  2.0349
 6919SOL     OW32218   3.783   4.544   7.508  0.0910  0.0350  0.2174
 6919SOL    HW132219   3.747   4.456   7.521  1.7332 -0.4053  1.7552
 6919SOL    HW232220   3.700   4.583   7.482  0.7955  1.8399  0.6901
 6920SOL     OW32221   0.021   3.318  17.546 -0.4490 -0.3096  0.3824
 6920SOL    HW132222   0.010   3.407  17.579 -2.0179 -0.4236  0.1610
 6920SOL    HW232223   0.026   3.341  17.453  0.0698 -0.8618  0.2674
 6921SOL     OW32224   0.085   4.693   7.488 -0.3704  0.0642  0.1228
 6921SOL    HW132225   0.086   4.625   7.555 -0.8191 -1.7306 -1.6770
 6921SOL    HW232226   0.029   0.035   7.530  0.6824 -1.1682  3.4380
 6922SOL     OW32227   4.067   0.179   6.703  0.1528 -0.4074 -0.3048
 6922SOL    HW132228   4.090   0.270   6.685 -0.3944  0.2781  2.4202
 6922SOL    HW232229   4.064   0.141   6.615  0.3340  1.4958 -1.1173
 6923SOL     OW32230   0.527   1.860  11.800 -0.8345  0.4054  1.1433
 6923SOL    HW132231   0.438   1.853  11.767 -0.8020  1.7074  0.7921
 6923SOL    HW232232   0.506   1.933  11.858 -2.1275  0.9866 -0.0521
 6924SOL     OW32233   4.137   3.004   8.563  0.3299 -0.3661  0.5565
 6924SOL    HW132234   4.214   2.971   8.517  0.6761  0.0731  0.8193
 6924SOL    HW232235   4.070   3.006   8.495 -0.4955 -1.3930  1.3435
 6925SOL     OW32236   4.304   2.757   8.146  0.5236 -0.1463  0.0976
 6925SOL    HW132237   4.216   2.727   8.167 -0.6312  0.9990 -3.1037
 6925SOL    HW232238   4.360   2.722   8.215  1.0495 -0.2541 -0.3844
 6926SOL     OW32239   1.144   1.511  16.477 -0.6238  0.6124 -0.5188
 6926SOL    HW132240   1.213   1.496  16.412  0.8634  1.7782  0.7749
 6926SOL    HW232241   1.194   1.483  16.554  0.2174  1.6900 -0.6710
 6927SOL     OW32242   0.671   1.262  13.222  0.1338  0.0490  0.3128
 6927SOL    HW132243   0.644   1.303  13.140  0.1392 -1.2923 -0.3544
 6927SOL    HW232244   0.601   1.280  13.285  0.5116 -0.2873  0.8332
 6928SOL     OW32245   2.435   2.638   2.538 -0.6208  0.2283 -0.0017
 6928SOL    HW132246   2.389   2.580   2.476  0.2617 -0.4386 -0.0308
 6928SOL    HW232247   2.441   2.712   2.478 -0.0659 -0.3254 -0.6283
 6929SOL     OW32248   0.417   4.517  13.680  0.1770  0.1333 -0.5635
 6929SOL    HW132249   0.406   4.451  13.749 -1.9653  2.8132  1.6831
 6929SOL    HW232250   0.329   4.553  13.669 -0.0734 -0.2792  0.0620
 6930SOL     OW32251   3.259   1.929  12.540 -0.1385  0.1918 -0.1721
 6930SOL    HW132252   3.186   1.970  12.493 -0.5299 -0.5975 -0.2425
 6930SOL    HW232253   3.331   1.991  12.526  0.3044  0.0441  1.4320
 6931SOL     OW32254   1.708   4.163  16.078  0.0050 -0.1977  0.1795
 6931SOL    HW132255   1.674   4.160  15.989  0.6543  1.7067 -0.1292
 6931SOL    HW232256   1.758   4.245  16.077  0.7677 -0.6506  1.3976
 6932SOL     OW32257   0.158   1.167   7.676 -0.0163 -0.1213 -0.0100
 6932SOL    HW132258   0.194   1.081   7.694  1.4456  0.4186 -0.3268
 6932SOL    HW232259   0.167   1.181   7.582 -2.8409 -0.2235 -0.3048
 6933SOL     OW32260   1.090   0.432   3.034 -0.0511 -0.2318 -0.3183
 6933SOL    HW132261   1.001   0.411   3.006 -0.1793  1.7369 -1.3135
 6933SOL    HW232262   1.074   0.520   3.068 -4.2572 -1.6938  1.5035
 6934SOL     OW32263   1.725   2.886  17.582 -0.5181 -0.1204 -0.4271
 6934SOL    HW132264   1.725   2.791  17.567  0.9691 -0.6429  2.7587
 6934SOL    HW232265   1.816   2.907  17.559  0.8547 -4.5450  0.8478
 6935SOL     OW32266   2.260   1.179  12.753  0.2453 -0.0151  0.4786
 6935SOL    HW132267   2.291   1.170  12.663  0.0563  0.3652  0.3745
 6935SOL    HW232268   2.324   1.241  12.788  1.3250 -1.3817  0.9143
 6936SOL     OW32269   0.467   2.683   4.392  0.1452  0.4842 -0.8564
 6936SOL    HW132270   0.474   2.748   4.462  2.2374 -0.5951 -0.0586
 6936SOL    HW232271   0.374   2.663   4.403  0.6004 -2.3377 -1.9804
 6937SOL     OW32272   4.630   1.096  17.521 -0.0585  0.2023  0.3969
 6937SOL    HW132273   4.559   1.160  17.523 -0.5430 -0.3464  0.6325
 6937SOL    HW232274   4.634   1.059  17.609  0.3605 -2.2950 -0.6858
 6938SOL     OW32275   3.482   0.597   7.231  0.2044 -0.1873 -0.3918
 6938SOL    HW132276   3.444   0.658   7.294  0.1140 -0.7187  0.0760
 6938SOL    HW232277   3.420   0.525   7.244  0.9699 -0.6774  0.6114
 6939SOL     OW32278   0.645   2.237   3.541  0.5723  0.2839 -0.0172
 6939SOL    HW132279   0.716   2.173   3.552  0.2540  0.0611  0.7414
 6939SOL    HW232280   0.636   2.262   3.633  1.7864  0.0481  0.1690
 6940SOL     OW32281   4.459   4.061  10.916 -0.0147  0.0941  0.0615
 6940SOL    HW132282   4.416   4.146  10.907 -1.1591 -0.5165 -0.2450
 6940SOL    HW232283   4.463   4.062  11.012  2.7930  1.6624 -0.0534
 6941SOL     OW32284   1.340   3.404   2.157  0.2663  0.0760  0.2417
 6941SOL    HW132285   1.380   3.418   2.243  1.7921 -1.1623 -0.2783
 6941SOL    HW232286   1.344   3.309   2.152  3.5605  0.3119 -1.4096
 6942SOL     OW32287   3.386   2.033   9.099  0.0680  0.1195  0.4119
 6942SOL    HW132288   3.460   2.093   9.087 -1.3487  1.3732 -2.0313
 6942SOL    HW232289   3.370   2.047   9.192  0.0415 -1.1006  0.5883
 6943SOL     OW32290   4.352   1.039   0.732 -0.0206  0.2071 -0.1026
 6943SOL    HW132291   4.353   1.135   0.732  0.3543  0.2100 -2.1630
 6943SOL    HW232292   4.416   1.026   0.801 -0.2576 -2.4699 -0.4044
 6944SOL     OW32293   1.729   2.576   9.489  0.1917  0.2300 -0.0183
 6944SOL    HW132294   1.683   2.660   9.484 -0.4103 -0.1723 -1.2350
 6944SOL    HW232295   1.661   2.522   9.450  0.0112  1.2427 -1.1025
 6945SOL     OW32296   4.037   4.640   2.496 -0.5042  0.3347  0.5208
 6945SOL    HW132297   4.094   4.715   2.480  0.8091 -0.7621  0.0421
 6945SOL    HW232298   3.950   4.671   2.473  0.3838  2.4777  0.0602
 6946SOL     OW32299   0.311   4.552   1.472 -0.0543  0.2868  0.4363
 6946SOL    HW132300   0.282   4.498   1.545  0.5712 -1.4535 -0.6158
 6946SOL    HW232301   0.364   4.619   1.514  0.9619 -1.8915  2.5817
 6947SOL     OW32302   2.610   4.453   9.329  0.9314 -0.1708  0.1886
 6947SOL    HW132303   2.679   4.513   9.303  0.9932  0.4036  1.6854
 6947SOL    HW232304   2.533   4.490   9.285  1.0827  0.1070  0.1596
 6948SOL     OW32305   0.241   0.582   2.839 -0.0634  0.1842  0.3384
 6948SOL    HW132306   0.288   0.663   2.858 -0.8195  0.6921  0.0627
 6948SOL    HW232307   0.302   0.541   2.777 -0.3103 -0.2382  0.3761
 6949SOL     OW32308   1.746   3.628  16.333 -0.1580  0.0716 -0.0145
 6949SOL    HW132309   1.659   3.659  16.360  0.0433  0.1506  0.5471
 6949SOL    HW232310   1.742   3.630  16.237  2.2642  0.8023 -0.0881
 6950SOL     OW32311   2.668   3.859   7.869  0.1357  0.2706 -0.5594
 6950SOL    HW132312   2.586   3.836   7.824  0.1158  1.6562 -1.2231
 6950SOL    HW232313   2.647   3.872   7.961 -1.1477  0.7003 -0.9142
 6951SOL     OW32314   3.859   3.031   3.449 -0.6803  0.4151 -1.0235
 6951SOL    HW132315   3.783   2.974   3.439 -2.0914  1.9992  0.6696
 6951SOL    HW232316   3.856   3.076   3.365  0.3169  0.0267 -1.2654
 6952SOL     OW32317   2.840   1.564  17.647 -0.3761  0.5014  0.3451
 6952SOL    HW132318   2.870   1.606   0.032  1.6824 -0.3850  0.0268
 6952SOL    HW232319   2.828   1.472  17.672  2.6783 -0.1058 -0.4251
 6953SOL     OW32320   2.087   4.216   2.655  0.1779  0.0268 -0.5422
 6953SOL    HW132321   2.135   4.178   2.728  0.5296  1.5303  0.0093
 6953SOL    HW232322   1.998   4.200   2.688 -0.7977  3.2299 -1.5648
 6954SOL     OW32323   0.685   4.360  13.354  0.2614  0.0485  0.6406
 6954SOL    HW132324   0.603   4.318  13.378  1.0567 -2.1800 -0.5063
 6954SOL    HW232325   0.674   4.376  13.260  1.0871  0.9919  0.6932
 6955SOL     OW32326   4.558   4.669  14.448  0.5302 -0.0744  0.8400
 6955SOL    HW132327   4.468   4.658  14.417  0.7275 -2.4321  1.0931
 6955SOL    HW232328   4.585   0.029  14.411 -1.7892  0.4728  0.4288
 6956SOL     OW32329   2.437   1.968  10.412 -0.0037 -0.2565 -0.1021
 6956SOL    HW132330   2.505   1.977  10.345 -2.6765  1.7008 -2.5779
 6956SOL    HW232331   2.441   1.873  10.419  1.2731 -0.2351 -0.4757
 6957SOL     OW32332   2.714   4.088   6.441 -0.2505  0.3468 -0.2338
 6957SOL    HW132333   2.799   4.046   6.448 -0.5841  0.0069  1.6147
 6957SOL    HW232334   2.708   4.146   6.516  1.5579  0.3538 -0.0981
 6958SOL     OW32335   4.604   3.096  17.641  0.0984  0.2259  0.1999
 6958SOL    HW132336   4.521   3.143  17.649 -0.4731 -0.6723 -0.3691
 6958SOL    HW232337   4.652   3.154  17.583 -1.0506  1.8346  0.8795
 6959SOL     OW32338   1.210   1.696   1.631  0.3165 -0.4107 -0.1461
 6959SOL    HW132339   1.243   1.688   1.720  0.6525  0.0989 -0.2208
 6959SOL    HW232340   1.292   1.707   1.583 -0.0862  1.1209 -0.4869
 6960SOL     OW32341   2.283   0.744  15.169  0.2011  0.1076 -0.0380
 6960SOL    HW132342   2.259   0.794  15.248 -0.2346  0.5502 -0.4434
 6960SOL    HW232343   2.364   0.708  15.203  0.3936 -0.3685 -1.0303
 6961SOL     OW32344   0.659   1.466  17.309  0.5443  0.0393 -0.5576
 6961SOL    HW132345   0.617   1.441  17.391  0.5573  1.2904 -0.1793
 6961SOL    HW232346   0.746   1.494  17.335  0.9738 -1.0894 -0.7919
 6962SOL     OW32347   1.865   2.211   9.338  0.1813  0.0657  0.1737
 6962SOL    HW132348   1.797   2.277   9.325  0.2422  0.0142 -0.4238
 6962SOL    HW232349   1.823   2.158   9.407 -1.1213  1.1719  0.2330
 6963SOL     OW32350   0.809   4.673  17.478 -0.0240  0.7687 -0.2492
 6963SOL    HW132351   0.798   4.578  17.469 -0.4373  0.7121  0.8734
 6963SOL    HW232352   0.733   4.702  17.427 -1.2174  0.6106  1.4450
 6964SOL     OW32353   2.897   1.424   7.193 -0.0110 -0.4547  0.1186
 6964SOL    HW132354   2.835   1.359   7.227 -1.1869  0.3950 -0.4257
 6964SOL    HW232355   2.907   1.477   7.272 -3.2770 -2.6491  1.9817
 6965SOL     OW32356   3.874   2.131   2.692  0.2838 -0.0186  1.0100
 6965SOL    HW132357   3.931   2.118   2.616 -0.6545 -1.2950  0.5113
 6965SOL    HW232358   3.803   2.081   2.651 -0.8289  1.8121  0.7297
 6966SOL     OW32359   3.661   3.449   3.214  0.0121  0.5468  0.4445
 6966SOL    HW132360   3.619   3.483   3.293 -1.2900 -1.5442  0.6690
 6966SOL    HW232361   3.632   3.509   3.145 -3.0903 -1.9740 -0.4891
 6967SOL     OW32362   3.063   2.458   6.576 -0.5136  0.1036 -0.0630
 6967SOL    HW132363   2.990   2.490   6.628 -0.8808  0.4603 -0.7896
 6967SOL    HW232364   3.077   2.526   6.510 -1.2432  0.0755 -0.2501
 6968SOL     OW32365   3.154   2.763  17.531  0.7153 -0.1559  0.6030
 6968SOL    HW132366   3.160   2.786  17.438 -0.1040 -2.0372  0.0810
 6968SOL    HW232367   3.064   2.732  17.536  1.8341 -3.6607 -0.8756
 6969SOL     OW32368   2.497   2.641   0.666  0.4593  0.0620  0.1558
 6969SOL    HW132369   2.468   2.566   0.614 -0.9581 -0.6703  1.9732
 6969SOL    HW232370   2.533   2.694   0.596 -1.1932  1.4023  0.3289
 6970SOL     OW32371   1.962   0.406   8.469  0.2561  0.3725  0.1101
 6970SOL    HW132372   1.968   0.440   8.559  1.6820  1.5746 -0.4300
 6970SOL    HW232373   1.870   0.409   8.443 -0.1842 -1.6472  1.4215
 6971SOL     OW32374   1.909   4.384  11.459 -0.7163  0.4637  0.2296
 6971SOL    HW132375   1.933   4.413  11.371 -1.9869  0.1675 -0.2110
 6971SOL    HW232376   1.815   4.403  11.454 -0.4490  1.8959  0.5874
 6972SOL     OW32377   4.530   1.656   7.160 -0.4052 -0.5440  0.4461
 6972SOL    HW132378   4.435   1.664   7.161 -0.5129 -1.4584 -2.0724
 6972SOL    HW232379   4.541   1.562   7.177  1.7725 -0.2649  0.5514
 6973SOL     OW32380   0.421   3.343  14.450 -0.1888 -0.2576 -0.0990
 6973SOL    HW132381   0.339   3.370  14.408 -1.0256  0.9850  2.3435
 6973SOL    HW232382   0.487   3.365  14.384 -0.9203  0.8186 -0.4743
 6974SOL     OW32383   2.156   3.083   7.792  0.5856  0.2565 -0.1192
 6974SOL    HW132384   2.244   3.107   7.762  1.7027 -2.2313  1.1692
 6974SOL    HW232385   2.157   3.090   7.887 -2.2333 -0.1159 -0.0804
 6975SOL     OW32386   2.476   3.063   3.308 -0.9125 -0.1389  0.7846
 6975SOL    HW132387   2.382   3.078   3.297 -0.9070 -0.9419 -0.4160
 6975SOL    HW232388   2.480   2.967   3.312  1.2228 -0.0142  1.4264
 6976SOL     OW32389   2.927   0.604   5.289 -0.0261 -0.2114 -0.1870
 6976SOL    HW132390   2.898   0.575   5.376 -0.7105  1.1444  0.0448
 6976SOL    HW232391   2.943   0.698   5.304  2.1004 -1.1248  3.3300
 6977SOL     OW32392   1.765   3.888  16.590  0.1863 -0.1812  0.9659
 6977SOL    HW132393   1.766   3.967  16.536 -0.6967  0.9782  2.6262
 6977SOL    HW232394   1.674   3.891  16.621 -0.7146  3.5288 -2.0966
 6978SOL     OW32395   0.649   0.587   3.469 -0.2820  0.4140 -0.1934
 6978SOL    HW132396   0.692   0.588   3.555  1.9086 -0.0390 -1.2892
 6978SOL    HW232397   0.557   0.577   3.492  0.5021 -0.4000  2.6053
 6979SOL     OW32398   0.343   0.388   3.819 -0.3919 -0.3776  0.3467
 6979SOL    HW132399   0.268   0.399   3.877 -1.2338 -0.5653 -0.7000
 6979SOL    HW232400   0.406   0.443   3.866 -0.6765  0.2384  0.0191
 6980SOL     OW32401   0.817   0.177   4.913 -0.3551 -0.5781 -0.5539
 6980SOL    HW132402   0.812   0.111   4.845 -1.0135 -1.0910 -0.0065
 6980SOL    HW232403   0.797   0.260   4.870  2.1007 -0.8106 -2.1471
 6981SOL     OW32404   1.844   2.108  15.655 -0.2213 -0.8026 -0.6324
 6981SOL    HW132405   1.789   2.030  15.669 -0.6138 -0.6459 -1.2800
 6981SOL    HW232406   1.867   2.096  15.563  0.5747  3.9944 -1.0609
 6982SOL     OW32407   3.243   0.629   2.895  0.1680  0.9423  0.2208
 6982SOL    HW132408   3.246   0.670   2.981  0.7476  0.3489  0.4808
 6982SOL    HW232409   3.332   0.596   2.890 -0.7209 -1.8673  2.8779
 6983SOL     OW32410   2.379   2.198  12.092 -0.0220 -0.3992  0.1053
 6983SOL    HW132411   2.384   2.272  12.032  1.5598 -1.9601 -1.7231
 6983SOL    HW232412   2.395   2.239  12.177 -2.0578  1.5175 -0.4503
 6984SOL     OW32413   1.184   3.354  10.841  0.1108  0.4370 -0.0708
 6984SOL    HW132414   1.140   3.439  10.836 -0.0859  0.3499  0.2254
 6984SOL    HW232415   1.215   3.364  10.931  0.1175  2.8022 -0.3441
 6985SOL     OW32416   4.130   0.080   9.479 -0.4092 -0.4778 -0.6399
 6985SOL    HW132417   4.057   0.058   9.422  0.3546 -1.8254 -1.0956
 6985SOL    HW232418   4.205   0.065   9.422  0.7502 -1.9181  1.2526
 6986SOL     OW32419   2.012   4.418  14.515 -0.1479  0.2494  0.0815
 6986SOL    HW132420   2.004   4.325  14.496  1.2627  0.4131 -1.2861
 6986SOL    HW232421   1.925   4.450  14.492 -0.2097  1.3926  1.8463
 6987SOL     OW32422   1.899   3.044  16.618  0.3743 -0.4986 -0.1643
 6987SOL    HW132423   1.968   3.055  16.552 -0.2772  0.8473 -0.6102
 6987SOL    HW232424   1.944   3.038  16.703  2.2234 -0.1727 -1.1089
 6988SOL     OW32425   3.976   4.330   6.418 -0.2981  0.0254  0.1045
 6988SOL    HW132426   3.989   4.263   6.350  0.4220 -1.3288  1.5589
 6988SOL    HW232427   3.882   4.346   6.426 -0.0685  3.0481 -3.2256
 6989SOL     OW32428   3.862   3.729   7.063 -0.4212 -0.6220 -0.4514
 6989SOL    HW132429   3.825   3.779   7.135  0.3842 -1.4417  0.5258
 6989SOL    HW232430   3.957   3.740   7.065 -0.6843  1.5745 -0.1416
 6990SOL     OW32431   2.536   0.866   1.942 -0.1727  0.8187  0.0462
 6990SOL    HW132432   2.456   0.847   1.893 -0.1918 -0.7632  0.6907
 6990SOL    HW232433   2.582   0.925   1.883  1.4632 -0.5767 -0.0745
 6991SOL     OW32434   1.561   1.239   7.437  0.2036 -0.4196  0.7120
 6991SOL    HW132435   1.544   1.298   7.510 -2.3189  0.6211 -0.7002
 6991SOL    HW232436   1.531   1.156   7.474 -2.7492 -0.1754 -1.0652
 6992SOL     OW32437   3.501   1.766  17.458 -0.0984 -0.0695 -0.3148
 6992SOL    HW132438   3.507   1.762  17.554  1.1330 -1.6963 -0.4674
 6992SOL    HW232439   3.554   1.691  17.430  1.3972  1.7957 -2.4532
 6993SOL     OW32440   1.682   0.849   0.018  0.2574 -0.0954 -0.0568
 6993SOL    HW132441   1.774   0.858   0.043  0.1965  1.1074 -0.2701
 6993SOL    HW232442   1.662   0.938  17.687 -2.2135 -0.7708 -0.4888
 6994SOL     OW32443   2.384   0.067  16.274  0.1151 -0.5323 -0.6148
 6994SOL    HW132444   2.400   0.123  16.198  0.8739  0.6173  0.3647
 6994SOL    HW232445   2.335   4.721  16.231 -0.1702 -0.2153 -0.7933
 6995SOL     OW32446   3.158   4.191  15.983  0.2463  0.3803 -0.1073
 6995SOL    HW132447   3.170   4.129  15.911 -2.6000  0.7935 -0.9367
 6995SOL    HW232448   3.200   4.141  16.054  1.1311  0.4437 -0.5915
 6996SOL     OW32449   2.627   2.365   8.392 -0.1560  0.0751 -0.1722
 6996SOL    HW132450   2.636   2.358   8.297 -0.4733 -1.1112 -0.1176
 6996SOL    HW232451   2.716   2.388   8.419 -0.9232  1.1854  1.4126
 6997SOL     OW32452   1.374   2.944   4.072 -0.0644  0.1288  0.1246
 6997SOL    HW132453   1.366   2.848   4.068 -1.7840  0.3716 -1.7500
 6997SOL    HW232454   1.411   2.955   4.160  1.6537 -3.5478 -0.1191
 6998SOL     OW32455   3.269   0.054   3.569 -0.1094  0.3203 -0.1097
 6998SOL    HW132456   3.273   0.143   3.534  0.7855 -0.8662 -3.0564
 6998SOL    HW232457   3.358   0.026   3.547 -0.4968  0.2436 -1.5773
 6999SOL     OW32458   2.658   1.747   3.461  1.2669  0.3356 -0.1373
 6999SOL    HW132459   2.720   1.781   3.396 -0.1300  1.2923 -0.9561
 6999SOL    HW232460   2.579   1.798   3.443  0.5725 -0.0843  1.7335
 7000SOL     OW32461   0.367   1.611  11.446  0.0291 -0.5184 -0.2641
 7000SOL    HW132462   0.426   1.578  11.378 -0.7348 -0.6387 -0.8780
 7000SOL    HW232463   0.351   1.702  11.420 -4.0598 -1.0247  0.5204
 7001SOL     OW32464   1.717   4.181   7.079 -0.7366 -0.0950 -0.1537
 7001SOL    HW132465   1.679   4.268   7.091  2.1175  1.3674 -1.6272
 7001SOL    HW232466   1.796   4.190   7.133  0.0451 -0.3640 -1.2394
 7002SOL     OW32467   1.434   2.930   8.967 -0.3551 -0.3841 -0.0711
 7002SOL    HW132468   1.459   3.006   9.019 -1.1882  1.3127 -2.2046
 7002SOL    HW232469   1.516   2.908   8.923 -1.5655  0.2159 -2.6094
 7003SOL     OW32470   1.152   3.698   9.207 -0.1140 -0.1709  0.3466
 7003SOL    HW132471   1.066   3.696   9.248  0.0111 -1.2423  0.5465
 7003SOL    HW232472   1.119   3.679   9.119 -1.7152  1.7696  0.5363
 7004SOL     OW32473   4.683   4.589  10.201  0.3593 -0.1476  0.4109
 7004SOL    HW132474   4.621   4.590  10.274  0.5698  1.6207  0.5416
 7004SOL    HW232475   4.664   4.505  10.157  2.1058  0.5297 -1.6394
 7005SOL     OW32476   0.725   4.704   7.899 -0.1147 -0.2095  0.2838
 7005SOL    HW132477   0.686   0.042   7.838 -0.2434  0.1868  0.7644
 7005SOL    HW232478   0.655   4.641   7.918  0.3074 -0.7518  0.0678
 7006SOL     OW32479   2.840   1.922   2.842 -0.0117  0.3105 -0.5812
 7006SOL    HW132480   2.853   1.968   2.758  1.9868 -0.4993 -0.7050
 7006SOL    HW232481   2.877   1.837   2.820  0.8673  0.8215 -1.1062
 7007SOL     OW32482   3.365   0.160  12.733 -0.7236  0.4813  0.0113
 7007SOL    HW132483   3.305   0.174  12.806 -2.0492 -3.2512 -0.3432
 7007SOL    HW232484   3.383   0.249  12.703 -0.5600  0.5386  0.2882
 7008SOL     OW32485   0.898   3.638  15.450  0.8288  0.7191 -0.3862
 7008SOL    HW132486   0.893   3.730  15.474  0.0028  0.1183  1.7319
 7008SOL    HW232487   0.856   3.605  15.529  2.4919  0.2904  0.3156
 7009SOL     OW32488   2.781   1.472  16.328 -0.6480 -0.0175  0.4882
 7009SOL    HW132489   2.818   1.464  16.240  4.5741  0.5977  2.6280
 7009SOL    HW232490   2.694   1.439  16.307 -1.1292  2.4550 -1.2589
 7010SOL     OW32491   3.983   4.002   3.207 -0.1626 -0.3489 -1.0034
 7010SOL    HW132492   3.927   3.979   3.133 -1.9199 -2.0332  0.8546
 7010SOL    HW232493   4.073   3.980   3.185 -0.3036  0.9318 -2.8284
 7011SOL     OW32494   2.016   2.335   9.610  0.6850  0.3393 -0.5548
 7011SOL    HW132495   2.007   2.429   9.593  0.5689  0.7096  1.5251
 7011SOL    HW232496   1.984   2.290   9.532  0.4163  2.7759 -1.8466
 7012SOL     OW32497   3.200   3.575   7.670  0.3027  0.6791 -0.3411
 7012SOL    HW132498   3.188   3.659   7.714 -0.2475  0.4934 -0.1414
 7012SOL    HW232499   3.284   3.583   7.624  0.8937 -0.6788  0.4793
 7013SOL     OW32500   0.846   1.479   9.474 -0.2211  0.5601 -0.2551
 7013SOL    HW132501   0.883   1.563   9.446  0.2892  0.4212 -0.0016
 7013SOL    HW232502   0.871   1.420   9.403  1.9685  0.1686  0.8500
 7014SOL     OW32503   3.459   3.929   9.821  0.2818 -0.1129 -0.6745
 7014SOL    HW132504   3.526   3.863   9.804 -1.5322 -1.4977 -2.5578
 7014SOL    HW232505   3.516   3.994   9.860  0.6153 -1.2496  0.7199
 7015SOL     OW32506   1.468   2.722   9.194 -0.2649  0.1165  0.3179
 7015SOL    HW132507   1.487   2.640   9.147 -0.8456  0.2840 -0.2009
 7015SOL    HW232508   1.455   2.786   9.124  3.8488 -1.3464 -1.8403
 7016SOL     OW32509   3.909   3.723   7.823  0.2262  0.1168 -0.4951
 7016SOL    HW132510   3.902   3.628   7.815 -1.5158  0.0757  1.4419
 7016SOL    HW232511   3.947   3.746   7.738 -1.8482 -0.9114 -1.6967
 7017SOL     OW32512   3.873   3.757  13.828  0.3481 -0.1242  0.3033
 7017SOL    HW132513   3.919   3.683  13.867 -0.0204 -1.0731 -1.0667
 7017SOL    HW232514   3.835   3.710  13.753  1.1776  1.4278 -1.0805
 7018SOL     OW32515   0.098   1.202  11.951 -0.0100  0.8092 -0.9518
 7018SOL    HW132516   0.012   1.237  11.973 -0.1625 -0.8932  1.1273
 7018SOL    HW232517   0.149   1.232  12.026  0.2513  0.2446 -0.9068
 7019SOL     OW32518   3.679   1.849   4.403  0.2057  0.6271 -0.3219
 7019SOL    HW132519   3.612   1.842   4.335  1.3228  1.6418 -1.5092
 7019SOL    HW232520   3.621   1.859   4.478 -1.4580 -0.7626 -1.4323
 7020SOL     OW32521   1.544   0.025   4.940 -0.8913  0.7215  0.2362
 7020SOL    HW132522   1.528   4.654   4.943 -0.6876  0.5805 -3.3936
 7020SOL    HW232523   1.459   0.062   4.919 -1.1434  0.8428  1.4696
 7021SOL     OW32524   2.402   2.509   8.712  1.0065  0.4402 -0.0725
 7021SOL    HW132525   2.313   2.536   8.733 -0.3909 -2.6598 -1.9724
 7021SOL    HW232526   2.424   2.461   8.792 -2.2730 -0.8632  0.0707
 7022SOL     OW32527   2.468   4.350   3.173 -0.3985  0.2700  0.0361
 7022SOL    HW132528   2.390   4.384   3.129 -1.2610  0.0267  1.3657
 7022SOL    HW232529   2.444   4.336   3.265  0.0740  0.0601  0.1285
 7023SOL     OW32530   1.149   4.554   2.240 -0.3059  0.4355 -0.4380
 7023SOL    HW132531   1.103   4.569   2.157 -0.5586 -0.9575 -0.5499
 7023SOL    HW232532   1.215   4.619   2.217 -0.0092 -0.0490 -0.9537
 7024SOL     OW32533   1.470   1.534   5.150  0.0174 -0.3163 -0.3816
 7024SOL    HW132534   1.388   1.582   5.155 -0.6508 -1.2767 -2.5119
 7024SOL    HW232535   1.499   1.547   5.060  0.6054  2.6048  0.2457
 7025SOL     OW32536   1.036   3.181   8.532  0.2051 -0.2907  0.3712
 7025SOL    HW132537   1.113   3.143   8.575  0.9038 -1.1719 -1.6763
 7025SOL    HW232538   0.964   3.132   8.571  1.7954 -2.0655  1.0921
 7026SOL     OW32539   2.627   2.142   3.941 -0.4453  0.2075  0.0688
 7026SOL    HW132540   2.691   2.076   3.913 -0.2460  0.9981 -1.3347
 7026SOL    HW232541   2.602   2.108   4.027 -1.4896  0.9704  0.0695
 7027SOL     OW32542   3.422   2.545  12.903  0.4205  0.0456 -0.0957
 7027SOL    HW132543   3.468   2.583  12.828  2.3718  2.3948  2.3180
 7027SOL    HW232544   3.354   2.612  12.912  0.5362  0.3908 -1.7395
 7028SOL     OW32545   1.326   2.101   2.824  0.9319  0.4418  0.2564
 7028SOL    HW132546   1.290   2.052   2.749 -0.5885  0.7187  0.8104
 7028SOL    HW232547   1.265   2.174   2.826 -1.6185 -1.5691 -2.3088
 7029SOL     OW32548   1.032   1.634  12.450  0.7946 -0.5904 -0.7311
 7029SOL    HW132549   1.036   1.576  12.526  0.0769 -0.2596 -0.4477
 7029SOL    HW232550   1.057   1.721  12.480 -2.0971  0.7305 -2.2285
 7030SOL     OW32551   2.330   1.081   9.060  0.6591 -0.1090  0.6331
 7030SOL    HW132552   2.319   1.076   9.155 -3.0275 -0.9052  0.1740
 7030SOL    HW232553   2.315   0.989   9.040  1.8187 -0.7405  2.6413
 7031SOL     OW32554   1.941   3.422   6.453  0.1228 -0.5216  0.2928
 7031SOL    HW132555   1.899   3.464   6.529  3.3246  0.0027  1.7643
 7031SOL    HW232556   2.026   3.464   6.446  0.5093 -1.5407 -0.9903
 7032SOL     OW32557   1.926   1.835   1.876 -0.1833  0.2535  0.3427
 7032SOL    HW132558   1.840   1.841   1.834 -0.3553 -0.5314  0.5721
 7032SOL    HW232559   1.914   1.784   1.956  1.6714 -0.3269  0.2724
 7033SOL     OW32560   4.521   1.122  12.446 -0.0844 -0.1148 -0.2848
 7033SOL    HW132561   4.601   1.118  12.394 -0.2683  1.6042 -0.7075
 7033SOL    HW232562   4.489   1.206  12.412 -0.4815 -0.3865 -0.5940
 7034SOL     OW32563   3.592   2.670  16.719  0.7548 -0.5522 -0.3548
 7034SOL    HW132564   3.569   2.579  16.740  0.0084 -0.5227 -1.0422
 7034SOL    HW232565   3.660   2.660  16.652  1.4136 -0.4830  0.3100
 7035SOL     OW32566   3.453   1.273   5.407 -0.6491  0.7353 -0.4089
 7035SOL    HW132567   3.454   1.196   5.463  1.6383 -1.8498 -4.0560
 7035SOL    HW232568   3.456   1.237   5.319  1.4357  0.0542 -0.0750
 7036SOL     OW32569   2.910   4.604   0.251  0.0514  0.3268 -0.1225
 7036SOL    HW132570   2.978   4.606   0.184 -0.1419  0.9669 -0.3084
 7036SOL    HW232571   2.837   4.606   0.188  1.0494  0.6552 -1.2879
 7037SOL     OW32572   4.210   0.410   2.053  1.0275  0.0960 -0.5702
 7037SOL    HW132573   4.210   0.505   2.068  1.1168 -0.1529  0.9783
 7037SOL    HW232574   4.164   0.400   1.970 -0.3494 -2.8095  0.5655
 7038SOL     OW32575   3.815   1.085  14.903 -0.6899 -0.8697 -0.3862
 7038SOL    HW132576   3.850   1.174  14.903 -0.5474 -0.9176  2.1749
 7038SOL    HW232577   3.889   1.029  14.882  0.0049  0.0581 -0.4362
 7039SOL     OW32578   3.316   1.147  14.732 -0.1410  0.0616  0.3443
 7039SOL    HW132579   3.409   1.168  14.735 -0.2344  0.6107 -0.5326
 7039SOL    HW232580   3.282   1.228  14.693  1.4653  0.5133 -0.1381
 7040SOL     OW32581   4.601   1.742   5.282 -0.2893 -0.9200  0.1319
 7040SOL    HW132582   4.666   1.812   5.277  0.5338 -1.8317 -1.8463
 7040SOL    HW232583   4.634   1.688   5.211 -0.8627 -0.2224 -0.6751
 7041SOL     OW32584   4.479   2.680   7.075  0.5482  0.2003  0.7819
 7041SOL    HW132585   4.405   2.653   7.019  0.6835  0.5022  0.4522
 7041SOL    HW232586   4.471   2.639   7.160 -1.2102  0.9089  0.9666
 7042SOL     OW32587   4.542   3.706   9.054  0.4258  0.2841 -0.2690
 7042SOL    HW132588   4.498   3.778   9.010 -0.9113 -0.1770  0.2899
 7042SOL    HW232589   4.634   3.718   9.033  0.7525 -2.7436 -0.5680
 7043SOL     OW32590   1.660   0.410   3.028 -0.3340 -0.1481 -0.1104
 7043SOL    HW132591   1.671   0.316   3.043 -2.7801 -0.4644 -0.2610
 7043SOL    HW232592   1.749   0.442   3.021  0.5208 -2.3067  0.6757
 7044SOL     OW32593   3.465   4.088   7.739 -0.0226 -0.3090  0.0417
 7044SOL    HW132594   3.504   4.109   7.824 -2.6085  0.0065  1.1602
 7044SOL    HW232595   3.374   4.069   7.763 -0.0459 -0.3873 -0.1070
 7045SOL     OW32596   2.443   2.030  14.331  0.2250 -0.0220 -0.0438
 7045SOL    HW132597   2.355   2.057  14.306  0.2748 -0.4459 -0.6517
 7045SOL    HW232598   2.450   2.065  14.420 -0.0605  1.6708 -0.6817
 7046SOL     OW32599   3.163   0.438   7.170  0.3541  0.3057  0.0974
 7046SOL    HW132600   3.159   0.533   7.177 -0.3776  0.1855  1.3546
 7046SOL    HW232601   3.079   0.425   7.124  0.3311  1.5549 -0.2039
 7047SOL     OW32602   0.243   3.181   6.419 -0.3833 -0.4238 -0.4546
 7047SOL    HW132603   0.179   3.242   6.382  1.3784  1.7236  0.0767
 7047SOL    HW232604   0.262   3.140   6.335 -0.3419 -1.3062 -0.0110
 7048SOL     OW32605   0.303   3.569   8.656  0.4166 -0.2202  0.3106
 7048SOL    HW132606   0.273   3.526   8.736  0.8066  1.1433  1.2065
 7048SOL    HW232607   0.223   3.566   8.605  1.4234  2.3784 -1.4171
 7049SOL     OW32608   2.891   2.310   1.301  0.7953 -0.4568 -0.4279
 7049SOL    HW132609   2.903   2.215   1.298  1.0787 -0.4582  0.8444
 7049SOL    HW232610   2.812   2.304   1.248  0.8801 -0.8893 -0.5043
 7050SOL     OW32611   1.588   0.632   1.266  0.1453  0.3158  0.2152
 7050SOL    HW132612   1.603   0.552   1.217  0.0207 -0.2440  1.0876
 7050SOL    HW232613   1.504   0.665   1.234 -0.5024 -1.2552  0.3239
 7051SOL     OW32614   2.125   1.678   4.195  0.4568  0.2988 -0.1231
 7051SOL    HW132615   2.066   1.667   4.270  0.1774 -0.6958 -0.4807
 7051SOL    HW232616   2.075   1.714   4.121 -1.6758  1.8434  2.0566
 7052SOL     OW32617   4.085   2.361  14.185  0.2179 -0.3783 -0.3418
 7052SOL    HW132618   4.142   2.366  14.261  0.0949 -1.4312 -0.1769
 7052SOL    HW232619   4.012   2.302  14.204 -2.1560  2.7575  0.2248
 7053SOL     OW32620   3.155   3.433   0.971 -0.3585  0.0226 -0.2688
 7053SOL    HW132621   3.226   3.376   0.942 -3.3102 -2.7258 -2.0126
 7053SOL    HW232622   3.190   3.458   1.057  0.5035 -1.1590 -0.2781
 7054SOL     OW32623   3.016   1.734   5.967  0.2262 -0.2908  0.1128
 7054SOL    HW132624   3.110   1.748   5.974  0.1313  0.5657 -0.3633
 7054SOL    HW232625   3.004   1.783   5.886 -0.7923 -0.8750 -0.0975
 7055SOL     OW32626   3.088   4.622   0.056  0.2678  0.2530 -0.9408
 7055SOL    HW132627   3.132   4.655  17.672 -0.3068 -1.1110 -1.8216
 7055SOL    HW232628   3.159   4.564   0.083 -0.8347 -0.8401 -0.4650
 7056SOL     OW32629   0.556   3.656  14.203  0.7065 -0.4004 -0.2832
 7056SOL    HW132630   0.469   3.689  14.179 -0.3159 -2.5468  0.4666
 7056SOL    HW232631   0.617   3.722  14.170  0.6500  0.8850  2.2231
 7057SOL     OW32632   2.582   3.493  11.198  0.4655 -0.0210  0.3118
 7057SOL    HW132633   2.490   3.520  11.206  0.1217 -1.1448  0.1438
 7057SOL    HW232634   2.633   3.568  11.229  1.4797 -0.4644 -0.2828
 7058SOL     OW32635   4.219   1.336  15.447 -0.2679 -0.6375  0.1759
 7058SOL    HW132636   4.277   1.266  15.415 -0.2586 -1.2584  1.5619
 7058SOL    HW232637   4.137   1.295  15.422 -1.6130  2.2487 -0.1198
 7059SOL     OW32638   1.370   3.250  11.222 -0.4074 -0.5480 -0.5356
 7059SOL    HW132639   1.339   3.166  11.189 -2.2402  0.3118 -0.9981
 7059SOL    HW232640   1.324   3.265  11.305  0.3979 -0.0950 -0.1737
 7060SOL     OW32641   3.901   0.925   6.625  0.1865  0.0166 -0.3267
 7060SOL    HW132642   3.843   0.855   6.655  2.7860 -2.0059 -0.1004
 7060SOL    HW232643   3.967   0.917   6.693  0.3209 -0.1785 -0.4830
 7061SOL     OW32644   3.414   0.461  12.677 -0.2238 -0.3716  0.5623
 7061SOL    HW132645   3.473   0.534  12.656  1.3857 -1.7022  0.4152
 7061SOL    HW232646   3.365   0.490  12.754  3.0395  2.5604  1.5610
 7062SOL     OW32647   2.864   4.383   1.039 -0.1811 -0.3857 -0.3316
 7062SOL    HW132648   2.837   4.473   1.055 -1.4742 -1.0965  1.4487
 7062SOL    HW232649   2.884   4.392   0.946 -2.2993  0.0498 -0.7507
 7063SOL     OW32650   3.604   1.262  15.918 -0.1410  0.1493  0.5747
 7063SOL    HW132651   3.603   1.330  15.986 -2.0501  2.7134 -2.0052
 7063SOL    HW232652   3.632   1.185  15.969  0.9587  0.6495  0.7176
 7064SOL     OW32653   0.594   0.295   2.952  0.1323  0.2108  0.1717
 7064SOL    HW132654   0.598   0.209   2.994  1.0883 -0.6041 -1.5514
 7064SOL    HW232655   0.546   0.272   2.872  1.4505 -0.5721 -0.3978
 7065SOL     OW32656   4.672   4.635   2.134 -0.3281  0.7342  0.4184
 7065SOL    HW132657   4.648   4.682   2.054  0.2596 -0.3268 -0.3928
 7065SOL    HW232658   4.592   4.626   2.186  0.2919 -1.2781  1.0126
 7066SOL     OW32659   3.857   0.707   6.916 -1.1327  0.0509 -0.0123
 7066SOL    HW132660   3.768   0.741   6.918 -0.8935  0.6354  0.6033
 7066SOL    HW232661   3.851   0.656   6.997 -0.0801 -0.0419  0.0193
 7067SOL     OW32662   1.688   4.369   3.554 -0.0344  0.0191 -0.0105
 7067SOL    HW132663   1.739   4.332   3.482  1.8259 -0.9689  1.7996
 7067SOL    HW232664   1.686   4.304   3.625 -2.1482  1.1198  0.9359
 7068SOL     OW32665   0.796   2.941  16.218 -0.2950  0.0843  0.0238
 7068SOL    HW132666   0.830   2.953  16.307 -1.1906  2.1900  0.0802
 7068SOL    HW232667   0.712   2.899  16.236 -0.6711  0.5134 -0.7033
 7069SOL     OW32668   3.123   2.484   7.110 -0.0843  0.4948  0.0219
 7069SOL    HW132669   3.155   2.429   7.182  0.8713 -1.4902 -1.9088
 7069SOL    HW232670   3.144   2.575   7.131  0.4308  0.1816  0.8703
 7070SOL     OW32671   0.285   4.575   4.568  1.0252  0.3128 -0.0454
 7070SOL    HW132672   0.330   4.517   4.629 -1.8504 -0.9884  0.8075
 7070SOL    HW232673   0.225   4.612   4.632  0.2468 -0.8171 -0.1287
 7071SOL     OW32674   0.400   0.853  14.448 -0.2044  0.6435  0.5942
 7071SOL    HW132675   0.333   0.786  14.456  2.5831 -2.3017 -0.7648
 7071SOL    HW232676   0.481   0.805  14.469 -0.2970 -0.3292 -1.3000
 7072SOL     OW32677   1.339   2.074   6.291 -0.3473  0.4287 -0.2303
 7072SOL    HW132678   1.344   2.087   6.197 -1.6586  0.2428 -0.3167
 7072SOL    HW232679   1.369   1.985   6.310  0.4047  1.3686  2.9958
 7073SOL     OW32680   4.031   1.436   1.977  0.1974 -0.0005 -0.8666
 7073SOL    HW132681   4.102   1.495   1.954 -1.3628  1.6999 -1.3355
 7073SOL    HW232682   4.063   1.349   1.952 -1.8903 -1.0284  0.0425
 7074SOL     OW32683   1.446   2.400   2.668 -0.2250  0.3440 -0.5888
 7074SOL    HW132684   1.367   2.433   2.711  0.0558  1.8186 -1.2058
 7074SOL    HW232685   1.483   2.354   2.744 -1.8730  0.1395  0.0801
 7075SOL     OW32686   0.962   2.935   2.030 -0.8010  0.1006  0.0348
 7075SOL    HW132687   0.989   3.002   1.967  0.0160  2.8387  3.3440
 7075SOL    HW232688   0.930   2.984   2.106  1.1579  0.2565  0.7430
 7076SOL     OW32689   4.107   1.611   7.444 -0.3021  0.5085  0.1666
 7076SOL    HW132690   4.054   1.548   7.394  1.1425  0.3994 -1.2149
 7076SOL    HW232691   4.111   1.564   7.528 -0.5733 -2.3378 -1.4017
 7077SOL     OW32692   2.951   2.502   1.485  0.0529  0.3731 -0.2620
 7077SOL    HW132693   2.936   2.429   1.424  3.1511 -0.1429 -0.3738
 7077SOL    HW232694   3.025   2.540   1.437  1.7897 -0.9401  1.3955
 7078SOL     OW32695   2.540   3.287   5.393  0.2084 -0.0282 -0.1135
 7078SOL    HW132696   2.565   3.379   5.395 -3.4165  0.8995  0.6254
 7078SOL    HW232697   2.593   3.254   5.467 -1.0643 -0.7811  0.4590
 7079SOL     OW32698   1.765   4.175   8.836  0.6407 -0.0371 -0.5411
 7079SOL    HW132699   1.828   4.107   8.810  1.5864  0.2919  0.9275
 7079SOL    HW232700   1.709   4.119   8.889  0.0054 -0.2955 -1.4875
 7080SOL     OW32701   0.276   1.471  11.103 -0.0363  0.4363  0.0142
 7080SOL    HW132702   0.190   1.432  11.120 -1.5590  3.0869 -1.6132
 7080SOL    HW232703   0.316   1.406  11.046 -0.7567  0.2334 -0.2590
 7081SOL     OW32704   3.497   2.486   8.066 -0.4078  0.3805  0.3658
 7081SOL    HW132705   3.578   2.511   8.022 -0.9220  0.1728 -0.7005
 7081SOL    HW232706   3.433   2.529   8.009  0.2112 -1.1643 -1.5034
 7082SOL     OW32707   2.773   2.210  13.964 -0.3901 -0.4561  0.3810
 7082SOL    HW132708   2.745   2.126  14.001 -0.4207  0.0777  1.5704
 7082SOL    HW232709   2.828   2.242  14.035 -0.2276  0.5713 -0.1985
 7083SOL     OW32710   4.031   4.080   8.786  0.0201 -0.3562 -0.2478
 7083SOL    HW132711   3.984   4.012   8.738  0.6683 -1.4341  0.6472
 7083SOL    HW232712   3.954   4.133   8.808 -0.0922 -1.9164  2.9991
 7084SOL     OW32713   0.884   0.460   7.236 -1.0130 -0.4894 -0.0772
 7084SOL    HW132714   0.846   0.542   7.266  0.2887 -0.7231  2.2399
 7084SOL    HW232715   0.920   0.480   7.149 -1.5825 -0.9391 -0.4172
 7085SOL     OW32716   0.479   2.107   7.147 -0.3962  0.3638  0.2812
 7085SOL    HW132717   0.431   2.147   7.074  1.6124  0.1400 -1.1875
 7085SOL    HW232718   0.524   2.031   7.109 -0.6752  0.3474 -0.0195
 7086SOL     OW32719   0.411   2.152   2.272 -0.0472  0.5611  0.6709
 7086SOL    HW132720   0.317   2.143   2.286 -0.2521  0.2008 -0.9372
 7086SOL    HW232721   0.443   2.076   2.321  3.2570  1.9018  0.5814
 7087SOL     OW32722   0.533   0.146  13.235 -0.2705 -0.2239 -0.2143
 7087SOL    HW132723   0.607   0.173  13.181 -0.6441  2.4191  0.6390
 7087SOL    HW232724   0.471   0.114  13.169 -1.6927  0.5322  0.7619
 7088SOL     OW32725   1.013   2.989   3.265  0.0891  0.0386  0.1263
 7088SOL    HW132726   1.055   3.073   3.252 -5.2735  2.5997 -0.7074
 7088SOL    HW232727   0.988   2.967   3.175  0.1515  0.4494  0.0093
 7089SOL     OW32728   0.082   3.758   9.005 -0.5340 -0.0254 -0.4045
 7089SOL    HW132729   0.170   3.741   9.038  0.1654  2.9358 -0.7083
 7089SOL    HW232730   0.073   3.851   9.025 -0.8549 -0.3044  0.7780
 7090SOL     OW32731   1.276   2.622   8.003  0.0181 -0.8244  0.0950
 7090SOL    HW132732   1.293   2.538   7.962  0.4369  1.0770 -3.5678
 7090SOL    HW232733   1.192   2.642   7.963  0.5164 -0.4735 -0.7594
 7091SOL     OW32734   3.403   1.777   9.718  0.1189 -0.7782  0.0466
 7091SOL    HW132735   3.310   1.799   9.723  0.0654 -0.5377 -2.2993
 7091SOL    HW232736   3.399   1.718   9.642  1.1211 -1.0387  0.1879
 7092SOL     OW32737   1.706   3.615  10.688 -0.2325 -0.0823  0.0199
 7092SOL    HW132738   1.645   3.542  10.697 -1.3497  0.8156 -0.2943
 7092SOL    HW232739   1.786   3.572  10.718  0.3909  0.9677 -0.1436
 7093SOL     OW32740   2.504   4.440   7.166 -0.3295 -0.1571  0.1873
 7093SOL    HW132741   2.500   4.467   7.258 -0.0314  0.7424 -0.0676
 7093SOL    HW232742   2.593   4.407   7.159 -0.3210 -0.2571  0.7111
 7094SOL     OW32743   1.303   2.864   5.827  0.1715 -0.5616 -0.0625
 7094SOL    HW132744   1.218   2.903   5.843  0.9931 -0.0075  2.8725
 7094SOL    HW232745   1.293   2.831   5.737 -3.0957  3.0340 -0.9947
 7095SOL     OW32746   0.625   0.060   5.841 -0.5754  0.6915  0.6608
 7095SOL    HW132747   0.656   0.062   5.751 -1.5541  0.6284  0.3226
 7095SOL    HW232748   0.537   0.097   5.828 -0.0341  1.2911 -1.2623
 7096SOL     OW32749   2.562   2.055   4.198 -0.4694 -0.1006 -0.0540
 7096SOL    HW132750   2.533   1.964   4.191 -1.7296  0.1929  1.6076
 7096SOL    HW232751   2.490   2.101   4.240 -0.5969 -1.9687  1.7597
 7097SOL     OW32752   0.653   4.685   6.655 -0.5927  0.0116  0.6940
 7097SOL    HW132753   0.730   0.010   6.626 -0.3949 -0.1978  0.8702
 7097SOL    HW232754   0.675   4.683   6.748 -1.6454  0.6328  0.9548
 7098SOL     OW32755   3.365   2.050   7.811  0.6873 -0.0475  0.3392
 7098SOL    HW132756   3.370   2.028   7.718 -1.0216  0.6864  0.0647
 7098SOL    HW232757   3.442   2.017   7.857 -0.0399 -0.5294  1.2050
 7099SOL     OW32758   0.677   3.348   0.018 -0.0790  0.1516  0.5316
 7099SOL    HW132759   0.669   3.421  17.652  0.3567 -0.5889 -0.4113
 7099SOL    HW232760   0.709   3.401   0.091  0.2087 -0.6634  0.9941
 7100SOL     OW32761   1.671   3.673   7.836 -0.1883 -0.0593  0.3437
 7100SOL    HW132762   1.759   3.689   7.872  0.8985 -0.5195 -2.1234
 7100SOL    HW232763   1.685   3.650   7.744 -0.8019 -0.9285  0.4707
 7101SOL     OW32764   1.112   2.743   0.472 -0.3360 -0.0055 -0.0057
 7101SOL    HW132765   1.132   2.657   0.435 -0.5321  0.4314 -1.1251
 7101SOL    HW232766   1.120   2.719   0.565  1.6811 -0.4365 -0.2799
 7102SOL     OW32767   1.694   2.724   5.805 -0.3769  0.0449 -0.9549
 7102SOL    HW132768   1.608   2.757   5.779 -0.1379  1.3786 -0.0656
 7102SOL    HW232769   1.745   2.765   5.736  1.4454 -2.4576 -1.0748
 7103SOL     OW32770   0.406   2.580   5.513  0.6526  0.3488  0.4459
 7103SOL    HW132771   0.387   2.514   5.446 -0.3905 -1.6286  2.7067
 7103SOL    HW232772   0.430   2.653   5.456  2.7436  1.0175  2.1852
 7104SOL     OW32773   3.374   1.268   7.038  0.1340  0.0781  0.0617
 7104SOL    HW132774   3.373   1.248   7.131 -1.0562  0.2174  0.0785
 7104SOL    HW232775   3.283   1.267   7.009 -0.3298 -1.2720  1.5944
 7105SOL     OW32776   1.970   2.572  15.179  0.0687  0.4265  0.2705
 7105SOL    HW132777   2.060   2.588  15.205  0.8712  0.2296 -2.4015
 7105SOL    HW232778   1.940   2.657  15.146 -0.1290 -0.2573 -1.3208
 7106SOL     OW32779   0.879   1.421   0.860 -0.0503 -0.2607  1.0960
 7106SOL    HW132780   0.858   1.479   0.786  0.3767 -1.2719  0.1739
 7106SOL    HW232781   0.960   1.464   0.885  1.2834 -0.8335 -2.2167
 7107SOL     OW32782   1.252   3.915  16.507  0.5242  0.1685 -0.4411
 7107SOL    HW132783   1.157   3.908  16.520  0.8756  0.6593  2.3371
 7107SOL    HW232784   1.256   4.008  16.525 -1.9557  0.2272 -0.1248
 7108SOL     OW32785   4.053   3.876   2.653 -0.3047 -0.1471 -0.5976
 7108SOL    HW132786   4.076   3.906   2.565 -0.6663  2.0128  0.0484
 7108SOL    HW232787   4.088   3.949   2.704 -0.5554 -0.1729 -0.3852
 7109SOL     OW32788   4.272   4.059   5.995  0.3209  0.3621  0.4687
 7109SOL    HW132789   4.302   4.013   5.916 -0.6892  0.8015 -0.1637
 7109SOL    HW232790   4.285   3.981   6.050 -2.2918 -0.6262 -0.3021
 7110SOL     OW32791   3.756   1.225  11.768 -0.6405 -0.5200 -0.0332
 7110SOL    HW132792   3.788   1.274  11.844  4.3519 -1.1399 -1.7476
 7110SOL    HW232793   3.804   1.143  11.761 -0.7076 -0.4437 -1.4028
 7111SOL     OW32794   4.721   2.396   7.421  0.2536 -0.1825 -0.2052
 7111SOL    HW132795   0.027   2.440   7.501  2.1973 -2.1306  0.1494
 7111SOL    HW232796   0.071   2.335   7.420 -0.0185 -0.5542  2.1803
 7112SOL     OW32797   2.724   4.615   7.621  0.3923 -0.3728 -0.4386
 7112SOL    HW132798   2.676   4.533   7.618  0.2075 -0.2413 -1.0515
 7112SOL    HW232799   2.790   4.600   7.689  1.9750  3.6869 -1.0800
 7113SOL     OW32800   0.043   3.957   8.027 -0.2712  0.0239 -0.3373
 7113SOL    HW132801   0.040   3.873   8.073 -1.9483  0.1493 -0.1936
 7113SOL    HW232802   0.080   4.021   8.087  1.0198 -1.9510  0.9728
 7114SOL     OW32803   1.451   0.565   5.742  0.0430 -0.0213 -0.3355
 7114SOL    HW132804   1.510   0.544   5.669 -1.7125  1.4296 -2.1574
 7114SOL    HW232805   1.370   0.543   5.695 -0.2905 -1.4694  0.8970
 7115SOL     OW32806   2.130   0.411   9.387  0.3757 -1.1996 -0.6377
 7115SOL    HW132807   2.211   0.425   9.339  2.4908 -1.7703  2.8361
 7115SOL    HW232808   2.052   0.433   9.336 -0.6783 -1.3453  0.9078
 7116SOL     OW32809   1.942   1.997  10.078  0.7170  0.2609  0.1678
 7116SOL    HW132810   1.983   1.954  10.153 -1.7366 -3.1695 -0.4710
 7116SOL    HW232811   1.970   2.088  10.085  0.2504  0.5234 -1.3081
 7117SOL     OW32812   4.495   0.745  12.858  0.3895 -0.1531 -0.1495
 7117SOL    HW132813   4.472   0.791  12.778 -1.0258 -1.8971 -0.7359
 7117SOL    HW232814   4.563   0.685  12.828 -1.2507 -2.9957  1.7338
 7118SOL     OW32815   1.055   0.158   9.932 -0.1627  0.5005 -0.0320
 7118SOL    HW132816   1.097   0.241   9.953 -0.1947  0.7428 -0.9383
 7118SOL    HW232817   1.017   0.160   9.844 -0.4653 -2.0371  0.0214
 7119SOL     OW32818   2.040   4.138   0.915 -0.6439 -0.1160 -0.0586
 7119SOL    HW132819   2.066   4.048   0.936  0.8880  0.4959  0.6516
 7119SOL    HW232820   2.005   4.177   0.995 -0.3011 -1.2262  0.6244
 7120SOL     OW32821   3.094   4.048  14.861 -0.3585 -0.0368 -0.2885
 7120SOL    HW132822   3.080   4.061  14.955 -1.5431 -1.1403 -0.3148
 7120SOL    HW232823   3.034   4.111  14.821 -1.4280 -0.4572  0.6243
 7121SOL     OW32824   3.713   1.190   6.700  0.1893 -0.3348 -0.2613
 7121SOL    HW132825   3.800   1.168   6.667  0.6476  1.6977 -0.3911
 7121SOL    HW232826   3.659   1.179   6.621 -0.4913  2.7661 -0.1973
 7122SOL     OW32827   4.391   2.427   9.820  0.3734  0.5750  0.2174
 7122SOL    HW132828   4.422   2.488   9.753  1.7580  0.6438  0.9341
 7122SOL    HW232829   4.396   2.479   9.900 -1.2456 -0.3757  0.9620
 7123SOL     OW32830   0.127   2.088   3.386  0.0863  0.3139  0.0509
 7123SOL    HW132831   0.213   2.049   3.376 -0.4626 -0.7656 -0.4736
 7123SOL    HW232832   0.093   2.038   3.460 -0.6519 -0.5651 -0.8772
 7124SOL     OW32833   1.824   3.903   0.450  0.1904  0.2592 -0.1737
 7124SOL    HW132834   1.900   3.869   0.497 -0.6735 -3.0419 -1.1775
 7124SOL    HW232835   1.860   3.962   0.384  2.2943  0.1652  0.9045
 7125SOL     OW32836   0.361   1.692   7.801  0.0258 -0.1534  0.1936
 7125SOL    HW132837   0.448   1.729   7.820  0.0969  0.8403 -1.9428
 7125SOL    HW232838   0.336   1.678   7.892  0.1153  1.6535  0.5109
 7126SOL     OW32839   0.323   2.097   4.098 -0.0004 -0.0371  0.8332
 7126SOL    HW132840   0.257   2.094   4.029 -1.4368  2.3110  2.0932
 7126SOL    HW232841   0.287   2.024   4.149 -1.2782  0.8475  1.1989
 7127SOL     OW32842   2.487   2.557  11.192 -0.3029 -0.3560 -0.0722
 7127SOL    HW132843   2.570   2.510  11.204  0.0408  1.0644  2.9458
 7127SOL    HW232844   2.502   2.642  11.232  1.7351 -0.3337 -0.9136
 7128SOL     OW32845   0.976   4.245   5.651 -0.3469  0.3261  0.5313
 7128SOL    HW132846   1.053   4.252   5.708  1.9547  0.7669 -2.6559
 7128SOL    HW232847   0.965   4.339   5.636  0.3182  0.3507  0.2280
 7129SOL     OW32848   1.023   1.470   1.886  0.6032 -0.0532  0.4167
 7129SOL    HW132849   0.954   1.403   1.879 -0.2522  0.5189  3.3360
 7129SOL    HW232850   1.004   1.491   1.978 -1.6028 -1.9962  0.4201
 7130SOL     OW32851   1.737   4.671   8.073 -0.1561 -0.0511 -0.2684
 7130SOL    HW132852   1.691   4.587   8.072  1.2342 -0.8446  1.2604
 7130SOL    HW232853   1.774   4.683   7.986  0.0207 -1.1944 -0.3578
 7131SOL     OW32854   3.946   0.736   7.860  0.2407  0.0362 -0.1317
 7131SOL    HW132855   3.854   0.736   7.885  0.4521 -0.3428  0.6454
 7131SOL    HW232856   3.938   0.729   7.765  2.1788  2.0501 -0.4342
 7132SOL     OW32857   3.396   3.366   9.382 -0.0061  0.3317  0.2189
 7132SOL    HW132858   3.397   3.284   9.431 -1.2440 -0.1688 -0.6163
 7132SOL    HW232859   3.457   3.344   9.312 -0.6288  2.5561 -1.0180
 7133SOL     OW32860   2.631   3.452  11.900  0.2084  0.7614  0.6893
 7133SOL    HW132861   2.583   3.506  11.963 -1.6032 -0.2690  0.2052
 7133SOL    HW232862   2.716   3.451  11.943  0.4204  1.1447  0.2821
 7134SOL     OW32863   3.747   1.637  12.386  0.5953 -0.0970  0.1505
 7134SOL    HW132864   3.760   1.671  12.297 -2.8116 -1.1715 -0.7622
 7134SOL    HW232865   3.823   1.580  12.398 -0.0935 -1.1806 -0.6433
 7135SOL     OW32866   2.874   1.378   6.106  0.7548  0.4271  0.2399
 7135SOL    HW132867   2.829   1.461   6.117  0.1295  0.3244 -1.5025
 7135SOL    HW232868   2.916   1.369   6.192 -1.2384 -1.3379  1.0267
 7136SOL     OW32869   0.609   2.528   2.636  0.1941 -0.0628  0.6139
 7136SOL    HW132870   0.696   2.569   2.636  0.3675 -0.4302  1.3948
 7136SOL    HW232871   0.582   2.528   2.544 -0.2220 -0.1344  0.7352
 7137SOL     OW32872   2.893   0.458   5.763 -0.2120  0.6992 -0.0559
 7137SOL    HW132873   2.878   0.390   5.829  1.5107  0.9143  0.5459
 7137SOL    HW232874   2.973   0.503   5.788  0.8545 -0.7310 -0.9586
 7138SOL     OW32875   0.852   2.658   2.593  0.0461  0.0870  0.2217
 7138SOL    HW132876   0.942   2.628   2.607 -0.1939  0.5924  2.9153
 7138SOL    HW232877   0.850   2.704   2.509  1.6078  2.4990  1.4959
 7139SOL     OW32878   1.622   3.754  10.205 -0.0795 -0.3043  0.4064
 7139SOL    HW132879   1.702   3.701  10.202 -0.1785 -0.3765 -0.9878
 7139SOL    HW232880   1.556   3.700  10.161  1.1850 -0.5910 -1.1570
 7140SOL     OW32881   0.355   0.700  17.468 -0.3427 -0.2663 -0.2117
 7140SOL    HW132882   0.371   0.781  17.517 -1.7249 -1.5156  2.3116
 7140SOL    HW232883   0.439   0.654  17.469  0.4122  1.1649  2.3865
 7141SOL     OW32884   2.446   0.650   8.868 -0.0286  0.2700  0.2841
 7141SOL    HW132885   2.419   0.664   8.777  0.1862  1.8062  0.4630
 7141SOL    HW232886   2.391   0.719   8.904 -2.1504 -1.5648  0.5954
 7142SOL     OW32887   1.323   4.705  14.827 -0.3693  0.8531  0.3709
 7142SOL    HW132888   1.388   4.692  14.757  1.2020  0.1958  1.9622
 7142SOL    HW232889   1.250   4.664  14.780 -0.3881  0.8221  0.4279
 7143SOL     OW32890   1.967   0.448   8.748  0.6311  0.3855  0.5300
 7143SOL    HW132891   2.047   0.424   8.795 -1.1811  1.2365  4.0242
 7143SOL    HW232892   1.960   0.532   8.792  0.6128  1.6665 -1.8838
 7144SOL     OW32893   3.113   1.938   3.905 -0.4588  0.4656  0.1688
 7144SOL    HW132894   3.070   1.867   3.952  1.3554 -0.8531 -0.1322
 7144SOL    HW232895   3.160   1.890   3.837 -2.7886  0.0307 -1.1097
 7145SOL     OW32896   3.245   4.238  10.353  0.1925  0.6897  0.4144
 7145SOL    HW132897   3.291   4.270  10.275  1.1184  0.2761  0.7868
 7145SOL    HW232898   3.172   4.299  10.352 -0.4338 -0.0458  0.7420
 7146SOL     OW32899   4.098   1.005   9.092  0.6149 -0.1790  0.2402
 7146SOL    HW132900   4.149   1.086   9.093 -0.1298  0.3462 -2.8698
 7146SOL    HW232901   4.159   0.944   9.134  0.8312  1.1642  1.8373
 7147SOL     OW32902   1.992   1.788   3.998  0.7299  0.7951  0.0819
 7147SOL    HW132903   1.915   1.761   3.948  0.2262 -1.3147  1.9654
 7147SOL    HW232904   2.053   1.795   3.926 -1.3478  2.7065 -1.4948
 7148SOL     OW32905   2.460   1.375   5.276  0.4316  0.2741 -0.4137
 7148SOL    HW132906   2.489   1.286   5.294 -1.4691 -0.9135 -3.1087
 7148SOL    HW232907   2.536   1.430   5.257  0.1640  0.2690 -1.4947
 7149SOL     OW32908   4.019   0.356   8.011 -0.3963 -0.3138 -0.2007
 7149SOL    HW132909   4.102   0.348   7.965 -2.6542 -0.5382 -4.2636
 7149SOL    HW232910   4.031   0.447   8.036 -1.4945 -0.4164  0.7226
 7150SOL     OW32911   4.302   0.245   2.245 -0.9547 -0.4047 -0.1850
 7150SOL    HW132912   4.247   0.167   2.248 -1.2380 -0.1199  1.6845
 7150SOL    HW232913   4.260   0.296   2.176  0.1917 -0.2624 -0.7763
 7151SOL     OW32914   3.951   1.922   5.207  0.2157 -0.2910 -0.0151
 7151SOL    HW132915   3.919   2.012   5.197  3.0706  0.9077  1.7288
 7151SOL    HW232916   4.044   1.938   5.222  0.1887 -0.3503  0.2198
 7152SOL     OW32917   4.665   3.968   6.318  0.1889  0.1303 -0.5216
 7152SOL    HW132918   0.023   3.942   6.361 -1.1728 -1.6708  0.9644
 7152SOL    HW232919   4.626   3.884   6.294  0.4493 -0.6946  1.9557
 7153SOL     OW32920   4.228   1.642   5.993 -0.8164  0.1782 -0.0165
 7153SOL    HW132921   4.267   1.657   5.907  0.0379 -0.2061  0.2980
 7153SOL    HW232922   4.137   1.616   5.978 -1.8081  3.2250  0.7630
 7154SOL     OW32923   3.078   0.563   6.784  0.0237 -0.0592  0.5072
 7154SOL    HW132924   3.071   0.550   6.879  0.6878  0.6616  0.6487
 7154SOL    HW232925   3.150   0.502   6.770 -0.8055 -0.7051 -0.9128
 7155SOL     OW32926   4.373   3.544   6.093  0.5868  0.1473 -0.7429
 7155SOL    HW132927   4.310   3.601   6.048  1.4935 -0.2046 -2.4692
 7155SOL    HW232928   4.428   3.611   6.134  1.6523 -0.4855 -1.1445
 7156SOL     OW32929   4.001   2.938   1.908  0.2854 -0.1398  0.0416
 7156SOL    HW132930   3.984   2.874   1.839  2.2027  1.1702 -1.6572
 7156SOL    HW232931   3.945   2.912   1.981 -2.4706  0.6206 -1.8365
 7157SOL     OW32932   3.763   0.171   5.779 -0.6303 -0.1601  0.0774
 7157SOL    HW132933   3.827   0.159   5.709 -0.8445 -0.4506 -0.0709
 7157SOL    HW232934   3.707   0.095   5.760  0.0387 -1.4809  3.3687
 7158SOL     OW32935   3.819   0.654   6.410 -0.7795 -0.5229  0.0004
 7158SOL    HW132936   3.835   0.564   6.437  1.4623 -0.0865  0.1277
 7158SOL    HW232937   3.785   0.691   6.492 -1.1212  0.3239 -0.5230
 7159SOL     OW32938   2.683   3.845  11.501  0.4589 -0.0290  0.0281
 7159SOL    HW132939   2.678   3.776  11.567  1.3642 -1.0850 -0.9988
 7159SOL    HW232940   2.677   3.928  11.549  1.5654  0.2182 -0.2532
 7160SOL     OW32941   1.965   3.052   1.807 -0.3259  0.1003  0.1782
 7160SOL    HW132942   1.888   3.082   1.759  2.7878  2.8579 -3.1363
 7160SOL    HW232943   2.031   3.120   1.797 -0.4869  0.0224 -1.4204
 7161SOL     OW32944   2.986   0.904   4.648  0.0752 -0.2940  0.2119
 7161SOL    HW132945   3.080   0.917   4.661  0.5935 -2.0115 -1.7716
 7161SOL    HW232946   2.981   0.911   4.553  0.3639  0.1259  0.2269
 7162SOL     OW32947   1.435   2.471   0.283 -0.1105 -0.1286  0.4069
 7162SOL    HW132948   1.345   2.490   0.308  0.4062  2.0554  0.5724
 7162SOL    HW232949   1.468   2.400   0.338 -1.6333  0.3381  1.9183
 7163SOL     OW32950   1.539   1.901   1.948 -0.7847  0.0381 -0.5973
 7163SOL    HW132951   1.486   1.955   1.889 -2.4511 -3.9479 -2.8004
 7163SOL    HW232952   1.575   1.836   1.886 -3.1041 -3.8595  2.1362
 7164SOL     OW32953   0.278   3.821   2.943 -0.3492  0.2300  0.0166
 7164SOL    HW132954   0.208   3.827   3.008 -2.3099 -2.2622 -1.8683
 7164SOL    HW232955   0.300   3.728   2.953  0.2642  0.1269 -2.1305
 7165SOL     OW32956   3.578   2.443  17.068 -0.6441  0.4093 -0.3407
 7165SOL    HW132957   3.658   2.468  17.023 -1.2241  2.1765 -0.3903
 7165SOL    HW232958   3.517   2.493  17.013  0.9727  0.5334 -2.0092
 7166SOL     OW32959   3.539   4.720  10.181 -0.6292  0.2704 -0.2823
 7166SOL    HW132960   3.478   0.034  10.118 -1.8172  0.9736  1.3021
 7166SOL    HW232961   3.475   4.680  10.241  0.2622 -1.8087 -0.7257
 7167SOL     OW32962   1.257   2.257  14.600  0.6336 -0.3024 -0.3801
 7167SOL    HW132963   1.218   2.330  14.553 -0.3821 -2.0303 -2.2002
 7167SOL    HW232964   1.236   2.195  14.531 -2.4273 -1.6569  1.7829
 7168SOL     OW32965   1.875   4.192  11.634  0.6151 -0.0337 -0.1612
 7168SOL    HW132966   1.880   4.268  11.577 -1.1505  0.4588  0.3373
 7168SOL    HW232967   1.806   4.139  11.592  0.8486  0.5978 -1.3366
 7169SOL     OW32968   1.280   3.072   8.666 -0.1596 -0.1448 -0.2648
 7169SOL    HW132969   1.316   2.992   8.630  0.5371 -0.4030  0.9859
 7169SOL    HW232970   1.352   3.132   8.644 -1.2664  1.5233  0.6137
 7170SOL     OW32971   0.148   1.410  13.583 -0.3322  0.4289  0.5283
 7170SOL    HW132972   0.071   1.454  13.618 -1.1207 -0.1440 -0.4784
 7170SOL    HW232973   0.170   1.356  13.659 -0.4807 -2.1575 -1.2417
 7171SOL     OW32974   3.273   3.258   6.848  0.1437 -0.4105 -0.0163
 7171SOL    HW132975   3.222   3.181   6.823  2.1001 -1.5125 -0.7016
 7171SOL    HW232976   3.328   3.265   6.769 -1.0269 -0.3382 -0.8283
 7172SOL     OW32977   1.811   1.633  10.177  0.3329 -0.2709  0.1929
 7172SOL    HW132978   1.855   1.553  10.205 -0.0552 -1.3280 -2.2383
 7172SOL    HW232979   1.846   1.698  10.238 -0.1876 -2.1103  2.4405
 7173SOL     OW32980   2.908   1.930   9.802 -0.8121  0.4118 -0.2255
 7173SOL    HW132981   2.931   1.850   9.849 -2.2756 -0.2440 -0.6194
 7173SOL    HW232982   2.896   1.985   9.880  1.7830  0.6814 -0.0194
 7174SOL     OW32983   4.014   3.100  10.690  0.1670 -0.1752 -0.4659
 7174SOL    HW132984   3.980   3.016  10.660 -0.7517 -0.2278  0.7491
 7174SOL    HW232985   3.947   3.130  10.751 -0.1228  1.9202 -1.7881
 7175SOL     OW32986   2.801   0.526  16.877  0.0545 -0.2396  0.4169
 7175SOL    HW132987   2.869   0.585  16.908 -0.5361  0.8871 -0.4561
 7175SOL    HW232988   2.769   0.490  16.960 -0.4438 -2.7910 -0.8776
 7176SOL     OW32989   3.060   0.936   3.054 -0.2900  0.3690 -0.1464
 7176SOL    HW132990   2.989   0.938   3.118 -0.5281 -1.5116 -0.3282
 7176SOL    HW232991   3.132   0.901   3.106 -0.8065  0.8245  0.8643
 7177SOL     OW32992   3.130   1.115   8.103 -0.2432  0.2280  0.8095
 7177SOL    HW132993   3.036   1.106   8.119 -0.6789 -1.1754 -2.4662
 7177SOL    HW232994   3.148   1.046   8.039  2.0376  0.1481  1.5263
 7178SOL     OW32995   2.465   0.155  11.291  0.4179  0.1794  0.1442
 7178SOL    HW132996   2.458   0.178  11.383  1.7821 -0.8475  0.5078
 7178SOL    HW232997   2.492   0.064  11.302  2.2063  0.7665  0.5170
 7179SOL     OW32998   3.788   0.935   6.368 -0.5267 -0.7337  0.4259
 7179SOL    HW132999   3.811   0.842   6.362  0.2230 -0.3720 -2.4792
 7179SOL    HW233000   3.831   0.953   6.452 -2.6963  1.1330  1.1271
 7180SOL     OW33001   0.204   2.630   4.468  0.1948 -0.4269 -0.2806
 7180SOL    HW133002   0.214   2.547   4.515 -1.9876 -0.8968 -0.6479
 7180SOL    HW233003   0.144   2.677   4.526  0.9646 -0.2336  0.3551
 7181SOL     OW33004   0.881   3.606   6.424  0.1190 -0.0167  0.2083
 7181SOL    HW133005   0.793   3.603   6.387 -0.3766  0.5687  1.3631
 7181SOL    HW233006   0.868   3.605   6.518 -0.6720 -1.4201  0.0804
 7182SOL     OW33007   4.196   1.358  17.283  0.1939 -0.7113 -0.2880
 7182SOL    HW133008   4.180   1.442  17.241 -1.4690 -1.2174 -0.6630
 7182SOL    HW233009   4.292   1.355  17.287  0.1882  2.0735  1.7973
 7183SOL     OW33010   2.616   2.247  10.566 -0.3184  0.2468 -0.2230
 7183SOL    HW133011   2.526   2.257  10.536  0.0396  0.6632 -1.1717
 7183SOL    HW233012   2.651   2.169  10.523  2.2148  0.5390  1.3221
 7184SOL     OW33013   1.619   2.516   9.070  0.2820 -0.3911  0.3917
 7184SOL    HW133014   1.705   2.554   9.052  1.1600 -1.8963  1.4156
 7184SOL    HW233015   1.608   2.482   8.982  0.0087  0.8107 -0.0317
 7185SOL     OW33016   2.226   3.720   8.050 -0.8724 -0.2986 -0.2190
 7185SOL    HW133017   2.281   3.705   7.973  0.7394  0.6950  0.7591
 7185SOL    HW233018   2.156   3.660   8.025  0.7458 -2.5891  0.7511
 7186SOL     OW33019   1.052   1.676   9.130  0.4824  0.5554 -0.4296
 7186SOL    HW133020   0.979   1.659   9.070 -0.9985 -1.7976  2.0683
 7186SOL    HW233021   1.082   1.586   9.142  1.2568  0.6936 -1.3151
 7187SOL     OW33022   2.123   1.014   9.925 -0.2028 -0.2365  0.2852
 7187SOL    HW133023   2.031   1.033   9.908 -0.1985 -0.0451  0.4858
 7187SOL    HW233024   2.161   1.098   9.949 -0.3987 -0.1271  0.2110
 7188SOL     OW33025   4.675   0.318   2.259  0.1854 -0.3168 -0.8596
 7188SOL    HW133026   4.703   0.357   2.341  0.2290  0.3841 -1.2100
 7188SOL    HW233027   0.001   0.236   2.264  0.3928 -0.1819 -0.7486
 7189SOL     OW33028   3.493   3.234  16.698 -0.1860 -0.7347 -0.0958
 7189SOL    HW133029   3.481   3.142  16.676  0.0581 -0.3955 -1.6889
 7189SOL    HW233030   3.579   3.229  16.739  0.1298  1.1022 -0.5292
 7190SOL     OW33031   4.251   3.733   5.744  0.8177 -0.1673  0.1906
 7190SOL    HW133032   4.189   3.771   5.682  0.2873  0.7799  1.2958
 7190SOL    HW233033   4.282   3.651   5.705  0.0818 -1.2682  1.9513
 7191SOL     OW33034   4.603   4.003   3.323 -0.3356 -0.4833  0.1654
 7191SOL    HW133035   4.571   3.966   3.405  0.5086 -2.3913 -0.3471
 7191SOL    HW233036   4.551   4.082   3.316  0.7958  0.2629  0.2451
 7192SOL     OW33037   1.527   0.427   9.382 -0.0329 -0.3423 -0.3420
 7192SOL    HW133038   1.444   0.456   9.419  1.9962  3.6338  1.0519
 7192SOL    HW233039   1.512   0.332   9.375 -1.8783  0.0821 -1.9749
 7193SOL     OW33040   1.834   0.053   6.684  0.3459  0.5362 -0.3453
 7193SOL    HW133041   1.850   0.104   6.604 -1.4220 -1.6307 -2.0701
 7193SOL    HW233042   1.809   0.122   6.745 -0.6437 -0.4246  0.3418
 7194SOL     OW33043   0.094   3.514   7.232  0.3910  0.3891  0.1461
 7194SOL    HW133044   0.070   3.521   7.324  2.9061  0.5566  0.7809
 7194SOL    HW233045   0.181   3.476   7.240  1.1058  1.5802 -1.9180
 7195SOL     OW33046   2.638   3.056   7.957  0.0021 -0.0715  0.2096
 7195SOL    HW133047   2.569   3.123   7.955 -0.7743 -0.8842 -0.2272
 7195SOL    HW233048   2.577   2.985   7.937 -0.0545  0.6329 -2.1787
 7196SOL     OW33049   3.185   2.580   5.381 -0.1125  0.1456  0.1715
 7196SOL    HW133050   3.157   2.528   5.306  0.1676 -0.5393  0.5441
 7196SOL    HW233051   3.138   2.662   5.367  0.5189  0.3922 -0.5326
 7197SOL     OW33052   4.541   2.640   4.669 -0.6682 -0.1095 -0.1150
 7197SOL    HW133053   4.455   2.654   4.710 -2.0152 -1.2587 -2.5533
 7197SOL    HW233054   4.513   2.586   4.595  1.6286  1.1149 -1.8660
 7198SOL     OW33055   2.497   4.285  10.120 -0.6185 -0.2283  0.4081
 7198SOL    HW133056   2.411   4.245  10.134 -0.1242 -1.8542 -1.1292
 7198SOL    HW233057   2.546   4.207  10.090 -0.1780  0.4328 -0.5888
 7199SOL     OW33058   1.441   4.426   7.013 -0.1704 -0.3136  0.6376
 7199SOL    HW133059   1.399   4.353   6.968  0.8732 -0.1340 -0.6185
 7199SOL    HW233060   1.429   4.494   6.948 -0.6425 -0.7173  0.3050
 7200SOL     OW33061   0.599   3.227   5.070 -0.0267 -0.3604  0.2554
 7200SOL    HW133062   0.519   3.251   5.023  0.6386 -0.3379 -0.8722
 7200SOL    HW233063   0.623   3.150   5.017 -0.7520 -1.2756  1.2568
 7201SOL     OW33064   2.971   4.461   2.702  0.6161  0.3162 -0.5815
 7201SOL    HW133065   2.930   4.376   2.720 -1.9932  1.8166  0.4641
 7201SOL    HW233066   2.914   4.514   2.757  0.2732  1.4224 -2.0010
 7202SOL     OW33067   3.541   4.543   2.767  0.8216  0.0140 -0.1882
 7202SOL    HW133068   3.447   4.539   2.750  0.1671  1.4430  2.9822
 7202SOL    HW233069   3.541   4.574   2.858 -0.2922 -0.4815 -0.0215
 7203SOL     OW33070   4.339   1.018  14.946 -0.2410  0.1803 -0.7102
 7203SOL    HW133071   4.328   1.090  14.884 -0.9080  2.2447  1.8319
 7203SOL    HW233072   4.429   1.002  14.917  0.1487  4.6544 -2.0037
 7204SOL     OW33073   1.980   1.725   2.469  0.1843 -0.1533 -0.5728
 7204SOL    HW133074   2.058   1.761   2.513  1.3248 -2.2626 -0.8728
 7204SOL    HW233075   1.997   1.764   2.384 -2.0681  0.1988 -0.8591
 7205SOL     OW33076   3.664   1.965  17.354 -0.0167  0.1983  0.1954
 7205SOL    HW133077   3.610   1.899  17.398 -0.6062  0.7326  0.2719
 7205SOL    HW233078   3.629   1.955  17.266 -0.3044  0.7865  0.2468
 7206SOL     OW33079   4.498   0.553   2.875 -0.1787  0.6691  0.0691
 7206SOL    HW133080   4.404   0.571   2.878 -0.3965 -0.2126 -1.4684
 7206SOL    HW233081   4.520   0.533   2.784  1.4360  2.4724  0.0632
 7207SOL     OW33082   1.542   3.616   2.023 -0.0755  0.8661 -0.0446
 7207SOL    HW133083   1.549   3.521   2.013  0.9596  0.9428  0.0169
 7207SOL    HW233084   1.555   3.616   2.118  1.3325 -0.0164 -0.2382
 7208SOL     OW33085   3.902   1.156   7.857  0.1051  0.1786 -0.2674
 7208SOL    HW133086   3.809   1.131   7.855  0.0278  0.4692 -0.3300
 7208SOL    HW233087   3.896   1.246   7.888  0.4452 -0.2745  1.1018
 7209SOL     OW33088   0.209   0.303   6.663  0.0903  0.3961  0.4065
 7209SOL    HW133089   0.204   0.313   6.758  1.5472  1.7738  0.3389
 7209SOL    HW233090   0.276   0.369   6.644 -0.1281  0.3645 -0.4825
 7210SOL     OW33091   1.551   3.951   5.265 -0.3735 -0.0270  0.1506
 7210SOL    HW133092   1.468   3.942   5.311 -0.8178  1.0828 -0.4258
 7210SOL    HW233093   1.608   3.965   5.341 -1.0172  1.1376  0.4116
 7211SOL     OW33094   3.852   1.496  16.404  0.2412  0.1059 -0.1254
 7211SOL    HW133095   3.821   1.585  16.420  0.3164 -0.1211  1.3065
 7211SOL    HW233096   3.917   1.511  16.335 -1.4698  0.6568 -1.6276
 7212SOL     OW33097   1.390   1.060   7.811  0.2558  0.2232  0.2699
 7212SOL    HW133098   1.304   1.094   7.787  1.1916  1.8191 -0.8090
 7212SOL    HW233099   1.416   1.111   7.888 -0.0912 -0.3715  0.7826
 7213SOL     OW33100   4.181   4.227   7.139 -0.2583  0.1668 -0.6878
 7213SOL    HW133101   4.227   4.237   7.223 -1.2145 -0.9441 -0.0379
 7213SOL    HW233102   4.183   4.134   7.118 -0.8388 -0.3183  1.4394
 7214SOL     OW33103   0.762   3.854   8.675 -0.4554  0.3026  0.3263
 7214SOL    HW133104   0.774   3.761   8.660 -1.7323 -0.1878  2.2224
 7214SOL    HW233105   0.667   3.852   8.689 -0.9046  0.8742 -2.6944
 7215SOL     OW33106   2.625   0.709   0.435  0.3683 -0.3608  0.1302
 7215SOL    HW133107   2.620   0.738   0.526  0.2455 -0.2459  0.0873
 7215SOL    HW233108   2.702   0.652   0.429  0.4085 -0.0377 -2.3644
 7216SOL     OW33109   1.364   3.306   3.582 -0.1616  0.2970 -0.0223
 7216SOL    HW133110   1.451   3.326   3.616 -0.3153 -0.4172  0.7992
 7216SOL    HW233111   1.329   3.392   3.559 -2.3908 -0.5314  0.2586
 7217SOL     OW33112   1.021   0.522   3.529 -0.0733 -0.1082  0.6663
 7217SOL    HW133113   1.068   0.557   3.605 -1.8694 -0.4396  1.9198
 7217SOL    HW233114   1.041   0.430   3.545 -0.8428 -0.4067 -0.1094
 7218SOL     OW33115   1.646   0.961  16.251  0.6445  0.8430  0.3757
 7218SOL    HW133116   1.713   1.024  16.278  1.9839 -0.0987 -0.8296
 7218SOL    HW233117   1.594   0.942  16.329  0.9098 -3.0595 -0.4341
 7219SOL     OW33118   2.990   3.272  12.342 -0.3527  0.0324  0.0879
 7219SOL    HW133119   3.071   3.279  12.292  0.1501  0.7259  0.9949
 7219SOL    HW233120   3.026   3.248  12.427 -1.1831 -0.0422  0.4212
 7220SOL     OW33121   2.221   3.296   2.755 -0.5190  0.4386 -0.2772
 7220SOL    HW133122   2.295   3.354   2.767 -0.6986  0.4582  0.6941
 7220SOL    HW233123   2.169   3.342   2.689 -2.5494 -1.2470  0.1282
 7221SOL     OW33124   2.404   1.063   6.842 -0.0454 -0.0958  1.0875
 7221SOL    HW133125   2.340   1.086   6.910  2.4953  1.1688  3.0425
 7221SOL    HW233126   2.488   1.101   6.867  0.2731  0.3153 -0.6300
 7222SOL     OW33127   2.165   0.861  13.095 -0.7399  0.1736  0.0672
 7222SOL    HW133128   2.239   0.867  13.034  0.5754 -0.7911  1.5923
 7222SOL    HW233129   2.143   0.768  13.098 -0.0603 -0.0057 -0.4424
 7223SOL     OW33130   2.785   3.990   8.128  0.0303  0.3902 -0.2848
 7223SOL    HW133131   2.765   4.059   8.065 -0.5235  0.0635 -0.4657
 7223SOL    HW233132   2.764   4.038   8.208 -1.4793  0.5160 -0.7679
 7224SOL     OW33133   3.683   0.855   2.884  0.6394  0.5372 -0.2323
 7224SOL    HW133134   3.715   0.834   2.796  2.7095 -1.5323  1.0146
 7224SOL    HW233135   3.768   0.873   2.926  0.5361 -1.1433  0.6764
 7225SOL     OW33136   2.062   4.401   6.086 -0.0905 -0.0177  0.0194
 7225SOL    HW133137   2.038   4.319   6.044  3.7183 -2.7273  3.0775
 7225SOL    HW233138   2.101   4.449   6.012 -1.7945  0.6983 -0.4049
 7226SOL     OW33139   0.618   1.322  11.222  0.1584 -0.2917  0.3403
 7226SOL    HW133140   0.582   1.253  11.167 -2.5972  2.7712 -1.6642
 7226SOL    HW233141   0.699   1.330  11.171 -0.5988 -1.9886 -1.1511
 7227SOL     OW33142   2.897   2.731  10.670 -0.1216 -0.2583 -0.1440
 7227SOL    HW133143   2.831   2.730  10.741  0.5461  0.3464  0.4924
 7227SOL    HW233144   2.943   2.815  10.675 -0.9291  0.0908  1.7837
 7228SOL     OW33145   3.262   3.080  14.027 -0.1266  0.1074 -0.6159
 7228SOL    HW133146   3.343   3.039  13.998 -0.9170 -2.8256  1.1943
 7228SOL    HW233147   3.247   3.026  14.105  0.5624  0.4188 -0.2722
 7229SOL     OW33148   0.108   1.353   5.054 -0.6056  0.0670 -0.1199
 7229SOL    HW133149   0.094   1.306   4.971  1.2089  0.1416 -0.4657
 7229SOL    HW233150   0.185   1.406   5.033 -0.6289  0.0717 -0.1957
 7230SOL     OW33151   1.863   3.549   9.099 -0.2000  0.7504 -0.6028
 7230SOL    HW133152   1.923   3.529   9.027  0.8351  3.3312 -0.4274
 7230SOL    HW233153   1.861   3.457   9.126  0.1105  0.8567 -0.2275
 7231SOL     OW33154   2.308   2.548   0.381  0.2025  0.0861  0.3361
 7231SOL    HW133155   2.273   2.516   0.298  1.5356  1.4430 -0.7495
 7231SOL    HW233156   2.318   2.462   0.422  1.1310 -0.6757 -1.4771
 7232SOL     OW33157   2.190   0.126   4.988 -0.2762  0.0697 -0.4170
 7232SOL    HW133158   2.203   0.052   4.928 -0.5710  0.7241 -1.2961
 7232SOL    HW233159   2.277   0.165   4.982  0.4784 -1.8234 -2.1141
 7233SOL     OW33160   2.509   0.403   8.124 -0.0692 -0.0208  0.4201
 7233SOL    HW133161   2.458   0.478   8.155  1.5015  0.3500  2.1190
 7233SOL    HW233162   2.470   0.386   8.038  1.0968 -1.8291  0.2434
 7234SOL     OW33163   1.720   4.632   1.955 -0.0187  0.1183  0.4743
 7234SOL    HW133164   1.775   4.557   1.933 -2.3950 -0.9861 -1.5263
 7234SOL    HW233165   1.692   4.616   2.045 -0.6850  1.5615  0.5286
 7235SOL     OW33166   4.110   2.136   4.715  0.1689 -0.1245  0.0264
 7235SOL    HW133167   4.116   2.116   4.621  0.3585 -0.1560  0.0464
 7235SOL    HW233168   4.083   2.051   4.749  0.2045 -0.0955  0.1259
 7236SOL     OW33169   2.046   2.037   8.065  0.3851  0.2740  0.4281
 7236SOL    HW133170   2.020   2.121   8.103 -0.3113  0.5450 -0.6792
 7236SOL    HW233171   2.139   2.035   8.090  0.9576  1.5641 -1.6478
 7237SOL     OW33172   4.587   4.322   8.563  0.1196  0.0699  0.2464
 7237SOL    HW133173   4.607   4.267   8.487 -0.2624 -0.1777  0.3247
 7237SOL    HW233174   4.559   4.406   8.526  1.4506  0.6881  0.6557
 7238SOL     OW33175   0.345   1.323   1.840 -0.4640 -0.9384  0.2434
 7238SOL    HW133176   0.304   1.355   1.920  1.6623 -1.1587  1.4301
 7238SOL    HW233177   0.274   1.351   1.782 -0.7784 -1.4146  0.3975
 7239SOL     OW33178   4.190   4.679   3.735  0.3730  0.3292  0.3668
 7239SOL    HW133179   4.115   0.012   3.755 -0.2283  0.2379 -1.6068
 7239SOL    HW233180   4.142   4.597   3.721  1.4592  0.0437 -1.7531
 7240SOL     OW33181   3.772   1.498   2.290  0.2440 -0.5810 -0.3694
 7240SOL    HW133182   3.830   1.434   2.331  1.5799  0.6858 -0.2305
 7240SOL    HW233183   3.740   1.453   2.212 -0.5493 -3.4567  1.6412
 7241SOL     OW33184   1.920   4.546  17.256  0.2029  0.1690  0.0329
 7241SOL    HW133185   1.860   4.602  17.305  1.5788  1.1232  0.6332
 7241SOL    HW233186   1.991   4.542  17.320  1.4703  4.1122 -1.1428
 7242SOL     OW33187   2.226   4.678   5.199 -0.6928 -0.3926 -0.0629
 7242SOL    HW133188   2.137   4.673   5.236 -0.9616  1.2575 -0.4930
 7242SOL    HW233189   2.216   0.025   5.136  0.6431 -1.1826 -1.1641
 7243SOL     OW33190   0.506   3.983   8.162  0.1437  0.0730  0.0559
 7243SOL    HW133191   0.493   3.927   8.085  0.9388 -0.6292  0.4287
 7243SOL    HW233192   0.600   3.996   8.171  0.6955 -2.5868 -1.8855
 7244SOL     OW33193   3.696   2.755   2.851  0.3759  0.3827  0.3538
 7244SOL    HW133194   3.670   2.663   2.861  1.8336 -0.0891 -0.2193
 7244SOL    HW233195   3.753   2.746   2.775  0.1015 -0.0467  0.1924
 7245SOL     OW33196   1.044   0.323   7.432 -0.3503  0.1860 -0.0634
 7245SOL    HW133197   1.041   0.231   7.405 -1.2674 -0.3754  2.0148
 7245SOL    HW233198   1.024   0.373   7.353  0.9658  0.6922 -0.0805
 7246SOL     OW33199   4.568   3.440  14.448  0.2967 -0.2524 -0.1315
 7246SOL    HW133200   4.550   3.451  14.542  1.5156  0.0576  0.0689
 7246SOL    HW233201   4.498   3.492  14.408 -0.8856 -1.9618 -0.2993
 7247SOL     OW33202   2.530   4.262   1.386 -0.0240  0.4040  0.0089
 7247SOL    HW133203   2.585   4.309   1.450  0.6356  1.5202 -1.3657
 7247SOL    HW233204   2.548   4.312   1.306  1.3634  0.6929  0.4854
 7248SOL     OW33205   2.995   1.690   5.302  0.7282  0.0811 -0.5492
 7248SOL    HW133206   3.025   1.646   5.222  1.1845  2.2473 -1.5568
 7248SOL    HW233207   2.935   1.752   5.260  0.7021  0.2777 -0.2229
 7249SOL     OW33208   0.215   2.862   5.322  0.6953 -0.4029 -0.1105
 7249SOL    HW133209   0.182   2.936   5.272 -0.2679 -2.5075 -2.5554
 7249SOL    HW233210   0.306   2.855   5.291  1.8844 -0.7386  3.4809
 7250SOL     OW33211   0.889   0.716  17.081  0.2173  0.4209  0.1847
 7250SOL    HW133212   0.874   0.769  17.159  1.2364  1.8119 -0.5672
 7250SOL    HW233213   0.840   0.764  17.014  2.8281 -0.3327 -2.2223
 7251SOL     OW33214   1.174   0.421   7.047 -0.1952  0.2177 -0.6046
 7251SOL    HW133215   1.150   0.459   6.963 -3.4421  0.2967  0.3713
 7251SOL    HW233216   1.236   0.479   7.091  0.7342  0.0251 -1.6605
 7252SOL     OW33217   0.755   2.768   5.619  0.4546  0.3489 -0.1119
 7252SOL    HW133218   0.757   2.779   5.714 -1.3278 -3.0956  0.3154
 7252SOL    HW233219   0.756   2.863   5.604  0.0403  0.6218  1.5115
 7253SOL     OW33220   0.519   3.990   2.187  0.3456 -0.0063 -0.7831
 7253SOL    HW133221   0.435   3.977   2.232  2.0931 -0.9225  2.2026
 7253SOL    HW233222   0.519   3.903   2.147  0.1463 -0.3083 -0.1306
 7254SOL     OW33223   3.741   4.575   4.192  0.6124  0.0713  0.2225
 7254SOL    HW133224   3.714   4.666   4.182  1.3476  0.3169  0.4831
 7254SOL    HW233225   3.835   4.589   4.180  0.4821  0.3972 -0.4416
 7255SOL     OW33226   4.251   2.740  15.952  0.4509 -0.1383  0.1638
 7255SOL    HW133227   4.292   2.749  15.866 -2.7126  0.5203 -1.2715
 7255SOL    HW233228   4.181   2.804  15.944 -0.1827 -1.0262 -1.4340
 7256SOL     OW33229   2.670   1.576   3.120  0.1574  0.5626 -0.1447
 7256SOL    HW133230   2.700   1.500   3.070  0.0859  1.6420 -1.8313
 7256SOL    HW233231   2.614   1.538   3.187  0.8549  0.6287  0.4733
 7257SOL     OW33232   2.269   3.672   5.046  0.1105  0.4498  0.0580
 7257SOL    HW133233   2.241   3.637   5.130  1.1928 -0.0308  0.2106
 7257SOL    HW233234   2.348   3.622   5.027 -0.1266 -0.2487  0.9336
 7258SOL     OW33235   2.291   2.948   6.111  0.4529 -0.2625  0.2749
 7258SOL    HW133236   2.282   3.037   6.143  0.5945  0.2257 -1.0372
 7258SOL    HW233237   2.333   2.898   6.181 -0.2425 -0.6475  0.4207
 7259SOL     OW33238   0.089   1.513  14.545 -0.0206 -0.3701 -0.8332
 7259SOL    HW133239   0.042   1.429  14.546  0.1741 -0.4849 -1.3468
 7259SOL    HW233240   0.127   1.498  14.458  0.6438 -0.8862 -0.4618
 7260SOL     OW33241   2.071   1.559   1.190  0.1596 -0.2832  0.7976
 7260SOL    HW133242   2.125   1.552   1.111  0.1077 -0.2375  0.7581
 7260SOL    HW233243   2.009   1.487   1.178  1.2585 -1.1959  0.6790
 7261SOL     OW33244   1.197   4.130   3.083  0.2147  0.0096  0.2103
 7261SOL    HW133245   1.224   4.075   3.010  0.8280  2.4606 -1.3867
 7261SOL    HW233246   1.278   4.140   3.132 -0.6412 -0.0339  1.6482
 7262SOL     OW33247   0.590   2.292   3.836  0.5642 -0.5207  0.2750
 7262SOL    HW133248   0.530   2.303   3.910 -2.8671  0.2875 -2.6324
 7262SOL    HW233249   0.624   2.204   3.850 -0.3335 -1.1519 -1.5929
 7263SOL     OW33250   3.979   1.248   2.871  0.1666 -0.2490  0.2941
 7263SOL    HW133251   4.008   1.318   2.930  0.0192 -0.5235  0.6885
 7263SOL    HW233252   3.943   1.296   2.797  0.0279  0.4880  0.8393
 7264SOL     OW33253   0.855   0.029   8.145 -0.6662  0.2125 -0.0191
 7264SOL    HW133254   0.885   4.662   8.158  0.6543  1.1440  3.3285
 7264SOL    HW233255   0.810   0.017   8.062  1.2936  0.5448 -1.1143
 7265SOL     OW33256   4.308   3.560   4.999 -0.2434  0.0355 -0.6245
 7265SOL    HW133257   4.315   3.525   5.088  2.8315 -2.3377 -1.8070
 7265SOL    HW233258   4.398   3.548   4.970 -0.5508 -0.5067 -1.3679
 7266SOL     OW33259   2.708   1.096   2.886 -0.3504  0.2116 -0.3818
 7266SOL    HW133260   2.738   1.006   2.882 -2.0773 -0.3696 -0.3275
 7266SOL    HW233261   2.643   1.090   2.816 -2.3589  2.1538  1.3026
 7267SOL     OW33262   0.692   2.825  13.074 -0.3170 -0.1547 -0.4143
 7267SOL    HW133263   0.761   2.873  13.120 -0.5914  0.7081 -0.8904
 7267SOL    HW233264   0.746   2.771  13.017  0.3702  0.9271 -0.7977
 7268SOL     OW33265   2.627   0.559   2.676  0.6230 -0.6743 -0.1287
 7268SOL    HW133266   2.589   0.631   2.624 -0.4721 -1.8599 -0.9709
 7268SOL    HW233267   2.619   0.490   2.611  0.4349  1.9443 -2.9141
 7269SOL     OW33268   1.381   3.645   4.070  0.0643  0.4247 -0.5080
 7269SOL    HW133269   1.309   3.582   4.078 -0.9449  1.5041 -1.1851
 7269SOL    HW233270   1.417   3.632   4.158 -2.2707  0.7577  0.5064
 7270SOL     OW33271   2.605   3.671   8.175 -0.9057  0.1797  0.6761
 7270SOL    HW133272   2.622   3.615   8.100  1.0013  1.0499  0.4625
 7270SOL    HW233273   2.698   3.683   8.193 -1.2476 -0.3266  2.7851
 7271SOL     OW33274   1.514   2.425   6.546  0.3560 -0.1948 -0.6385
 7271SOL    HW133275   1.429   2.384   6.561  0.0832  0.5643 -0.0873
 7271SOL    HW233276   1.564   2.348   6.519  1.2675 -0.3466  1.5083
 7272SOL     OW33277   2.090   1.835   2.820 -0.3067 -0.1139  0.3461
 7272SOL    HW133278   2.068   1.927   2.807 -0.3459 -0.3838 -1.5053
 7272SOL    HW233279   2.148   1.824   2.745  0.2505 -0.2878  0.8037
 7273SOL     OW33280   0.880   3.871  11.256  0.3463 -0.3930  0.2723
 7273SOL    HW133281   0.931   3.812  11.311  1.5968  0.2360 -0.1988
 7273SOL    HW233282   0.804   3.888  11.311 -0.8747 -2.7379 -0.7120
 7274SOL     OW33283   4.594   1.273   6.426  0.2234 -0.6450  0.2923
 7274SOL    HW133284   4.503   1.286   6.452  0.2543 -0.5627  0.3553
 7274SOL    HW233285   4.641   1.302   6.503  1.1120  1.7758 -1.1649
 7275SOL     OW33286   2.219   3.426   3.406 -0.1851  0.0063 -0.2937
 7275SOL    HW133287   2.302   3.473   3.409  0.0274 -0.4383  0.9761
 7275SOL    HW233288   2.197   3.444   3.315  1.4148  1.3052 -0.4082
 7276SOL     OW33289   1.045   0.633   2.464  0.1206 -0.3519  0.2241
 7276SOL    HW133290   1.086   0.705   2.417  0.7529 -0.1887  1.0359
 7276SOL    HW233291   0.982   0.687   2.510 -0.2525 -0.9936  0.4740
 7277SOL     OW33292   1.301   3.578   6.449  0.5157 -0.3564 -0.0703
 7277SOL    HW133293   1.364   3.623   6.392 -2.7982  1.7141 -2.1421
 7277SOL    HW233294   1.260   3.518   6.386  2.0510 -1.1142 -0.3388
 7278SOL     OW33295   2.062   4.443   2.249  0.3303 -0.9255  0.7686
 7278SOL    HW133296   2.092   4.473   2.163 -0.2092 -1.6081  0.3500
 7278SOL    HW233297   2.018   4.362   2.224  2.0946 -1.4806 -0.6045
 7279SOL     OW33298   3.194   4.097   3.702  0.6334  0.0674 -0.0259
 7279SOL    HW133299   3.154   4.043   3.635  1.6417  2.0628 -2.2383
 7279SOL    HW233300   3.269   4.140   3.660  1.4571 -0.1937  1.1695
 7280SOL     OW33301   3.889   3.878   8.661 -0.7944  0.2538  0.1376
 7280SOL    HW133302   3.844   3.817   8.719  0.5564 -0.4247  0.4728
 7280SOL    HW233303   3.864   3.844   8.575 -0.9485  0.1109  0.2382
 7281SOL     OW33304   1.257   1.987   2.572 -0.7061  0.1894  0.2439
 7281SOL    HW133305   1.340   1.944   2.555 -0.7476 -0.1721  0.9746
 7281SOL    HW233306   1.283   2.070   2.530  1.7625 -0.1674  1.0892
 7282SOL     OW33307   2.261   1.538   5.349  0.2052 -0.0606 -0.0473
 7282SOL    HW133308   2.298   1.607   5.404  0.5216  0.1597 -0.5367
 7282SOL    HW233309   2.331   1.474   5.355 -1.3770 -1.7984 -0.1008
 7283SOL     OW33310   0.925   1.347  13.397 -0.5056  0.3257  0.1685
 7283SOL    HW133311   0.968   1.303  13.471  0.3399 -0.8203 -1.0180
 7283SOL    HW233312   0.839   1.306  13.393  1.3059 -3.5251  0.5366
 7284SOL     OW33313   0.422   0.795   4.108 -0.4783 -0.1231  0.2569
 7284SOL    HW133314   0.488   0.858   4.135 -1.5599  0.3038  1.9119
 7284SOL    HW233315   0.481   0.728   4.073  1.6714  1.8318  0.1253
 7285SOL     OW33316   3.490   1.769   4.706  0.0940  0.1361  0.0396
 7285SOL    HW133317   3.516   1.680   4.730 -1.5205  0.0251  1.3612
 7285SOL    HW233318   3.439   1.749   4.627 -0.5478  0.7043  0.3152
 7286SOL     OW33319   1.551   2.254   2.873  0.5805 -0.0401 -0.1739
 7286SOL    HW133320   1.594   2.194   2.934 -0.9021  1.2203  2.1120
 7286SOL    HW233321   1.475   2.199   2.852  0.8657 -0.1405 -0.9252
 7287SOL     OW33322   0.742   4.595  13.480 -0.2583 -0.4613 -0.1279
 7287SOL    HW133323   0.837   4.594  13.493 -0.4482 -0.1940  1.3067
 7287SOL    HW233324   0.725   4.515  13.430  0.4823  0.5244 -1.9503
 7288SOL     OW33325   1.049   1.572   1.044  0.5022  0.2449 -0.2239
 7288SOL    HW133326   1.030   1.646   0.987  1.1079  0.5082 -0.0801
 7288SOL    HW233327   1.130   1.611   1.078  0.3373  2.2906 -2.2387
 7289SOL     OW33328   0.465   1.583   6.972  0.1776  0.0202 -0.3782
 7289SOL    HW133329   0.391   1.643   6.967  0.9332  0.9797 -0.0356
 7289SOL    HW233330   0.455   1.541   7.058 -3.5042  0.3655 -0.6711
 7290SOL     OW33331   3.332   0.734   6.050 -0.8936  0.0213  0.6535
 7290SOL    HW133332   3.247   0.691   6.054 -1.2984  0.7698  0.1441
 7290SOL    HW233333   3.387   0.656   6.047  0.1786  0.8029 -0.1505
 7291SOL     OW33334   4.240   2.956  13.937  0.0882  0.0569 -0.9728
 7291SOL    HW133335   4.188   2.915  14.007 -1.4382 -0.6492 -2.5336
 7291SOL    HW233336   4.312   2.894  13.929  1.1147  0.6812  3.2854
 7292SOL     OW33337   3.903   3.383   3.929  0.5669 -0.4726  0.8720
 7292SOL    HW133338   3.872   3.294   3.944  1.5236 -0.7685  1.1004
 7292SOL    HW233339   3.883   3.422   4.014 -0.9550  0.7159 -0.0286
 7293SOL     OW33340   2.487   0.871   5.697 -0.6363 -0.1707 -0.0875
 7293SOL    HW133341   2.427   0.897   5.767  2.5571 -0.6085  2.8474
 7293SOL    HW233342   2.520   0.960   5.685  0.0141 -0.4988 -0.7661
 7294SOL     OW33343   3.314   1.791   6.438 -0.1737  0.9215 -0.2543
 7294SOL    HW133344   3.367   1.809   6.361 -1.7150 -0.2923 -1.5908
 7294SOL    HW233345   3.259   1.866   6.461 -1.1170  0.5621 -1.3397
 7295SOL     OW33346   3.023   3.175   8.413 -0.6167  0.3255  0.4590
 7295SOL    HW133347   2.962   3.102   8.398  0.8509 -1.2960  2.3523
 7295SOL    HW233348   3.025   3.157   8.507  0.3797  4.3710  1.2234
 7296SOL     OW33349   4.114   3.928   2.398  0.0927 -0.4767  0.3280
 7296SOL    HW133350   4.115   3.888   2.311  0.3875 -0.0565  0.1359
 7296SOL    HW233351   4.045   3.993   2.393  1.3677  0.8188 -0.3626
 7297SOL     OW33352   3.839   4.174  11.922 -0.3429  0.2184 -0.5953
 7297SOL    HW133353   3.919   4.188  11.871 -1.0272 -1.1153 -2.0477
 7297SOL    HW233354   3.847   4.081  11.943 -1.5646  0.3842  0.6167
 7298SOL     OW33355   2.371   3.684   7.786 -0.3254  0.0202 -0.0369
 7298SOL    HW133356   2.320   3.720   7.713  0.4071 -0.4530 -0.7829
 7298SOL    HW233357   2.399   3.602   7.746  1.3197 -0.0317  1.2288
 7299SOL     OW33358   0.995   3.363  11.090  0.2563  0.4973 -0.1739
 7299SOL    HW133359   1.000   3.285  11.145  3.6855  1.0860  0.2925
 7299SOL    HW233360   0.928   3.341  11.025 -0.9264  0.6052  0.9952
 7300SOL     OW33361   3.319   2.447   6.855  0.0165 -0.2840  0.2955
 7300SOL    HW133362   3.366   2.368   6.883  1.2988  0.4113  0.1013
 7300SOL    HW233363   3.243   2.440   6.913 -0.0867  0.3024  0.2286
 7301SOL     OW33364   2.604   0.414   5.033 -0.2024 -0.2292 -0.0434
 7301SOL    HW133365   2.597   0.377   5.122 -0.5815 -1.8902 -0.7648
 7301SOL    HW233366   2.562   0.499   5.045  0.3493 -0.1518  1.3762
 7302SOL     OW33367   1.692   4.330   4.098 -0.0116  0.8350  0.1123
 7302SOL    HW133368   1.696   4.424   4.078  1.9911  1.3860  2.9966
 7302SOL    HW233369   1.757   4.321   4.168  0.8414  1.2059 -0.6284
 7303SOL     OW33370   1.077   4.045  17.270  0.2733  0.5329  0.0472
 7303SOL    HW133371   1.086   4.005  17.357 -0.0436 -1.7516 -0.9738
 7303SOL    HW233372   1.019   4.120  17.288  0.3453  0.5288  0.3013
 7304SOL     OW33373   0.166   1.425   8.070 -0.1941 -0.0832 -0.0720
 7304SOL    HW133374   0.113   1.366   8.124  0.5541  0.6772  1.4980
 7304SOL    HW233375   0.127   1.420   7.982 -0.7292  1.3042  0.0789
 7305SOL     OW33376   3.275   0.127   5.785  0.1722 -0.5546 -0.4488
 7305SOL    HW133377   3.294   0.060   5.851  0.4304 -0.3526 -0.3203
 7305SOL    HW233378   3.195   0.170   5.814  0.6231  1.4677 -2.1987
 7306SOL     OW33379   1.726   0.427  16.463 -0.3655  0.4117  0.0702
 7306SOL    HW133380   1.766   0.471  16.538  1.1637  0.2390 -0.6466
 7306SOL    HW233381   1.654   0.388  16.512 -1.1646  1.2410 -0.4352
 7307SOL     OW33382   1.167   4.470   8.585 -0.4047  0.5308 -0.3534
 7307SOL    HW133383   1.261   4.458   8.586 -0.4078  0.4018 -3.0052
 7307SOL    HW233384   1.151   4.390   8.634 -0.6144 -0.1042 -1.4534
 7308SOL     OW33385   4.071   4.409  14.114  0.1581  0.4557  0.3671
 7308SOL    HW133386   4.078   4.314  14.102 -0.1505  0.1478  2.6618
 7308SOL    HW233387   4.046   4.431  14.025  0.7444 -0.3759  0.0024
 7309SOL     OW33388   3.983   3.213  11.784  0.6736  0.2356 -0.1368
 7309SOL    HW133389   4.025   3.214  11.870 -0.7671  0.6459  0.5609
 7309SOL    HW233390   4.056   3.211  11.721 -0.7816  1.3422 -1.8542
 7310SOL     OW33391   0.182   4.293   2.932  0.1990 -0.5056  0.0974
 7310SOL    HW133392   0.206   4.277   3.023  1.8541  0.0221 -0.2383
 7310SOL    HW233393   0.185   4.201   2.905 -1.4006 -0.4290 -0.3244
 7311SOL     OW33394   4.424   2.320   4.769 -0.9433  0.1796 -0.4045
 7311SOL    HW133395   4.408   2.344   4.678 -5.0958 -0.1972  0.2239
 7311SOL    HW233396   4.371   2.240   4.778 -0.9308  0.2167 -0.0145
 7312SOL     OW33397   0.881   2.104   4.374 -0.0351  0.0865  0.1356
 7312SOL    HW133398   0.869   2.037   4.440 -1.2174  0.4214  0.2695
 7312SOL    HW233399   0.871   2.045   4.299 -1.3266  1.0938 -0.4865
 7313SOL     OW33400   2.644   2.738   5.960 -0.0288  0.0716  0.1236
 7313SOL    HW133401   2.597   2.813   5.923  1.3502  1.1383  0.5493
 7313SOL    HW233402   2.567   2.682   5.968  3.2962 -4.5550 -0.7545
 7314SOL     OW33403   3.564   2.070   6.046  0.3110 -0.2393  0.1112
 7314SOL    HW133404   3.601   2.155   6.022 -0.4245  0.3459  1.0797
 7314SOL    HW233405   3.529   2.045   5.961  1.7992  3.1178 -1.4706
 7315SOL     OW33406   4.013   2.332   8.069 -0.3735  0.5846 -0.1160
 7315SOL    HW133407   4.079   2.279   8.116 -0.6368 -0.3383 -0.7893
 7315SOL    HW233408   4.031   2.423   8.091  1.2468  0.3673 -0.5035
 7316SOL     OW33409   3.893   2.654   5.000  0.0904 -0.8203  0.5904
 7316SOL    HW133410   3.903   2.744   5.031 -1.9230  0.4843 -2.5415
 7316SOL    HW233411   3.950   2.646   4.923 -0.0590 -1.8683  0.5803
 7317SOL     OW33412   3.995   0.786   5.086 -0.1735  0.2955 -0.1183
 7317SOL    HW133413   4.074   0.815   5.131  0.5963 -1.0080 -0.6656
 7317SOL    HW233414   3.944   0.867   5.084 -1.1410 -0.3137 -0.4308
 7318SOL     OW33415   2.938   4.538   3.758 -0.6013 -0.6323  0.1440
 7318SOL    HW133416   3.030   4.561   3.747 -0.2774 -0.5825  2.9520
 7318SOL    HW233417   2.911   4.477   3.689  0.3089  0.5718 -1.2857
 7319SOL     OW33418   1.112   3.495   0.319  0.6788 -0.2655 -0.1655
 7319SOL    HW133419   1.115   3.399   0.313 -0.6117 -0.4041  1.4959
 7319SOL    HW233420   1.020   3.504   0.294  1.4446 -0.2326 -3.0361
 7320SOL     OW33421   1.073   0.859   5.757  0.1622  0.2116 -0.2210
 7320SOL    HW133422   1.106   0.822   5.675 -1.2636 -1.8402  0.1509
 7320SOL    HW233423   0.988   0.816   5.758  0.4281 -0.2364  4.2834
 7321SOL     OW33424   3.951   1.137   8.385  0.9988 -0.0024  0.1111
 7321SOL    HW133425   4.028   1.100   8.342  0.4127 -1.3303  0.1882
 7321SOL    HW233426   3.968   1.119   8.478  0.3551 -2.4032 -0.2262
 7322SOL     OW33427   2.001   2.040   3.305 -0.4205 -0.5930 -0.2383
 7322SOL    HW133428   1.920   2.040   3.356 -1.1335 -0.1215 -1.3853
 7322SOL    HW233429   2.005   1.947   3.282  0.7002 -0.6280  0.1009
 7323SOL     OW33430   0.919   3.834   4.268  0.9155  0.0314  0.0174
 7323SOL    HW133431   0.865   3.904   4.232  2.1446  1.5919  1.2259
 7323SOL    HW233432   1.009   3.858   4.246  1.7835 -0.9420  2.5246
 7324SOL     OW33433   1.701   1.249   2.102  0.0265  0.2189 -0.0376
 7324SOL    HW133434   1.740   1.309   2.039  0.1358 -1.2272 -1.3497
 7324SOL    HW233435   1.695   1.164   2.058  1.0298 -1.3124  2.7219
 7325SOL     OW33436   2.277   3.504   7.350  0.3947  0.0214  0.2678
 7325SOL    HW133437   2.364   3.536   7.328  0.4366  0.6660  1.4259
 7325SOL    HW233438   2.221   3.523   7.274  1.2359  2.5348  0.3000
 7326SOL     OW33439   2.901   0.970  14.909 -0.0071 -0.1328 -0.1265
 7326SOL    HW133440   2.955   0.906  14.956  1.1710 -0.7322 -2.2787
 7326SOL    HW233441   2.813   0.932  14.916 -0.1744  0.4597  1.0242
 7327SOL     OW33442   3.452   2.593   9.508  0.0057  0.0772 -0.7525
 7327SOL    HW133443   3.516   2.617   9.440 -1.8596  2.4249 -1.6810
 7327SOL    HW233444   3.389   2.664   9.495  1.6735  1.3762 -1.8235
 7328SOL     OW33445   1.258   2.456   9.908  0.4533 -0.2480 -0.0401
 7328SOL    HW133446   1.288   2.526   9.850 -2.6344  2.7659  2.0186
 7328SOL    HW233447   1.301   2.493   9.986  0.9010  1.9856 -1.3706
 7329SOL     OW33448   0.283   1.818  17.461  0.1082 -0.4292  0.0506
 7329SOL    HW133449   0.305   1.731  17.494  0.8264 -0.2396  0.0626
 7329SOL    HW233450   0.311   1.807  17.370  2.7566 -0.9407  0.9472
 7330SOL     OW33451   4.445   4.003   0.635  0.3496  0.3056 -0.0886
 7330SOL    HW133452   4.430   4.006   0.541  1.4235  0.4556 -0.2446
 7330SOL    HW233453   4.357   3.974   0.662  0.7348  0.2082  1.0879
 7331SOL     OW33454   1.425   3.783   1.047 -0.0937 -0.2003  0.0601
 7331SOL    HW133455   1.421   3.879   1.043 -1.2657 -0.2723 -0.4425
 7331SOL    HW233456   1.354   3.737   1.003 -0.0317 -0.3653  0.1326
 7332SOL     OW33457   3.668   3.127   6.774  0.1002 -0.8735 -0.8112
 7332SOL    HW133458   3.678   3.063   6.845  0.2321 -1.4356 -1.3371
 7332SOL    HW233459   3.696   3.215   6.799 -3.4029 -0.1017  0.3639
 7333SOL     OW33460   2.781   0.008  11.340  0.4420 -0.3050 -0.2055
 7333SOL    HW133461   2.786   0.063  11.262 -1.3209 -0.0369 -0.1380
 7333SOL    HW233462   2.698   4.686  11.327  0.6356 -1.1416  1.5152
 7334SOL     OW33463   3.633   3.118   1.662  0.2825  0.2272 -0.1203
 7334SOL    HW133464   3.630   3.084   1.573  0.8562 -2.0665  0.7276
 7334SOL    HW233465   3.569   3.068   1.712 -0.4180  1.8183  0.5739
 7335SOL     OW33466   3.995   4.691   7.454 -0.1640 -0.8784 -0.1597
 7335SOL    HW133467   3.964   0.006   7.371  1.2836  1.9486  0.5954
 7335SOL    HW233468   3.915   4.642   7.473 -0.1250 -0.5516  0.8418
 7336SOL     OW33469   2.042   4.422   8.734  0.0372 -0.6226 -0.2029
 7336SOL    HW133470   1.952   4.409   8.764 -0.8807 -3.3563 -4.0863
 7336SOL    HW233471   2.036   4.422   8.638  3.5091 -0.0105 -0.4260
 7337SOL     OW33472   1.557   0.076   7.360  0.6177  0.3335 -0.5006
 7337SOL    HW133473   1.516   4.713   7.366 -0.7528  0.9151 -1.5721
 7337SOL    HW233474   1.648   0.057   7.383  0.2775  0.4175  0.9161
 7338SOL     OW33475   2.678   1.873  10.643 -0.1089 -0.2609  0.1908
 7338SOL    HW133476   2.682   1.849  10.736  1.6487  1.2524  0.5108
 7338SOL    HW233477   2.588   1.848  10.626  0.0097 -1.2269  0.9947
 7339SOL     OW33478   0.494   0.688  13.924 -0.6078  0.4573 -0.0709
 7339SOL    HW133479   0.555   0.622  13.891  1.6232  1.3693  2.2016
 7339SOL    HW233480   0.511   0.704  14.017  1.4252 -0.8604 -0.2126
 7340SOL     OW33481   2.100   4.240   7.055 -0.5266  0.3756  0.1550
 7340SOL    HW133482   2.056   4.225   6.972 -3.4241  4.2457  0.9986
 7340SOL    HW233483   2.133   4.328   7.037 -0.7856  0.2284 -1.0334
 7341SOL     OW33484   2.472   1.034  15.241 -0.5008  0.2402  0.3511
 7341SOL    HW133485   2.497   0.993  15.159  1.0500  1.6200  0.1389
 7341SOL    HW233486   2.395   1.081  15.210 -0.1083  0.7892  0.2103
 7342SOL     OW33487   1.154   1.475   5.180  0.5054  0.1782 -0.3040
 7342SOL    HW133488   1.176   1.560   5.217 -0.2400  0.2029  0.0844
 7342SOL    HW233489   1.097   1.438   5.248  0.0720  0.8612 -0.2919
 7343SOL     OW33490   1.093   2.837   1.632 -0.4177  0.0549  0.1106
 7343SOL    HW133491   1.051   2.766   1.583 -0.8512  0.0440  0.4973
 7343SOL    HW233492   1.180   2.797   1.632 -0.0312  0.8818 -2.1337
 7344SOL     OW33493   3.655   1.800   3.366 -0.1718  0.3526 -0.8628
 7344SOL    HW133494   3.604   1.832   3.291 -1.5775  2.4387  1.0141
 7344SOL    HW233495   3.609   1.719   3.386 -2.9098  1.8696 -1.0956
 7345SOL     OW33496   2.823   1.201   5.474 -0.2414 -0.2201 -0.1599
 7345SOL    HW133497   2.818   1.293   5.450  0.2823 -0.2744 -0.4653
 7345SOL    HW233498   2.902   1.177   5.426  0.4053 -0.5677  1.0753
 7346SOL     OW33499   4.457   2.934   7.730 -0.3909 -0.2958 -0.0922
 7346SOL    HW133500   4.452   2.851   7.682  2.7788 -0.0063 -0.9364
 7346SOL    HW233501   4.542   2.972   7.708  0.3339 -2.3434 -0.8941
 7347SOL     OW33502   1.597   3.626   8.745  0.0455 -0.2866 -0.1695
 7347SOL    HW133503   1.624   3.538   8.716 -0.9771 -0.5183 -0.4098
 7347SOL    HW233504   1.546   3.646   8.667  0.5538  0.8520 -0.1985
 7348SOL     OW33505   4.339   2.375  11.156  0.2316 -0.0395  0.3122
 7348SOL    HW133506   4.363   2.458  11.114 -2.5679  0.9894  0.7621
 7348SOL    HW233507   4.422   2.328  11.150  0.2380  0.0539 -0.4135
 7349SOL     OW33508   0.932   2.083   9.468 -0.6174  0.6132  0.2409
 7349SOL    HW133509   0.850   2.039   9.446 -0.6726  0.3569  0.9885
 7349SOL    HW233510   0.910   2.141   9.541 -1.6438  0.4782  0.0369
 7350SOL     OW33511   1.515   4.469  10.972 -0.3370  0.1240 -0.2420
 7350SOL    HW133512   1.575   4.399  10.947  0.5790 -0.0595  2.5595
 7350SOL    HW233513   1.435   4.417  10.977  1.9721 -3.3965  0.0144
 7351SOL     OW33514   1.457   2.151   9.743  0.3133 -0.2683 -0.3755
 7351SOL    HW133515   1.390   2.211   9.708  3.3403  3.3204  0.0135
 7351SOL    HW233516   1.534   2.195   9.707  2.3661 -3.4288  0.1995
 7352SOL     OW33517   0.174   0.858   8.690  0.2288 -0.2900  0.9445
 7352SOL    HW133518   0.115   0.888   8.620  0.4890 -2.8252 -0.3419
 7352SOL    HW233519   0.259   0.899   8.675 -0.1358 -0.2477 -0.9987
 7353SOL     OW33520   0.419   3.888   9.159  0.4855 -0.0364 -0.3191
 7353SOL    HW133521   0.425   3.819   9.094 -1.3366  0.5796 -1.1590
 7353SOL    HW233522   0.364   3.836   9.218 -2.3055 -0.0750 -2.9299
 7354SOL     OW33523   3.961   3.091  13.961  0.1341  0.1947 -0.3891
 7354SOL    HW133524   4.020   3.047  13.899 -0.2001 -1.0100  0.1566
 7354SOL    HW233525   3.974   3.035  14.037 -0.0274  0.7192  0.0211
 7355SOL     OW33526   4.537   2.237   9.929 -0.3954  0.2120 -0.4015
 7355SOL    HW133527   4.616   2.260   9.879  1.6148 -1.7330  1.8624
 7355SOL    HW233528   4.477   2.284   9.872  0.0127  0.4890 -0.6079
 7356SOL     OW33529   3.717   3.511   8.252 -0.2516  0.0367  0.5086
 7356SOL    HW133530   3.756   3.424   8.242 -2.7093 -1.1425  1.2256
 7356SOL    HW233531   3.753   3.554   8.174 -1.5209  1.3067  0.6177
 7357SOL     OW33532   2.717   4.455   1.544  0.0346 -0.4996  0.3168
 7357SOL    HW133533   2.713   4.487   1.634 -0.4421  1.2170 -0.3053
 7357SOL    HW233534   2.750   4.365   1.543  0.7937 -0.1953 -1.8507
 7358SOL     OW33535   2.943   2.903  11.228  0.6079 -0.0743  0.0983
 7358SOL    HW133536   2.964   2.980  11.176  1.6437 -0.8583 -0.6601
 7358SOL    HW233537   3.028   2.888  11.268  1.4858  2.4286 -0.8429
 7359SOL     OW33538   1.028   1.658   9.408  0.1315  0.1167  0.8625
 7359SOL    HW133539   0.963   1.724   9.382  0.0189 -0.5549 -0.5551
 7359SOL    HW233540   1.082   1.671   9.330 -2.1698 -0.0057 -0.7622
 7360SOL     OW33541   0.834   0.852   7.851 -0.2164  0.5177  0.2146
 7360SOL    HW133542   0.922   0.889   7.858  0.5550 -1.2592  0.0578
 7360SOL    HW233543   0.856   0.761   7.873 -1.7609 -0.4517 -2.3377
 7361SOL     OW33544   3.459   1.749   1.647  0.3824  0.1861  0.4761
 7361SOL    HW133545   3.437   1.839   1.622  1.2419  0.0446 -0.8162
 7361SOL    HW233546   3.482   1.710   1.563  0.0213  1.5615 -0.2579
 7362SOL     OW33547   1.956   3.530  10.756  0.4975  0.1868  0.2994
 7362SOL    HW133548   1.996   3.612  10.785 -1.8200  1.2078  0.6099
 7362SOL    HW233549   2.006   3.524  10.674 -0.2701 -0.5891 -0.1138
 7363SOL     OW33550   4.571   1.472   4.096  0.2522 -0.0796  0.2322
 7363SOL    HW133551   4.534   1.461   4.008  0.3110 -1.3612  0.3678
 7363SOL    HW233552   4.662   1.443   4.085  0.1853  0.1515 -0.9350
 7364SOL     OW33553   0.048   3.263  15.636  0.5503 -0.0864 -0.0768
 7364SOL    HW133554   0.101   3.184  15.627  0.7324 -0.1666  1.9051
 7364SOL    HW233555   0.096   3.326  15.581 -0.3224  2.0551  1.6288
 7365SOL     OW33556   1.284   3.759   3.845  0.0813  0.2680  0.2615
 7365SOL    HW133557   1.370   3.773   3.806  0.3131 -0.5757  0.4706
 7365SOL    HW233558   1.311   3.717   3.926 -1.6822  1.2555  1.3666
 7366SOL     OW33559   3.137   0.759   0.268 -0.4091 -0.2268  0.2504
 7366SOL    HW133560   3.199   0.804   0.325  0.6695  0.1704 -1.2241
 7366SOL    HW233561   3.163   0.670   0.292 -1.7130 -0.1040  2.0384
 7367SOL     OW33562   0.472   3.777   6.504 -0.2243 -0.1218  0.0542
 7367SOL    HW133563   0.542   3.818   6.555  0.2044 -1.0704  0.2355
 7367SOL    HW233564   0.522   3.720   6.446  0.2238  0.4416 -0.1150
 7368SOL     OW33565   0.011   2.463   9.180  0.5441 -0.0435 -0.2646
 7368SOL    HW133566   0.041   2.378   9.146 -0.9180 -0.5478 -0.3013
 7368SOL    HW233567   0.088   2.519   9.175  0.8831 -0.5321 -0.5562
 7369SOL     OW33568   2.158   2.251   6.961 -0.1634  0.5685 -0.5912
 7369SOL    HW133569   2.068   2.277   6.940  0.4462  2.7250 -0.5450
 7369SOL    HW233570   2.188   2.336   6.993  1.6091  1.1604 -3.8653
 7370SOL     OW33571   1.433   4.498  15.367  0.0204 -0.2871  0.2854
 7370SOL    HW133572   1.386   4.480  15.449 -1.6764 -0.6392 -0.7652
 7370SOL    HW233573   1.516   4.527  15.405 -0.4376  1.3500  0.0516
 7371SOL     OW33574   1.168   2.987   8.895  1.0366 -0.2950 -0.4790
 7371SOL    HW133575   1.215   3.021   8.820  1.3142 -1.2520 -0.7369
 7371SOL    HW233576   1.243   2.992   8.954  2.1755  1.5523 -2.1136
 7372SOL     OW33577   0.422   4.159  17.387 -0.5366 -0.1067  0.6793
 7372SOL    HW133578   0.388   4.070  17.395 -2.4392  0.5165 -0.2571
 7372SOL    HW233579   0.341   4.199  17.420 -0.1102  1.8132 -0.5740
 7373SOL     OW33580   1.379   2.215   5.873  0.4073 -0.6264 -0.1842
 7373SOL    HW133581   1.395   2.130   5.832  1.0440  0.3764 -2.0422
 7373SOL    HW233582   1.284   2.215   5.888  0.7533  0.4458  2.0444
 7374SOL     OW33583   2.329   3.209   6.128  0.3334 -0.3018  0.2421
 7374SOL    HW133584   2.324   3.289   6.179 -1.7780  0.6735 -1.4967
 7374SOL    HW233585   2.253   3.219   6.071  0.0415 -0.9197  0.5281
 7375SOL     OW33586   1.210   4.481   1.113 -0.2235 -0.0719 -0.2375
 7375SOL    HW133587   1.194   4.392   1.145  2.5991 -0.6807 -0.5214
 7375SOL    HW233588   1.234   4.469   1.020 -0.8498  1.3681 -0.5765
 7376SOL     OW33589   3.744   2.651  16.967  0.3210  0.0396 -0.1575
 7376SOL    HW133590   3.684   2.657  16.892 -0.7202  0.9320  0.7347
 7376SOL    HW233591   3.751   2.742  16.995  2.1828 -0.4737  1.0447
 7377SOL     OW33592   3.787   1.806  16.353 -0.8070 -0.0101  0.1494
 7377SOL    HW133593   3.859   1.869  16.365 -0.6951 -0.4664  1.8603
 7377SOL    HW233594   3.764   1.831  16.263  3.1437 -1.2651 -1.2242
 7378SOL     OW33595   2.647   2.318  11.577 -0.1081 -0.1457 -0.5811
 7378SOL    HW133596   2.642   2.247  11.641  0.2740  0.7784  0.4618
 7378SOL    HW233597   2.733   2.311  11.535 -0.5135  0.5878 -1.5506
 7379SOL     OW33598   1.956   4.097   5.237  0.1594  1.2766 -0.0169
 7379SOL    HW133599   1.982   4.061   5.152  1.1297 -3.4979  2.3149
 7379SOL    HW233600   1.943   4.190   5.219 -0.6608  0.8232 -1.7274
 7380SOL     OW33601   4.358   0.914  16.643 -0.1733  0.2269 -0.4528
 7380SOL    HW133602   4.284   0.870  16.685  0.4818 -0.2103  0.2460
 7380SOL    HW233603   4.355   0.995  16.693  0.2500 -0.0159 -0.0362
 7381SOL     OW33604   1.455   0.385  10.301 -0.0542 -0.0582 -0.2286
 7381SOL    HW133605   1.469   0.454  10.366  0.7898 -2.7445  2.4977
 7381SOL    HW233606   1.504   0.423  10.228  1.9450 -2.7047 -0.2816
 7382SOL     OW33607   1.068   0.048   9.631 -0.2189 -0.0768 -0.7993
 7382SOL    HW133608   0.991   4.715   9.619 -0.4624  0.3333 -1.1412
 7382SOL    HW233609   1.045   0.126   9.581  1.9402 -0.2252 -2.0259
 7383SOL     OW33610   4.616   2.073   5.395  0.3670 -0.1084  0.0401
 7383SOL    HW133611   4.687   2.010   5.400  0.6826  0.4923  2.7631
 7383SOL    HW233612   4.636   2.125   5.472  0.7527  0.6902 -0.5950
 7384SOL     OW33613   1.529   3.646  12.176 -0.4623  0.0275 -0.0991
 7384SOL    HW133614   1.493   3.642  12.087 -0.9002 -0.1299  0.0894
 7384SOL    HW233615   1.621   3.651  12.147 -0.8784  1.6186 -1.1268
 7385SOL     OW33616   3.952   3.616  14.958 -0.9410 -0.4508  0.2587
 7385SOL    HW133617   3.886   3.670  14.914 -1.7963 -0.8075  1.0835
 7385SOL    HW233618   3.899   3.537  14.974 -1.4778 -0.1652 -0.1056
 7386SOL     OW33619   3.639   3.709   6.726  0.0362  0.1808  0.3599
 7386SOL    HW133620   3.638   3.782   6.788 -2.0173  1.1879 -0.8646
 7386SOL    HW233621   3.677   3.638   6.778 -0.7652  0.1809  0.9589
 7387SOL     OW33622   2.662   4.203  15.332  0.1577 -0.2604 -0.6327
 7387SOL    HW133623   2.708   4.121  15.315 -0.0444 -0.1203 -1.8461
 7387SOL    HW233624   2.602   4.183  15.404 -1.8696  0.2603 -2.1573
 7388SOL     OW33625   4.404   4.156   5.186 -0.9158 -0.4632 -0.4166
 7388SOL    HW133626   4.407   4.218   5.112 -0.4606 -1.6212 -1.3629
 7388SOL    HW233627   4.314   4.125   5.193 -1.4942  1.5239  0.9399
 7389SOL     OW33628   0.913   0.284   8.014 -0.1375  0.3573 -0.2895
 7389SOL    HW133629   0.942   0.196   7.989  1.8471  1.4479 -1.7684
 7389SOL    HW233630   0.863   0.261   8.092 -1.5056 -0.2803 -1.3378
 7390SOL     OW33631   3.268   3.395  17.055 -0.5000 -0.0279 -0.4971
 7390SOL    HW133632   3.329   3.430  17.121  0.1813  0.9020 -1.6077
 7390SOL    HW233633   3.190   3.416  17.107 -0.3125 -1.3929  0.3343
 7391SOL     OW33634   0.536   3.464   9.053 -0.7614  0.6427  0.3863
 7391SOL    HW133635   0.610   3.499   9.102  1.5186 -0.6140 -2.1797
 7391SOL    HW233636   0.562   3.373   9.037 -1.8539  0.5969 -1.0981
 7392SOL     OW33637   3.330   0.613   3.796 -0.1040 -0.2502  0.3240
 7392SOL    HW133638   3.356   0.670   3.868 -0.6375 -0.9018  1.0257
 7392SOL    HW233639   3.239   0.593   3.817 -0.4769  0.5629 -0.5233
 7393SOL     OW33640   2.956   1.711   7.149  0.0532 -0.1162 -0.0746
 7393SOL    HW133641   2.864   1.701   7.171  0.2633 -1.6886  0.1560
 7393SOL    HW233642   2.956   1.735   7.056 -1.4747 -0.7986 -0.2419
 7394SOL     OW33643   2.913   2.236   5.521  0.0857 -0.6732 -0.0311
 7394SOL    HW133644   2.860   2.243   5.600  0.3077 -1.4056  0.1864
 7394SOL    HW233645   2.991   2.285   5.546 -0.6189  1.0868 -1.3478
 7395SOL     OW33646   2.916   2.415   0.429 -0.1226 -0.4062  0.4262
 7395SOL    HW133647   2.932   2.324   0.404  0.8215  0.2097 -1.2049
 7395SOL    HW233648   3.003   2.454   0.426 -0.2662  0.0345  2.2745
 7396SOL     OW33649   1.747   1.462   3.401 -0.2218 -0.8120 -0.2149
 7396SOL    HW133650   1.806   1.532   3.430 -1.7680  0.9345 -1.2792
 7396SOL    HW233651   1.755   1.387   3.461 -0.4111  1.6978  2.9919
 7397SOL     OW33652   2.127   2.335   2.078 -0.0660 -0.0944 -0.0885
 7397SOL    HW133653   2.055   2.342   2.016 -0.4630  1.5337  0.5625
 7397SOL    HW233654   2.139   2.240   2.079  1.3151  0.0606 -3.3696
 7398SOL     OW33655   2.484   2.293   3.776 -0.8124  0.2598 -0.8670
 7398SOL    HW133656   2.529   2.231   3.833  1.0136  2.5011  0.1529
 7398SOL    HW233657   2.554   2.309   3.712 -0.4831 -0.2812 -0.6403
 7399SOL     OW33658   0.287   2.487   8.349  0.0364 -0.0521  0.1010
 7399SOL    HW133659   0.344   2.530   8.413  1.0499 -0.5579 -0.4609
 7399SOL    HW233660   0.241   2.563   8.315 -0.3420  0.0223  0.7726
 7400SOL     OW33661   3.924   1.793   3.689 -0.3752  0.2872 -0.1371
 7400SOL    HW133662   3.981   1.749   3.626  1.6703 -1.2613  2.8063
 7400SOL    HW233663   3.868   1.845   3.631 -0.5158  0.7402  0.4048
 7401SOL     OW33664   3.829   1.327  12.008  0.3909 -0.1640 -0.3116
 7401SOL    HW133665   3.896   1.386  12.044 -0.6342  2.8117 -3.2653
 7401SOL    HW233666   3.849   1.255  12.068  0.3671  0.2519  0.1969
 7402SOL     OW33667   3.205   1.552   7.339 -0.9077  0.1402  0.0263
 7402SOL    HW133668   3.270   1.622   7.333 -1.7707  0.7235 -2.8090
 7402SOL    HW233669   3.127   1.601   7.367 -1.6973 -0.0343 -1.8869
 7403SOL     OW33670   4.062   3.987  15.932 -0.3346  0.2782 -0.0851
 7403SOL    HW133671   4.020   3.924  15.874  0.0167  0.2104 -0.2694
 7403SOL    HW233672   4.112   3.929  15.989 -1.4433 -1.7413 -1.1830
 7404SOL     OW33673   2.803   4.187   2.541  0.0539 -0.0861 -0.1191
 7404SOL    HW133674   2.743   4.151   2.475  0.9245 -0.4592 -0.6986
 7404SOL    HW233675   2.765   4.273   2.559 -0.0698  0.1165 -1.3363
 7405SOL     OW33676   0.851   0.656   2.825 -0.3329 -0.9456  0.3940
 7405SOL    HW133677   0.916   0.673   2.894 -0.2719 -2.6564  0.7810
 7405SOL    HW233678   0.809   0.576   2.857  0.2488 -1.2708  0.3472
 7406SOL     OW33679   1.919   1.545   6.742  0.0426  0.3980 -0.0816
 7406SOL    HW133680   2.014   1.552   6.733  0.1872 -2.7964 -1.0020
 7406SOL    HW233681   1.910   1.459   6.700  0.6854  0.8303 -1.0983
 7407SOL     OW33682   2.503   4.532   4.550 -0.8966  0.4701  0.6006
 7407SOL    HW133683   2.527   4.531   4.642  0.1718 -2.2690  0.3057
 7407SOL    HW233684   2.498   4.436   4.548  2.3203  0.3081  0.7630
 7408SOL     OW33685   2.958   3.548  13.746 -0.1894  0.0595  0.1470
 7408SOL    HW133686   2.978   3.474  13.689 -1.9615 -0.8599  0.7393
 7408SOL    HW233687   2.887   3.581  13.691 -0.4258 -1.4536 -0.4550
 7409SOL     OW33688   0.794   4.359   7.727  0.0685 -0.3372 -0.4446
 7409SOL    HW133689   0.719   4.343   7.784  0.5875 -1.7705 -0.1586
 7409SOL    HW233690   0.863   4.367   7.793 -0.3194  0.2394 -0.1142
 7410SOL     OW33691   3.156   3.101   3.439  0.0831  0.1729  0.7164
 7410SOL    HW133692   3.069   3.062   3.439  0.1735 -0.0294 -0.1720
 7410SOL    HW233693   3.138   3.193   3.454  0.4821  0.5524 -1.0882
 7411SOL     OW33694   0.976   4.226   6.843  0.2408 -0.1881  0.5332
 7411SOL    HW133695   0.977   4.286   6.918  1.5392 -1.2028  1.3341
 7411SOL    HW233696   1.051   4.170   6.866 -0.7190 -1.1667  1.2928
 7412SOL     OW33697   0.872   4.477   5.950 -0.5612 -0.0667 -0.8011
 7412SOL    HW133698   0.843   4.387   5.939  0.3506 -0.5360  0.7655
 7412SOL    HW233699   0.787   4.519   5.963 -0.5558 -0.3469  0.1309
 7413SOL     OW33700   2.148   3.111   1.009 -0.2890  0.3335  0.0122
 7413SOL    HW133701   2.219   3.154   0.962  1.2846 -0.9673  1.1824
 7413SOL    HW233702   2.150   3.167   1.087  0.0809  0.1453  0.1428
 7414SOL     OW33703   0.819   1.394   4.916  0.1055 -0.1165 -0.0700
 7414SOL    HW133704   0.895   1.407   4.859  0.3100  1.2719  0.4990
 7414SOL    HW233705   0.866   1.384   4.998  0.9961 -1.6112 -0.7631
 7415SOL     OW33706   1.979   2.343   1.871 -0.2002 -0.2642  0.2409
 7415SOL    HW133707   1.968   2.253   1.842  2.3207 -0.3601 -0.3681
 7415SOL    HW233708   1.912   2.386   1.818  1.6855 -0.1957 -2.0827
 7416SOL     OW33709   0.928   3.164   5.091  0.2925  0.0491  0.1648
 7416SOL    HW133710   0.864   3.234   5.094  1.4998  1.2134 -1.1949
 7416SOL    HW233711   0.968   3.176   5.005  0.3211  0.0182  0.1733
 7417SOL     OW33712   3.092   0.970   3.326 -0.6230  0.3178  0.5546
 7417SOL    HW133713   3.011   0.986   3.375 -0.1483  0.0665  1.4307
 7417SOL    HW233714   3.105   0.876   3.339 -1.1182 -0.0123 -1.3682
 7418SOL     OW33715   2.178   3.103   3.277 -0.0752 -0.1390  0.0690
 7418SOL    HW133716   2.136   3.017   3.283  1.7804 -1.1470 -1.4084
 7418SOL    HW233717   2.124   3.152   3.215  1.1718  1.2853  0.1177
 7419SOL     OW33718   4.019   2.165   2.439 -0.0607  0.1125  0.0274
 7419SOL    HW133719   4.105   2.139   2.406  0.9442  1.4588  1.5858
 7419SOL    HW233720   3.970   2.157   2.358 -1.8439  1.6751  0.9441
 7420SOL     OW33721   2.827   2.201   8.236 -0.8774  0.5253  0.5382
 7420SOL    HW133722   2.837   2.155   8.320  1.3206  0.5646  0.2841
 7420SOL    HW233723   2.918   2.206   8.207 -1.1609 -1.0275 -0.6640
 7421SOL     OW33724   4.604   2.296  11.124 -0.0856 -0.1225  0.9992
 7421SOL    HW133725   4.607   2.256  11.037 -2.5326 -0.5424  1.0974
 7421SOL    HW233726   4.653   2.376  11.106  1.1043 -1.1649 -0.3929
 7422SOL     OW33727   1.282   2.433  13.959 -0.2024  0.5051 -0.9892
 7422SOL    HW133728   1.189   2.429  13.980  0.2137  1.1432  0.9905
 7422SOL    HW233729   1.320   2.360  14.009  0.2435  0.7710 -0.9424
 7423SOL     OW33730   1.852   3.972   5.469 -0.5060  0.3441  0.0823
 7423SOL    HW133731   1.941   3.970   5.505  0.1066 -0.5454 -1.5190
 7423SOL    HW233732   1.875   3.997   5.380 -1.8583 -2.0915 -0.9291
 7424SOL     OW33733   2.900   2.227   0.933 -0.0491 -0.0741 -0.2511
 7424SOL    HW133734   2.974   2.169   0.916  1.1583  1.6658 -0.8936
 7424SOL    HW233735   2.833   2.165   0.963 -0.1046  0.5226  0.8697
 7425SOL     OW33736   4.589   4.305   9.819 -0.4843 -0.6523  0.3481
 7425SOL    HW133737   4.668   4.305   9.874  0.7309  1.8396 -1.3969
 7425SOL    HW233738   4.588   4.395   9.785  0.9526 -0.3524  1.0691
 7426SOL     OW33739   1.965   0.517   4.421  0.0306 -0.4999 -0.4374
 7426SOL    HW133740   2.025   0.490   4.490 -0.5614  0.2371  0.3595
 7426SOL    HW233741   2.018   0.592   4.392 -1.0888  0.4617  0.0066
 7427SOL     OW33742   1.643   0.253   5.042 -0.5090 -0.6792  0.1183
 7427SOL    HW133743   1.660   0.290   4.955  1.3525 -2.0178 -0.0777
 7427SOL    HW233744   1.607   0.167   5.020  2.1473 -2.1423  1.4741
 7428SOL     OW33745   1.309   1.084   5.597 -0.2359  0.1845 -0.0335
 7428SOL    HW133746   1.258   1.016   5.553  1.4581 -1.1748  0.0732
 7428SOL    HW233747   1.373   1.027   5.640  0.1874  0.1847 -0.6602
 7429SOL     OW33748   4.672   1.935   4.570  0.4006 -0.2311  0.0110
 7429SOL    HW133749   4.708   1.975   4.649 -3.6561 -0.2800  1.8990
 7429SOL    HW233750   4.581   1.961   4.558  1.1430  3.3361  2.2414
 7430SOL     OW33751   0.021   3.224   8.635  0.2091 -0.2771 -0.0413
 7430SOL    HW133752   4.665   3.214   8.687  1.0728  0.8136  1.4782
 7430SOL    HW233753   4.709   3.253   8.551  0.1527  1.7704  0.6947
 7431SOL     OW33754   0.994   3.046   9.763 -0.1730  0.7551 -0.0485
 7431SOL    HW133755   1.061   3.052   9.695 -1.5378 -1.9646 -1.6184
 7431SOL    HW233756   0.967   3.138   9.753 -0.5745  0.3524 -2.6292
 7432SOL     OW33757   1.503   0.439   1.554  0.3914  0.4078 -0.6024
 7432SOL    HW133758   1.492   0.364   1.496 -0.1272 -1.2277  1.5991
 7432SOL    HW233759   1.552   0.402   1.627  0.3826  0.3051 -0.6492
 7433SOL     OW33760   0.019   1.106  12.300 -0.4138 -0.0926 -0.1949
 7433SOL    HW133761   0.057   1.184  12.260 -2.9871 -0.5253 -3.4893
 7433SOL    HW233762   0.091   1.044  12.284 -1.1576 -1.3987  1.5986
 7434SOL     OW33763   0.663   1.284   7.591 -0.0847  0.0261  0.0820
 7434SOL    HW133764   0.654   1.211   7.652 -0.1023  0.1722  0.2534
 7434SOL    HW233765   0.755   1.308   7.600  0.4710 -2.3910  0.8163
 7435SOL     OW33766   4.266   1.484  16.596  0.0901 -0.5005  0.3556
 7435SOL    HW133767   4.260   1.403  16.546 -0.5291  0.1741 -0.6792
 7435SOL    HW233768   4.233   1.452  16.680  2.9162 -1.2159  1.2086
 7436SOL     OW33769   3.702   1.127   7.199  0.0359  0.4100 -0.0584
 7436SOL    HW133770   3.634   1.077   7.245 -0.4474  0.6583 -0.5043
 7436SOL    HW233771   3.725   1.193   7.265 -0.0257  1.7803 -1.3935
 7437SOL     OW33772   3.928   0.304  13.280  0.2943 -0.2045  0.3958
 7437SOL    HW133773   3.920   0.209  13.281  0.9568 -0.2864 -1.7169
 7437SOL    HW233774   3.960   0.320  13.369  0.5980  1.2766  0.0161
 7438SOL     OW33775   3.278   0.367  17.552  0.1116  0.1771 -0.2144
 7438SOL    HW133776   3.344   0.435  17.541  0.8240 -0.6419 -1.0576
 7438SOL    HW233777   3.240   0.395  17.635 -0.4767 -2.3538  0.3790
 7439SOL     OW33778   1.599   3.391   2.638  0.0488  0.1914 -0.1274
 7439SOL    HW133779   1.668   3.331   2.666 -1.1616 -0.6340  1.0383
 7439SOL    HW233780   1.544   3.397   2.716 -1.7840 -1.5388 -1.3016
 7440SOL     OW33781   0.817   4.690   4.410 -0.0664 -0.0250  0.0529
 7440SOL    HW133782   0.903   4.718   4.380  0.0440  0.2774  0.6548
 7440SOL    HW233783   0.762   0.038   4.378 -0.2302  0.1602  0.7579
 7441SOL     OW33784   0.694   2.284  12.354 -0.2018 -0.2433  0.2794
 7441SOL    HW133785   0.764   2.313  12.412 -0.5964  4.0163 -1.3179
 7441SOL    HW233786   0.742   2.236  12.287 -1.6200 -0.3049 -0.7062
 7442SOL     OW33787   4.455   3.701   7.972 -0.5294  0.6370  0.0266
 7442SOL    HW133788   4.527   3.651   7.934  0.2155 -0.5056  3.0198
 7442SOL    HW233789   4.402   3.699   7.892 -0.7816 -0.8112  0.2234
 7443SOL     OW33790   3.195   3.947   6.628 -0.7855 -0.0947 -0.6568
 7443SOL    HW133791   3.247   3.876   6.592 -0.3498 -0.8942  1.5689
 7443SOL    HW233792   3.241   4.027   6.602 -1.0799  0.2038 -0.2761
 7444SOL     OW33793   0.535   1.514   7.526 -0.4246 -0.2387 -0.4613
 7444SOL    HW133794   0.600   1.584   7.517  1.9731 -2.4968 -0.5936
 7444SOL    HW233795   0.585   1.436   7.548 -1.2190 -1.2279 -2.1541
 7445SOL     OW33796   2.040   1.637  12.359 -0.3475  0.2414 -0.3716
 7445SOL    HW133797   2.072   1.652  12.270  0.8521  1.3078  0.2604
 7445SOL    HW233798   2.067   1.547  12.377 -1.5451 -0.0222  0.0883
 7446SOL     OW33799   1.832   3.461  13.945 -0.3327 -0.0855  0.1816
 7446SOL    HW133800   1.877   3.392  13.994  0.8253  0.3792 -0.2199
 7446SOL    HW233801   1.833   3.532  14.010  1.2552 -1.2742  1.4746
 7447SOL     OW33802   2.533   3.220   8.641  0.0612 -0.1121 -0.6270
 7447SOL    HW133803   2.451   3.172   8.633  0.3690 -0.3986 -2.0511
 7447SOL    HW233804   2.507   3.280   8.711 -2.4413 -0.8557 -0.9142
 7448SOL     OW33805   4.365   3.645   0.168  0.1349  0.0196 -0.2668
 7448SOL    HW133806   4.423   3.701   0.219 -0.9425 -0.1755  1.1605
 7448SOL    HW233807   4.298   3.624   0.232  1.7036 -2.1601  0.6646
 7449SOL     OW33808   3.741   1.111   5.562 -0.0297 -0.0179 -0.6565
 7449SOL    HW133809   3.835   1.127   5.563  0.2072 -1.4083 -1.5986
 7449SOL    HW233810   3.721   1.096   5.655 -0.9485 -0.4633 -0.9335
 7450SOL     OW33811   1.694   3.988   3.732 -0.1253 -0.0281  0.3186
 7450SOL    HW133812   1.786   4.012   3.721 -0.1133 -1.0233 -1.6959
 7450SOL    HW233813   1.678   4.017   3.822  1.5242  2.0756 -0.0706
 7451SOL     OW33814   1.839   1.876   8.139 -0.1020 -1.0994 -0.0635
 7451SOL    HW133815   1.909   1.914   8.086 -1.6116  0.5541 -0.8765
 7451SOL    HW233816   1.847   1.907   8.229 -2.8735  0.0799 -0.2225
 7452SOL     OW33817   3.046   3.790  15.946 -0.1237 -0.0526 -0.1468
 7452SOL    HW133818   2.982   3.848  15.904 -1.6637 -1.2579  0.5506
 7452SOL    HW233819   3.046   3.723  15.879  0.8306  0.0611 -0.2670
 7453SOL     OW33820   3.891   4.601  11.012  0.4508 -0.0288 -0.1101
 7453SOL    HW133821   3.957   4.538  11.040  0.4347  0.2816  0.6260
 7453SOL    HW233822   3.897   4.622  10.919  0.0769 -2.4332 -0.6809
 7454SOL     OW33823   2.598   4.268  17.046 -0.1300  0.3445  0.0327
 7454SOL    HW133824   2.674   4.223  17.008 -1.3650  1.1017 -3.3540
 7454SOL    HW233825   2.634   4.348  17.084  3.1305 -1.1798  0.0921
 7455SOL     OW33826   1.203   4.610  15.308 -1.1648 -0.2499  0.5095
 7455SOL    HW133827   1.209   4.631  15.215  3.9292 -1.8049  0.5089
 7455SOL    HW233828   1.284   4.563  15.327 -0.4291  0.6426 -0.4615
 7456SOL     OW33829   2.497   3.492  12.626  0.0570  0.0342 -0.5248
 7456SOL    HW133830   2.427   3.446  12.582 -0.4369  0.4847 -0.2088
 7456SOL    HW233831   2.549   3.420  12.664  0.5473  0.5800 -0.1524
 7457SOL     OW33832   4.043   0.526   0.766  0.7529  0.1937  0.4221
 7457SOL    HW133833   4.035   0.506   0.673  0.5418  0.3921  0.3994
 7457SOL    HW233834   3.958   0.490   0.790  0.9571 -1.1372 -0.7967
 7458SOL     OW33835   0.745   4.040   2.297  0.3818  0.1713 -0.1179
 7458SOL    HW133836   0.666   4.018   2.248  0.7338 -0.8644 -0.2320
 7458SOL    HW233837   0.813   4.035   2.230  2.0922 -1.6662  1.7344
 7459SOL     OW33838   0.161   4.121  16.270  0.1964 -0.3204 -0.0922
 7459SOL    HW133839   0.193   4.048  16.217 -1.0142 -0.6320 -0.3995
 7459SOL    HW233840   0.102   4.073  16.329 -0.7695  1.2289  0.2031
 7460SOL     OW33841   3.441   1.181  12.922  0.2323 -0.5063 -0.0783
 7460SOL    HW133842   3.486   1.245  12.866  0.7830  0.2204  1.1959
 7460SOL    HW233843   3.513   1.131  12.959  0.2258 -0.6228 -0.2238
 7461SOL     OW33844   2.881   2.493  16.613 -0.6524 -0.6482 -0.0597
 7461SOL    HW133845   2.958   2.437  16.604 -1.0796 -1.6052  2.1283
 7461SOL    HW233846   2.929   2.575  16.603 -0.3098 -0.9602 -0.9614
 7462SOL     OW33847   0.480   3.113   5.913  0.3698  0.0450  0.0015
 7462SOL    HW133848   0.550   3.173   5.886 -0.4662  0.7544 -0.5571
 7462SOL    HW233849   0.403   3.162   5.883  0.7276 -1.4099 -3.3544
 7463SOL     OW33850   1.984   3.227   7.193 -0.2122  0.7551  0.4600
 7463SOL    HW133851   1.976   3.300   7.132  1.4572 -0.3698 -1.0768
 7463SOL    HW233852   2.079   3.231   7.206 -0.2541 -0.8385  1.2385
 7464SOL     OW33853   0.263   4.203   0.438  0.3963  0.2260  0.6105
 7464SOL    HW133854   0.303   4.129   0.483 -1.7450 -0.6171  1.1291
 7464SOL    HW233855   0.292   4.178   0.350  0.7711 -1.1709  1.1420
 7465SOL     OW33856   4.157   4.393   6.097 -0.3060 -0.0527 -0.5131
 7465SOL    HW133857   4.105   4.459   6.144  1.4771 -0.8211  2.5387
 7465SOL    HW233858   4.235   4.449   6.089  0.0159 -0.7245 -1.9219
 7466SOL     OW33859   1.267   3.068   3.614 -0.4018 -0.3190 -0.0151
 7466SOL    HW133860   1.302   3.151   3.581  0.7360 -0.7976 -0.0268
 7466SOL    HW233861   1.210   3.091   3.687  0.4845 -0.5941  0.7686
 7467SOL     OW33862   3.928   2.769   1.696  0.1761 -0.4166 -0.0748
 7467SOL    HW133863   3.993   2.706   1.667  2.3363  1.5466  0.4986
 7467SOL    HW233864   3.884   2.784   1.612  3.0519  0.3481 -1.4325
 7468SOL     OW33865   1.052   4.573   4.558 -0.4017  0.1634 -0.3432
 7468SOL    HW133866   0.980   4.514   4.537 -0.2940 -0.1742  0.2468
 7468SOL    HW233867   1.104   4.519   4.616  1.4162  1.4654 -0.7309
 7469SOL     OW33868   3.819   1.009  15.764  0.3597  0.1638  0.4123
 7469SOL    HW133869   3.860   1.015  15.850 -1.2778  0.0648  1.2023
 7469SOL    HW233870   3.737   1.053  15.786  0.1961 -0.4393  1.0281
 7470SOL     OW33871   1.428   1.155   8.835 -0.2238 -0.5674 -0.1173
 7470SOL    HW133872   1.471   1.088   8.889  1.0857  0.9326  0.6823
 7470SOL    HW233873   1.339   1.155   8.870 -0.1050 -1.9808  0.2024
 7471SOL     OW33874   1.633   1.827   6.414  0.2464 -0.4103  0.4381
 7471SOL    HW133875   1.541   1.830   6.388  0.6958 -0.5506 -1.1542
 7471SOL    HW233876   1.658   1.882   6.340  0.6841 -0.5709  0.4655
 7472SOL     OW33877   2.800   2.803  16.412 -0.1028 -0.0012  0.1411
 7472SOL    HW133878   2.879   2.785  16.361 -0.0302  0.7088  0.0082
 7472SOL    HW233879   2.833   2.809  16.501 -1.2794  2.4718  0.4140
 7473SOL     OW33880   2.624   4.389   2.958  0.1586  0.0129 -0.6945
 7473SOL    HW133881   2.683   4.321   2.990 -0.7460  0.1280  1.1980
 7473SOL    HW233882   2.567   4.401   3.034  0.4359 -0.8805 -0.3499
 7474SOL     OW33883   2.756   3.183  17.024 -0.9770 -0.2172  0.5456
 7474SOL    HW133884   2.849   3.202  17.006 -0.9060  0.5799  1.7238
 7474SOL    HW233885   2.751   3.254  17.089  1.4635  0.4028  0.0698
 7475SOL     OW33886   4.166   2.731   5.545 -0.0338  0.2994 -0.2835
 7475SOL    HW133887   4.076   2.759   5.558  0.7915  1.9750  1.8029
 7475SOL    HW233888   4.171   2.715   5.451 -0.7982 -0.2234 -0.2388
 7476SOL     OW33889   1.466   3.587  10.037 -0.8662  0.1936  0.8052
 7476SOL    HW133890   1.419   3.520  10.087  1.0702 -0.2691  1.9757
 7476SOL    HW233891   1.389   3.621   9.992 -0.6750 -0.2847  0.1176
 7477SOL     OW33892   2.684   2.186   3.042  0.4485 -0.0263 -0.2272
 7477SOL    HW133893   2.703   2.119   3.108  0.6983 -0.9027 -1.1878
 7477SOL    HW233894   2.642   2.253   3.096  0.0224 -1.8459  1.7023
 7478SOL     OW33895   2.981   4.430  17.177  0.1780 -0.3232  0.3926
 7478SOL    HW133896   3.019   4.460  17.094  1.2726  0.7633  1.2789
 7478SOL    HW233897   2.887   4.440  17.161  0.1116  2.6592  2.6342
 7479SOL     OW33898   2.851   2.235  10.272 -0.5495 -0.2377  0.9207
 7479SOL    HW133899   2.802   2.181  10.335 -1.9586 -0.3347 -0.2440
 7479SOL    HW233900   2.918   2.282  10.321 -0.6370 -0.6319  1.4124
 7480SOL     OW33901   0.828   3.357   1.840  0.1760 -0.0690  0.1866
 7480SOL    HW133902   0.923   3.350   1.850  0.3375 -0.4215 -1.7136
 7480SOL    HW233903   0.791   3.339   1.926  0.5174  1.4124  0.6504
 7481SOL     OW33904   0.019   4.056   8.819 -0.7487  0.2223  0.0939
 7481SOL    HW133905   0.001   4.150   8.822 -1.3552  0.1630 -1.9198
 7481SOL    HW233906   4.723   4.028   8.909  2.4014 -1.2395  0.3293
 7482SOL     OW33907   0.324   2.527   3.805 -0.0824 -0.3485 -0.1149
 7482SOL    HW133908   0.347   2.616   3.832  1.6017 -0.8200  0.0381
 7482SOL    HW233909   0.347   2.478   3.884  1.1514  1.0539  0.4022
 7483SOL     OW33910   2.521   0.257  17.061 -0.2849 -0.4684 -0.2380
 7483SOL    HW133911   2.451   0.193  17.073 -1.1452  0.9748  2.3717
 7483SOL    HW233912   2.480   0.309  16.993  1.0644 -0.0771 -0.7655
 7484SOL     OW33913   1.702   0.609  17.615  0.3547 -0.3419 -0.2691
 7484SOL    HW133914   1.711   0.693  17.659 -2.9461  0.0165 -0.2604
 7484SOL    HW233915   1.675   0.633  17.526  0.2687 -0.0776 -0.1695
 7485SOL     OW33916   1.887   0.688   5.450  0.3548  0.1233 -0.3840
 7485SOL    HW133917   1.821   0.724   5.391  1.0162  0.8118 -0.7093
 7485SOL    HW233918   1.959   0.682   5.387  0.1710  1.6871 -0.7627
 7486SOL     OW33919   1.427   2.492   9.451 -0.3943 -0.0503  0.1777
 7486SOL    HW133920   1.429   2.586   9.430 -1.0467 -0.4601 -1.7246
 7486SOL    HW233921   1.467   2.454   9.373 -1.4130  1.1659 -0.9386
 7487SOL     OW33922   4.468   3.676   3.451  0.4097  0.3489 -0.1459
 7487SOL    HW133923   4.426   3.719   3.525  0.0453 -1.3963  0.6378
 7487SOL    HW233924   4.412   3.709   3.381 -0.3909  1.5740  1.0710
 7488SOL     OW33925   0.502   3.280  14.146 -0.2358  0.1442  0.3321
 7488SOL    HW133926   0.484   3.317  14.059 -3.3830 -0.2367  0.7900
 7488SOL    HW233927   0.426   3.311  14.195 -1.4750  0.9200 -2.0633
 7489SOL     OW33928   1.656   3.365   4.226 -0.2041 -0.1949  0.0300
 7489SOL    HW133929   1.698   3.401   4.304 -0.8072 -0.6441  0.5575
 7489SOL    HW233930   1.562   3.369   4.242  0.4263 -1.0407  3.9682
 7490SOL     OW33931   4.526   0.989   2.867 -0.2599 -0.2647 -0.3765
 7490SOL    HW133932   4.442   0.985   2.821 -0.6682  1.2766  0.2404
 7490SOL    HW233933   4.497   0.971   2.957  1.9233  1.2660  0.6244
 7491SOL     OW33934   2.530   4.669   8.470  0.5216  0.9104 -0.0444
 7491SOL    HW133935   2.502   0.034   8.448  0.5467  0.9048 -0.0982
 7491SOL    HW233936   2.453   4.615   8.454  0.2182  1.3349 -0.0236
 7492SOL     OW33937   1.267   1.665   1.156 -0.4634 -0.8095  0.2287
 7492SOL    HW133938   1.334   1.685   1.090 -3.4125  1.5305 -2.0499
 7492SOL    HW233939   1.325   1.650   1.231 -0.3986  0.5911  0.4532
 7493SOL     OW33940   3.713   2.548   3.091  0.0793 -0.6341 -0.6537
 7493SOL    HW133941   3.656   2.514   3.022 -2.5606 -1.7936  2.0818
 7493SOL    HW233942   3.792   2.494   3.082 -0.5118 -0.7739 -5.0496
 7494SOL     OW33943   1.164   2.116  10.887 -1.1717  0.2428 -0.1449
 7494SOL    HW133944   1.211   2.159  10.959 -0.9563 -0.7644  0.3198
 7494SOL    HW233945   1.168   2.187  10.823 -0.6434  0.1755 -0.1940
 7495SOL     OW33946   3.391   1.388   0.389  0.2272 -0.1563  0.6012
 7495SOL    HW133947   3.419   1.300   0.363 -0.4051 -0.9637  2.6544
 7495SOL    HW233948   3.472   1.437   0.400  0.0792  0.3400 -0.5166
 7496SOL     OW33949   3.201   4.636   6.945 -0.4988  0.2375 -0.1157
 7496SOL    HW133950   3.126   4.621   7.003 -0.0103  0.3765  0.5518
 7496SOL    HW233951   3.257   4.656   7.020 -0.3002  1.6694 -0.6448
 7497SOL     OW33952   0.673   2.616   2.212 -0.7755 -0.6207  0.0934
 7497SOL    HW133953   0.709   2.554   2.149 -1.4738 -0.1561 -0.7726
 7497SOL    HW233954   0.629   2.679   2.154  1.3775  0.1185 -0.7198
 7498SOL     OW33955   1.786   4.301   3.836  0.0529  0.0172 -0.4934
 7498SOL    HW133956   1.723   4.304   3.909  2.2404 -0.1585  1.3920
 7498SOL    HW233957   1.848   4.373   3.846 -1.3363  1.1649 -0.1655
 7499SOL     OW33958   4.105   2.537  14.531  0.5751  0.9522  0.4385
 7499SOL    HW133959   4.159   2.487  14.470 -0.4214 -0.5495  0.7680
 7499SOL    HW233960   4.163   2.556  14.605 -2.2655  0.0477  2.9018
 7500SOL     OW33961   1.729   4.197   7.650  0.4863 -0.1726  0.1296
 7500SOL    HW133962   1.699   4.106   7.662  1.1083 -0.3352  0.4810
 7500SOL    HW233963   1.691   4.215   7.564 -2.4241 -0.4890  1.3651
 7501SOL     OW33964   0.523   4.248   0.036 -0.6785 -0.1292  0.0407
 7501SOL    HW133965   0.606   4.202   0.051 -1.3385 -0.3546  2.9623
 7501SOL    HW233966   0.533   4.289  17.645 -3.1082  1.3660  0.4858
 7502SOL     OW33967   4.650   3.076   4.821  0.0187  0.6972  0.1699
 7502SOL    HW133968   0.020   3.090   4.833 -0.3987  2.0157  1.9033
 7502SOL    HW233969   4.642   3.005   4.884  0.6090  1.3225  0.9412
 7503SOL     OW33970   3.880   3.725   5.961  0.4323 -0.0245 -0.5554
 7503SOL    HW133971   3.842   3.734   6.049  2.7941 -0.9981  0.5698
 7503SOL    HW233972   3.830   3.656   5.917  0.7116 -1.2232  0.9956
 7504SOL     OW33973   1.421   2.736   6.150 -0.2154  0.0976 -0.2114
 7504SOL    HW133974   1.389   2.816   6.191 -0.8548  0.4093 -1.3460
 7504SOL    HW233975   1.391   2.673   6.216 -1.8568  0.2047 -0.8744
 7505SOL     OW33976   3.661   2.606  14.856  0.4041  0.4247 -0.4272
 7505SOL    HW133977   3.673   2.674  14.922 -0.5592  0.0093  0.1733
 7505SOL    HW233978   3.726   2.547  14.894 -2.6593 -1.6993  1.5012
 7506SOL     OW33979   0.873   3.524   0.735  0.3671 -0.2054  0.0991
 7506SOL    HW133980   0.896   3.434   0.712  0.4048 -0.3484  0.6791
 7506SOL    HW233981   0.945   3.564   0.686  0.3085 -0.6891 -0.3716
 7507SOL     OW33982   1.307   2.559   7.591 -0.3531 -0.3163 -0.6902
 7507SOL    HW133983   1.302   2.560   7.496 -2.2922  1.0788 -0.5619
 7507SOL    HW233984   1.402   2.569   7.601 -0.4574 -0.7251  0.7128
 7508SOL     OW33985   1.796   4.489  10.621  0.2972  0.2984  0.3518
 7508SOL    HW133986   1.771   4.400  10.648 -1.3397  0.3249 -1.0758
 7508SOL    HW233987   1.833   4.532  10.698 -1.8168  3.2206 -0.2914
 7509SOL     OW33988   2.108   3.358  15.382 -0.3738  0.0892  0.3072
 7509SOL    HW133989   2.062   3.303  15.445  1.4262 -1.3795  0.3571
 7509SOL    HW233990   2.201   3.338  15.394 -0.1314  0.4072 -1.0221
 7510SOL     OW33991   0.266   3.873  16.158 -0.1600 -0.2637  0.2278
 7510SOL    HW133992   0.323   3.808  16.117  0.9929  0.9090 -0.0677
 7510SOL    HW233993   0.215   3.819  16.218 -1.7066  0.0469 -0.8061
 7511SOL     OW33994   2.520   0.675   5.023 -0.1592 -0.8943 -0.3406
 7511SOL    HW133995   2.537   0.704   4.933  3.2324 -0.8333  0.3243
 7511SOL    HW233996   2.491   0.760   5.054  0.0886 -0.6046 -0.8953
 7512SOL     OW33997   4.442   0.963   6.065  0.4013 -0.3120 -0.3821
 7512SOL    HW133998   4.464   0.915   5.985  0.2413 -0.5466 -0.2861
 7512SOL    HW233999   4.413   0.895   6.126  0.3896  0.7374  0.7667
 7513SOL     OW34000   4.370   0.241   0.764  0.2928 -0.3708 -0.3575
 7513SOL    HW134001   4.414   0.289   0.694  2.0117 -1.9438 -0.3636
 7513SOL    HW234002   4.380   0.151   0.733 -0.5164 -0.6717  0.2454
 7514SOL     OW34003   3.109   2.861  17.252  0.0276 -1.2318 -0.1894
 7514SOL    HW134004   3.094   2.955  17.245  1.2465 -0.8363  2.3779
 7514SOL    HW234005   3.198   2.856  17.219  0.7849  1.0099  1.4814
 7515SOL     OW34006   0.351   0.659  14.192 -0.3511  0.4835 -0.0186
 7515SOL    HW134007   0.274   0.613  14.225 -0.2091 -0.1760 -0.6248
 7515SOL    HW234008   0.421   0.604  14.227  0.3385  1.4529  0.1154
 7516SOL     OW34009   2.977   2.978  16.053 -0.4414 -0.0033  0.1825
 7516SOL    HW134010   2.939   2.982  15.965 -1.3543  0.0499  0.5802
 7516SOL    HW234011   3.058   2.931  16.034 -0.3381  0.0111  0.5954
 7517SOL     OW34012   1.752   0.541  12.326 -0.0732  0.1828  0.0215
 7517SOL    HW134013   1.792   0.604  12.387  2.7412 -1.3010 -0.3235
 7517SOL    HW234014   1.774   0.457  12.366 -0.3196 -1.1056 -2.5608
 7518SOL     OW34015   1.101   0.933   2.830  0.4767 -0.0967 -0.3143
 7518SOL    HW134016   1.146   0.867   2.777 -0.1017 -0.9547  0.2561
 7518SOL    HW234017   1.033   0.965   2.772 -0.5341 -1.6900 -0.0218
 7519SOL     OW34018   4.423   3.836   6.507  0.0921  0.3046  0.8960
 7519SOL    HW134019   4.445   3.844   6.600  1.3924  1.9984  0.4426
 7519SOL    HW234020   4.415   3.927   6.478  0.4652  0.0863  0.1092
 7520SOL     OW34021   0.693   2.149   6.857  0.6697 -0.6000  0.5680
 7520SOL    HW134022   0.627   2.081   6.840  1.3945 -1.3845  0.9180
 7520SOL    HW234023   0.719   2.174   6.768 -1.4045  0.1192  0.1369
 7521SOL     OW34024   1.834   2.725   4.609  0.3735 -0.1645 -0.1549
 7521SOL    HW134025   1.827   2.753   4.700  2.2699  0.0235 -0.0581
 7521SOL    HW234026   1.772   2.781   4.563  0.9832  0.2450 -0.4864
 7522SOL     OW34027   1.164   1.417   3.650  0.1261  0.0138  0.3927
 7522SOL    HW134028   1.096   1.413   3.716 -1.0335 -1.4868 -0.8912
 7522SOL    HW234029   1.176   1.510   3.634 -0.7144 -0.0228 -0.4575
 7523SOL     OW34030   3.650   1.272  17.291 -0.2005 -0.1458 -0.1389
 7523SOL    HW134031   3.562   1.253  17.324  0.0938  0.6628  1.1267
 7523SOL    HW234032   3.654   1.202  17.226 -1.2899 -0.2877 -0.0503
 7524SOL     OW34033   2.400   4.256   7.853 -0.1480  0.3707 -0.2217
 7524SOL    HW134034   2.374   4.252   7.945 -0.8671  0.0304 -0.4326
 7524SOL    HW234035   2.331   4.206   7.809 -0.3089  1.0766 -0.7681
 7525SOL     OW34036   3.800   4.452   6.119 -0.1827  0.3549 -0.1171
 7525SOL    HW134037   3.785   4.469   6.212 -2.3868  2.0938 -0.7858
 7525SOL    HW234038   3.877   4.508   6.119 -0.3102  0.5428  0.7253
 7526SOL     OW34039   0.270   3.117   1.827  0.0941 -0.2470 -0.3395
 7526SOL    HW134040   0.219   3.081   1.901  1.2162 -0.4294  0.3430
 7526SOL    HW234041   0.233   3.067   1.754 -2.1721  0.2896  0.4194
 7527SOL     OW34042   1.422   3.745  11.931 -0.0510 -0.0959 -0.5435
 7527SOL    HW134043   1.386   3.745  11.843  2.8755 -1.3350 -1.7351
 7527SOL    HW234044   1.495   3.808  11.929  1.1178 -1.4777 -0.9103
 7528SOL     OW34045   0.510   2.050   8.352 -0.0791  0.0136 -0.1020
 7528SOL    HW134046   0.605   2.044   8.352 -0.2596 -2.4632 -1.2518
 7528SOL    HW234047   0.471   2.008   8.430  0.8056 -0.4317  0.1015
 7529SOL     OW34048   2.755   3.402   0.750  0.1595  0.2103  0.7018
 7529SOL    HW134049   2.843   3.371   0.729 -0.1850  0.1666 -0.6761
 7529SOL    HW234050   2.720   3.424   0.664  0.9062 -1.2449  0.0416
 7530SOL     OW34051   2.908   3.204   7.601 -0.1373  0.6330 -0.1399
 7530SOL    HW134052   2.957   3.155   7.667 -0.3091 -1.7570 -1.8100
 7530SOL    HW234053   2.885   3.282   7.651 -1.1465  1.3818 -1.7903
 7531SOL     OW34054   3.605   2.406   5.252 -0.2872 -0.5297  0.1945
 7531SOL    HW134055   3.682   2.443   5.210  0.9371 -2.4941  0.6790
 7531SOL    HW234056   3.612   2.320   5.211  0.5282 -0.4423  0.1666
 7532SOL     OW34057   0.754   3.290   8.807 -0.1926  0.7650 -0.8716
 7532SOL    HW134058   0.769   3.229   8.735 -0.3659 -1.5104  0.9898
 7532SOL    HW234059   0.686   3.242   8.855 -1.1572  2.0016 -1.0192
 7533SOL     OW34060   4.084   0.565  13.980 -0.5055  0.2507 -0.0897
 7533SOL    HW134061   4.040   0.576  14.064 -1.2345 -0.5575 -0.3671
 7533SOL    HW234062   4.174   0.583  14.007  0.2182 -1.6065 -1.2243
 7534SOL     OW34063   0.580   1.857   7.009 -0.4049 -0.1550 -0.1715
 7534SOL    HW134064   0.664   1.862   7.054 -1.2359 -2.1731  1.6594
 7534SOL    HW234065   0.566   1.762   7.015 -0.4823 -0.1457 -0.2069
 7535SOL     OW34066   0.922   1.256   3.252 -0.0648  0.3372 -0.0234
 7535SOL    HW134067   0.849   1.212   3.296  0.3051 -0.0428  0.2044
 7535SOL    HW234068   0.935   1.192   3.182  3.1603 -0.6750  1.5072
 7536SOL     OW34069   0.365   1.976   3.357  0.7740 -0.5448  0.0869
 7536SOL    HW134070   0.400   2.064   3.371 -0.1073 -0.2181  0.2171
 7536SOL    HW234071   0.418   1.944   3.283  0.8491  0.6186 -0.3571
 7537SOL     OW34072   0.799   2.121   7.988  0.1916 -0.1386 -0.3260
 7537SOL    HW134073   0.793   2.038   8.035 -3.8000 -0.4145 -1.3030
 7537SOL    HW234074   0.785   2.182   8.060  1.2543 -0.2300 -0.0440
 7538SOL     OW34075   1.079   0.852   6.111 -0.4762  0.9263 -0.1743
 7538SOL    HW134076   1.003   0.908   6.096 -1.2537  0.0274  0.3632
 7538SOL    HW234077   1.144   0.908   6.069  1.4440 -0.7557  0.5322
 7539SOL     OW34078   0.672   1.205   3.379  0.1724 -0.2077 -0.0943
 7539SOL    HW134079   0.627   1.237   3.301 -0.3564  1.1967  0.7839
 7539SOL    HW234080   0.654   1.111   3.381 -0.0497 -0.2110 -2.2940
 7540SOL     OW34081   4.352   2.970  16.651  0.0299  0.0791  0.3838
 7540SOL    HW134082   4.360   3.059  16.618 -1.9557 -0.2442 -0.9853
 7540SOL    HW234083   4.342   2.994  16.743  1.1499 -1.1316  0.8322
 7541SOL     OW34084   1.086   2.924   2.982  0.4768  0.1441 -0.5012
 7541SOL    HW134085   1.010   2.977   2.958 -0.3846 -0.8877 -0.0678
 7541SOL    HW234086   1.152   2.989   2.958  0.6177  0.2511  0.1607
 7542SOL     OW34087   3.346   2.551   3.209 -0.3296  0.0090 -0.0819
 7542SOL    HW134088   3.371   2.637   3.176 -0.4591 -0.7792 -2.2215
 7542SOL    HW234089   3.312   2.566   3.297 -1.0658 -0.8293 -0.2257
 7543SOL     OW34090   4.173   1.937   7.244 -0.4788  0.1627  0.0806
 7543SOL    HW134091   4.088   1.943   7.289 -1.1914 -0.1864 -1.2005
 7543SOL    HW234092   4.227   1.934   7.323  0.6678 -0.7126 -0.7456
 7544SOL     OW34093   3.186   1.842  15.312  0.2370 -0.2445  0.5263
 7544SOL    HW134094   3.148   1.854  15.399 -2.8024 -2.6192 -0.4675
 7544SOL    HW234095   3.111   1.803  15.266  0.3972  0.2752 -0.1711
 7545SOL     OW34096   0.544   0.837   1.732  0.4627  0.2712 -0.0680
 7545SOL    HW134097   0.514   0.747   1.742 -0.9687  0.8895  1.1036
 7545SOL    HW234098   0.574   0.853   1.821 -0.3080 -1.4140  0.4796
 7546SOL     OW34099   0.605   3.387   6.987 -0.0216 -0.2127  0.5880
 7546SOL    HW134100   0.512   3.408   6.986  0.5195  2.1008 -0.6084
 7546SOL    HW234101   0.608   3.292   6.970 -0.4004  0.4155 -2.9678
 7547SOL     OW34102   1.514   1.671   0.641  0.0776  0.3911 -0.4141
 7547SOL    HW134103   1.489   1.580   0.623  0.8133  0.1280 -0.1115
 7547SOL    HW234104   1.466   1.685   0.723 -2.1198 -1.6987 -1.3245
 7548SOL     OW34105   2.207   1.537   3.614 -0.1702  0.1540  0.2380
 7548SOL    HW134106   2.264   1.559   3.540 -0.0286 -2.9665 -0.5405
 7548SOL    HW234107   2.195   1.443   3.614 -1.9416  0.3885  3.0158
 7549SOL     OW34108   0.913   1.634   7.990 -0.4127 -0.5500  0.3400
 7549SOL    HW134109   0.909   1.607   8.082  0.9836 -0.7880  0.3269
 7549SOL    HW234110   0.989   1.690   8.003 -1.3319  0.7863 -0.0921
 7550SOL     OW34111   0.809   4.187  17.194 -0.4845 -0.2253  0.0610
 7550SOL    HW134112   0.791   4.106  17.147  2.7539 -0.2222 -1.2358
 7550SOL    HW234113   0.836   4.250  17.126  1.9073 -0.6829  0.5758
 7551SOL     OW34114   3.584   1.762   7.617  0.4151  0.0701  0.2435
 7551SOL    HW134115   3.519   1.775   7.547  3.5332  3.6857 -1.9266
 7551SOL    HW234116   3.528   1.733   7.690 -2.0752 -0.6355 -1.9358
 7552SOL     OW34117   0.670   0.490   0.274 -0.1878 -0.3355  0.3675
 7552SOL    HW134118   0.675   0.558   0.342 -1.3949  0.6732 -0.5441
 7552SOL    HW234119   0.729   0.520   0.205 -0.7654 -1.0408 -0.4274
 7553SOL     OW34120   3.893   4.708   3.488  0.5959  0.3614  0.9542
 7553SOL    HW134121   3.895   4.627   3.539 -1.1942  0.5123  1.2690
 7553SOL    HW234122   3.970   4.698   3.432  0.6050  2.4140  0.5967
 7554SOL     OW34123   3.126   3.266   7.094 -0.4462  0.0600  0.9250
 7554SOL    HW134124   3.057   3.332   7.103 -0.8014 -0.3996  1.5413
 7554SOL    HW234125   3.176   3.306   7.023 -0.3702 -2.2123 -0.3074
 7555SOL     OW34126   3.658   4.374  10.071 -0.0236 -0.2498 -0.0202
 7555SOL    HW134127   3.743   4.417  10.074 -0.6115  1.0105 -1.2570
 7555SOL    HW234128   3.637   4.366  10.164 -0.7537  2.4841  0.0360
 7556SOL     OW34129   1.668   0.105   2.602 -0.0689 -0.3969 -0.2820
 7556SOL    HW134130   1.715   0.023   2.617 -0.6662 -1.1081 -2.3213
 7556SOL    HW234131   1.736   0.159   2.643  0.1013  0.2165 -1.3768
 7557SOL     OW34132   4.643   3.087   7.084  0.7110  0.5761 -0.2065
 7557SOL    HW134133   4.556   3.056   7.060  1.3093 -0.4866 -0.9868
 7557SOL    HW234134   4.669   3.150   7.016  0.0281  1.0939  0.0047
 7558SOL     OW34135   0.220   4.455   2.546 -0.5677 -0.0898  0.1330
 7558SOL    HW134136   0.245   4.366   2.570  0.1506  0.0640 -0.0568
 7558SOL    HW234137   0.126   4.459   2.565 -0.6213 -0.4078 -0.0910
 7559SOL     OW34138   0.963   4.588   8.894  0.3044  0.4037 -0.8378
 7559SOL    HW134139   0.898   4.658   8.908 -1.6282 -1.8801  1.6266
 7559SOL    HW234140   1.043   4.640   8.888  0.3871  0.5029  1.0984
 7560SOL     OW34141   3.920   3.993   0.115 -0.3494  0.0698  0.3138
 7560SOL    HW134142   3.985   3.926   0.136 -1.0093 -0.5704  0.2881
 7560SOL    HW234143   3.882   4.014   0.200  0.6854  0.7891  0.6094
 7561SOL     OW34144   3.945   3.848  15.109 -0.0384  0.4966  0.4553
 7561SOL    HW134145   3.930   3.827  15.016  1.1052 -1.1460  0.6546
 7561SOL    HW234146   4.035   3.816  15.109 -0.0621  0.4142 -0.8411
 7562SOL     OW34147   2.337   0.109   2.598 -0.2110  0.2554  0.2429
 7562SOL    HW134148   2.283   0.187   2.611 -0.5282 -0.0095  0.5235
 7562SOL    HW234149   2.277   0.063   2.540 -1.1350  1.2726  0.3942
 7563SOL     OW34150   1.327   2.233  15.654 -0.2542  0.7642 -0.3522
 7563SOL    HW134151   1.334   2.322  15.689  2.9821  1.0493 -1.7217
 7563SOL    HW234152   1.296   2.245  15.565  1.5017  0.6352 -0.9700
 7564SOL     OW34153   3.899   0.720  17.490 -0.0484 -0.1560 -0.2346
 7564SOL    HW134154   3.882   0.808  17.457 -1.6299  0.0855  1.2211
 7564SOL    HW234155   3.994   0.728  17.481  0.2738 -2.4997  1.0621
 7565SOL     OW34156   0.008   0.123   5.013 -0.1351 -0.4072  0.2471
 7565SOL    HW134157   4.647   0.080   4.998 -1.7493  3.0303 -0.5078
 7565SOL    HW234158   0.009   0.121   5.108  1.6227 -0.2428  0.2197
 7566SOL     OW34159   0.953   2.463   8.142 -0.2777 -0.1010  0.3978
 7566SOL    HW134160   0.885   2.479   8.076 -0.3697  0.0605  0.5302
 7566SOL    HW234161   1.028   2.473   8.083 -1.7394  0.9602 -1.2965
 7567SOL     OW34162   4.217   0.896   2.304  0.3243  0.3648 -0.2661
 7567SOL    HW134163   4.302   0.937   2.289  1.5936 -1.5231  1.6831
 7567SOL    HW234164   4.175   0.950   2.371  1.0520 -0.4094  0.8059
 7568SOL     OW34165   0.517   2.849  15.988 -0.3474  1.2704 -0.5426
 7568SOL    HW134166   0.530   2.782  16.055 -2.6806 -0.2547 -1.6070
 7568SOL    HW234167   0.605   2.842  15.952  0.2826 -1.4089  1.4670
 7569SOL     OW34168   2.595   4.507   2.275 -0.3677  0.4535  0.4494
 7569SOL    HW134169   2.653   4.505   2.352 -0.3717  0.3515  0.4496
 7569SOL    HW234170   2.520   4.551   2.316 -1.3560 -0.2207 -0.6523
 7570SOL     OW34171   4.348   3.400   2.608 -0.0964 -0.0747  0.0106
 7570SOL    HW134172   4.442   3.393   2.621 -0.0076 -1.1748 -1.2589
 7570SOL    HW234173   4.326   3.335   2.541 -0.5917 -0.3164  0.4088
 7571SOL     OW34174   4.360   1.663  10.179  0.6037  0.2387 -0.2386
 7571SOL    HW134175   4.292   1.596  10.178  0.7483  0.0906 -0.2397
 7571SOL    HW234176   4.305   1.739  10.195  1.1009  0.7841 -1.1094
 7572SOL     OW34177   4.665   0.426   7.779 -0.2333 -0.1058  0.0559
 7572SOL    HW134178   4.603   0.432   7.852  0.0238 -1.9306  0.4125
 7572SOL    HW234179   4.671   0.331   7.772 -1.2114 -0.1275 -0.4339
 7573SOL     OW34180   2.479   4.136   2.537  0.5424 -0.1906 -0.6053
 7573SOL    HW134181   2.408   4.172   2.484  1.2577  1.7333 -0.2766
 7573SOL    HW234182   2.471   4.194   2.614 -0.6591  3.4869 -3.4943
 7574SOL     OW34183   2.180   2.398   0.165  0.2172 -0.5455 -0.4748
 7574SOL    HW134184   2.149   2.312   0.136  0.0417 -0.7833  0.4147
 7574SOL    HW234185   2.114   2.452   0.121 -0.2974  2.1433  3.5455
 7575SOL     OW34186   1.024   4.100   5.293  0.5397  0.1715  0.0129
 7575SOL    HW134187   1.013   4.015   5.336  3.0393 -0.3664 -0.3995
 7575SOL    HW234188   0.999   4.160   5.364  0.9181 -0.7490  0.9208
 7576SOL     OW34189   3.781   3.964  17.023 -0.1420  0.4234 -0.4508
 7576SOL    HW134190   3.806   3.914  17.100  2.0842  1.5447 -0.4482
 7576SOL    HW234191   3.775   4.049  17.066 -2.5874  0.5134 -0.9702
 7577SOL     OW34192   0.046   0.524   6.046 -0.1519 -0.2690 -0.3584
 7577SOL    HW134193   0.116   0.589   6.046 -1.7152  1.4050  0.3567
 7577SOL    HW234194   0.087   0.454   6.096  0.8138 -0.9109 -2.0219
 7578SOL     OW34195   4.343   3.587   4.222 -0.3246  0.2143 -0.0651
 7578SOL    HW134196   4.295   3.559   4.300 -0.6838  0.8370 -0.0608
 7578SOL    HW234197   4.411   3.520   4.219 -1.8649 -1.4469  1.8850
 7579SOL     OW34198   1.449   1.365   9.843 -0.2691 -0.7551 -0.0380
 7579SOL    HW134199   1.365   1.401   9.815  0.6373  0.8987 -0.6487
 7579SOL    HW234200   1.458   1.393   9.934 -0.2120  0.2113 -0.3405
 7580SOL     OW34201   0.828   1.918   4.193  0.4024 -0.1415  0.2154
 7580SOL    HW134202   0.902   1.864   4.222  0.2014  0.1705  1.3070
 7580SOL    HW234203   0.800   1.853   4.128 -0.1936  0.1604  0.1779
 7581SOL     OW34204   1.852   0.958   9.141 -0.1166 -0.5425 -0.3532
 7581SOL    HW134205   1.916   0.947   9.070  0.0653 -1.2054 -0.0936
 7581SOL    HW234206   1.781   0.988   9.084  1.4188  1.8895 -0.9855
 7582SOL     OW34207   1.772   2.292   4.162  0.1523 -0.5068 -0.7791
 7582SOL    HW134208   1.855   2.322   4.124 -0.7418  1.8331 -0.8677
 7582SOL    HW234209   1.791   2.198   4.173  2.0086  0.2034  2.1218
 7583SOL     OW34210   0.937   0.187  15.337 -0.2428  0.3140  0.0502
 7583SOL    HW134211   0.865   0.128  15.317 -2.1747  2.0165  1.9336
 7583SOL    HW234212   0.894   0.260  15.383 -1.4683  0.5192 -1.4318
 7584SOL     OW34213   1.180   1.246   2.143  0.0908  0.0450 -0.1067
 7584SOL    HW134214   1.085   1.256   2.149  0.1778  1.1936 -0.7571
 7584SOL    HW234215   1.190   1.191   2.066  1.0498  1.3911 -0.9356
 7585SOL     OW34216   2.703   0.839   2.987  0.7507 -0.1041 -0.5839
 7585SOL    HW134217   2.738   0.878   3.067 -0.6910  0.1544 -0.0741
 7585SOL    HW234218   2.616   0.811   3.017  1.7351  0.4925  2.8484
 7586SOL     OW34219   4.273   0.872   3.485 -0.0280 -0.5547 -0.3147
 7586SOL    HW134220   4.275   0.836   3.574  2.4380  0.9232  0.2105
 7586SOL    HW234221   4.198   0.928   3.505 -0.8913 -2.3007  1.3233
 7587SOL     OW34222   3.483   0.416  14.621 -0.2232 -0.3574 -0.6035
 7587SOL    HW134223   3.522   0.347  14.675  0.3006 -1.4875 -2.3999
 7587SOL    HW234224   3.561   0.429  14.568 -0.9309  0.4063 -1.4548
 7588SOL     OW34225   4.328   2.070   4.217 -0.2649 -0.4259 -0.4405
 7588SOL    HW134226   4.422   2.091   4.214  0.3639 -3.2661 -0.3971
 7588SOL    HW234227   4.337   1.977   4.236  1.1228 -0.6578 -2.1513
 7589SOL     OW34228   2.364   0.800   6.717 -0.1059  0.3118  0.7134
 7589SOL    HW134229   2.289   0.799   6.658 -0.5489  1.0315  1.2722
 7589SOL    HW234230   2.370   0.885   6.760  0.2762 -0.9192  3.1030
 7590SOL     OW34231   0.766   1.017   9.298  0.2238 -0.2726 -0.0640
 7590SOL    HW134232   0.777   1.112   9.299  1.7107 -0.4823  2.7721
 7590SOL    HW234233   0.775   0.991   9.206 -0.5298  1.3348 -0.6013
 7591SOL     OW34234   4.315   1.085   4.468 -0.3161  0.2932 -0.0496
 7591SOL    HW134235   4.401   1.124   4.454 -0.4299  1.6690  3.1415
 7591SOL    HW234236   4.256   1.153   4.436 -0.1589  1.0301  1.2322
 7592SOL     OW34237   4.579   1.016   4.302 -0.6158 -0.3990  0.2082
 7592SOL    HW134238   4.585   1.101   4.347 -3.8984  0.4265 -0.9667
 7592SOL    HW234239   4.670   0.998   4.325 -0.4197 -0.4631 -0.6172
 7593SOL     OW34240   4.170   1.299   4.340 -0.1841 -0.1040  0.2673
 7593SOL    HW134241   4.159   1.388   4.374  1.6767  0.3804 -0.3661
 7593SOL    HW234242   4.159   1.315   4.246  1.2014  2.0622  0.4502
 7594SOL     OW34243   2.564   3.795   2.602 -0.1890 -0.0875 -0.0968
 7594SOL    HW134244   2.499   3.854   2.562  0.8589 -0.5544 -2.4940
 7594SOL    HW234245   2.541   3.818   2.692  0.2968 -0.8891  0.2237
 7595SOL     OW34246   1.295   2.591   2.052 -0.1346 -0.0504  0.1954
 7595SOL    HW134247   1.350   2.572   1.976 -0.9173  3.4950 -1.2689
 7595SOL    HW234248   1.204   2.578   2.025 -0.0253  0.5545 -0.4714
 7596SOL     OW34249   3.795   0.914   8.735  0.4173 -0.3755 -0.0831
 7596SOL    HW134250   3.759   0.914   8.824  1.2651  0.2346  0.2575
 7596SOL    HW234251   3.718   0.890   8.682  0.2486  0.4594 -0.2088
 7597SOL     OW34252   3.894   0.966   7.085 -0.5745 -0.4404  0.2054
 7597SOL    HW134253   3.844   1.011   7.153 -1.3379 -0.4734 -0.3305
 7597SOL    HW234254   3.827   0.910   7.047  0.6940 -0.3846 -2.1573
 7598SOL     OW34255   3.376   4.693   3.255  0.3102 -0.6240  0.2288
 7598SOL    HW134256   3.392   4.663   3.345  0.4985 -1.1539  0.0153
 7598SOL    HW234257   3.282   4.704   3.243  0.4041  0.0611  0.0871
 7599SOL     OW34258   1.588   1.987  11.991 -0.2419  0.2904  0.4305
 7599SOL    HW134259   1.597   2.020  11.902  0.7276  0.4051  0.5694
 7599SOL    HW234260   1.520   2.043  12.028 -0.4020  0.9427 -0.8810
 7600SOL     OW34261   4.241   0.105   0.399 -0.7383  0.0322  0.2208
 7600SOL    HW134262   4.146   0.097   0.413 -1.0613  0.2923 -1.7786
 7600SOL    HW234263   4.277   0.016   0.394 -2.7938 -0.8469  0.9786
 7601SOL     OW34264   2.144   2.167   3.692  0.6216  0.2801 -0.1099
 7601SOL    HW134265   2.075   2.108   3.660  2.2793 -0.8366 -1.6755
 7601SOL    HW234266   2.206   2.104   3.729 -0.1559  0.4194  1.4083
 7602SOL     OW34267   2.125   3.359   8.331  0.0315 -0.2074  1.1358
 7602SOL    HW134268   2.140   3.448   8.362  1.9091 -0.8987  2.1773
 7602SOL    HW234269   2.040   3.363   8.287 -0.4953 -1.0800  2.0877
 7603SOL     OW34270   0.811   0.768   5.783 -0.8064 -0.5401 -0.2556
 7603SOL    HW134271   0.815   0.672   5.785 -0.6708 -0.5433 -0.6101
 7603SOL    HW234272   0.779   0.791   5.870  0.2353 -1.0208  0.2590
 7604SOL     OW34273   2.040   2.302  15.250  0.5119 -0.0650 -0.3051
 7604SOL    HW134274   1.982   2.376  15.232  1.4960  0.6860 -0.4286
 7604SOL    HW234275   2.084   2.317  15.334  2.0862 -2.6998 -0.6390
 7605SOL     OW34276   3.476   0.838   1.767  0.0736 -0.7229 -1.0532
 7605SOL    HW134277   3.557   0.811   1.809 -0.1917  1.0974  0.5900
 7605SOL    HW234278   3.450   0.896   1.839  1.3602 -1.5559  0.0786
 7606SOL     OW34279   0.756   0.215   7.204 -0.0100 -0.0477 -0.0546
 7606SOL    HW134280   0.820   0.208   7.134 -0.0802 -0.7452 -0.0468
 7606SOL    HW234281   0.781   0.299   7.242 -1.9375  0.3273  0.3984
 7607SOL     OW34282   4.347   0.451   3.953 -0.1505  0.3411 -0.1343
 7607SOL    HW134283   4.293   0.423   3.879 -0.3762  1.1554 -0.2810
 7607SOL    HW234284   4.311   0.538   3.970 -2.3198 -0.6805  0.5443
 7608SOL     OW34285   1.167   2.496   0.334  0.3157 -0.2517  0.1501
 7608SOL    HW134286   1.107   2.482   0.261 -1.2715 -0.1564  1.4384
 7608SOL    HW234287   1.199   2.407   0.349 -3.8079 -2.0853 -2.1843
 7609SOL     OW34288   4.672   1.591   4.862  0.4101  0.3665  0.1801
 7609SOL    HW134289   4.674   1.498   4.842 -0.6910  0.0480  1.5777
 7609SOL    HW234290   4.619   1.616   4.787  0.3575  1.1647  0.4832
 7610SOL     OW34291   1.152   3.987   6.951  0.1892 -0.9783 -0.2644
 7610SOL    HW134292   1.122   3.910   6.901 -0.9812 -0.1180 -0.9069
 7610SOL    HW234293   1.102   3.966   7.030 -3.6204  1.5725 -1.9936
 7611SOL     OW34294   3.214   3.747   7.152  0.5248  0.1924  0.1508
 7611SOL    HW134295   3.157   3.787   7.086  1.7599  2.8777  0.7401
 7611SOL    HW234296   3.191   3.799   7.228 -0.3645 -0.5622  0.4121
 7612SOL     OW34297   4.687   1.784   7.970 -0.0874  0.3879  0.1706
 7612SOL    HW134298   4.641   1.856   7.929  0.3546  0.4115 -0.2787
 7612SOL    HW234299   0.042   1.770   7.918  0.2991  2.2249  0.2720
 7613SOL     OW34300   3.020   0.601   1.479 -0.0195 -0.2383 -0.5780
 7613SOL    HW134301   3.087   0.542   1.445 -1.5627 -0.8476 -2.5285
 7613SOL    HW234302   2.959   0.536   1.514  0.9477 -0.3969  0.8113
 7614SOL     OW34303   3.689   1.419   7.346 -0.4870  0.1487 -0.3833
 7614SOL    HW134304   3.651   1.505   7.330 -2.4780 -0.6724 -0.1457
 7614SOL    HW234305   3.779   1.429   7.316 -0.6192 -2.5818 -1.7233
 7615SOL     OW34306   2.069   2.866   9.140 -0.1857 -0.2772  0.0056
 7615SOL    HW134307   2.051   2.863   9.046 -0.4845  2.8337 -0.0140
 7615SOL    HW234308   2.157   2.902   9.136  0.3169 -1.7571 -2.5039
 7616SOL     OW34309   1.404   2.503  14.442 -0.3152 -0.5559  0.0674
 7616SOL    HW134310   1.318   2.509  14.399 -1.6412 -0.0431  2.8037
 7616SOL    HW234311   1.467   2.468  14.379 -1.8581  1.7049 -2.7722
 7617SOL     OW34312   3.654   3.096  16.899 -0.3573  0.3673  0.0084
 7617SOL    HW134313   3.628   3.109  16.990 -0.4459 -0.6339  0.1178
 7617SOL    HW234314   3.717   3.025  16.910  0.2855  0.9905  0.3363
 7618SOL     OW34315   1.489   0.187   2.874 -0.0479 -0.1027  0.2776
 7618SOL    HW134316   1.412   0.224   2.916 -0.0899  0.9216 -0.6900
 7618SOL    HW234317   1.433   0.155   2.803  0.0481  2.3952 -0.9364
 7619SOL     OW34318   1.895   3.297  10.126  0.0851 -0.4483 -0.1031
 7619SOL    HW134319   1.889   3.317  10.220  1.8096 -0.5500  0.0372
 7619SOL    HW234320   1.818   3.341  10.091 -0.1743  0.6554  1.8541
 7620SOL     OW34321   2.194   1.450  17.162  0.3005  0.6093  0.2898
 7620SOL    HW134322   2.237   1.514  17.219  0.3493  3.4623 -2.9241
 7620SOL    HW234323   2.198   1.368  17.211  2.2498  1.0419  0.8567
 7621SOL     OW34324   1.185   3.442  15.758  0.0069  0.3555 -0.8014
 7621SOL    HW134325   1.135   3.474  15.683  1.6283  1.6683 -1.3217
 7621SOL    HW234326   1.209   3.353  15.730  0.9514  0.8174 -1.4742
 7622SOL     OW34327   1.696   3.903  10.675 -0.7812  0.3617 -0.1023
 7622SOL    HW134328   1.601   3.908  10.669 -0.8697  1.1877  2.0440
 7622SOL    HW234329   1.703   3.816  10.714  2.4490  0.4508 -0.4941
 7623SOL     OW34330   4.241   1.201   3.537 -0.5056 -0.1295 -0.3368
 7623SOL    HW134331   4.218   1.204   3.630 -0.1159 -0.1143 -0.2413
 7623SOL    HW234332   4.155   1.197   3.497 -1.1335  2.3699  0.7369
 7624SOL     OW34333   2.670   2.568  17.577  0.3413  0.1042  0.1335
 7624SOL    HW134334   2.620   2.486  17.583  1.9115 -0.8375  0.2419
 7624SOL    HW234335   2.613   2.604  17.509 -0.5874  0.7516  1.2449
 7625SOL     OW34336   1.199   1.550  14.890 -0.1598 -0.0698 -0.6766
 7625SOL    HW134337   1.110   1.575  14.867 -1.0165 -1.8173  0.7710
 7625SOL    HW234338   1.220   1.628  14.942  1.0959  0.2006 -1.5980
 7626SOL     OW34339   1.679   3.574  13.744  0.5168 -0.3732 -0.7763
 7626SOL    HW134340   1.679   3.661  13.785  1.3832 -1.3973  1.3687
 7626SOL    HW234341   1.718   3.516  13.809  0.4823  0.7462  0.2497
 7627SOL     OW34342   3.283   0.216  14.608  0.3436 -0.0370 -0.1384
 7627SOL    HW134343   3.315   0.306  14.617  3.2677 -1.1044  0.0331
 7627SOL    HW234344   3.215   0.225  14.541 -0.4573  2.0941  0.9417
 7628SOL     OW34345   2.561   2.259   6.154 -0.1339 -0.7387  0.3952
 7628SOL    HW134346   2.535   2.269   6.062  0.6457  1.7737  0.4443
 7628SOL    HW234347   2.656   2.259   6.149 -0.2357 -0.4304 -1.5401
 7629SOL     OW34348   3.104   2.627  15.898  0.0000  0.4172 -0.5250
 7629SOL    HW134349   3.033   2.667  15.847 -0.3049 -1.1934 -1.3391
 7629SOL    HW234350   3.178   2.633  15.838 -0.4586 -0.1238 -1.1361
 7630SOL     OW34351   4.036   0.602   4.101  0.4321 -0.6285 -0.5331
 7630SOL    HW134352   3.998   0.543   4.035  2.0046  1.4867 -3.3022
 7630SOL    HW234353   3.962   0.609   4.161  1.5110 -2.2783  1.0063
 7631SOL     OW34354   1.693   4.139  11.442  0.7519  0.3638 -0.2123
 7631SOL    HW134355   1.713   4.127  11.349 -0.7870 -1.9080 -0.2650
 7631SOL    HW234356   1.625   4.204  11.425  1.4452  1.7942  2.5714
 7632SOL     OW34357   2.185   1.536   2.619 -0.6623  0.1990  0.3160
 7632SOL    HW134358   2.140   1.457   2.587  0.2594 -1.0089  2.0393
 7632SOL    HW234359   2.116   1.602   2.607 -2.0247 -1.0692  1.0931
 7633SOL     OW34360   4.064   2.421  12.715 -0.5119  0.4112 -0.3913
 7633SOL    HW134361   4.033   2.404  12.803 -3.0687 -2.6412 -1.8851
 7633SOL    HW234362   4.112   2.502  12.736  1.3361 -0.7690 -0.0943
 7634SOL     OW34363   1.801   3.000  10.467  0.2498  0.1360 -0.0771
 7634SOL    HW134364   1.714   2.968  10.492 -0.6610  1.6179 -1.3991
 7634SOL    HW234365   1.779   3.086  10.433  0.3167 -0.4218 -1.5327
 7635SOL     OW34366   2.885   1.644   9.039  0.2081  0.4852  0.1418
 7635SOL    HW134367   2.842   1.626   9.122  0.8347  1.8979  0.7845
 7635SOL    HW234368   2.908   1.737   9.047  0.1306  0.8502 -3.7908
 7636SOL     OW34369   2.120   3.025   6.540  0.1719  0.0320  0.2817
 7636SOL    HW134370   2.112   2.936   6.506 -0.4583  0.3077 -0.3054
 7636SOL    HW234371   2.077   3.076   6.471  0.1594 -0.1204  0.1762
 7637SOL     OW34372   2.326   3.395   3.724 -0.4788 -0.2974  0.3943
 7637SOL    HW134373   2.308   3.305   3.753  0.2064  0.1653  2.2281
 7637SOL    HW234374   2.403   3.419   3.776 -0.1904 -1.6858  0.6075
 7638SOL     OW34375   0.866   1.093  11.603 -0.0140 -0.0527 -0.0435
 7638SOL    HW134376   0.879   1.148  11.525  0.0971  0.1120  0.0910
 7638SOL    HW234377   0.855   1.005  11.569  1.4205 -0.9522  1.8658
 7639SOL     OW34378   3.732   2.024   7.674  0.0107 -0.1471  0.3187
 7639SOL    HW134379   3.699   1.991   7.757 -0.1872  0.4716  0.4868
 7639SOL    HW234380   3.767   1.941   7.641 -1.9166 -0.0895 -1.8822
 7640SOL     OW34381   2.857   3.328  10.474  0.1605 -0.1268 -0.2602
 7640SOL    HW134382   2.863   3.410  10.523 -2.1935 -0.4679  0.5964
 7640SOL    HW234383   2.871   3.260  10.540 -2.6454  0.9909  1.4895
 7641SOL     OW34384   3.884   2.011   3.223 -0.0218 -0.3194  0.1091
 7641SOL    HW134385   3.908   2.090   3.272  2.3996 -1.2864  0.5056
 7641SOL    HW234386   3.823   2.038   3.154 -0.2358  0.7277  0.7130
 7642SOL     OW34387   0.380   3.387   4.953 -0.1199  0.1971 -0.2012
 7642SOL    HW134388   0.354   3.444   5.026 -0.6089  0.3547 -0.4985
 7642SOL    HW234389   0.298   3.347   4.925 -1.4019  0.3852  3.3083
 7643SOL     OW34390   2.734   3.912   5.393 -0.3224  0.1956  0.0874
 7643SOL    HW134391   2.747   4.001   5.427 -0.2300  1.3550 -3.0570
 7643SOL    HW234392   2.660   3.929   5.335  0.2784 -2.8780 -1.5750
 7644SOL     OW34393   2.282   2.217   1.776 -0.1992 -0.2563  0.3081
 7644SOL    HW134394   2.227   2.161   1.830 -0.8801  1.3016  1.2393
 7644SOL    HW234395   2.357   2.215   1.836  1.8863  0.6648 -2.2413
 7645SOL     OW34396   2.667   0.682   8.508 -0.5032 -0.0115  0.1403
 7645SOL    HW134397   2.668   0.712   8.417 -0.6652 -0.3128  0.0388
 7645SOL    HW234398   2.575   0.685   8.536 -0.6961  2.5226 -0.8157
 7646SOL     OW34399   3.128   1.996   4.937  0.6445 -0.0257 -0.2710
 7646SOL    HW134400   3.186   2.072   4.930  1.3528 -0.4417  1.1481
 7646SOL    HW234401   3.125   1.970   4.845  1.5145 -0.7243 -0.1103
 7647SOL     OW34402   2.958   4.655   7.370  0.8360  0.1706 -0.6928
 7647SOL    HW134403   2.951   4.588   7.438  1.2521  0.9836  0.1516
 7647SOL    HW234404   3.054   4.652   7.362  0.7802  1.5652 -1.8377
 7648SOL     OW34405   1.836   1.355  17.195 -0.1201 -0.1280 -0.8709
 7648SOL    HW134406   1.844   1.274  17.145 -1.5385 -1.0048  0.3034
 7648SOL    HW234407   1.894   1.329  17.266  0.1344  1.1173 -0.6223
 7649SOL     OW34408   1.728   4.058   4.920 -0.1613  0.4232 -0.2572
 7649SOL    HW134409   1.687   4.139   4.892  0.6242  0.2037 -2.0379
 7649SOL    HW234410   1.698   3.992   4.857 -1.8821  0.9302  0.0547
 7650SOL     OW34411   4.199   3.783   3.406 -0.3784 -0.2787  0.0107
 7650SOL    HW134412   4.128   3.763   3.345  0.9670 -1.5648 -1.1312
 7650SOL    HW234413   4.188   3.711   3.468  0.8549  0.7447  1.4164
 7651SOL     OW34414   0.184   0.788   1.645  0.2334 -0.7058 -0.2311
 7651SOL    HW134415   0.192   0.862   1.705  1.2343 -1.2402  0.2974
 7651SOL    HW234416   0.253   0.730   1.678  1.3876 -0.0394 -1.4838
 7652SOL     OW34417   0.212   0.671   3.117  0.4729  0.0588  0.1574
 7652SOL    HW134418   0.178   0.638   3.033  1.3792  1.0886 -0.6022
 7652SOL    HW234419   0.171   0.604   3.172  0.1316 -2.2110 -2.8045
 7653SOL     OW34420   2.820   4.510   1.817  0.2451 -0.3735  0.1047
 7653SOL    HW134421   2.777   4.425   1.812 -1.4990  0.4585  0.8823
 7653SOL    HW234422   2.783   4.550   1.895  1.3319 -0.0919  0.4779
 7654SOL     OW34423   3.072   3.803   6.950 -0.0219 -0.3668 -0.1516
 7654SOL    HW134424   3.028   3.850   6.879  0.8612  2.6215  1.2717
 7654SOL    HW234425   3.098   3.728   6.896  2.3627 -0.9826  1.8336
 7655SOL     OW34426   3.085   0.508   1.867 -0.1759  0.0334 -0.4186
 7655SOL    HW134427   3.017   0.463   1.816 -1.0199  2.4985 -1.4808
 7655SOL    HW234428   3.148   0.533   1.800 -0.3509 -0.3830 -0.7398
 7656SOL     OW34429   1.906   3.017   7.029  0.3221 -0.3632 -0.0053
 7656SOL    HW134430   1.934   3.097   7.074  2.0072 -0.1285 -1.4890
 7656SOL    HW234431   1.955   3.007   6.947  0.2965  0.1155 -0.0806
 7657SOL     OW34432   3.426   0.281   6.180  0.0954 -0.3651 -0.2540
 7657SOL    HW134433   3.495   0.224   6.147  1.7921  1.3530  0.2783
 7657SOL    HW234434   3.455   0.367   6.149  2.5567 -0.8049  0.8518
 7658SOL     OW34435   0.589   0.637   5.485  0.8795 -0.0468 -0.7268
 7658SOL    HW134436   0.527   0.656   5.555 -2.4218 -4.3848 -2.4832
 7658SOL    HW234437   0.548   0.673   5.407 -0.1826 -0.0335 -0.1587
 7659SOL     OW34438   4.033   1.904   5.640  0.6761 -0.1079  0.1008
 7659SOL    HW134439   4.106   1.885   5.582  0.1420 -0.2401 -0.5311
 7659SOL    HW234440   3.960   1.899   5.577 -1.1771 -1.9374  2.3985
 7660SOL     OW34441   2.745   4.213   9.284  0.2677  0.4323 -0.0732
 7660SOL    HW134442   2.684   4.285   9.300 -1.5297 -1.3718  1.1888
 7660SOL    HW234443   2.810   4.256   9.230 -0.9091  3.4278  0.9231
 7661SOL     OW34444   2.334   1.225   5.540  0.6459 -0.0239 -1.0497
 7661SOL    HW134445   2.305   1.247   5.629 -0.1999 -1.3338 -1.0167
 7661SOL    HW234446   2.416   1.275   5.539 -0.3976  1.6166 -3.7409
 7662SOL     OW34447   2.888   0.863   7.973  0.4742  0.1265  0.4427
 7662SOL    HW134448   2.883   0.954   8.002 -0.0781  0.3781 -0.4287
 7662SOL    HW234449   2.943   0.841   8.048 -1.6614 -0.9484  1.6825
 7663SOL     OW34450   3.771   3.328   2.966 -0.4265  0.4460  0.2818
 7663SOL    HW134451   3.737   3.238   2.964  0.3824  0.1596 -0.9404
 7663SOL    HW234452   3.758   3.353   3.057  1.3884 -1.9729  1.2239
 7664SOL     OW34453   2.335   1.345   6.439 -0.1194  0.1100 -0.2171
 7664SOL    HW134454   2.298   1.320   6.523 -2.4894  0.1459 -1.2448
 7664SOL    HW234455   2.270   1.322   6.372  0.3465  2.1342 -1.3636
 7665SOL     OW34456   3.522   4.627   3.038  0.4516 -0.0324  0.3419
 7665SOL    HW134457   3.465   4.656   3.109  1.2982 -0.1744  1.0768
 7665SOL    HW234458   3.598   4.609   3.094  1.4060  1.1835 -0.5542
 7666SOL     OW34459   0.236   0.622  14.506  0.1159 -0.2567  0.9044
 7666SOL    HW134460   0.208   0.664  14.587  1.0060  0.7990  0.6592
 7666SOL    HW234461   0.222   0.536  14.545 -2.5772 -1.4581 -2.5751
 7667SOL     OW34462   4.499   1.270  14.332  0.5593  0.2930  0.4843
 7667SOL    HW134463   4.492   1.198  14.270  0.5009  0.0566  0.7637
 7667SOL    HW234464   4.515   1.349  14.280 -0.9687  0.2156 -0.0957
 7668SOL     OW34465   3.337   1.652   3.459 -0.5695 -0.4663 -0.1695
 7668SOL    HW134466   3.354   1.569   3.415 -1.2411 -0.4335 -0.4887
 7668SOL    HW234467   3.270   1.632   3.524  2.8324 -0.6322  3.2793
 7669SOL     OW34468   2.389   3.488   5.654  0.4383  0.2044 -0.3783
 7669SOL    HW134469   2.300   3.453   5.654  0.5092  0.0108  0.8462
 7669SOL    HW234470   2.371   3.537   5.734 -0.9801 -3.6043  1.6282
 7670SOL     OW34471   0.526   0.593   2.399  0.1177  0.1067 -0.6509
 7670SOL    HW134472   0.618   0.565   2.391 -0.0679  0.5215 -4.2833
 7670SOL    HW234473   0.493   0.563   2.314 -0.6283  1.0303 -0.6801
 7671SOL     OW34474   4.463   0.643   7.271  0.5981 -0.0131 -0.2007
 7671SOL    HW134475   4.377   0.618   7.237  0.5431 -0.8177  0.5337
 7671SOL    HW234476   4.457   0.607   7.359 -3.2387  0.0634 -0.4616
 7672SOL     OW34477   0.828   2.633   0.686 -0.0813  0.1916  0.0058
 7672SOL    HW134478   0.844   2.540   0.671  0.1216  0.2442 -0.1089
 7672SOL    HW234479   0.796   2.664   0.601 -0.6497 -1.0412 -0.2241
 7673SOL     OW34480   3.825   0.607   1.667 -0.1152  0.0029  0.0988
 7673SOL    HW134481   3.846   0.665   1.594 -2.3583  0.6012 -0.0698
 7673SOL    HW234482   3.783   0.665   1.731 -0.3604 -0.0851  0.0187
 7674SOL     OW34483   2.362   1.318   4.273 -0.1403 -0.7259  0.0971
 7674SOL    HW134484   2.408   1.352   4.350  0.0753  2.0573 -1.2832
 7674SOL    HW234485   2.343   1.397   4.223 -1.6333 -1.3053 -0.2427
 7675SOL     OW34486   3.959   0.226   1.068 -0.3477  0.1810 -0.3552
 7675SOL    HW134487   4.036   0.257   1.020 -0.1538  2.6792  1.5661
 7675SOL    HW234488   3.900   0.236   0.993  0.6172 -1.3736 -1.3286
 7676SOL     OW34489   1.110   3.312   1.886 -0.1440  0.2252 -0.2757
 7676SOL    HW134490   1.087   3.301   1.978 -0.0557 -0.6318 -0.3601
 7676SOL    HW234491   1.126   3.220   1.868 -2.5980 -0.0660 -0.8910
 7677SOL     OW34492   0.256   1.023   4.590 -0.2068  0.3286  0.5178
 7677SOL    HW134493   0.211   1.103   4.618  2.1333  2.3724 -1.5214
 7677SOL    HW234494   0.348   1.049   4.585 -0.7241  1.5596 -2.7318
 7678SOL     OW34495   2.672   4.671   4.157  0.6873  0.0467  0.6099
 7678SOL    HW134496   2.745   4.701   4.103  0.8560 -0.6708  0.4399
 7678SOL    HW234497   2.688   4.577   4.146  0.5258  0.1640 -0.6997
 7679SOL     OW34498   3.709   0.716   2.636  0.5451  0.1851 -0.2143
 7679SOL    HW134499   3.616   0.700   2.622  0.4947  0.1601  0.1592
 7679SOL    HW234500   3.747   0.701   2.549  1.0915  0.6087 -0.0552
 7680SOL     OW34501   2.204   3.978   0.504  0.1271 -0.3118 -0.0996
 7680SOL    HW134502   2.124   4.016   0.540 -0.2168 -1.0150 -0.1251
 7680SOL    HW234503   2.256   4.054   0.476  0.7109 -0.8619 -0.5147
 7681SOL     OW34504   1.870   2.672   4.012  0.0140 -0.5955 -0.0650
 7681SOL    HW134505   1.888   2.648   3.920  0.2160 -1.3083  0.1576
 7681SOL    HW234506   1.958   2.652   4.043  0.4731 -1.9270 -2.1790
 7682SOL     OW34507   3.247   1.052   3.861 -0.1465  0.0428 -0.4875
 7682SOL    HW134508   3.297   0.980   3.823  1.2133  0.4425  0.5350
 7682SOL    HW234509   3.252   1.019   3.951  1.9499  1.0370 -0.2313
 7683SOL     OW34510   3.563   3.217  13.890 -0.1589  0.0967  0.0584
 7683SOL    HW134511   3.599   3.219  13.801  1.3662 -0.2751  0.6616
 7683SOL    HW234512   3.529   3.127  13.887  0.7300 -0.2617  0.6938
 7684SOL     OW34513   4.053   1.299  15.116  0.1085 -0.2656 -0.0812
 7684SOL    HW134514   4.039   1.382  15.161 -1.0013 -0.5250  0.0353
 7684SOL    HW234515   3.962   1.271  15.107 -0.3966  1.5548 -0.4468
 7685SOL     OW34516   0.550   1.162   6.489 -0.5476  0.1305  0.5611
 7685SOL    HW134517   0.505   1.241   6.459  0.6154  0.9578  1.0196
 7685SOL    HW234518   0.579   1.191   6.576 -2.2022 -1.0472  1.5020
 7686SOL     OW34519   2.003   2.694   7.389  0.2172  0.1360 -0.5960
 7686SOL    HW134520   2.061   2.756   7.433 -0.5081  0.8370 -0.6220
 7686SOL    HW234521   2.011   2.730   7.301 -2.5443  0.9046 -0.5345
 7687SOL     OW34522   0.705   2.259   6.248  0.1907  0.1256 -0.0594
 7687SOL    HW134523   0.626   2.209   6.271  1.0096 -1.0387  0.2208
 7687SOL    HW234524   0.689   2.334   6.305  2.0888  0.2785  0.2706
 7688SOL     OW34525   0.181   1.633  10.443 -0.2476  0.1918 -0.0459
 7688SOL    HW134526   0.089   1.645  10.466  0.5218  2.2869  1.9410
 7688SOL    HW234527   0.215   1.722  10.441 -0.6220  0.3390  0.1673
 7689SOL     OW34528   1.497   1.698   5.480 -0.4959 -0.1040  0.1846
 7689SOL    HW134529   1.473   1.606   5.489 -2.1911  0.0018 -3.3404
 7689SOL    HW234530   1.411   1.732   5.505  0.7539  3.3196 -0.1297
 7690SOL     OW34531   0.023   2.192   7.982 -0.0008 -0.1259  0.3178
 7690SOL    HW134532   4.714   2.185   8.071  0.4643  0.1292  0.5058
 7690SOL    HW234533   0.086   2.121   7.979 -0.2050 -0.2439 -1.7054
 7691SOL     OW34534   1.788   2.895   6.399  0.5365  0.2045  0.1727
 7691SOL    HW134535   1.768   2.984   6.370  0.0991  0.9271  2.6326
 7691SOL    HW234536   1.880   2.875   6.380  0.6505 -1.0089  2.0347
 7692SOL     OW34537   1.921   4.512   9.658  0.2491  0.3507  0.3970
 7692SOL    HW134538   1.907   4.481   9.568  1.6562 -0.8909  0.6011
 7692SOL    HW234539   1.916   4.430   9.707 -1.2928 -1.7765 -3.3037
 7693SOL     OW34540   3.070   1.316   1.694 -0.0400 -0.2044  0.2113
 7693SOL    HW134541   3.081   1.279   1.606  2.9609 -0.7474  0.7961
 7693SOL    HW234542   3.016   1.251   1.739 -1.5228  0.2574 -0.9108
 7694SOL     OW34543   1.203   4.700   8.877 -0.1946 -0.4277  0.5492
 7694SOL    HW134544   1.240   4.720   8.963  1.5045 -0.1084 -0.2403
 7694SOL    HW234545   1.284   4.664   8.841 -0.5758  0.2689 -1.0102
 7695SOL     OW34546   4.603   2.937   4.134  0.2390 -0.0317  0.5921
 7695SOL    HW134547   4.680   2.990   4.114  0.9862 -1.7864 -1.1831
 7695SOL    HW234548   4.611   2.926   4.228  0.1884  2.3602  0.8751
 7696SOL     OW34549   1.858   2.712   2.926 -0.3499  0.3668 -0.1518
 7696SOL    HW134550   1.886   2.644   2.866  2.5857  0.3867  1.2007
 7696SOL    HW234551   1.775   2.718   2.878  0.6406 -0.8391 -2.0088
 7697SOL     OW34552   0.961   0.666   5.568 -1.1974 -0.0515 -0.2719
 7697SOL    HW134553   0.915   0.603   5.512 -0.3877  0.1144 -1.1278
 7697SOL    HW234554   0.892   0.728   5.592  0.4963  1.6757  0.0541
 7698SOL     OW34555   3.200   3.932  11.246  0.2339 -0.2321  0.2631
 7698SOL    HW134556   3.236   4.011  11.206  1.2868 -1.5830 -1.4500
 7698SOL    HW234557   3.109   3.947  11.270  1.2056  0.7568  3.3769
 7699SOL     OW34558   3.759   2.944   8.599 -0.1396  0.2504 -0.3788
 7699SOL    HW134559   3.810   3.005   8.651  0.1729  0.4956 -0.9702
 7699SOL    HW234560   3.674   2.981   8.622 -0.8871 -1.4704 -0.3794
 7700SOL     OW34561   4.159   2.740   5.951  0.5264 -0.2286 -0.4257
 7700SOL    HW134562   4.222   2.803   5.987 -0.6188  0.6222  0.1068
 7700SOL    HW234563   4.155   2.674   6.020  0.6825 -0.0698 -0.2636
 7701SOL     OW34564   3.483   1.845   8.751 -0.0092  0.3448 -0.0612
 7701SOL    HW134565   3.443   1.773   8.799  0.5216 -1.0175 -1.6415
 7701SOL    HW234566   3.435   1.823   8.671  1.8465 -1.1091 -0.7801
 7702SOL     OW34567   0.341   1.071   1.659 -0.4622  0.1761 -0.2235
 7702SOL    HW134568   0.358   1.123   1.581 -2.0291 -0.0088 -0.6809
 7702SOL    HW234569   0.422   1.025   1.681 -0.2453  0.5817 -0.1686
 7703SOL     OW34570   1.505   1.306   2.436 -0.2888  0.1028  0.0171
 7703SOL    HW134571   1.520   1.222   2.480 -1.3157 -0.4440 -0.6642
 7703SOL    HW234572   1.586   1.325   2.389  0.2516 -1.2029  0.4248
 7704SOL     OW34573   1.894   0.944   6.524 -0.1794  0.4540  0.1125
 7704SOL    HW134574   1.896   1.009   6.454 -1.3820  2.3035  1.7744
 7704SOL    HW234575   1.827   0.986   6.579 -1.8668 -2.6102  0.3561
 7705SOL     OW34576   3.467   1.503   1.810  0.0017 -0.6583 -0.3839
 7705SOL    HW134577   3.511   1.517   1.894  0.6935 -1.0459 -0.6809
 7705SOL    HW234578   3.535   1.528   1.747 -0.4382  1.8587  0.1552
 7706SOL     OW34579   4.222   2.504  12.430  0.3899 -0.5494 -0.2978
 7706SOL    HW134580   4.189   2.562  12.362  2.1040  0.8002  0.0320
 7706SOL    HW234581   4.273   2.442  12.377  2.0869  2.1572 -1.8170
 7707SOL     OW34582   0.169   1.826   8.281  0.3051 -0.4078 -0.1023
 7707SOL    HW134583   0.187   1.801   8.371  0.1053  0.3656  0.1484
 7707SOL    HW234584   0.093   1.771   8.263 -0.5942  0.9026 -0.2900
 7708SOL     OW34585   4.005   4.355   6.921  0.3175  0.5370  0.3180
 7708SOL    HW134586   3.916   4.326   6.942  0.0605  0.0471 -1.3965
 7708SOL    HW234587   4.065   4.324   6.988  1.7553  0.8880 -0.8047
 7709SOL     OW34588   1.497   0.486   7.382 -0.2439  0.0477 -0.1287
 7709SOL    HW134589   1.561   0.544   7.342  0.2468  0.5278  1.3451
 7709SOL    HW234590   1.421   0.545   7.377  0.4830  0.9454 -0.7258
 7710SOL     OW34591   0.130   0.466  15.134 -0.0060  0.4556 -0.0919
 7710SOL    HW134592   0.134   0.444  15.041 -0.4027  0.8165 -0.1924
 7710SOL    HW234593   0.075   0.543  15.126 -1.8746 -1.0080 -1.3772
 7711SOL     OW34594   3.882   1.980  15.071 -0.3680 -0.0461  0.1217
 7711SOL    HW134595   3.973   2.007  15.067 -0.2161 -0.1644  2.7289
 7711SOL    HW234596   3.855   2.043  15.139 -0.0459 -0.2790  0.4687
 7712SOL     OW34597   2.865   4.064   4.891  0.4486  0.5524 -0.0036
 7712SOL    HW134598   2.790   4.061   4.951 -0.2918 -1.9023 -1.0623
 7712SOL    HW234599   2.828   4.109   4.816 -1.7707  2.0288  1.9526
 7713SOL     OW34600   0.721   0.766   6.456  0.1163 -0.7598  0.0685
 7713SOL    HW134601   0.771   0.747   6.377  1.6754  0.8771  0.6475
 7713SOL    HW234602   0.737   0.857   6.480  1.1166 -0.4450 -1.8260
 7714SOL     OW34603   2.157   2.575   5.013 -0.3280 -0.3698 -0.3642
 7714SOL    HW134604   2.071   2.589   5.054  0.6686  2.9361  0.6080
 7714SOL    HW234605   2.146   2.480   5.016 -0.7626 -0.3988 -2.9994
 7715SOL     OW34606   1.418   1.338   6.198  0.0735 -0.5958 -0.0363
 7715SOL    HW134607   1.416   1.318   6.104 -1.1725  2.3635 -0.6368
 7715SOL    HW234608   1.328   1.315   6.224 -0.1462  1.0636  0.6575
 7716SOL     OW34609   1.909   0.829   4.648  0.4938 -0.0817  0.5113
 7716SOL    HW134610   1.929   0.818   4.555  0.4589 -1.0162  0.6163
 7716SOL    HW234611   1.982   0.790   4.696  1.4954 -0.7292 -1.5425
 7717SOL     OW34612   1.396   0.930   2.906 -0.5308 -0.4256  0.4200
 7717SOL    HW134613   1.351   0.980   2.974 -0.1825  0.3637  0.0686
 7717SOL    HW234614   1.315   0.884   2.886 -0.9218  0.9091 -1.0799
 7718SOL     OW34615   0.960   3.979   4.603 -0.4449 -0.2474  0.4745
 7718SOL    HW134616   0.955   3.965   4.698 -0.1752 -3.6533 -0.0033
 7718SOL    HW234617   0.950   3.887   4.576 -0.0702 -0.0062 -0.4707
 7719SOL     OW34618   4.247   3.659   6.898  0.2602 -0.3006  0.1378
 7719SOL    HW134619   4.260   3.666   6.803  0.4618  1.0369  0.2648
 7719SOL    HW234620   4.332   3.644   6.939  1.1112 -0.9234 -1.8412
 7720SOL     OW34621   0.794   0.985   8.493  0.0223 -0.3534 -0.0252
 7720SOL    HW134622   0.812   0.892   8.487 -0.2017 -0.3364 -0.9094
 7720SOL    HW234623   0.796   1.022   8.405  1.6436  2.9226  1.3498
 7721SOL     OW34624   1.546   1.556   2.543 -0.4334 -0.0560 -0.0661
 7721SOL    HW134625   1.534   1.473   2.497 -0.4068 -0.2201  0.2244
 7721SOL    HW234626   1.630   1.578   2.501  0.1784 -2.1822  0.0514
 7722SOL     OW34627   2.967   1.121  12.743  0.1574 -0.1361 -0.5797
 7722SOL    HW134628   3.031   1.094  12.809 -1.0766 -1.6965 -0.0348
 7722SOL    HW234629   2.932   1.038  12.712 -0.7274 -0.1472  0.4954
 7723SOL     OW34630   2.629   3.348  10.306  0.2418  0.2590  0.5618
 7723SOL    HW134631   2.707   3.355  10.361  0.5924 -0.0136  0.0998
 7723SOL    HW234632   2.661   3.387  10.226  3.0709 -0.6546  1.2603
 7724SOL     OW34633   1.006   0.670   3.074 -0.2539 -0.0385  0.3467
 7724SOL    HW134634   0.971   0.660   3.162 -1.5910 -1.6636 -0.3673
 7724SOL    HW234635   1.043   0.758   3.083 -1.1220  0.1913  1.5407
 7725SOL     OW34636   0.005   3.897   9.607 -0.1207 -0.2214  0.1063
 7725SOL    HW134637   4.661   3.950   9.564  0.2605  0.5222  0.4217
 7725SOL    HW234638   0.044   3.960   9.668 -0.2946  1.2749 -1.3098
 7726SOL     OW34639   0.146   1.738   4.960  0.6862  0.5970  0.3852
 7726SOL    HW134640   0.083   1.782   5.017  0.8543 -0.0074  1.0407
 7726SOL    HW234641   0.091   1.683   4.905  0.3897 -0.2832  1.5678
 7727SOL     OW34642   2.000   2.295   9.905  0.3332  0.1051  0.1256
 7727SOL    HW134643   2.010   2.328   9.816 -2.1683 -0.2469 -0.3023
 7727SOL    HW234644   2.052   2.361   9.950  1.1198  0.6664 -1.5952
 7728SOL     OW34645   0.299   1.612   3.160  0.2022  0.0886  0.0774
 7728SOL    HW134646   0.276   1.519   3.149  0.2285  0.2199 -1.0857
 7728SOL    HW234647   0.216   1.652   3.188 -0.6501 -1.1176 -0.6885
 7729SOL     OW34648   1.477   0.016  12.122  0.4735  0.2028  0.1808
 7729SOL    HW134649   1.463   0.043  12.213  1.5102  0.1271  0.3696
 7729SOL    HW234650   1.392   0.040  12.086 -0.6087 -2.5606  0.8863
 7730SOL     OW34651   0.818   2.653  10.802 -0.0720 -0.0964 -0.5625
 7730SOL    HW134652   0.869   2.686  10.876 -0.3319  1.0493 -0.8973
 7730SOL    HW234653   0.868   2.683  10.725  1.6844 -0.8566  0.2669
 7731SOL     OW34654   1.158   1.729   3.203 -0.4402 -0.2768 -0.3479
 7731SOL    HW134655   1.112   1.653   3.240 -0.5496  0.4541  1.0486
 7731SOL    HW234656   1.204   1.700   3.125  0.8903  0.1772  0.2758
 7732SOL     OW34657   2.775   3.644   2.515 -0.3939 -0.5266  0.3697
 7732SOL    HW134658   2.791   3.677   2.427  0.2096 -1.1277  0.2518
 7732SOL    HW234659   2.704   3.701   2.545 -1.3129 -0.9805 -0.9103
 7733SOL     OW34660   2.374   2.508   6.233 -0.1676  0.1141 -0.4562
 7733SOL    HW134661   2.382   2.526   6.327  0.4428 -0.1824 -0.4456
 7733SOL    HW234662   2.430   2.432   6.215  1.0475  0.8399  0.2432
 7734SOL     OW34663   1.144   4.095   2.622 -0.4800  0.6661  0.6593
 7734SOL    HW134664   1.134   4.148   2.543  1.8614 -0.1778 -0.2024
 7734SOL    HW234665   1.082   4.023   2.616  0.5130 -0.1951  0.6803
 7735SOL     OW34666   1.503   2.678   6.710  0.4116 -0.2202 -0.2402
 7735SOL    HW134667   1.570   2.742   6.685 -0.3855  0.6637 -0.1279
 7735SOL    HW234668   1.541   2.594   6.686  2.7122  2.0170 -4.3537
 7736SOL     OW34669   3.084   3.515  15.481  0.0029  0.4816  0.3138
 7736SOL    HW134670   3.179   3.508  15.476 -0.0553 -0.8699  1.0602
 7736SOL    HW234671   3.063   3.505  15.388 -0.1922  2.6359  0.1308
 7737SOL     OW34672   1.772   1.240   0.214  0.0018  0.1842 -0.0152
 7737SOL    HW134673   1.746   1.332   0.209  4.1805  1.2404 -1.8311
 7737SOL    HW234674   1.720   1.220   0.292 -2.1511 -0.0490 -1.4959
 7738SOL     OW34675   3.306   4.242   2.740  0.3132  0.1543  0.4083
 7738SOL    HW134676   3.274   4.332   2.739  1.7650  0.6601 -0.7469
 7738SOL    HW234677   3.355   4.225   2.659  0.5572 -0.1775  0.6203
 7739SOL     OW34678   3.497   2.535  11.004  0.4922  0.5355  0.2051
 7739SOL    HW134679   3.482   2.598  11.075  0.6827 -0.8351  1.4497
 7739SOL    HW234680   3.573   2.577  10.963 -1.0618 -0.2148 -3.4158
 7740SOL     OW34681   0.046   1.398   0.767  0.3977  0.3233 -0.1659
 7740SOL    HW134682   0.131   1.358   0.748  1.0327  1.8071 -0.4482
 7740SOL    HW234683   0.075   1.442   0.847 -0.3703 -0.0134  0.3001
 7741SOL     OW34684   3.168   3.882   5.844 -0.4682  0.3923  0.6502
 7741SOL    HW134685   3.259   3.911   5.850  0.2268 -0.8876 -3.4481
 7741SOL    HW234686   3.145   3.922   5.760 -0.4688 -1.5241 -0.2657
 7742SOL     OW34687   0.235   4.210  15.988 -0.4922  0.5462 -0.3233
 7742SOL    HW134688   0.209   4.180  16.075  0.2583  0.7431 -0.0300
 7742SOL    HW234689   0.275   4.133  15.948 -1.3782  0.2272 -0.5962
 7743SOL     OW34690   2.038   4.159  14.908 -0.2367  0.0089  0.0605
 7743SOL    HW134691   2.023   4.252  14.893 -2.2750 -0.1846  0.8847
 7743SOL    HW234692   1.989   4.124  14.834  0.2876  1.3076 -0.8987
 7744SOL     OW34693   2.768   0.335  11.581 -0.4455 -0.7212  0.2976
 7744SOL    HW134694   2.844   0.371  11.628 -0.6953  0.3773 -0.1376
 7744SOL    HW234695   2.788   0.244  11.602 -1.6170 -1.0656 -0.1065
 7745SOL     OW34696   1.437   0.814   9.450 -0.3750 -0.3198 -0.0345
 7745SOL    HW134697   1.521   0.851   9.421 -0.4200 -0.1878  0.0044
 7745SOL    HW234698   1.382   0.884   9.485  2.8072  1.6450  1.1303
 7746SOL     OW34699   1.220   3.384   7.216 -0.3543 -0.1446 -0.9542
 7746SOL    HW134700   1.198   3.473   7.189 -1.7045  0.5356  2.4482
 7746SOL    HW234701   1.295   3.364   7.159  0.8866  0.2613  0.5269
 7747SOL     OW34702   1.934   4.445   0.730 -0.4535  0.4661 -0.2431
 7747SOL    HW134703   1.966   4.529   0.696  0.6681 -0.1921 -0.8103
 7747SOL    HW234704   1.928   4.460   0.824 -2.7787 -1.8700 -0.0226
 7748SOL     OW34705   2.897   4.006   0.436 -0.0561  0.2756  0.0104
 7748SOL    HW134706   2.928   4.085   0.481  0.6048 -1.1877  2.1172
 7748SOL    HW234707   2.949   3.936   0.473 -2.9151 -0.0111  3.5404
 7749SOL     OW34708   3.770   0.957  17.328 -0.1853 -0.1295  0.2723
 7749SOL    HW134709   3.767   0.960  17.233 -0.0672  1.1652  0.3097
 7749SOL    HW234710   3.834   1.026  17.346  0.2275 -0.2764 -0.6874
 7750SOL     OW34711   0.044   1.949   5.153  0.2291 -0.2559  0.3864
 7750SOL    HW134712   0.127   1.970   5.195  0.1758  2.8823 -1.0201
 7750SOL    HW234713   0.034   2.027   5.097 -1.1401 -0.3917  0.4440
 7751SOL     OW34714   3.401   3.642   9.148 -0.5510 -0.7676 -0.1071
 7751SOL    HW134715   3.440   3.640   9.060 -0.0743 -2.7313  0.1601
 7751SOL    HW234716   3.481   3.662   9.197 -1.8872  2.0149  0.9325
 7752SOL     OW34717   1.501   2.833   7.464 -0.1833  0.5175 -0.0566
 7752SOL    HW134718   1.467   2.920   7.444  2.1226  1.7410  1.2834
 7752SOL    HW234719   1.519   2.804   7.374 -4.6318  1.6675 -1.2980
 7753SOL     OW34720   1.639   0.920   4.676  0.2550  0.0306 -0.4555
 7753SOL    HW134721   1.719   0.870   4.659  0.6759  0.1189  1.2300
 7753SOL    HW234722   1.649   0.950   4.767 -2.3143  1.6721 -0.7204
 7754SOL     OW34723   1.680   0.224   0.159  0.4231 -0.1202 -0.6763
 7754SOL    HW134724   1.618   0.259   0.224 -0.6130  0.5157 -1.9957
 7754SOL    HW234725   1.666   0.129   0.164  1.3192 -0.2150  0.0029
 7755SOL     OW34726   1.010   2.160   8.231  0.2040 -0.3689 -0.3427
 7755SOL    HW134727   1.030   2.249   8.203 -0.2170 -0.5363 -1.1905
 7755SOL    HW234728   1.098   2.123   8.238 -0.7439 -2.4677  0.6208
 7756SOL     OW34729   0.009   1.087   5.849  0.0254 -0.0581  0.1462
 7756SOL    HW134730   0.097   1.113   5.876  0.7900 -1.5857 -0.8387
 7756SOL    HW234731   4.715   1.005   5.895 -1.4630  0.1877  0.0219
 7757SOL     OW34732   1.631   2.824  13.355  0.2501  0.0013 -0.6338
 7757SOL    HW134733   1.567   2.792  13.418  2.9066  0.8831  2.4918
 7757SOL    HW234734   1.578   2.866  13.287 -1.1274  0.7136  0.9051
 7758SOL     OW34735   4.646   2.651   3.645  0.4313  0.0531 -0.0847
 7758SOL    HW134736   4.624   2.632   3.736 -2.2376 -0.7126 -0.8981
 7758SOL    HW234737   0.013   2.618   3.642 -0.1829 -1.5951 -0.5658
 7759SOL     OW34738   3.268   2.909   3.606  0.2513 -0.3514  0.4829
 7759SOL    HW134739   3.286   2.988   3.556 -0.4089  0.1417  1.0369
 7759SOL    HW234740   3.173   2.916   3.598  0.4843  0.2616 -1.7869
 7760SOL     OW34741   0.340   3.484   7.967  0.1371 -0.5362  0.5624
 7760SOL    HW134742   0.412   3.520   8.020  1.6673  0.0564 -1.8864
 7760SOL    HW234743   0.304   3.420   8.028 -1.4781 -1.2046 -1.1056
 7761SOL     OW34744   0.558   0.602   4.371  0.1312 -0.5432  0.2153
 7761SOL    HW134745   0.492   0.534   4.387 -0.8918  0.1604 -1.0013
 7761SOL    HW234746   0.504   0.680   4.386 -0.6730 -0.9023 -0.8003
 7762SOL     OW34747   2.756   0.344   1.845  0.0655  0.1397 -0.5438
 7762SOL    HW134748   2.766   0.423   1.791 -1.7062  2.7262  2.9385
 7762SOL    HW234749   2.680   0.308   1.799 -0.1732  0.3230 -0.2935
 7763SOL     OW34750   4.340   3.397   7.238 -0.2452 -0.1719  0.1009
 7763SOL    HW134751   4.252   3.370   7.212  1.1277 -2.3435 -2.3325
 7763SOL    HW234752   4.388   3.320   7.207 -0.1432  0.3744 -1.1155
 7764SOL     OW34753   4.368   1.049   7.281  0.1599 -0.0135  0.0030
 7764SOL    HW134754   4.449   1.008   7.252  0.5971  1.8733 -1.4741
 7764SOL    HW234755   4.312   1.043   7.204  0.9894 -1.7163 -0.4633
 7765SOL     OW34756   0.282   2.119   0.568  0.3518 -0.2764 -0.4038
 7765SOL    HW134757   0.281   2.178   0.643  3.3137  0.6276 -1.1048
 7765SOL    HW234758   0.364   2.140   0.524 -0.6669  0.6270 -1.8573
 7766SOL     OW34759   1.132   3.986   3.848 -0.7575  0.4711 -0.3719
 7766SOL    HW134760   1.140   3.890   3.844 -1.1199  0.4734 -1.0284
 7766SOL    HW234761   1.221   4.011   3.823 -0.4535 -0.8330 -0.6092
 7767SOL     OW34762   4.121   3.100  10.952 -0.0110  0.6500 -0.4363
 7767SOL    HW134763   4.026   3.090  10.960  0.1136 -0.7399 -0.6674
 7767SOL    HW234764   4.137   3.051  10.871 -1.4367 -0.0794 -0.2821
 7768SOL     OW34765   3.514   1.508   8.039 -0.1401  0.2826 -0.3308
 7768SOL    HW134766   3.578   1.439   8.056 -1.5262 -0.9744 -0.1537
 7768SOL    HW234767   3.433   1.456   8.040 -0.2666  0.4594 -1.2665
 7769SOL     OW34768   2.495   1.893   4.570  0.5186  0.0221 -0.3207
 7769SOL    HW134769   2.504   1.899   4.666 -1.6763 -1.8566 -0.0057
 7769SOL    HW234770   2.494   1.985   4.546  0.5756  0.0129 -0.3591
 7770SOL     OW34771   3.756   2.683   2.216 -0.6598  0.2267  0.4558
 7770SOL    HW134772   3.756   2.777   2.196  1.9327  0.1982  0.3047
 7770SOL    HW234773   3.770   2.640   2.132  0.2914  1.3528  0.0309
 7771SOL     OW34774   2.963   3.708   5.787 -0.2076 -0.1364 -0.3650
 7771SOL    HW134775   3.036   3.744   5.837  0.8868 -0.1092 -1.9871
 7771SOL    HW234776   2.909   3.785   5.772 -0.6816 -0.3655  0.1668
 7772SOL     OW34777   3.360   4.172   3.248  0.1701  0.3131  0.3458
 7772SOL    HW134778   3.277   4.189   3.203 -0.3568  0.0157  1.1967
 7772SOL    HW234779   3.351   4.077   3.250 -2.0247  0.5117  0.1406
 7773SOL     OW34780   2.109   2.522   3.497 -0.1361 -0.7562  0.6837
 7773SOL    HW134781   2.155   2.601   3.525 -0.5967  0.6922 -2.7110
 7773SOL    HW234782   2.157   2.505   3.416  1.4610 -0.6046  1.6037
 7774SOL     OW34783   3.671   1.518   3.388 -0.2285  0.5222 -0.0077
 7774SOL    HW134784   3.717   1.519   3.304 -0.2658  1.9572 -0.0123
 7774SOL    HW234785   3.734   1.470   3.442 -0.0568  1.3420  0.5104
 7775SOL     OW34786   2.536   1.910  17.259 -0.2407 -0.1072  0.0189
 7775SOL    HW134787   2.618   1.867  17.234 -0.9690 -0.2296 -2.2303
 7775SOL    HW234788   2.489   1.901  17.176  0.2899  1.7208 -0.4936
 7776SOL     OW34789   0.693   1.590  14.320  0.5132 -0.3000  0.3510
 7776SOL    HW134790   0.662   1.602  14.231  0.0138 -0.5421  0.4940
 7776SOL    HW234791   0.619   1.594  14.381 -0.3649 -1.6844 -0.6585
 7777SOL     OW34792   0.513   2.874   5.769  0.3124  0.6081 -0.6353
 7777SOL    HW134793   0.492   2.955   5.815 -1.9818  0.0284 -0.6897
 7777SOL    HW234794   0.484   2.892   5.680 -0.7478 -1.2519 -0.6431
 7778SOL     OW34795   1.597   2.485   6.042  0.5422  0.2042  0.2007
 7778SOL    HW134796   1.577   2.571   6.079  0.7252  0.4027 -0.1648
 7778SOL    HW234797   1.510   2.462   6.010  1.0255 -0.3031 -0.7650
 7779SOL     OW34798   3.975   0.277  17.537 -0.2444  0.4746  0.1248
 7779SOL    HW134799   3.963   0.346  17.602  0.3542  1.4279 -0.7813
 7779SOL    HW234800   4.044   0.322  17.489 -0.9316 -0.7494 -2.0254
 7780SOL     OW34801   2.296   1.588   0.955  0.3655 -0.1073  0.5434
 7780SOL    HW134802   2.333   1.501   0.939  0.1336 -0.4401  1.8047
 7780SOL    HW234803   2.275   1.617   0.866 -0.1751  0.5856  0.9043
 7781SOL     OW34804   4.296   3.603  13.577  0.3690  0.1067  0.0298
 7781SOL    HW134805   4.211   3.565  13.556  0.0193  1.9875 -1.8948
 7781SOL    HW234806   4.327   3.651  13.500  2.1424 -0.3580  0.4346
 7782SOL     OW34807   0.350   2.832   8.112  0.3723  0.0902 -0.0550
 7782SOL    HW134808   0.425   2.850   8.169  0.5645  0.1672 -0.3316
 7782SOL    HW234809   0.331   2.923   8.091  0.1672  0.1389  0.3368
 7783SOL     OW34810   2.399   0.940  12.727 -0.6888 -0.4270 -0.2591
 7783SOL    HW134811   2.327   0.986  12.770 -0.1473  1.2558 -1.1403
 7783SOL    HW234812   2.428   1.003  12.661  3.8720 -1.8918  0.3741
 7784SOL     OW34813   2.483   4.582  13.349  1.1992  0.6020  0.1011
 7784SOL    HW134814   2.458   4.497  13.312 -0.0150  0.6638  0.7717
 7784SOL    HW234815   2.399   4.606  13.386  1.0241 -2.5711  1.7604
 7785SOL     OW34816   2.887   1.472  16.829  0.0731 -0.3295  0.6908
 7785SOL    HW134817   2.881   1.395  16.886 -0.5700 -0.7125  0.1050
 7785SOL    HW234818   2.860   1.437  16.744  0.4237 -0.8839  0.8084
 7786SOL     OW34819   2.136   1.259  17.355 -0.2455 -0.9215 -0.1803
 7786SOL    HW134820   2.159   1.292  17.442  0.6340  2.1490 -1.5717
 7786SOL    HW234821   2.190   1.180  17.344  0.8586 -0.0284 -1.0709
 7787SOL     OW34822   4.552   2.733   6.138  0.4994 -0.1161  0.2483
 7787SOL    HW134823   4.553   2.796   6.067  0.3519 -1.1148 -0.6439
 7787SOL    HW234824   4.619   2.666   6.120  0.0650 -0.3776 -0.3896
 7788SOL     OW34825   0.967   1.907   3.045  0.1586  0.9380  0.6672
 7788SOL    HW134826   0.973   1.991   3.090  1.1622  0.1005  2.0955
 7788SOL    HW234827   1.025   1.854   3.100  0.9374 -0.1063 -1.1585
 7789SOL     OW34828   4.187   2.250   5.088  0.3562 -0.1633 -0.1929
 7789SOL    HW134829   4.164   2.190   5.159 -1.3112 -0.1678 -0.7498
 7789SOL    HW234830   4.273   2.283   5.115  0.4548 -0.0863 -0.6093
 7790SOL     OW34831   2.797   0.070  11.615  0.0566  0.1107  0.2293
 7790SOL    HW134832   2.790   0.038  11.525  3.4524  2.3742 -0.8491
 7790SOL    HW234833   2.809   4.711  11.662 -4.2271 -0.5012  0.1993
 7791SOL     OW34834   1.554   1.748   2.224 -0.1205 -0.3326  0.0238
 7791SOL    HW134835   1.485   1.753   2.290  0.4927 -0.1078  0.6472
 7791SOL    HW234836   1.516   1.793   2.148 -1.0737  0.7350  1.1279
 7792SOL     OW34837   0.113   1.847   6.550  0.3042 -0.4598 -0.4557
 7792SOL    HW134838   0.038   1.904   6.567  1.3531  0.5734  0.6976
 7792SOL    HW234839   0.177   1.916   6.533  0.4620 -0.7252 -0.9408
 7793SOL     OW34840   4.391   3.205   7.526  0.3755  0.0284 -0.3262
 7793SOL    HW134841   4.438   3.151   7.589  1.9805 -0.0634 -1.6101
 7793SOL    HW234842   4.300   3.178   7.541  0.4168  0.3932  0.6143
 7794SOL     OW34843   4.539   1.866   3.338  0.1678 -0.5130  0.2476
 7794SOL    HW134844   4.479   1.791   3.345  2.1527 -2.2396 -1.0945
 7794SOL    HW234845   4.507   1.914   3.415  0.7190 -0.5630  0.5016
 7795SOL     OW34846   1.642   3.886  11.879 -0.8832 -0.0482 -0.7920
 7795SOL    HW134847   1.653   3.980  11.866 -0.1320 -0.2210 -1.4349
 7795SOL    HW234848   1.730   3.859  11.906 -1.0507  0.3862  0.1828
 7796SOL     OW34849   4.609   1.980   4.206 -0.0038  0.0677 -0.1243
 7796SOL    HW134850   4.678   1.914   4.219 -1.6493 -2.5200 -4.6458
 7796SOL    HW234851   4.608   1.981   4.111  0.5525 -2.2648 -0.1607
 7797SOL     OW34852   4.610   0.862   6.877 -0.2097  0.0896  0.1802
 7797SOL    HW134853   4.632   0.770   6.888 -1.2317 -0.1357  0.3037
 7797SOL    HW234854   4.515   0.859   6.868 -0.0587 -1.3148 -0.8959
 7798SOL     OW34855   3.002   3.479   5.072  0.5237  0.7400  0.0154
 7798SOL    HW134856   2.926   3.487   5.130  0.2277  2.8086 -0.6585
 7798SOL    HW234857   3.012   3.384   5.071 -1.0297  0.5677  0.9550
 7799SOL     OW34858   2.875   0.131   5.494 -0.1913 -0.3176 -0.4437
 7799SOL    HW134859   2.925   0.182   5.430  1.1737  0.6212  1.3658
 7799SOL    HW234860   2.942   0.110   5.559  0.3981  1.6346 -0.4369
 7800SOL     OW34861   1.049   0.977   3.690 -0.1212 -0.6347 -0.1290
 7800SOL    HW134862   1.086   0.890   3.703  1.1395 -0.1372 -0.3806
 7800SOL    HW234863   1.118   1.044   3.699  1.1992 -1.9239 -0.6493
 7801SOL     OW34864   3.803   3.188   4.747  0.1272  0.4228 -0.1279
 7801SOL    HW134865   3.762   3.247   4.684 -0.6268 -0.3370 -0.3481
 7801SOL    HW234866   3.871   3.243   4.786  1.3324 -1.6791  0.7324
 7802SOL     OW34867   2.077   2.806   9.747  0.5316 -0.3796 -0.4703
 7802SOL    HW134868   2.102   2.862   9.674  2.5475 -0.8664 -0.1677
 7802SOL    HW234869   2.068   2.721   9.704 -1.9161 -1.0916  1.4619
 7803SOL     OW34870   3.196   2.392   8.154 -0.0423  0.0369 -0.0888
 7803SOL    HW134871   3.282   2.416   8.120  1.2186 -3.0693  0.9097
 7803SOL    HW234872   3.206   2.314   8.209  0.9031 -0.8393 -1.5265
 7804SOL     OW34873   3.863   2.701   8.220  0.0354  0.4192 -0.8884
 7804SOL    HW134874   3.886   2.706   8.313 -1.0740 -0.3003 -0.5769
 7804SOL    HW234875   3.935   2.647   8.187  0.0365  0.5163 -1.0400
 7805SOL     OW34876   1.803   3.230   2.758 -1.0795 -0.7784  0.2580
 7805SOL    HW134877   1.842   3.223   2.845  1.4981  2.4208 -0.6463
 7805SOL    HW234878   1.869   3.185   2.705 -3.1945 -1.1290 -2.1250
 7806SOL     OW34879   2.471   2.620   9.920 -0.2750  0.0214 -0.4548
 7806SOL    HW134880   2.488   2.532   9.954  0.2591  0.3068  0.0267
 7806SOL    HW234881   2.502   2.663  10.000 -1.7945  2.2221 -1.0752
 7807SOL     OW34882   3.117   2.163  14.164 -0.2039 -0.1599  0.2085
 7807SOL    HW134883   3.038   2.202  14.202 -0.3432 -1.2193  1.0069
 7807SOL    HW234884   3.102   2.173  14.070  2.5703 -1.9883 -0.4306
 7808SOL     OW34885   1.848   0.858   5.791  0.3098 -0.2787  0.4246
 7808SOL    HW134886   1.911   0.878   5.722  0.3752 -0.4969  0.4217
 7808SOL    HW234887   1.805   0.780   5.755 -1.3339  0.1203  1.5194
 7809SOL     OW34888   2.607   3.607   6.289 -0.3284 -0.5347 -0.1878
 7809SOL    HW134889   2.678   3.669   6.307 -0.1130 -0.9518  0.4085
 7809SOL    HW234890   2.590   3.584   6.380 -0.7324 -0.7090 -0.3112
 7810SOL     OW34891   4.450   0.277   7.308  0.5571 -0.1956 -0.2016
 7810SOL    HW134892   4.511   0.334   7.355  0.0226  0.2629 -0.0596
 7810SOL    HW234893   4.381   0.274   7.374  1.1255  1.9580  0.4748
 7811SOL     OW34894   3.466   4.678   4.350  0.2962 -0.0706 -0.2823
 7811SOL    HW134895   3.379   4.717   4.355  0.9471  1.2734  0.7544
 7811SOL    HW234896   3.516   0.018   4.298  0.7662 -0.7227 -0.6198
 7812SOL     OW34897   0.098   0.416   8.516 -0.2201 -0.0598  0.0235
 7812SOL    HW134898   0.125   0.502   8.483  1.4489 -1.2078 -1.6577
 7812SOL    HW234899   0.130   0.418   8.606  0.6039  0.6441 -0.2826
 7813SOL     OW34900   3.842   4.324   0.701  0.7911  0.0128  0.4029
 7813SOL    HW134901   3.836   4.323   0.796 -0.4232 -2.5380  0.2863
 7813SOL    HW234902   3.814   4.415   0.689  1.3445 -0.1687 -2.4254
 7814SOL     OW34903   2.789   0.722   4.457 -0.1775 -0.1129 -0.6573
 7814SOL    HW134904   2.709   0.689   4.499 -0.1675  1.3146  0.4721
 7814SOL    HW234905   2.858   0.680   4.509  1.0729  1.8514 -0.7343
 7815SOL     OW34906   2.109   2.983  11.829  0.6088 -0.0949 -0.3543
 7815SOL    HW134907   2.156   3.054  11.785  2.3763 -0.4147  1.0249
 7815SOL    HW234908   2.030   2.970  11.777  2.1271 -1.1046 -2.4082
 7816SOL     OW34909   2.829   2.558  10.297  0.1321 -0.5008 -0.0609
 7816SOL    HW134910   2.738   2.575  10.322  0.2532  0.5457 -0.3294
 7816SOL    HW234911   2.811   2.472  10.259 -1.1734 -0.2016 -0.1188
 7817SOL     OW34912   0.161   2.819  11.476 -0.3526 -0.5371 -0.1089
 7817SOL    HW134913   0.161   2.887  11.409  0.1929 -0.9694 -0.5507
 7817SOL    HW234914   0.247   2.816  11.518  0.1679 -0.4691 -1.1725
 7818SOL     OW34915   2.137   0.019   6.925 -0.8119  0.4466  0.7623
 7818SOL    HW134916   2.134   0.052   6.835 -1.9546  2.2973  1.4740
 7818SOL    HW234917   2.117   4.650   6.912  3.0163 -0.3493  0.5696
 7819SOL     OW34918   2.277   0.369  13.087 -0.3530 -0.1675  0.4174
 7819SOL    HW134919   2.198   0.424  13.093  0.2533  0.9339 -1.6759
 7819SOL    HW234920   2.254   0.291  13.138 -1.2715 -0.2956 -0.1889
 7820SOL     OW34921   2.045   3.570   2.890  0.5336  0.6102  0.1888
 7820SOL    HW134922   1.959   3.611   2.874  1.1723  2.4709  1.5792
 7820SOL    HW234923   2.072   3.584   2.799 -0.7119  0.0758 -0.2679
 7821SOL     OW34924   0.836   2.226   2.290  0.7152 -0.1258 -0.9824
 7821SOL    HW134925   0.865   2.284   2.360  1.5681 -1.6115 -0.1039
 7821SOL    HW234926   0.919   2.181   2.273  0.8920 -1.0747  2.4041
 7822SOL     OW34927   0.254   0.967   3.055  0.8530 -0.9581  0.1517
 7822SOL    HW134928   0.196   0.985   2.981  2.8464  0.5283 -1.0505
 7822SOL    HW234929   0.299   1.052   3.055  1.5255 -1.3199 -0.6716
 7823SOL     OW34930   3.162   3.815   3.863 -0.1447  0.3295  0.4512
 7823SOL    HW134931   3.225   3.887   3.863 -0.3314  0.4873 -0.9646
 7823SOL    HW234932   3.081   3.857   3.834 -0.4179  2.0630  3.7150
 7824SOL     OW34933   3.787   0.494   0.789 -0.5576  0.1639  0.3323
 7824SOL    HW134934   3.767   0.564   0.851  2.1240  2.6171 -1.5611
 7824SOL    HW234935   3.701   0.482   0.749 -0.4162 -1.8249  0.6135
 7825SOL     OW34936   3.684   3.827  15.213  0.7957 -0.1781  0.0846
 7825SOL    HW134937   3.778   3.827  15.198  0.9923  2.5579  1.3495
 7825SOL    HW234938   3.679   3.882  15.291  1.8383 -0.6891  0.5045
 7826SOL     OW34939   2.672   1.944   0.962  0.2767 -0.2018 -0.2992
 7826SOL    HW134940   2.590   1.964   0.917  0.7920  0.0535 -1.1258
 7826SOL    HW234941   2.656   1.853   0.986  0.2751  0.0480  0.6484
 7827SOL     OW34942   2.736   1.022  13.435 -0.5687 -0.5527  0.1010
 7827SOL    HW134943   2.720   0.941  13.387 -1.0674  0.3458 -1.2509
 7827SOL    HW234944   2.659   1.031  13.490  1.7220  0.7710  3.0931
 7828SOL     OW34945   1.035   0.135   9.183 -0.0872  0.1514  0.4844
 7828SOL    HW134946   0.991   0.162   9.263  1.8448  0.8776  1.3047
 7828SOL    HW234947   1.110   0.194   9.180  0.7904 -1.0589 -1.9753
 7829SOL     OW34948   1.324   4.211   5.323 -0.2492  0.1276  0.1746
 7829SOL    HW134949   1.295   4.257   5.401 -3.3774 -0.1692 -0.8090
 7829SOL    HW234950   1.304   4.122   5.354  0.1270  0.1597  0.5075
 7830SOL     OW34951   4.320   1.442   4.560  0.3482  0.1675 -0.6029
 7830SOL    HW134952   4.333   1.464   4.467  0.9141  1.5818 -0.1928
 7830SOL    HW234953   4.225   1.437   4.565  0.5793 -2.2706  1.1021
 7831SOL     OW34954   2.007   1.231   6.796 -0.0156 -0.5555  0.1998
 7831SOL    HW134955   1.966   1.275   6.871  1.9473  1.2214  0.2518
 7831SOL    HW234956   1.941   1.238   6.728  0.6285  0.3355 -0.3344
 7832SOL     OW34957   1.179   1.555  12.223 -0.0846 -0.2026  0.1042
 7832SOL    HW134958   1.146   1.566  12.312  0.9329  0.5755  0.3796
 7832SOL    HW234959   1.220   1.639  12.200 -1.7401 -0.1950 -2.9278
 7833SOL     OW34960   0.505   3.962   2.950  0.4902 -0.0957  0.3417
 7833SOL    HW134961   0.547   3.893   2.898 -1.1136 -0.1917 -0.8299
 7833SOL    HW234962   0.424   3.911   2.954 -0.0011  0.8445  2.7314
 7834SOL     OW34963   2.872   1.720  10.984  0.6214 -0.5471  0.1244
 7834SOL    HW134964   2.821   1.800  10.972  1.6478 -0.1062 -1.3668
 7834SOL    HW234965   2.864   1.668  10.904  0.9258 -0.0497 -0.2301
 7835SOL     OW34966   1.864   1.346   6.993 -0.2167 -0.4357 -0.3127
 7835SOL    HW134967   1.792   1.396   6.955 -0.5749 -1.4046 -0.9148
 7835SOL    HW234968   1.896   1.411   7.056  1.0047  0.9877 -2.4353
 7836SOL     OW34969   3.653   3.568  12.331  0.5529  0.2861 -0.2451
 7836SOL    HW134970   3.563   3.544  12.306  0.6994  0.7601 -1.2012
 7836SOL    HW234971   3.640   3.565  12.426 -1.8878 -0.9108 -0.6015
 7837SOL     OW34972   3.080   0.035  17.499 -0.2520  0.8375 -0.2165
 7837SOL    HW134973   3.068   0.064  17.408 -0.7522  0.2853 -0.3243
 7837SOL    HW234974   3.063   4.666  17.486  0.9456  0.8569 -2.0292
 7838SOL     OW34975   3.564   4.410   0.453  0.9555 -0.1245  0.6169
 7838SOL    HW134976   3.551   4.319   0.478  2.2767 -0.5593 -0.2725
 7838SOL    HW234977   3.580   4.398   0.360 -0.6333 -0.4277  0.3938
 7839SOL     OW34978   4.358   4.274   1.457 -0.0958  0.2919  0.1458
 7839SOL    HW134979   4.310   4.352   1.486 -0.5713 -0.7574  2.1520
 7839SOL    HW234980   4.416   4.264   1.532 -0.2518 -2.6311 -0.1392
 7840SOL     OW34981   3.607   4.276   2.314  0.1542  0.0747 -0.1472
 7840SOL    HW134982   3.695   4.309   2.332 -0.6237  1.2953  1.4065
 7840SOL    HW234983   3.553   4.355   2.325  0.2421  0.1363 -0.1578
 7841SOL     OW34984   3.826   3.722  16.946  0.6114  0.0892  0.4724
 7841SOL    HW134985   3.920   3.713  16.964  0.8792 -2.4634 -2.1308
 7841SOL    HW234986   3.823   3.817  16.953  1.9892  0.2114 -0.5337
 7842SOL     OW34987   1.226   1.298   5.718  0.6515 -0.1906  0.3746
 7842SOL    HW134988   1.267   1.358   5.656  0.6845  0.0358  0.6125
 7842SOL    HW234989   1.227   1.215   5.671  0.1786  0.4221 -0.7015
 7843SOL     OW34990   3.218   3.445  14.208  0.1832 -0.2028  0.0007
 7843SOL    HW134991   3.143   3.476  14.158  0.0338  0.9636  0.9555
 7843SOL    HW234992   3.253   3.397  14.132  0.6356 -0.4168  0.3420
 7844SOL     OW34993   3.720   2.488   0.754  0.4160 -0.5388  0.2320
 7844SOL    HW134994   3.750   2.441   0.832  3.0063 -0.7581 -0.8873
 7844SOL    HW234995   3.644   2.535   0.789  0.9186  1.6740 -1.6185
 7845SOL     OW34996   1.191   3.457   2.837  0.0231 -0.3079 -0.0195
 7845SOL    HW134997   1.186   3.372   2.792 -0.7767  0.5187 -1.4887
 7845SOL    HW234998   1.098   3.478   2.852 -0.5390 -1.8409 -1.3509
 7846SOL     OW34999   2.946   0.335   2.032 -0.1981 -0.0459  0.1785
 7846SOL    HW135000   3.007   0.392   1.985  0.0148  1.1647  1.9045
 7846SOL    HW235001   2.864   0.357   1.987 -0.0199 -0.2783 -0.2559
 7847SOL     OW35002   1.750   2.153   9.590  0.4631  0.1550 -0.1687
 7847SOL    HW135003   1.799   2.127   9.668  0.7356 -0.2886 -0.4846
 7847SOL    HW235004   1.718   2.240   9.612  0.8346 -0.8930  4.6190
 7848SOL     OW35005   0.520   2.720   4.984 -0.0679 -0.4714 -0.6584
 7848SOL    HW135006   0.586   2.779   4.949  1.2857 -1.0339  0.9511
 7848SOL    HW235007   0.523   2.645   4.924  0.3809 -0.5845 -0.4907
 7849SOL     OW35008   1.133   2.356  12.124  0.4430  0.1796  0.3680
 7849SOL    HW135009   1.147   2.416  12.051  1.3966 -1.2281 -0.6012
 7849SOL    HW235010   1.095   2.421  12.183 -1.9049 -0.9686  0.1121
 7850SOL     OW35011   4.341   0.569  11.805 -0.1960  0.3346 -0.0994
 7850SOL    HW135012   4.340   0.527  11.891 -0.8245  0.8132  0.1308
 7850SOL    HW235013   4.417   0.521  11.772  1.4685  1.4932  2.0465
 7851SOL     OW35014   3.851   1.367  14.857 -0.4144  0.1423  0.7369
 7851SOL    HW135015   3.866   1.356  14.763 -0.5508  0.2155  0.7076
 7851SOL    HW235016   3.928   1.421  14.876 -0.7828  1.5666 -1.8496
 7852SOL     OW35017   2.207   3.733  13.950 -0.2749  0.4187  0.1516
 7852SOL    HW135018   2.298   3.757  13.930 -0.5008  0.1468 -1.2463
 7852SOL    HW235019   2.173   3.805  14.003  2.5229  1.8448  0.0096
 7853SOL     OW35020   1.518   0.595  10.458 -0.0902  0.1284 -0.5821
 7853SOL    HW135021   1.470   0.643  10.525  2.0986  1.5344 -0.0085
 7853SOL    HW235022   1.538   0.660  10.391  0.2024 -0.3983 -1.0087
 7854SOL     OW35023   2.465   0.198   4.973 -0.1709  0.0613 -0.1389
 7854SOL    HW135024   2.521   0.275   4.970 -0.5396  0.2923 -1.3733
 7854SOL    HW235025   2.497   0.169   4.887 -0.7277  1.4531 -0.8183
 7855SOL     OW35026   4.626   3.885  16.742  0.2949  0.3764 -0.0648
 7855SOL    HW135027   4.718   3.860  16.736  0.6283  1.6106 -0.0968
 7855SOL    HW235028   4.622   3.935  16.660  0.6035 -0.1127 -0.3756
 7856SOL     OW35029   4.299   2.167  14.780 -0.2623  0.5786 -0.4464
 7856SOL    HW135030   4.256   2.177  14.695  0.2929  0.5003 -0.7338
 7856SOL    HW235031   4.279   2.074  14.793  0.7320  0.6061  1.2429
 7857SOL     OW35032   1.341   1.055   6.346 -0.3413  0.0753  0.5465
 7857SOL    HW135033   1.329   1.046   6.251 -1.0155 -0.9754  0.7370
 7857SOL    HW235034   1.321   1.149   6.350  0.1574  0.2867 -1.5910
 7858SOL     OW35035   3.534   2.171   2.851 -0.5053  0.6843  0.3271
 7858SOL    HW135036   3.441   2.176   2.869 -0.3385 -1.6503  1.8929
 7858SOL    HW235037   3.538   2.086   2.807 -1.4464 -1.5694  4.5928
 7859SOL     OW35038   0.115   0.844   6.375  0.5524 -0.1393 -0.2486
 7859SOL    HW135039   0.030   0.872   6.342  1.5229  2.5949 -0.4007
 7859SOL    HW235040   0.166   0.860   6.295 -0.9929 -0.4459 -1.2967
 7860SOL     OW35041   1.119   0.554   6.817  0.1938  0.4982  0.1399
 7860SOL    HW135042   1.043   0.541   6.760  0.1304 -1.8202  0.7729
 7860SOL    HW235043   1.168   0.611   6.758  5.0613 -1.4775  2.2999
 7861SOL     OW35044   1.872   3.053  16.963 -0.1274  0.4854 -0.6399
 7861SOL    HW135045   1.929   2.980  16.940 -0.2161 -0.3801  1.8657
 7861SOL    HW235046   1.939   3.101  17.013  2.9500 -2.8168 -1.6133
 7862SOL     OW35047   0.625   2.104   2.628 -0.5164 -0.3476  1.0220
 7862SOL    HW135048   0.604   2.197   2.624 -1.1130 -0.6621 -3.4147
 7862SOL    HW235049   0.607   2.093   2.721 -1.0210  0.1486  0.9792
 7863SOL     OW35050   2.461   2.642   1.631 -0.4310  0.0741  0.4987
 7863SOL    HW135051   2.476   2.548   1.635  0.1600  0.1241 -0.4734
 7863SOL    HW235052   2.554   2.665   1.637 -0.0987 -1.2497  0.3335
 7864SOL     OW35053   1.004   4.583  13.511 -0.2561 -0.1420 -0.4966
 7864SOL    HW135054   1.064   4.571  13.438  0.2179 -1.1428  0.0498
 7864SOL    HW235055   1.066   4.561  13.581  0.0099 -0.4056 -0.8158
 7865SOL     OW35056   0.177   0.562   8.768 -0.2742 -0.2175 -0.0970
 7865SOL    HW135057   0.135   0.648   8.765  1.6344  0.7442  0.9023
 7865SOL    HW235058   0.101   0.505   8.782  0.7306 -2.3970 -3.3014
 7866SOL     OW35059   4.660   3.271   4.276 -0.3462 -0.1643 -0.6524
 7866SOL    HW135060   4.696   3.357   4.296  0.2121 -0.3495 -0.8493
 7866SOL    HW235061   4.718   3.215   4.327 -1.6327 -0.3184  0.6391
 7867SOL     OW35062   2.422   2.859   2.746 -0.3577  0.3588 -0.1114
 7867SOL    HW135063   2.511   2.864   2.712 -0.3647 -0.2312 -0.2209
 7867SOL    HW235064   2.383   2.783   2.703  0.0781  0.8639 -1.3927
 7868SOL     OW35065   4.651   1.678  15.826  0.2947  0.3836  0.5995
 7868SOL    HW135066   4.661   1.764  15.786  0.3048 -0.4467 -1.1548
 7868SOL    HW235067   0.001   1.687  15.888  1.6664 -1.3541 -0.8014
 7869SOL     OW35068   4.401   3.786   3.772 -0.1627  0.3547  0.4780
 7869SOL    HW135069   4.406   3.696   3.805 -1.1586  0.1449  0.0498
 7869SOL    HW235070   4.308   3.806   3.767 -0.2878 -0.9523 -2.2567
 7870SOL     OW35071   4.112   2.308   6.210 -0.3126 -0.1835  0.1236
 7870SOL    HW135072   4.029   2.272   6.178 -0.2253  0.9350 -1.4093
 7870SOL    HW235073   4.073   2.381   6.257  1.3930 -0.0526  1.3276
 7871SOL     OW35074   2.629   3.186   5.637  0.3341  0.0182 -0.0300
 7871SOL    HW135075   2.662   3.274   5.659  0.3067 -0.1065  0.5258
 7871SOL    HW235076   2.540   3.191   5.672  1.3086  2.5801  2.1358
 7872SOL     OW35077   1.267   2.733   9.460  0.3663 -0.4404  0.0612
 7872SOL    HW135078   1.242   2.655   9.509 -0.5438  0.0567  0.3889
 7872SOL    HW235079   1.224   2.790   9.524 -0.1244  0.7348 -1.3228
 7873SOL     OW35080   1.384   2.605   4.161  0.1092 -0.7889 -0.4408
 7873SOL    HW135081   1.312   2.543   4.172 -0.3792  0.1107  1.5284
 7873SOL    HW235082   1.446   2.544   4.121 -0.6459 -2.4095  0.8556
 7874SOL     OW35083   2.865   1.498   7.879  0.1173  0.6400  0.3929
 7874SOL    HW135084   2.808   1.421   7.880 -0.6268  1.1667 -1.0139
 7874SOL    HW235085   2.818   1.555   7.818  2.3032  1.6099 -0.3892
 7875SOL     OW35086   4.107   3.901   4.763  0.2403  0.6525  0.1703
 7875SOL    HW135087   4.153   3.817   4.757 -1.4934 -0.2845  0.1711
 7875SOL    HW235088   4.097   3.914   4.857  2.7098  2.7598  0.1438
 7876SOL     OW35089   0.048   0.125   3.993  0.5616 -1.0259 -0.0831
 7876SOL    HW135090   0.011   0.212   4.003  0.6142 -1.0914  0.6530
 7876SOL    HW235091   0.126   0.130   4.049 -1.2014  1.5038  2.1118
 7877SOL     OW35092   2.958   2.118   3.004  0.7235  0.6764 -0.0356
 7877SOL    HW135093   2.917   2.205   3.010  0.4286  0.6584 -1.7444
 7877SOL    HW235094   2.883   2.075   2.963 -0.0041  1.7719  0.1374
 7878SOL     OW35095   3.499   4.308  14.933  0.0799  0.2252  0.1498
 7878SOL    HW135096   3.413   4.314  14.891 -1.7164 -0.9154  3.7409
 7878SOL    HW235097   3.510   4.216  14.955 -0.4180 -0.0462 -0.7317
 7879SOL     OW35098   2.994   3.901  14.617  0.0322 -0.4612  1.0676
 7879SOL    HW135099   3.013   3.944  14.700 -0.5386  1.1330  0.3741
 7879SOL    HW235100   3.071   3.865  14.573  1.5179  0.8214  2.6653
 7880SOL     OW35101   1.768   0.540   9.518  0.3693  0.0361  0.5523
 7880SOL    HW135102   1.703   0.533   9.448  1.0693  1.8258 -0.2614
 7880SOL    HW235103   1.841   0.503   9.468 -1.0519 -0.9762 -0.7824
 7881SOL     OW35104   4.428   1.721   2.798  0.1934 -0.4310  0.8595
 7881SOL    HW135105   4.483   1.797   2.814  1.4962 -1.4249  1.1430
 7881SOL    HW235106   4.350   1.746   2.848  0.8051  3.1954 -0.0279
 7882SOL     OW35107   3.738   0.517   7.959  0.1064 -0.6177  0.0504
 7882SOL    HW135108   3.738   0.604   7.920 -0.8730 -0.9060 -0.5883
 7882SOL    HW235109   3.770   0.468   7.884 -0.4858 -0.2182 -0.4601
 7883SOL     OW35110   1.105   0.795   7.206  0.1311 -0.0996  0.2436
 7883SOL    HW135111   1.047   0.871   7.204 -1.5037 -1.4038 -1.9679
 7883SOL    HW235112   1.064   0.728   7.150  0.5076  1.0364 -1.3959
 7884SOL     OW35113   1.875   0.521  16.261  0.2711  0.6772 -0.5516
 7884SOL    HW135114   1.835   0.480  16.337  1.7945 -0.1953 -0.2271
 7884SOL    HW235115   1.895   0.442  16.211 -0.4275 -1.1739  2.1090
 7885SOL     OW35116   4.260   2.431  16.235  0.0457  0.0213  0.0906
 7885SOL    HW135117   4.204   2.489  16.286 -0.9686 -3.4634  2.9251
 7885SOL    HW235118   4.270   2.355  16.292 -0.6333 -0.3619 -0.3040
 7886SOL     OW35119   3.640   2.866   7.260  0.2469  0.3585 -0.1644
 7886SOL    HW135120   3.721   2.887   7.306 -0.7443 -0.0481  1.7451
 7886SOL    HW235121   3.634   2.771   7.251 -0.9745  0.4407 -0.2659
 7887SOL     OW35122   1.396   0.266   1.023  0.4775  0.5946 -0.0051
 7887SOL    HW135123   1.412   0.298   1.113 -2.3822  1.6079  0.1573
 7887SOL    HW235124   1.330   0.332   1.001  1.9642  1.7746 -0.9130
 7888SOL     OW35125   4.328   2.589   3.599 -0.1969 -0.6559 -0.4299
 7888SOL    HW135126   4.297   2.572   3.688  3.0488 -1.9147  0.4627
 7888SOL    HW235127   4.260   2.536   3.558 -0.5604 -1.0485  0.6702
 7889SOL     OW35128   2.182   1.546  16.666  0.9678  0.5265  0.1135
 7889SOL    HW135129   2.099   1.503  16.649  1.6372 -0.5767 -0.3675
 7889SOL    HW235130   2.234   1.528  16.588  0.1285  1.6828 -0.7195
 7890SOL     OW35131   0.602   2.062   9.203  0.1485 -0.8116  0.1453
 7890SOL    HW135132   0.572   2.098   9.287 -1.2625 -1.0351 -0.2636
 7890SOL    HW235133   0.569   2.115   9.131 -0.5781 -0.1813  0.9287
 7891SOL     OW35134   2.550   2.080   1.433 -0.0461 -0.0468 -0.4844
 7891SOL    HW135135   2.592   1.994   1.430 -1.0256 -0.4965 -1.4272
 7891SOL    HW235136   2.570   2.120   1.348  2.3552 -1.0872 -0.4007
 7892SOL     OW35137   2.270   1.074   7.078  0.1766  0.0648 -0.3986
 7892SOL    HW135138   2.249   1.042   7.166  3.2131  0.6851  0.5560
 7892SOL    HW235139   2.276   1.168   7.092 -0.9413  0.1020 -0.1548
 7893SOL     OW35140   3.675   2.223  17.479 -0.0557  0.5503  0.2354
 7893SOL    HW135141   3.609   2.267  17.426 -0.0802 -1.1197 -1.1180
 7893SOL    HW235142   3.655   2.131  17.461  0.7410  0.4228  0.0037
 7894SOL     OW35143   3.476   0.938   9.878 -0.3522  0.1494 -0.5313
 7894SOL    HW135144   3.527   0.977   9.949 -1.9398 -0.3387  0.9101
 7894SOL    HW235145   3.440   0.861   9.923  0.2313 -0.0761 -0.4522
 7895SOL     OW35146   0.862   3.355   3.776 -0.4013 -0.7693 -0.3232
 7895SOL    HW135147   0.783   3.301   3.777 -0.8043 -0.1198  2.2044
 7895SOL    HW235148   0.923   3.307   3.831  0.2713 -1.1350 -1.3884
 7896SOL     OW35149   3.002   1.927  12.630 -0.2054 -0.0217 -0.1062
 7896SOL    HW135150   2.911   1.899  12.637 -0.0848 -0.6492 -1.0170
 7896SOL    HW235151   2.995   2.012  12.674  0.3970 -1.5941  3.0459
 7897SOL     OW35152   1.130   2.084   3.363  0.0528 -0.1567  0.1911
 7897SOL    HW135153   1.224   2.102   3.360 -0.3782  1.9511 -0.9058
 7897SOL    HW235154   1.099   2.171   3.389  2.0757  1.0659 -1.4807
 7898SOL     OW35155   1.156   1.878  13.261  1.0633 -0.0456 -0.4518
 7898SOL    HW135156   1.210   1.929  13.201 -0.9200  1.0652 -1.3138
 7898SOL    HW235157   1.187   1.891  13.350 -1.0683  3.4789 -0.2091
 7899SOL     OW35158   2.627   3.180   4.763 -0.3251  0.3758  0.1719
 7899SOL    HW135159   2.537   3.147   4.757 -0.5710  1.2141 -0.8452
 7899SOL    HW235160   2.636   3.209   4.672 -0.0024 -0.2806 -0.0071
 7900SOL     OW35161   2.799   0.709   2.464 -0.5665  0.8772 -0.2219
 7900SOL    HW135162   2.730   0.766   2.497 -1.3324 -0.0313 -0.2287
 7900SOL    HW235163   2.780   0.705   2.371  0.2930 -0.0469 -0.3609
 7901SOL     OW35164   0.599   0.296   0.099  0.4488  0.3813  0.5436
 7901SOL    HW135165   0.638   0.350   0.168 -0.2868  1.1663  0.3441
 7901SOL    HW235166   0.529   0.351   0.063 -0.0055 -0.3159  0.3645
 7902SOL     OW35167   2.195   3.553   6.478 -0.1615 -0.2724 -0.2723
 7902SOL    HW135168   2.258   3.559   6.549 -0.8499 -0.3293  0.3407
 7902SOL    HW235169   2.191   3.644   6.449  2.5003 -0.1068 -0.1390
 7903SOL     OW35170   0.894   4.063  10.926  0.0774  0.0310  0.5013
 7903SOL    HW135171   0.934   3.977  10.939  0.2266 -0.2496 -1.8109
 7903SOL    HW235172   0.891   4.099  11.014  2.1354  0.6781  0.2916
 7904SOL     OW35173   2.468   3.208   1.733  0.2936  0.1650  0.0807
 7904SOL    HW135174   2.450   3.144   1.664 -0.3066 -1.3342  1.6176
 7904SOL    HW235175   2.425   3.177   1.812 -1.1195 -0.5655 -0.9730
 7905SOL     OW35176   0.573   3.500   1.030 -0.3323 -0.3980  0.3054
 7905SOL    HW135177   0.511   3.430   1.053 -0.6624 -0.4040 -0.6141
 7905SOL    HW235178   0.546   3.577   1.079 -0.0697  1.6565 -2.7754
 7906SOL     OW35179   2.316   4.410  14.801  0.1212 -0.6637 -0.5812
 7906SOL    HW135180   2.306   4.476  14.732  0.8835 -1.0236 -1.0330
 7906SOL    HW235181   2.234   4.410  14.850  0.3773  0.9118 -0.1535
 7907SOL     OW35182   0.105   2.204   2.734 -0.1135  0.4322  0.1025
 7907SOL    HW135183   0.138   2.282   2.780  1.8495 -0.8249  0.8499
 7907SOL    HW235184   0.133   2.136   2.796 -1.5849 -0.4437 -0.2072
 7908SOL     OW35185   4.073   3.655   4.870  0.1304  0.1646 -0.1902
 7908SOL    HW135186   4.119   3.586   4.918 -1.6298 -1.6560 -1.0938
 7908SOL    HW235187   4.001   3.671   4.931 -1.4773  0.6240 -2.2079
 7909SOL     OW35188   4.552   4.347   0.557  0.0917 -0.0049  0.6669
 7909SOL    HW135189   4.475   4.297   0.529 -0.6813  2.1091 -1.0077
 7909SOL    HW235190   4.613   4.314   0.490 -1.0863  2.1588 -1.4833
 7910SOL     OW35191   1.128   3.931  12.389  0.2319 -0.1085 -0.3524
 7910SOL    HW135192   1.128   3.889  12.303 -2.0902 -1.1965  0.1765
 7910SOL    HW235193   1.110   4.022  12.364 -0.1937 -0.1102 -0.0373
 7911SOL     OW35194   1.611   3.943   4.655 -0.2914  0.7408 -0.5186
 7911SOL    HW135195   1.517   3.959   4.648 -0.4945 -0.7808 -1.3372
 7911SOL    HW235196   1.647   3.991   4.580  3.2810 -1.4110 -0.2177
 7912SOL     OW35197   0.407   0.375  15.202  0.3722  0.5196  0.3983
 7912SOL    HW135198   0.322   0.412  15.225 -1.5592 -3.0877 -0.9766
 7912SOL    HW235199   0.424   0.391  15.109 -0.8401 -0.4390  0.0161
 7913SOL     OW35200   2.712   1.720  15.329  0.5788  0.1366  0.2508
 7913SOL    HW135201   2.745   1.694  15.414 -2.5824 -2.1341  0.7811
 7913SOL    HW235202   2.790   1.745  15.279 -0.2377 -3.5416 -2.9211
 7914SOL     OW35203   2.215   4.690   4.772 -0.5150 -0.6566  0.1220
 7914SOL    HW135204   2.184   4.610   4.730  0.1801 -0.1397 -1.3816
 7914SOL    HW235205   2.248   0.003   4.689 -0.4044  1.3939  1.0634
 7915SOL     OW35206   1.485   1.021   9.816  0.1459 -0.5125 -0.8999
 7915SOL    HW135207   1.412   0.976   9.859  0.0514 -0.0667 -0.6031
 7915SOL    HW235208   1.537   1.051   9.890  1.4387  0.5051 -2.2261
 7916SOL     OW35209   4.457   0.559   5.205  0.1682 -0.3150  0.0833
 7916SOL    HW135210   4.451   0.562   5.300 -3.1966 -2.2341 -0.0796
 7916SOL    HW235211   4.484   0.649   5.184  0.0091 -0.5909 -1.3225
 7917SOL     OW35212   2.101   0.675  12.742  0.4035  0.6484  0.6478
 7917SOL    HW135213   2.164   0.692  12.671  0.2121  0.2954  0.3919
 7917SOL    HW235214   2.035   0.742  12.725  0.1165  0.5772  1.4615
 7918SOL     OW35215   0.508   3.104   2.029 -0.3293  0.1723 -0.5058
 7918SOL    HW135216   0.568   3.118   1.956 -2.7892  1.3657 -2.2834
 7918SOL    HW235217   0.426   3.109   1.979  0.6439  1.7877 -1.9155
 7919SOL     OW35218   0.928   2.409   0.936 -0.5504  0.0702 -0.4010
 7919SOL    HW135219   0.848   2.460   0.918 -1.3806 -1.0798  0.0205
 7919SOL    HW235220   0.995   2.476   0.925 -1.6391  1.2401  0.0494
 7920SOL     OW35221   2.845   0.157   1.477  0.2731  0.3882 -0.4331
 7920SOL    HW135222   2.814   0.071   1.447 -0.7479  0.8820 -0.7683
 7920SOL    HW235223   2.883   0.200   1.401  1.0501 -1.3088 -1.0202
 7921SOL     OW35224   2.674   3.775  15.242  0.2473 -0.0117 -0.1078
 7921SOL    HW135225   2.670   3.824  15.160 -0.5224  0.3542  0.1520
 7921SOL    HW235226   2.725   3.840  15.290  0.0237 -0.0212  0.1389
 7922SOL     OW35227   3.976   4.292  16.453  0.1166 -0.2664 -0.3990
 7922SOL    HW135228   3.972   4.199  16.431 -2.6129 -0.4554  1.0498
 7922SOL    HW235229   3.887   4.317  16.430 -1.0251 -1.6473  2.4865
 7923SOL     OW35230   1.418   4.576  17.521  0.1949  0.8363  0.0621
 7923SOL    HW135231   1.376   4.658  17.545 -1.3340 -0.1889  0.9014
 7923SOL    HW235232   1.353   4.542  17.459  0.7389 -1.5876  0.8129
 7924SOL     OW35233   1.208   3.784   7.432  0.2418  0.2296 -0.0344
 7924SOL    HW135234   1.270   3.850   7.401 -0.1774 -0.1592 -1.7175
 7924SOL    HW235235   1.245   3.743   7.510 -1.7384  0.6832  1.1225
 7925SOL     OW35236   0.625   1.060  12.584  0.1714 -0.8024 -0.3925
 7925SOL    HW135237   0.671   1.140  12.559  0.0795 -0.0657  1.8188
 7925SOL    HW235238   0.579   1.038  12.503  0.8453  1.2666 -1.3278
 7926SOL     OW35239   1.024   0.865   1.669  0.0864  0.1042 -0.2216
 7926SOL    HW135240   1.022   0.799   1.599 -3.3999 -1.4329  1.3306
 7926SOL    HW235241   0.977   0.822   1.741  2.8991 -0.6183  1.1634
 7927SOL     OW35242   0.282   1.161   5.886  0.6055 -0.9608 -0.1306
 7927SOL    HW135243   0.360   1.124   5.927  1.0259 -1.2038 -1.1575
 7927SOL    HW235244   0.282   1.122   5.799 -2.5804 -1.4116  0.0478
 7928SOL     OW35245   0.622   3.575   5.361 -0.0464 -0.3074  0.2612
 7928SOL    HW135246   0.692   3.521   5.396  0.3060 -0.3132 -0.4537
 7928SOL    HW235247   0.649   3.577   5.269  2.5296 -0.7914  1.0068
 7929SOL     OW35248   2.986   3.974  11.656 -0.5304 -0.0034  0.6793
 7929SOL    HW135249   3.050   3.955  11.587  0.0531 -1.9925  1.7823
 7929SOL    HW235250   2.934   4.045  11.618 -0.1668  0.1688  0.5089
 7930SOL     OW35251   2.077   3.772   7.015  1.1239 -0.5654  0.6013
 7930SOL    HW135252   1.993   3.742   7.050  0.9434  1.1055  1.5738
 7930SOL    HW235253   2.085   3.854   7.064  0.7749  0.4604 -1.0527
 7931SOL     OW35254   0.075   2.479   7.669 -0.0180  0.6740  0.2125
 7931SOL    HW135255   0.157   2.459   7.715  0.6345  0.3165 -1.1195
 7931SOL    HW235256   0.011   2.449   7.733 -2.1479  1.1727 -1.6798
 7932SOL     OW35257   2.842   4.018   7.720  0.2634 -0.0920  0.1298
 7932SOL    HW135258   2.790   3.955   7.770  1.6204 -0.6768  0.7789
 7932SOL    HW235259   2.779   4.090   7.723  1.2594  0.8274 -1.1543
 7933SOL     OW35260   0.004   0.007   8.458 -0.5328 -0.0168 -0.2427
 7933SOL    HW135261   4.720   4.723   8.554 -0.5244  1.2927 -0.1319
 7933SOL    HW235262   4.640   0.043   8.444 -0.2517  0.7907  0.0450
 7934SOL     OW35263   1.622   1.904  17.052 -0.2492 -0.3352 -0.2934
 7934SOL    HW135264   1.546   1.955  17.026 -1.1432 -0.6439  1.6466
 7934SOL    HW235265   1.663   1.886  16.967  0.5912 -1.7101  0.3906
 7935SOL     OW35266   3.396   1.784   7.283 -0.2821  0.0452  0.0573
 7935SOL    HW135267   3.324   1.799   7.222  0.0865  0.3523 -0.2989
 7935SOL    HW235268   3.470   1.813   7.230 -0.6824  0.4352 -0.2855
 7936SOL     OW35269   0.778   1.264  12.759 -0.3090 -0.2453 -0.0714
 7936SOL    HW135270   0.743   1.275  12.671 -1.6175 -0.6577  0.4051
 7936SOL    HW235271   0.862   1.305  12.737 -1.0091  0.8766 -0.6138
 7937SOL     OW35272   2.410   0.914   5.124  0.0449 -0.4439  0.0672
 7937SOL    HW135273   2.440   0.977   5.190 -2.2131  1.5411 -0.8020
 7937SOL    HW235274   2.385   0.979   5.058 -1.0042 -1.5109 -0.5865
 7938SOL     OW35275   0.856   1.788  14.161 -0.2329 -0.5107 -0.2523
 7938SOL    HW135276   0.797   1.717  14.189 -1.7278  0.7872 -0.1362
 7938SOL    HW235277   0.783   1.850  14.157 -0.0880 -0.1976  2.0687
 7939SOL     OW35278   1.354   0.540   8.123 -0.3454  0.5259 -0.5166
 7939SOL    HW135279   1.421   0.545   8.054 -1.2232 -0.2562 -1.4270
 7939SOL    HW235280   1.302   0.465   8.094  0.9023  0.0571 -1.5892
 7940SOL     OW35281   4.490   0.507  10.193  1.1980  0.3836 -0.2733
 7940SOL    HW135282   4.450   0.419  10.194  1.5316  0.2355 -0.1507
 7940SOL    HW235283   4.506   0.521  10.286 -0.3259 -2.4276  0.4208
 7941SOL     OW35284   0.905   3.645   2.623 -0.3763 -0.2364 -0.1238
 7941SOL    HW135285   0.871   3.734   2.613 -1.3873 -0.4069  1.5879
 7941SOL    HW235286   0.963   3.635   2.548 -1.2436  1.6834 -1.0555
 7942SOL     OW35287   3.643   1.136   0.610 -0.1686 -0.2623  0.5624
 7942SOL    HW135288   3.720   1.188   0.585 -0.2016 -0.3916  0.1979
 7942SOL    HW235289   3.663   1.050   0.574 -2.9756 -0.7833  0.3171
 7943SOL     OW35290   0.974   2.876  12.304 -0.4677  0.1685 -0.5766
 7943SOL    HW135291   0.904   2.937  12.280 -0.9363 -0.2454 -0.2405
 7943SOL    HW235292   1.001   2.847  12.217 -1.4956 -2.3782 -0.0253
 7944SOL     OW35293   2.904   2.645   7.256 -0.6221  0.3703  0.0335
 7944SOL    HW135294   2.884   2.572   7.197  2.4622 -0.3646 -0.1161
 7944SOL    HW235295   2.971   2.692   7.207 -2.2732  2.3058 -0.3988
 7945SOL     OW35296   0.832   2.078   3.277 -0.6655 -0.2960 -0.5433
 7945SOL    HW135297   0.819   2.172   3.294  0.0955 -0.6356  1.8695
 7945SOL    HW235298   0.927   2.081   3.264 -0.6311 -0.3226 -0.2925
 7946SOL     OW35299   0.145   0.941   3.699 -0.2737 -0.0096 -0.0905
 7946SOL    HW135300   0.058   0.960   3.664 -0.2848  0.6808  0.3217
 7946SOL    HW235301   0.124   0.861   3.748  2.5284 -1.0568 -0.5817
 7947SOL     OW35302   0.878   3.786   0.369  0.2570  0.5085 -0.4917
 7947SOL    HW135303   0.833   3.842   0.431 -0.1604  0.3735 -0.6718
 7947SOL    HW235304   0.891   3.718   0.435  0.9591 -1.6115 -2.7699
 7948SOL     OW35305   1.826   0.273   9.481  0.2969 -0.3270 -0.1708
 7948SOL    HW135306   1.778   0.322   9.548 -0.8706 -3.0753  1.0153
 7948SOL    HW235307   1.850   0.192   9.526  2.3272 -0.0878 -0.8407
 7949SOL     OW35308   4.219   1.809   2.923  0.8951  0.1052  0.6985
 7949SOL    HW135309   4.132   1.841   2.900  0.8818 -0.4395 -0.0215
 7949SOL    HW235310   4.213   1.813   3.019 -1.1024 -0.2249  0.5824
 7950SOL     OW35311   2.457   1.854   1.150 -0.2193  0.8482 -0.7399
 7950SOL    HW135312   2.423   1.907   1.077 -3.1362  0.2194  0.1660
 7950SOL    HW235313   2.375   1.836   1.196 -0.1113  0.6955 -0.6109
 7951SOL     OW35314   3.125   3.793   1.066 -0.2435 -0.4270 -0.0102
 7951SOL    HW135315   3.182   3.762   1.136  0.4456 -1.7961 -1.1757
 7951SOL    HW235316   3.148   3.886   1.062  1.8224 -0.8445  1.8757
 7952SOL     OW35317   2.348   3.952   8.626  0.5310 -0.0788  0.6756
 7952SOL    HW135318   2.274   3.917   8.577  0.9954 -0.0135 -0.0607
 7952SOL    HW235319   2.359   3.887   8.696 -0.7859  0.7250  1.6153
 7953SOL     OW35320   1.881   3.454   3.818  0.1631  0.3139  0.0075
 7953SOL    HW135321   1.928   3.508   3.755  0.3979  1.9784  1.6016
 7953SOL    HW235322   1.921   3.369   3.802 -0.8377  0.2877 -2.3848
 7954SOL     OW35323   4.421   4.007   2.670  0.0604 -0.1032  0.5698
 7954SOL    HW135324   4.354   3.961   2.720 -0.9674 -0.0584 -0.7689
 7954SOL    HW235325   4.380   4.094   2.664  1.6570  0.6689  0.7775
 7955SOL     OW35326   2.711   3.152   8.199  0.6688  0.5151  0.8703
 7955SOL    HW135327   2.773   3.080   8.211  0.9266  0.8387  1.4689
 7955SOL    HW235328   2.671   3.132   8.114 -1.7173  2.6865  1.4812
 7956SOL     OW35329   2.839   0.785  14.644  0.5792  0.6626  0.2685
 7956SOL    HW135330   2.868   0.873  14.622  3.5381 -0.2439  0.5434
 7956SOL    HW235331   2.816   0.753  14.557  2.0411  1.3026 -0.3499
 7957SOL     OW35332   4.411   4.499   8.905 -0.5309  0.3275  0.1421
 7957SOL    HW135333   4.333   4.549   8.882  0.4212  1.6119 -0.3248
 7957SOL    HW235334   4.406   4.509   9.001 -1.2735 -1.1412  0.2500
 7958SOL     OW35335   0.092   3.072   3.336 -0.5056  0.4354  0.4256
 7958SOL    HW135336   0.143   3.067   3.417  2.0491  3.5297 -1.0288
 7958SOL    HW235337   0.116   3.162   3.316  1.8827  0.3223  2.7537
 7959SOL     OW35338   4.501   1.657  10.764  0.2976 -0.0955  0.1072
 7959SOL    HW135339   4.431   1.592  10.776 -0.2802  0.0998 -2.1386
 7959SOL    HW235340   4.551   1.639  10.843 -0.1054  0.2588  0.4396
 7960SOL     OW35341   0.941   0.948   4.548  0.0085 -0.1561 -0.1543
 7960SOL    HW135342   0.984   0.884   4.492 -1.4040  0.3492 -1.8235
 7960SOL    HW235343   1.000   0.949   4.624 -0.3982  2.5014  0.1210
 7961SOL     OW35344   2.045   1.434  16.940  0.2122  0.0651  0.2086
 7961SOL    HW135345   1.985   1.503  16.969  0.4915  0.6298 -0.5621
 7961SOL    HW235346   2.104   1.424  17.015 -0.8330 -2.1233  0.7557
 7962SOL     OW35347   2.404   1.302   0.962 -0.9594 -0.0190 -0.0578
 7962SOL    HW135348   2.457   1.363   1.012  0.5073 -0.6150 -0.8865
 7962SOL    HW235349   2.452   1.219   0.953  0.0404  0.5188  0.3184
 7963SOL     OW35350   2.945   1.656  13.199 -0.3689  0.1624  0.5025
 7963SOL    HW135351   2.861   1.700  13.213 -1.0462 -1.1247  0.4174
 7963SOL    HW235352   2.986   1.661  13.285  3.7252 -0.5526 -1.4308
 7964SOL     OW35353   3.532   2.914   2.992 -0.3951  0.2860  0.0258
 7964SOL    HW135354   3.602   2.854   2.968  0.9819  1.9695 -0.1304
 7964SOL    HW235355   3.519   2.976   2.920  0.5441  1.3456  0.7593
 7965SOL     OW35356   1.920   0.817   9.441  0.0196  0.6124  0.2594
 7965SOL    HW135357   1.899   0.775   9.524 -4.3907 -0.1123 -1.2443
 7965SOL    HW235358   1.918   0.745   9.378  0.5004  1.4364 -0.6977
 7966SOL     OW35359   1.447   3.089   5.523 -0.1323 -0.0230 -0.3551
 7966SOL    HW135360   1.533   3.071   5.485 -0.4610 -2.0676 -0.1154
 7966SOL    HW235361   1.457   3.068   5.616  0.6243  0.8483 -0.2495
 7967SOL     OW35362   0.513   0.207   0.777 -0.4385  0.4186 -0.3027
 7967SOL    HW135363   0.434   0.162   0.746  0.2279  0.7389 -2.5103
 7967SOL    HW235364   0.578   0.142   0.750 -3.0589 -3.0813  1.7688
 7968SOL     OW35365   0.287   1.101   3.866 -0.4906  0.3655 -0.2033
 7968SOL    HW135366   0.286   1.043   3.942 -0.7822 -0.1305 -0.5855
 7968SOL    HW235367   0.224   1.050   3.816  0.1816  0.7524 -1.4440
 7969SOL     OW35368   0.013   3.958   4.484  0.2724  0.3440 -0.2695
 7969SOL    HW135369   0.101   3.979   4.515 -0.1975  2.2415 -0.1720
 7969SOL    HW235370   4.699   4.036   4.525  0.2274  0.4601 -0.5281
 7970SOL     OW35371   3.630   0.075  16.845  0.2266 -0.4070 -0.2013
 7970SOL    HW135372   3.628   0.053  16.939 -2.6319  2.4971  0.4137
 7970SOL    HW235373   3.722   0.064  16.820 -0.3892 -0.0138 -2.6094
 7971SOL     OW35374   4.164   3.851  10.108 -0.1423  0.2517  0.0758
 7971SOL    HW135375   4.225   3.880  10.040 -0.5538 -0.3816 -0.5645
 7971SOL    HW235376   4.100   3.806  10.053  0.9364 -0.5861 -0.4987
 7972SOL     OW35377   1.733   0.908   6.924 -0.1286 -0.4676 -0.5203
 7972SOL    HW135378   1.737   0.965   6.847  1.9588 -0.7069 -0.5811
 7972SOL    HW235379   1.761   0.967   6.994  2.8963 -0.7513 -1.5207
 7973SOL     OW35380   3.693   2.018   6.849 -0.3207  0.5601 -0.8662
 7973SOL    HW135381   3.626   1.962   6.887  1.0890 -0.9234 -0.5326
 7973SOL    HW235382   3.758   1.961   6.807 -0.6281 -1.4748  1.3991
 7974SOL     OW35383   0.296   0.111   7.000 -0.0505 -0.2761  0.5286
 7974SOL    HW135384   0.317   0.073   6.914  0.1097 -0.9860  0.8871
 7974SOL    HW235385   0.380   0.106   7.045  1.5088 -3.2958 -2.7691
 7975SOL     OW35386   4.360   3.165   0.551  0.4024 -0.5101 -0.3479
 7975SOL    HW135387   4.333   3.073   0.557 -1.3420 -0.0817 -1.4478
 7975SOL    HW235388   4.449   3.161   0.515  0.5297 -0.4138 -0.0376
 7976SOL     OW35389   2.370   0.460   6.847  0.4723 -0.2181 -0.0620
 7976SOL    HW135390   2.289   0.466   6.897  0.6422 -1.8549  0.4118
 7976SOL    HW235391   2.423   0.526   6.891 -0.8301  2.3129 -2.2556
 7977SOL     OW35392   0.361   0.590   3.483  0.2107 -0.3273  0.5161
 7977SOL    HW135393   0.349   0.671   3.433 -1.1386 -0.2148  1.0220
 7977SOL    HW235394   0.270   0.570   3.505 -1.0239 -1.2491 -5.2737
 7978SOL     OW35395   4.687   2.578   8.546  0.1542 -0.0035 -0.0193
 7978SOL    HW135396   4.686   2.488   8.579 -0.5888  0.1588  0.3870
 7978SOL    HW235397   0.011   2.560   8.464  1.5607 -1.1928  1.0483
 7979SOL     OW35398   0.230   2.960   4.308  0.3082 -0.3846  0.4042
 7979SOL    HW135399   0.234   2.989   4.399 -0.0507 -0.2627  0.3841
 7979SOL    HW235400   0.192   3.041   4.273 -2.3117 -0.4746  3.0673
 7980SOL     OW35401   1.134   2.235   7.521  0.2607  0.0362  0.5037
 7980SOL    HW135402   1.076   2.169   7.558  0.2584  0.4041  1.1541
 7980SOL    HW235403   1.150   2.292   7.596  0.9905 -1.3397  1.3851
 7981SOL     OW35404   0.271   4.500  12.856 -0.4201 -0.0257  0.4545
 7981SOL    HW135405   0.332   4.427  12.867  0.8331  1.1634  1.4717
 7981SOL    HW235406   0.217   4.480  12.780  1.5735 -1.2586 -0.6104
 7982SOL     OW35407   1.563   2.439   5.074 -0.5120  0.8370  0.2527
 7982SOL    HW135408   1.610   2.389   5.140 -0.0240 -0.4706 -1.0711
 7982SOL    HW235409   1.631   2.499   5.044  0.3620  0.0386  0.6545
 7983SOL     OW35410   0.016   0.257   0.024 -0.4103 -0.1362 -0.1002
 7983SOL    HW135411   0.074   0.321   0.063 -3.0155  2.1842 -0.0695
 7983SOL    HW235412   4.656   0.302   0.012 -1.0572 -0.8758  1.6020
 7984SOL     OW35413   0.443   2.627   8.555  0.2786  0.3273 -0.6742
 7984SOL    HW135414   0.443   2.548   8.608 -0.7280  0.8250  0.0732
 7984SOL    HW235415   0.395   2.691   8.609  1.9477  0.1550  0.9923
 7985SOL     OW35416   0.222   2.955   4.606 -0.3936 -0.4754  0.2948
 7985SOL    HW135417   0.297   2.896   4.597 -1.1611 -1.4532  0.2577
 7985SOL    HW235418   0.151   2.897   4.635 -0.2776  0.0030  1.5425
 7986SOL     OW35419   0.651   4.436   7.477 -0.1484  0.1614  1.0736
 7986SOL    HW135420   0.697   4.452   7.560  1.0983  0.8383  0.2480
 7986SOL    HW235421   0.558   4.453   7.494 -0.3817  0.4790 -0.5335
 7987SOL     OW35422   0.700   3.454   2.507 -0.3900  0.1199 -0.1119
 7987SOL    HW135423   0.718   3.515   2.579  0.7109 -0.0542 -0.2504
 7987SOL    HW235424   0.789   3.420   2.501 -0.5625 -0.5926  1.2939
 7988SOL     OW35425   1.814   0.996  15.075 -0.1664 -0.3138  0.2580
 7988SOL    HW135426   1.811   0.978  15.169  3.0343 -0.4716  0.3482
 7988SOL    HW235427   1.909   0.989  15.067 -0.3257 -0.5564 -1.3185
 7989SOL     OW35428   0.776   0.547   2.262  0.5725 -0.3779  0.0338
 7989SOL    HW135429   0.792   0.458   2.292  1.0463 -1.2487 -2.8625
 7989SOL    HW235430   0.841   0.564   2.194  0.5120  1.1552  0.3446
 7990SOL     OW35431   2.764   2.608   4.879 -0.0404 -0.3155 -0.1293
 7990SOL    HW135432   2.780   2.702   4.878 -1.5770 -0.0319  1.7949
 7990SOL    HW235433   2.805   2.583   4.961  1.5394 -1.7255 -1.3554
 7991SOL     OW35434   3.201   3.282   2.799 -0.3930 -0.1118 -0.0281
 7991SOL    HW135435   3.256   3.274   2.721 -2.0833  1.4057 -1.3840
 7991SOL    HW235436   3.163   3.195   2.808 -1.3733  0.6271  3.0716
 7992SOL     OW35437   0.100   2.589  13.110  0.1017  0.1099 -0.3623
 7992SOL    HW135438   0.051   2.671  13.110 -1.2352 -0.6783  2.0453
 7992SOL    HW235439   0.097   2.552  13.022 -0.3767 -0.6567 -0.0316
 7993SOL     OW35440   1.995   4.158  14.540 -0.3385  0.0580  0.5210
 7993SOL    HW135441   2.000   4.181  14.633 -1.7576  0.4925  0.4906
 7993SOL    HW235442   1.916   4.106  14.532  0.0063 -0.3462 -0.2535
 7994SOL     OW35443   1.182   0.715   3.715 -0.4337  0.3816 -0.4876
 7994SOL    HW135444   1.163   0.695   3.806 -0.0115  1.7626 -0.0937
 7994SOL    HW235445   1.277   0.720   3.711 -0.4046 -1.1798 -1.7335
 7995SOL     OW35446   0.053   2.545   4.026 -0.0014  0.1993 -0.2580
 7995SOL    HW135447   0.089   2.604   4.092 -0.9523  0.7793 -0.2486
 7995SOL    HW235448   0.010   2.603   3.963  0.5098  1.5419  0.6446
 7996SOL     OW35449   1.045   1.749   4.187 -0.2142 -0.0474 -0.6229
 7996SOL    HW135450   1.109   1.807   4.145 -1.2707  1.7228  0.2088
 7996SOL    HW235451   1.017   1.708   4.105 -0.5923 -0.6215 -0.2095
 7997SOL     OW35452   1.339   4.694   9.142 -0.3048 -0.4865  0.1373
 7997SOL    HW135453   1.276   4.639   9.190 -2.7075  0.6300 -1.7682
 7997SOL    HW235454   1.412   4.633   9.133  0.2354 -0.8114  6.3365
 7998SOL     OW35455   3.741   1.113   1.865 -0.5853 -0.1850  0.4441
 7998SOL    HW135456   3.693   1.088   1.786 -2.2674  2.4764  0.6124
 7998SOL    HW235457   3.804   1.042   1.874  0.8226  1.2231  1.7820
 7999SOL     OW35458   3.428   1.049  14.340 -0.0360 -0.0135 -0.0223
 7999SOL    HW135459   3.426   1.134  14.384  1.5035  0.4460 -0.8460
 7999SOL    HW235460   3.342   1.013  14.363 -0.5029  1.2921  0.3045
 8000SOL     OW35461   1.964   4.587   2.881  0.0810 -0.6216  0.4351
 8000SOL    HW135462   2.056   4.561   2.881  0.1888 -0.2361  0.1257
 8000SOL    HW235463   1.968   4.658   2.818 -0.7663  0.0914  1.1900
 8001SOL     OW35464   0.492   1.836   4.046  0.4330  0.2723  0.2213
 8001SOL    HW135465   0.440   1.881   3.979 -0.2652 -2.8945 -1.3504
 8001SOL    HW235466   0.464   1.748   4.021  1.0467 -0.5537  2.4697
 8002SOL     OW35467   0.349   0.361   2.277  0.4219  0.5448 -0.4131
 8002SOL    HW135468   0.302   0.340   2.358  1.3591  0.1276  0.0240
 8002SOL    HW235469   0.312   0.449   2.263 -0.1145  0.6266  1.4190
 8003SOL     OW35470   1.201   3.424   5.463  0.1146  0.3436  1.0493
 8003SOL    HW135471   1.151   3.426   5.381 -0.1253 -3.2188  1.0808
 8003SOL    HW235472   1.280   3.381   5.431 -0.1841  0.3305  0.3303
 8004SOL     OW35473   1.148   3.849  12.134 -0.1116  0.4654  0.3328
 8004SOL    HW135474   1.244   3.854  12.141  0.0432 -0.2254 -1.2697
 8004SOL    HW235475   1.128   3.764  12.096 -1.3836  0.2537  1.4938
 8005SOL     OW35476   0.450   2.736   2.706  0.3754  0.2843  0.1674
 8005SOL    HW135477   0.492   2.651   2.688  0.6572  0.4459  0.0579
 8005SOL    HW235478   0.490   2.796   2.644  1.5421 -0.2899  0.3586
 8006SOL     OW35479   3.270   1.360   5.707  0.0430  0.3188 -0.0117
 8006SOL    HW135480   3.336   1.323   5.766 -2.0748  2.2276  3.5679
 8006SOL    HW235481   3.193   1.354   5.763 -0.3954  0.4399 -0.6021
 8007SOL     OW35482   0.473   1.909   3.048  0.8727 -0.1005  0.2785
 8007SOL    HW135483   0.534   1.979   3.023 -1.0508  1.0321 -1.2735
 8007SOL    HW235484   0.503   1.846   2.982 -0.9771  2.6812 -3.2375
 8008SOL     OW35485   2.377   1.878  17.033  0.3777  0.2404 -0.1408
 8008SOL    HW135486   2.363   1.789  17.000  0.8317  0.1359 -0.0428
 8008SOL    HW235487   2.339   1.929  16.961 -0.6572 -1.1818 -0.6064
 8009SOL     OW35488   2.265   0.542   4.837 -0.2951 -0.2242  0.3637
 8009SOL    HW135489   2.325   0.612   4.811  1.1786 -0.8549  2.0644
 8009SOL    HW235490   2.255   0.554   4.931 -0.8205  2.6724 -0.0432
 8010SOL     OW35491   4.089   4.066   3.936 -0.1288 -0.3392  0.0388
 8010SOL    HW135492   4.171   4.082   3.983 -0.3139  1.3653 -0.2275
 8010SOL    HW235493   4.113   3.995   3.877 -0.8820 -0.4604 -0.1310
 8011SOL     OW35494   0.243   0.622   8.436 -0.0945 -0.5035 -0.2135
 8011SOL    HW135495   0.219   0.709   8.466 -1.4819 -0.4748 -1.4020
 8011SOL    HW235496   0.336   0.643   8.434 -0.2776  0.4073  1.0392
 8012SOL     OW35497   4.568   1.997   3.921 -0.2174  0.2138 -0.2636
 8012SOL    HW135498   4.616   2.071   3.885 -1.4541  2.2389  2.2278
 8012SOL    HW235499   4.485   2.039   3.945  0.6205  1.2112  0.8914
 8013SOL     OW35500   1.796   3.255   6.758 -1.1285  0.0372 -0.5182
 8013SOL    HW135501   1.766   3.346   6.759  3.5718  1.5865 -0.1383
 8013SOL    HW235502   1.718   3.206   6.784 -0.8238  0.0762  0.4601
 8014SOL     OW35503   0.382   0.071   1.059  0.5017 -0.0473  0.2424
 8014SOL    HW135504   0.437   0.060   1.137  0.7369  0.9346  0.2119
 8014SOL    HW235505   0.382   0.165   1.045 -0.5328  0.1875  1.9705
 8015SOL     OW35506   4.397   4.000   9.382  0.2187  0.0548  0.3236
 8015SOL    HW135507   4.455   4.044   9.444 -1.2177  1.6658  0.5190
 8015SOL    HW235508   4.312   4.025   9.419 -0.5849 -0.9520 -0.8498
 8016SOL     OW35509   3.533   4.579   6.121  0.2882  0.6936  0.1908
 8016SOL    HW135510   3.570   4.665   6.142 -0.7916  1.1661  0.1626
 8016SOL    HW235511   3.604   4.515   6.125  1.2736  1.6872 -1.1004
 8017SOL     OW35512   3.056   1.212  14.838  0.1901 -0.1932 -0.2432
 8017SOL    HW135513   3.130   1.159  14.809 -0.2790 -0.2973 -1.2439
 8017SOL    HW235514   2.994   1.146  14.868 -0.8531 -0.2554 -2.5615
 8018SOL     OW35515   3.019   1.350   4.628 -0.0234  0.9618 -0.0812
 8018SOL    HW135516   3.039   1.427   4.573  0.1562  0.7469 -0.3167
 8018SOL    HW235517   2.993   1.282   4.566  1.5503  1.8069 -1.6829
 8019SOL     OW35518   4.434   0.806   7.694  0.1742 -0.5111 -0.3556
 8019SOL    HW135519   4.348   0.835   7.663  0.4158 -0.3610 -0.8698
 8019SOL    HW235520   4.489   0.882   7.677 -0.6481  0.5980  1.9165
 8020SOL     OW35521   0.617   0.266  12.448 -0.3124  0.0355  0.0833
 8020SOL    HW135522   0.538   0.213  12.443 -1.2443  1.4545 -0.4792
 8020SOL    HW235523   0.662   0.248  12.366  0.0015  1.4141 -0.0503
 8021SOL     OW35524   1.139   2.995  10.343 -0.1155  0.3660  0.2736
 8021SOL    HW135525   1.231   2.971  10.348  0.3655  2.3071  0.4457
 8021SOL    HW235526   1.105   2.910  10.314 -1.5044  1.0125  0.0140
 8022SOL     OW35527   0.245   2.483  12.093  0.0106  0.2340  0.0077
 8022SOL    HW135528   0.158   2.471  12.132  0.0803 -0.4103 -0.0343
 8022SOL    HW235529   0.273   2.569  12.124  1.4596 -0.2704  0.0807
 8023SOL     OW35530   4.442   0.584  13.580 -0.4053 -0.6223  0.2945
 8023SOL    HW135531   4.372   0.540  13.628 -0.2268  1.0485  2.0937
 8023SOL    HW235532   4.516   0.551  13.631  0.3810 -1.6826 -1.5320
 8024SOL     OW35533   2.856   4.378   5.764  0.2581  0.1706 -0.4182
 8024SOL    HW135534   2.796   4.451   5.774 -0.0405 -0.4515  2.5557
 8024SOL    HW235535   2.892   4.376   5.853  1.0765  0.9899 -0.7266
 8025SOL     OW35536   2.525   4.274   0.872 -0.7642  0.0320 -0.7518
 8025SOL    HW135537   2.430   4.269   0.881 -0.6900 -1.3918 -0.7068
 8025SOL    HW235538   2.544   4.350   0.817 -1.7208  0.1879 -0.8670
 8026SOL     OW35539   4.216   3.994  10.570 -0.6898  0.1202  0.2817
 8026SOL    HW135540   4.197   3.992  10.664  0.7506  0.4719  0.5729
 8026SOL    HW235541   4.268   3.915  10.555 -1.1219 -0.1562  0.2324
 8027SOL     OW35542   3.776   0.879  15.190  0.0779  0.2782  0.2037
 8027SOL    HW135543   3.811   0.816  15.254 -1.0581 -0.0365  0.5223
 8027SOL    HW235544   3.821   0.837  15.117 -0.0242  0.1976  0.1865
 8028SOL     OW35545   1.900   4.100   2.808 -0.2555  0.0345  0.1413
 8028SOL    HW135546   1.901   4.069   2.899  1.1214  1.0153  0.4576
 8028SOL    HW235547   1.840   4.032   2.777  0.5166 -0.8280  0.5220
 8029SOL     OW35548   1.850   0.687  17.047  0.1243 -0.3051 -0.6516
 8029SOL    HW135549   1.838   0.625  17.120 -2.5785  1.7859  0.6893
 8029SOL    HW235550   1.900   0.754  17.093 -0.8144  0.8277 -1.2954
 8030SOL     OW35551   2.330   1.975   5.443 -0.0779  0.3396 -0.0061
 8030SOL    HW135552   2.257   1.978   5.505 -0.6485 -1.7166 -0.5937
 8030SOL    HW235553   2.319   2.055   5.390 -0.9619  0.0431 -0.2781
 8031SOL     OW35554   3.998   4.338  11.052 -0.0105  0.1754 -0.2113
 8031SOL    HW135555   3.987   4.329  11.147  1.3180  1.3657  0.0547
 8031SOL    HW235556   3.972   4.251  11.022  0.7840 -0.1045 -0.0794
 8032SOL     OW35557   1.558   2.626   2.576 -0.4659  0.1479 -0.4258
 8032SOL    HW135558   1.535   2.548   2.625 -0.5549  1.4476  1.6172
 8032SOL    HW235559   1.480   2.628   2.520  1.0195  0.6397 -2.4563
 8033SOL     OW35560   3.919   2.628   5.376  0.1880 -0.0953 -0.1983
 8033SOL    HW135561   3.831   2.665   5.373 -0.7099 -2.2288 -0.0687
 8033SOL    HW235562   3.970   2.708   5.364 -0.9601  0.6746  0.1527
 8034SOL     OW35563   4.370   3.211   5.647 -0.4701 -0.3401  0.2846
 8034SOL    HW135564   4.374   3.274   5.718 -2.9205 -0.4185  0.5165
 8034SOL    HW235565   4.300   3.153   5.678 -0.9232  1.0068  1.7648
 8035SOL     OW35566   2.460   1.399   1.406  0.5721  0.0450 -0.3234
 8035SOL    HW135567   2.385   1.366   1.357 -0.8898 -0.0688  1.9762
 8035SOL    HW235568   2.413   1.474   1.444  0.0984 -0.5574  0.2790
 8036SOL     OW35569   2.500   4.096  14.140  0.1714  0.1408  0.3680
 8036SOL    HW135570   2.449   4.171  14.169  1.6848  0.0664  3.2516
 8036SOL    HW235571   2.435   4.026  14.143  1.1431 -0.8682 -2.2508
 8037SOL     OW35572   1.060   4.155  10.596 -0.7691  0.2248  0.3680
 8037SOL    HW135573   1.045   4.172  10.503 -0.0007 -0.2000  0.1579
 8037SOL    HW235574   0.969   4.155  10.626 -0.9511  0.2715 -0.1805
 8038SOL     OW35575   0.280   0.066   0.677  0.1229 -0.2963  0.3084
 8038SOL    HW135576   0.196   0.027   0.702  0.7979 -2.2334 -0.5121
 8038SOL    HW235577   0.242   0.138   0.626 -0.0459  1.6685  3.1971
 8039SOL     OW35578   0.135   3.949   3.257  0.4627 -0.0541 -0.0345
 8039SOL    HW135579   0.043   3.973   3.269  0.7607  0.8828  0.3834
 8039SOL    HW235580   0.163   4.040   3.249 -0.8065  0.2726 -0.8506
 8040SOL     OW35581   3.153   3.290  17.633  0.3233  0.2729 -0.2276
 8040SOL    HW135582   3.161   3.212  17.686 -0.7602  1.0668  1.1075
 8040SOL    HW235583   3.225   3.347  17.662  0.3295  1.2584 -2.1067
 8041SOL     OW35584   4.673   2.429   3.435  0.4782  0.1092 -0.6708
 8041SOL    HW135585   4.684   2.481   3.514 -0.0989 -2.6416  1.2077
 8041SOL    HW235586   0.038   2.394   3.424  0.2109 -0.8690  0.3449
 8042SOL     OW35587   0.818   0.186  12.988  0.2016 -0.0275  0.4625
 8042SOL    HW135588   0.898   0.205  13.036  0.2855  0.1482  0.2492
 8042SOL    HW235589   0.833   0.239  12.910 -1.6495 -0.3129 -0.1035
 8043SOL     OW35590   1.037   2.569   1.987  0.2659  0.3026 -0.2907
 8043SOL    HW135591   0.979   2.632   1.946  0.5114  0.7333  0.0281
 8043SOL    HW235592   0.979   2.494   1.975 -0.7825  1.2219 -0.8467
 8044SOL     OW35593   4.696   1.464  17.562 -0.1627 -0.0330 -0.2367
 8044SOL    HW135594   0.013   1.486  17.645 -1.9516 -0.2868  0.6985
 8044SOL    HW235595   4.612   1.426  17.587  1.4553 -3.5121 -0.0996
 8045SOL     OW35596   0.622   4.190   4.631 -0.2598  0.0854  0.2572
 8045SOL    HW135597   0.609   4.160   4.541 -2.9031  1.0946  0.3063
 8045SOL    HW235598   0.637   4.108   4.678 -2.2799 -0.3151  0.2098
 8046SOL     OW35599   2.416   1.802   0.066  0.0487 -0.4470 -0.2254
 8046SOL    HW135600   2.472   1.842   0.133  0.6481  1.1812 -1.6978
 8046SOL    HW235601   2.446   1.833  17.676 -0.0563 -0.9549 -0.4462
 8047SOL     OW35602   0.014   3.621  12.116  0.3811  0.0947  0.3994
 8047SOL    HW135603   4.684   3.546  12.091 -0.2863  0.8834 -0.5595
 8047SOL    HW235604   0.102   3.590  12.098 -0.2630 -0.6116 -1.5174
 8048SOL     OW35605   3.651   3.687  15.873 -1.0044  0.2077 -0.1637
 8048SOL    HW135606   3.569   3.734  15.861  0.1508  1.6940 -2.1827
 8048SOL    HW235607   3.710   3.763  15.880 -1.0005  0.2044 -0.1610
 8049SOL     OW35608   2.575   3.547   6.581 -0.4169  0.1112 -0.8825
 8049SOL    HW135609   2.640   3.609   6.616  0.3352 -0.6077 -0.9882
 8049SOL    HW235610   2.493   3.585   6.613  0.3006 -0.6000  1.8236
 8050SOL     OW35611   3.739   0.187  17.353 -0.1769 -0.7593 -0.4914
 8050SOL    HW135612   3.748   0.192  17.258 -0.1678 -1.4397 -0.5294
 8050SOL    HW235613   3.822   0.209  17.394  0.3722 -1.4229 -1.2503
 8051SOL     OW35614   3.629   2.848   8.967 -0.1239 -0.4860  0.7957
 8051SOL    HW135615   3.671   2.798   9.036  2.8296 -2.2383 -2.3069
 8051SOL    HW235616   3.620   2.778   8.903  0.8322 -0.5858  0.7667
 8052SOL     OW35617   2.458   2.271   7.231  0.7384 -0.1055 -0.0888
 8052SOL    HW135618   2.476   2.178   7.247  3.0093  0.6056  1.4551
 8052SOL    HW235619   2.405   2.286   7.310 -0.1881 -2.4737 -0.2540
 8053SOL     OW35620   4.061   1.086   8.085 -0.1057 -0.4241  0.0125
 8053SOL    HW135621   4.013   1.084   8.002  2.4283  2.2392 -1.5260
 8053SOL    HW235622   4.023   1.008   8.126  1.7963 -1.5775 -0.4069
 8054SOL     OW35623   0.104   0.344   2.775  0.0840 -0.3977 -0.7563
 8054SOL    HW135624   0.067   0.329   2.862  0.8686  1.6575 -0.0439
 8054SOL    HW235625   0.175   0.405   2.796 -1.2514  1.4740 -1.6755
 8055SOL     OW35626   2.302   1.652   1.932  0.0980  0.3235  0.6344
 8055SOL    HW135627   2.374   1.715   1.931 -0.6857  1.2347  0.5386
 8055SOL    HW235628   2.256   1.676   1.851  1.1382  1.8161  0.4859
 8056SOL     OW35629   2.474   4.172  15.521  0.6799  0.0510 -0.2007
 8056SOL    HW135630   2.397   4.117  15.510  1.0923 -0.3556 -1.1199
 8056SOL    HW235631   2.442   4.262  15.509 -1.1346 -0.3116  2.0712
 8057SOL     OW35632   2.595   0.605  16.723 -0.2887 -0.2139  0.2366
 8057SOL    HW135633   2.659   0.566  16.782 -0.8607 -0.0232  0.9805
 8057SOL    HW235634   2.644   0.678  16.685  1.2387 -1.2549  0.1831
 8058SOL     OW35635   4.166   2.081   6.324 -0.5933 -0.2547 -0.0237
 8058SOL    HW135636   4.234   2.105   6.386 -1.3536 -1.2018  1.1541
 8058SOL    HW235637   4.170   2.155   6.263 -0.6343 -0.1610  0.0878
 8059SOL     OW35638   2.057   1.805   2.226  0.3198 -0.2039 -0.0348
 8059SOL    HW135639   2.010   1.876   2.183  1.0983 -0.0117 -0.5766
 8059SOL    HW235640   2.149   1.821   2.203  1.3239 -1.9531  2.7137
 8060SOL     OW35641   0.237   2.524   2.088 -0.2402 -0.3729 -0.2252
 8060SOL    HW135642   0.143   2.533   2.101  0.0116  1.3560  0.4241
 8060SOL    HW235643   0.243   2.551   1.997 -1.5702 -0.2233 -0.2627
 8061SOL     OW35644   3.730   4.054  16.787 -0.0658  0.0865 -0.1006
 8061SOL    HW135645   3.743   4.009  16.871 -0.6138 -1.6266 -0.9369
 8061SOL    HW235646   3.736   4.147  16.809 -1.4135 -0.2572  1.7486
 8062SOL     OW35647   2.823   0.655   2.818 -0.3778  0.2011  0.1636
 8062SOL    HW135648   2.776   0.712   2.879  0.7067 -0.0738  1.2579
 8062SOL    HW235649   2.749   0.621   2.769  0.6396  1.3472 -2.1649
 8063SOL     OW35650   0.886   4.583   2.032 -0.1071 -0.3696 -0.1803
 8063SOL    HW135651   0.833   4.588   2.112  1.2935  1.9552  0.6018
 8063SOL    HW235652   0.817   4.558   1.971  0.0846 -0.6045 -0.2988
 8064SOL     OW35653   0.981   1.635   3.950 -0.3416 -0.4254 -0.0221
 8064SOL    HW135654   1.002   1.716   3.905  0.4058  0.0783  1.2317
 8064SOL    HW235655   0.891   1.654   3.977 -0.5235 -0.6058 -0.4958
 8065SOL     OW35656   1.428   3.217   3.044 -0.4402  0.1516  0.3122
 8065SOL    HW135657   1.392   3.163   3.114 -1.5637 -1.1838 -1.3025
 8065SOL    HW235658   1.510   3.236   3.090 -0.1876  1.1821 -0.5592
 8066SOL     OW35659   4.558   3.043   5.259 -0.4210 -0.0177 -0.3238
 8066SOL    HW135660   4.485   3.075   5.205 -1.1663  0.8225  1.1926
 8066SOL    HW235661   4.509   2.963   5.280  0.5891 -0.5224  0.1121
 8067SOL     OW35662   1.936   2.620  14.101 -0.1314  0.4066 -0.3286
 8067SOL    HW135663   1.882   2.677  14.045  0.1274 -0.7674 -1.7688
 8067SOL    HW235664   1.906   2.626  14.192 -0.5515  1.6108 -0.5391
 8068SOL     OW35665   1.174   1.399   7.264 -0.2485  0.3253 -0.2542
 8068SOL    HW135666   1.151   1.424   7.353  2.5586 -0.8272  0.7901
 8068SOL    HW235667   1.188   1.480   7.215 -1.9148 -1.1809 -3.2062
 8069SOL     OW35668   3.090   1.395   3.754 -0.1387 -0.1079  0.2907
 8069SOL    HW135669   3.089   1.410   3.660  1.1353 -2.0836 -0.0392
 8069SOL    HW235670   3.160   1.330   3.757  0.2716  0.2635 -1.3052
 8070SOL     OW35671   2.829   0.187   7.293  0.7737  0.1993  0.3795
 8070SOL    HW135672   2.791   0.197   7.381  1.4789 -0.6323  0.7795
 8070SOL    HW235673   2.834   0.091   7.298  0.0856  0.0354 -2.2010
 8071SOL     OW35674   3.055   0.961   2.324 -0.1703  0.3796  0.3875
 8071SOL    HW135675   3.043   0.956   2.229  0.8494 -2.2476  0.3921
 8071SOL    HW235676   3.046   0.871   2.353 -1.4651 -0.3701 -2.3686
 8072SOL     OW35677   1.990   4.408  14.849  0.2859  0.4088 -0.3761
 8072SOL    HW135678   1.966   4.442  14.763  3.6242  1.8410 -0.7268
 8072SOL    HW235679   1.908   4.440  14.887  0.6141  1.3487 -0.4645
 8073SOL     OW35680   1.638   4.439  17.550  0.5472  0.2367  0.9057
 8073SOL    HW135681   1.562   4.496  17.562 -0.1520 -0.3835 -0.6572
 8073SOL    HW235682   1.689   4.501  17.498  0.1271  0.0243  0.2557
 8074SOL     OW35683   0.211   1.726   2.769 -0.1885  0.3042 -0.1866
 8074SOL    HW135684   0.258   1.695   2.847  0.1682  1.8184  0.2065
 8074SOL    HW235685   0.269   1.706   2.695 -0.1506 -1.4261  0.3059
 8075SOL     OW35686   1.118   1.590   4.386 -0.4396 -0.2190 -0.4448
 8075SOL    HW135687   1.124   1.519   4.322 -1.8379 -0.7990  0.0633
 8075SOL    HW235688   1.083   1.661   4.332 -1.4242 -1.9205 -2.0312
 8076SOL     OW35689   4.373   2.985   7.978  0.1400  0.1127  0.0803
 8076SOL    HW135690   4.405   2.944   7.898 -1.1122 -1.7774  0.5400
 8076SOL    HW235691   4.352   2.909   8.033  1.0229 -0.1518  0.0569
 8077SOL     OW35692   0.899   1.873   7.381 -0.1548  0.0492  0.5101
 8077SOL    HW135693   0.922   1.946   7.438 -2.2570  0.5853  0.6716
 8077SOL    HW235694   0.857   1.810   7.440 -2.3783  0.1891 -0.8990
 8078SOL     OW35695   1.837   2.116   2.565  0.1341  0.1242  0.0909
 8078SOL    HW135696   1.928   2.095   2.544 -0.3604 -0.6660 -1.2599
 8078SOL    HW235697   1.806   2.070   2.487 -0.5356 -0.7292  0.8590
 8079SOL     OW35698   0.540   4.363   2.377  0.4778 -0.1835  0.5366
 8079SOL    HW135699   0.491   4.394   2.301  0.4730  0.4507  0.7977
 8079SOL    HW235700   0.521   4.270   2.387  0.2700 -0.3120 -1.1435
 8080SOL     OW35701   1.813   3.395   1.398  0.1149 -0.3325 -0.1520
 8080SOL    HW135702   1.740   3.426   1.452  0.7557 -1.0962  1.1458
 8080SOL    HW235703   1.776   3.384   1.311  0.6754 -0.4148 -0.3795
 8081SOL     OW35704   3.045   4.070  17.350 -0.2188 -0.3042  0.2589
 8081SOL    HW135705   3.046   4.166  17.352 -1.3831 -0.2829 -1.0557
 8081SOL    HW235706   2.977   4.045  17.288  0.1018 -1.8716  0.5497
 8082SOL     OW35707   3.086   4.020   7.605 -0.1339 -0.0008  0.7144
 8082SOL    HW135708   2.997   4.006   7.638 -0.3526  4.4825  2.0454
 8082SOL    HW235709   3.071   4.109   7.572 -1.4074 -0.0030  1.2814
 8083SOL     OW35710   2.981   3.695  11.166  0.2881  0.6867  0.5953
 8083SOL    HW135711   2.919   3.745  11.220 -1.9850  0.2048 -1.5916
 8083SOL    HW235712   2.962   3.601  11.168  0.2119  0.7329  2.5247
 8084SOL     OW35713   2.749   0.742   6.792  0.3709  0.3084  0.1873
 8084SOL    HW135714   2.701   0.792   6.858  1.1071  1.2080  0.0495
 8084SOL    HW235715   2.823   0.798   6.766  0.2801 -0.1722 -1.1003
 8085SOL     OW35716   3.934   2.622   5.772 -0.6186  0.0537 -0.1142
 8085SOL    HW135717   4.018   2.628   5.818 -0.6266 -4.5265  0.4802
 8085SOL    HW235718   3.933   2.694   5.709  0.4870  0.7705  0.6851
 8086SOL     OW35719   2.624   3.208   7.286 -0.2924  0.2449  0.5379
 8086SOL    HW135720   2.560   3.157   7.237  0.6959 -1.0316  0.5771
 8086SOL    HW235721   2.688   3.147   7.322  0.3312  0.9742  0.6841
 8087SOL     OW35722   2.334   1.940  12.020 -0.3245  0.3570  0.2223
 8087SOL    HW135723   2.248   1.914  12.053 -0.0756 -0.7861 -0.0206
 8087SOL    HW235724   2.333   2.028  12.058  0.5048  0.3790  0.1980
 8088SOL     OW35725   3.771   4.657   0.625  0.0026 -0.1603  0.3058
 8088SOL    HW135726   3.857   4.646   0.665 -0.1911  0.7471  0.9974
 8088SOL    HW235727   3.744   0.009   0.678  3.0887  1.4972 -0.4837
 8089SOL     OW35728   1.570   1.638  14.599  0.1976 -0.0192  0.1633
 8089SOL    HW135729   1.594   1.656  14.508 -2.1376  3.1115  0.1588
 8089SOL    HW235730   1.600   1.548  14.612 -0.6536 -0.7145 -2.6470
 8090SOL     OW35731   0.038   2.336  15.025 -0.0943 -0.3922 -0.1994
 8090SOL    HW135732   4.693   2.270  15.035 -0.2052 -0.3992 -1.0030
 8090SOL    HW235733   4.712   2.393  14.967  1.9773  0.7100 -0.9063
 8091SOL     OW35734   2.847   1.256   7.668 -0.1745  0.7350  0.1350
 8091SOL    HW135735   2.810   1.342   7.646  0.1412  0.7604 -0.2880
 8091SOL    HW235736   2.811   1.213   7.591 -1.4642  0.7793  0.7229
 8092SOL     OW35737   1.152   4.382   5.155 -0.3290 -0.4156  0.1296
 8092SOL    HW135738   1.149   4.444   5.228  0.0464  0.5830 -0.7100
 8092SOL    HW235739   1.195   4.306   5.194  1.6731  0.1602 -0.9476
 8093SOL     OW35740   2.717   0.512   3.068 -0.0210 -0.3761  0.1724
 8093SOL    HW135741   2.717   0.418   3.088 -1.2211 -0.0585  1.6023
 8093SOL    HW235742   2.716   0.504   2.972  0.5568  1.4100  0.0229
 8094SOL     OW35743   3.841   2.391   8.399 -0.4583  0.6150 -0.5676
 8094SOL    HW135744   3.779   2.386   8.326 -0.9722  1.9565 -0.2085
 8094SOL    HW235745   3.843   2.479   8.435 -2.1988  0.5346 -0.2642
 8095SOL     OW35746   3.455   2.559   0.751 -0.2651 -0.2699 -0.4921
 8095SOL    HW135747   3.427   2.549   0.842  0.1307  0.5634 -0.2819
 8095SOL    HW235748   3.388   2.518   0.695  1.0688 -3.1151 -0.0015
 8096SOL     OW35749   4.413   0.586  10.889 -0.0421 -0.4718 -0.0238
 8096SOL    HW135750   4.387   0.569  10.979  1.5720 -0.3717  0.4466
 8096SOL    HW235751   4.490   0.639  10.904 -0.3473  0.3747 -1.4024
 8097SOL     OW35752   0.833   0.585   4.453  0.0348 -0.2821 -0.1003
 8097SOL    HW135753   0.844   0.492   4.434  0.1873 -0.5952  1.5090
 8097SOL    HW235754   0.738   0.593   4.464  0.3759 -1.4659  3.5317
 8098SOL     OW35755   0.366   1.464   2.091 -0.3262  0.5846  0.1283
 8098SOL    HW135756   0.353   1.540   2.036  1.1429  0.5720 -0.2308
 8098SOL    HW235757   0.423   1.493   2.162 -1.1537 -0.7051  1.3446
 8099SOL     OW35758   3.759   2.394   2.141 -0.6457 -0.0054 -0.1657
 8099SOL    HW135759   3.831   2.331   2.141 -0.9370 -0.3162  1.4134
 8099SOL    HW235760   3.790   2.456   2.074  0.6161 -0.3682  0.0724
 8100SOL     OW35761   1.885   3.157   6.113 -0.4731 -0.2117 -0.5505
 8100SOL    HW135762   1.825   3.200   6.052 -0.9578 -0.6024 -0.3432
 8100SOL    HW235763   1.898   3.074   6.068  0.2304  0.0552 -0.8388
 8101SOL     OW35764   4.400   2.648   7.713 -0.3309  0.2327  0.2733
 8101SOL    HW135765   4.403   2.561   7.674 -1.1430  0.9914 -1.4868
 8101SOL    HW235766   4.464   2.638   7.784  2.0797  1.7775 -1.6758
 8102SOL     OW35767   4.502   0.038   2.935 -0.3088 -0.1127 -0.6968
 8102SOL    HW135768   4.534   0.117   2.979 -2.5059 -0.0067  0.6994
 8102SOL    HW235769   4.574   0.032   2.873  1.9195 -1.9377  2.0325
 8103SOL     OW35770   4.134   0.647   1.586  0.7547  0.2615 -0.2317
 8103SOL    HW135771   4.131   0.551   1.595  0.1880  0.1065 -2.1308
 8103SOL    HW235772   4.099   0.660   1.498 -1.8131  0.0834  0.7488
 8104SOL     OW35773   3.245   0.801   3.615  0.1714  0.6437  0.5206
 8104SOL    HW135774   3.272   0.732   3.675 -1.7651  0.2675  0.9516
 8104SOL    HW235775   3.156   0.777   3.587  0.2966  0.0250  0.6600
 8105SOL     OW35776   3.260   2.286   3.798  0.5501 -0.0422 -0.2872
 8105SOL    HW135777   3.178   2.268   3.844  0.7962  0.4296  0.3335
 8105SOL    HW235778   3.227   2.310   3.711 -0.8046  1.9979  0.7650
 8106SOL     OW35779   4.041   2.307   3.263  0.0034  0.3469 -0.4836
 8106SOL    HW135780   4.070   2.394   3.238  1.5378  0.8109  2.9289
 8106SOL    HW235781   4.084   2.249   3.200 -0.9012 -0.2914 -0.5289
 8107SOL     OW35782   3.967   3.953   8.255  0.0852  0.4748 -0.9353
 8107SOL    HW135783   4.050   3.920   8.289  0.4455  1.1032 -1.1924
 8107SOL    HW235784   3.911   3.881   8.284  1.5898  0.1774  1.1967
 8108SOL     OW35785   0.694   2.160  14.965  0.3547 -0.8241  0.0620
 8108SOL    HW135786   0.645   2.084  14.934  0.5621 -0.5860 -0.8442
 8108SOL    HW235787   0.717   2.141  15.056 -1.4759  0.6682  0.8327
 8109SOL     OW35788   2.239   0.250   3.353 -0.9419  0.1680  0.2789
 8109SOL    HW135789   2.256   0.226   3.444  0.1128 -0.4098 -0.0713
 8109SOL    HW235790   2.200   0.337   3.365  1.6448  1.4869 -0.7375
 8110SOL     OW35791   3.534   1.903  11.396  0.3920 -0.2845  0.1426
 8110SOL    HW135792   3.444   1.875  11.413  0.4295  0.3568  1.3690
 8110SOL    HW235793   3.571   1.841  11.459 -0.9579 -0.4360  0.7813
 8111SOL     OW35794   0.152   3.410  14.940 -0.0612 -0.7764  0.4899
 8111SOL    HW135795   0.230   3.460  14.914  1.1146 -1.9745  1.7895
 8111SOL    HW235796   0.151   3.336  14.880 -2.9658 -0.4358  0.1401
 8112SOL     OW35797   1.916   3.586   2.119 -0.8986  0.5770  0.0017
 8112SOL    HW135798   1.900   3.492   2.115  0.6175  0.3218 -0.0315
 8112SOL    HW235799   1.895   3.602   2.027 -0.7972  0.4282 -0.0474
 8113SOL     OW35800   0.700   2.088   2.038  0.0890 -0.3455 -0.6830
 8113SOL    HW135801   0.792   2.113   2.028  0.1293  0.1298  0.9624
 8113SOL    HW235802   0.664   2.159   2.090  0.5308 -0.9386  0.4303
 8114SOL     OW35803   4.467   2.063   2.201  0.3895 -0.2576 -0.0443
 8114SOL    HW135804   4.373   2.054   2.217 -0.0056  2.8085 -0.6574
 8114SOL    HW235805   4.482   1.974   2.169  1.6127  0.4003 -1.2893
 8115SOL     OW35806   4.581   2.059  14.661 -0.0793  0.1449 -0.1457
 8115SOL    HW135807   4.503   2.050  14.606  0.6901  2.5817 -1.6263
 8115SOL    HW235808   4.586   2.154  14.653  0.5919  0.0626 -0.8132
 8116SOL     OW35809   2.641   2.747   2.181 -1.0364  0.3867 -0.3291
 8116SOL    HW135810   2.629   2.832   2.138  1.4604 -0.8350 -3.3562
 8116SOL    HW235811   2.605   2.768   2.268  0.0995 -1.3571  0.5602
 8117SOL     OW35812   1.886   3.841  14.608  0.3661  0.3918  0.6978
 8117SOL    HW135813   1.888   3.746  14.615  1.2356  0.2453 -1.5157
 8117SOL    HW235814   1.876   3.873  14.698  0.1026 -2.6577  1.7553
 8118SOL     OW35815   3.512   0.833   5.096 -0.1826 -0.2352 -0.3261
 8118SOL    HW135816   3.593   0.878   5.075 -1.5520  2.0009 -0.8455
 8118SOL    HW235817   3.527   0.826   5.191 -0.9067 -1.9417 -0.3485
 8119SOL     OW35818   3.650   3.879   7.172 -0.2675  0.7958  0.1674
 8119SOL    HW135819   3.588   3.869   7.245 -2.7196 -1.6714 -2.2342
 8119SOL    HW235820   3.605   3.824   7.108 -0.9510  0.7820  0.6602
 8120SOL     OW35821   4.332   3.316   1.911  0.2082  0.7057 -0.4039
 8120SOL    HW135822   4.372   3.339   1.827 -0.9674 -0.7863 -1.3648
 8120SOL    HW235823   4.290   3.232   1.894  0.7891 -0.0721  2.0011
 8121SOL     OW35824   0.303   4.069   8.482  0.5699 -0.4531  0.3075
 8121SOL    HW135825   0.281   4.020   8.561  2.4453  0.1431  1.1890
 8121SOL    HW235826   0.308   4.157   8.520  2.2819 -0.0136 -0.9934
 8122SOL     OW35827   1.881   1.027   4.937 -0.4222  0.3534  0.6683
 8122SOL    HW135828   1.914   1.069   5.017  0.3860 -1.1533  1.1285
 8122SOL    HW235829   1.791   1.007   4.963 -0.4282 -1.1931 -0.5248
 8123SOL     OW35830   2.953   3.739   0.619 -0.2823  0.2181 -0.4677
 8123SOL    HW135831   2.864   3.754   0.650 -0.0159  2.0021 -0.5332
 8123SOL    HW235832   2.998   3.716   0.701 -0.8601 -0.3458 -0.3107
 8124SOL     OW35833   3.493   2.242   1.711  0.7705 -0.4991  0.3095
 8124SOL    HW135834   3.546   2.289   1.646  3.1802 -0.9351  1.9706
 8124SOL    HW235835   3.445   2.311   1.756  1.7104  0.4490 -0.1470
 8125SOL     OW35836   1.830   2.918   5.995 -0.4123 -0.2062 -0.6122
 8125SOL    HW135837   1.898   2.852   6.005 -1.3706 -1.1880 -0.5695
 8125SOL    HW235838   1.755   2.863   5.973 -1.0012  0.5355 -0.4540
 8126SOL     OW35839   1.656   4.098  14.190  0.1228 -0.3110 -0.2506
 8126SOL    HW135840   1.691   4.058  14.270 -0.8962 -0.0896  0.2983
 8126SOL    HW235841   1.717   4.055  14.130 -1.7104 -0.5389 -1.9411
 8127SOL     OW35842   2.687   4.004  15.669  0.2713  0.1726 -0.0378
 8127SOL    HW135843   2.641   4.066  15.725 -1.8575 -0.3969 -1.1646
 8127SOL    HW235844   2.670   3.924  15.719 -4.1249  1.2058  0.1010
 8128SOL     OW35845   2.760   2.407   1.695  0.5640 -0.1754 -0.0320
 8128SOL    HW135846   2.734   2.468   1.764 -2.3742 -2.5424  0.9676
 8128SOL    HW235847   2.834   2.448   1.651 -1.1500  1.1094 -1.6936
 8129SOL     OW35848   3.478   1.551   2.593 -0.2722  0.0567 -0.2165
 8129SOL    HW135849   3.497   1.617   2.659  1.4403  0.2817 -0.9296
 8129SOL    HW235850   3.519   1.474   2.633  0.9682  0.9444  0.2172
 8130SOL     OW35851   2.889   2.266   3.393 -0.5220  0.2190  0.3334
 8130SOL    HW135852   2.961   2.250   3.332  0.2154  0.0717  1.2335
 8130SOL    HW235853   2.821   2.207   3.360  0.2081  0.3196 -1.3356
 8131SOL     OW35854   2.188   4.246   3.457  0.4299  0.4813  0.0688
 8131SOL    HW135855   2.129   4.222   3.529  1.5621 -0.8956  0.5292
 8131SOL    HW235856   2.209   4.337   3.482  3.9167  0.1614 -1.7447
 8132SOL     OW35857   2.567   4.377   7.664 -0.1257 -0.2119 -0.4885
 8132SOL    HW135858   2.490   4.354   7.716 -0.6233  1.4804 -0.4719
 8132SOL    HW235859   2.586   4.293   7.623  0.9521  1.3829 -3.2982
 8133SOL     OW35860   4.717   4.509   2.937 -0.0041 -0.1986  0.3162
 8133SOL    HW135861   0.042   4.445   2.886 -0.5556 -0.1106 -0.3256
 8133SOL    HW235862   0.026   4.588   2.895  0.7358  0.4958  2.2181
 8134SOL     OW35863   4.021   4.480  13.144  0.5574  0.0308 -0.5100
 8134SOL    HW135864   4.055   4.422  13.213 -0.5174  1.9330  1.6291
 8134SOL    HW235865   4.089   4.479  13.077  1.7670 -0.3528  0.7202
 8135SOL     OW35866   2.737   2.472   9.741  0.4123 -0.1644 -0.5301
 8135SOL    HW135867   2.771   2.415   9.672 -1.5185 -1.2862 -0.5595
 8135SOL    HW235868   2.782   2.440   9.818  0.7331  1.2260 -0.1512
 8136SOL     OW35869   4.671   2.914  14.713 -0.0882 -0.4168 -0.0493
 8136SOL    HW135870   4.615   2.840  14.737 -2.5949  1.9021  1.2022
 8136SOL    HW235871   0.017   2.867  14.666 -0.3593  1.4630 -2.3409
 8137SOL     OW35872   1.587   1.642   4.158 -0.0852  0.0171  0.4433
 8137SOL    HW135873   1.588   1.714   4.222 -0.3558  0.3225  0.1049
 8137SOL    HW235874   1.647   1.585   4.205  0.4589 -0.5025 -0.9030
 8138SOL     OW35875   3.047   1.869   3.618  0.1771 -0.1418 -0.4533
 8138SOL    HW135876   3.015   1.955   3.592  0.5297 -0.6944 -2.7392
 8138SOL    HW235877   3.121   1.863   3.557 -0.7966  2.0603 -1.8510
 8139SOL     OW35878   4.572   3.447   0.155 -0.2408 -0.3575 -0.2086
 8139SOL    HW135879   4.544   3.392   0.081 -0.2916 -1.7152  0.8244
 8139SOL    HW235880   4.506   3.515   0.147 -1.1231 -1.1502  0.3234
 8140SOL     OW35881   3.103   4.695   8.010  0.0011  0.7067 -0.4918
 8140SOL    HW135882   3.056   4.642   7.946 -2.1493  1.7335  0.2110
 8140SOL    HW235883   3.061   4.673   8.093 -1.4200 -0.2888 -1.4742
 8141SOL     OW35884   0.584   3.446   1.418  0.5405  0.4105 -0.0962
 8141SOL    HW135885   0.562   3.359   1.384 -0.6241  0.0967  1.4475
 8141SOL    HW235886   0.596   3.432   1.512 -4.0053  1.2290  0.6232
 8142SOL     OW35887   4.634   2.163   3.213  0.4610 -0.1389 -0.4318
 8142SOL    HW135888   4.559   2.130   3.263 -0.0475  2.5712  0.5721
 8142SOL    HW235889   4.707   2.126   3.264  1.8293  0.6296 -1.8465
 8143SOL     OW35890   3.060   3.692  17.404 -0.2982  0.0554  0.1570
 8143SOL    HW135891   2.971   3.713  17.432  0.7272  0.8166  2.9341
 8143SOL    HW235892   3.090   3.637  17.477  0.4484 -1.7955 -1.5541
 8144SOL     OW35893   1.815   0.374   7.276  0.1532  0.1854  0.1675
 8144SOL    HW135894   1.736   0.324   7.300 -0.6839  1.6002  0.3932
 8144SOL    HW235895   1.794   0.405   7.188  0.6444 -1.4768 -0.5274
 8145SOL     OW35896   1.044   1.250  15.116  0.2874  0.9160  0.2518
 8145SOL    HW135897   1.054   1.210  15.030  0.2283 -0.1856  0.7625
 8145SOL    HW235898   1.018   1.173  15.166 -0.9384 -0.3594 -2.3678
 8146SOL     OW35899   1.411   0.770   6.957 -1.0050  0.1623  0.5219
 8146SOL    HW135900   1.381   0.781   6.867 -0.7876  0.5451  0.4949
 8146SOL    HW235901   1.481   0.835   6.958 -0.5396 -0.4308  3.9772
 8147SOL     OW35902   1.657   2.423   0.161  0.7693  0.6371 -0.1672
 8147SOL    HW135903   1.640   2.341   0.207 -1.3793  0.6961 -0.8521
 8147SOL    HW235904   1.578   2.469   0.191  2.1402  1.3865  2.3098
 8148SOL     OW35905   0.978   3.518   3.199  0.2636  0.3960  0.4712
 8148SOL    HW135906   1.056   3.538   3.147 -1.0118 -2.1009 -2.4400
 8148SOL    HW235907   0.991   3.578   3.272  0.2311  1.3878 -0.3398
 8149SOL     OW35908   4.687   4.503   2.611 -0.3601  0.5108 -0.0420
 8149SOL    HW135909   4.592   4.493   2.616 -0.2138 -0.4559  0.8551
 8149SOL    HW235910   4.678   4.598   2.622 -0.7835  0.6460 -1.6269
 8150SOL     OW35911   0.490   3.057  16.346 -0.2688 -0.0407 -0.7372
 8150SOL    HW135912   0.479   2.962  16.336 -1.8763 -0.1162  1.6619
 8150SOL    HW235913   0.417   3.090  16.293  0.8467  0.3776 -2.0053
 8151SOL     OW35914   1.523   0.994  15.673 -0.1004 -0.4572 -0.1084
 8151SOL    HW135915   1.509   1.076  15.720 -2.4380  0.8455 -3.0992
 8151SOL    HW235916   1.482   0.930  15.732  0.5492 -0.3202  0.4916
 8152SOL     OW35917   2.663   3.784   5.639  0.4985 -0.6015 -0.0889
 8152SOL    HW135918   2.705   3.828   5.565 -1.9549 -0.9523 -1.6960
 8152SOL    HW235919   2.715   3.829   5.706  0.4283 -1.4399  0.5307
 8153SOL     OW35920   0.638   2.535   7.499 -0.4937  0.1717 -0.2577
 8153SOL    HW135921   0.693   2.552   7.423  0.7144  1.3594  0.8791
 8153SOL    HW235922   0.613   2.445   7.481  0.1658 -0.5852  2.5383
 8154SOL     OW35923   2.953   2.526   8.084  0.7097 -0.3255  0.3937
 8154SOL    HW135924   2.946   2.573   8.167  1.7240 -1.6804  1.2497
 8154SOL    HW235925   3.043   2.494   8.091  1.5488  1.8423 -0.2500
 8155SOL     OW35926   1.551   1.031  15.988  0.5415 -0.1917 -0.3927
 8155SOL    HW135927   1.635   1.003  15.951  1.2358 -0.2390  1.2409
 8155SOL    HW235928   1.557   1.018  16.082 -0.2079  3.1603  0.1211
 8156SOL     OW35929   3.757   0.969   8.212  0.0042  0.5617 -0.1305
 8156SOL    HW135930   3.753   1.054   8.255 -1.9565  0.9841 -1.1845
 8156SOL    HW235931   3.839   0.940   8.252 -0.3616 -0.7957 -0.3729
 8157SOL     OW35932   3.894   0.131   8.008 -0.1986 -0.0160  0.7714
 8157SOL    HW135933   3.852   0.119   8.093  0.6683 -2.2579  0.8923
 8157SOL    HW235934   3.933   0.214   8.034 -1.2379  1.3423 -2.0278
 8158SOL     OW35935   4.553   3.476   4.897 -0.0844  0.6271  0.6915
 8158SOL    HW135936   4.640   3.506   4.874 -0.3945 -1.3170 -3.0381
 8158SOL    HW235937   4.551   3.396   4.845  0.5189  0.3787  1.0630
 8159SOL     OW35938   3.488   2.549   0.005 -0.2382  0.3792  0.4887
 8159SOL    HW135939   3.582   2.530   0.007 -0.4730 -0.7667  0.5320
 8159SOL    HW235940   3.475   2.543   0.099 -1.6088  2.6187  0.4342
 8160SOL     OW35941   4.598   0.178  10.852 -0.0385  0.8078  0.2292
 8160SOL    HW135942   4.689   0.193  10.878 -0.0302 -1.4331  1.4276
 8160SOL    HW235943   4.557   0.188  10.938 -2.1646  2.2362 -0.9617
 8161SOL     OW35944   1.952   4.365   5.126  0.4547 -0.2502  0.1151
 8161SOL    HW135945   2.041   4.393   5.104 -0.1564  1.3871 -0.2812
 8161SOL    HW235946   1.942   4.415   5.207 -0.7695 -1.2266  0.5607
 8162SOL     OW35947   2.343   2.266   3.483 -0.6526  0.3715 -0.0444
 8162SOL    HW135948   2.361   2.360   3.486  1.3334  0.0283 -1.6651
 8162SOL    HW235949   2.262   2.263   3.534 -2.7654 -2.0106 -3.5307
 8163SOL     OW35950   0.742   1.596   1.317  0.0548  0.2728  0.3334
 8163SOL    HW135951   0.648   1.597   1.337  0.3329 -0.5714  1.7316
 8163SOL    HW235952   0.777   1.606   1.405  0.1689 -0.2437  0.3463
 8164SOL     OW35953   1.914   3.832   8.017 -0.7431 -0.2964  0.2479
 8164SOL    HW135954   1.959   3.915   8.030  1.7195 -1.5720 -0.1558
 8164SOL    HW235955   1.979   3.767   7.990 -1.5532 -0.8051 -0.4797
 8165SOL     OW35956   3.486   2.817   0.387 -0.4241  0.2872 -0.0237
 8165SOL    HW135957   3.464   2.819   0.480  1.4846  0.4185  0.4348
 8165SOL    HW235958   3.574   2.855   0.394  0.1495 -1.0165 -0.1771
 8166SOL     OW35959   3.819   1.389   4.987  0.0219 -0.3566 -0.1442
 8166SOL    HW135960   3.882   1.412   4.919  1.0041  1.8655  1.4973
 8166SOL    HW235961   3.781   1.472   5.016 -1.9248 -1.9078  1.7672
 8167SOL     OW35962   0.302   4.347   7.746 -0.8590 -0.1770  0.4032
 8167SOL    HW135963   0.349   4.264   7.733 -0.6191 -0.0256  0.3095
 8167SOL    HW235964   0.370   4.411   7.767  1.4109 -2.4644  0.0398
 8168SOL     OW35965   1.543   4.292  10.536 -0.0630  0.4152 -0.1954
 8168SOL    HW135966   1.511   4.377  10.565  2.9856  0.2422  3.7239
 8168SOL    HW235967   1.591   4.317  10.456  2.1855  0.4104  1.1563
 8169SOL     OW35968   1.364   2.709   1.676  0.2612 -0.0104  0.2574
 8169SOL    HW135969   1.444   2.749   1.641 -0.0964  2.3329  2.1031
 8169SOL    HW235970   1.327   2.664   1.600 -2.0845 -0.0109  1.4016
 8170SOL     OW35971   0.117   2.129   2.433  0.1950 -0.3837  0.3975
 8170SOL    HW135972   0.044   2.089   2.479 -1.4424  2.1331 -0.0068
 8170SOL    HW235973   0.163   2.182   2.499 -2.3261  2.7051 -0.3368
 8171SOL     OW35974   0.847   4.195   2.905 -0.4947  0.2169  0.4937
 8171SOL    HW135975   0.842   4.188   3.001 -1.3996 -2.2424  0.2545
 8171SOL    HW235976   0.929   4.242   2.890 -0.7319 -0.5133 -2.9434
 8172SOL     OW35977   4.046   3.275   5.057 -0.1146  0.3909  0.1908
 8172SOL    HW135978   3.984   3.203   5.066  4.6925 -3.6354  0.9751
 8172SOL    HW235979   4.105   3.245   4.988  0.9468  1.7632  0.4923
 8173SOL     OW35980   4.406   3.852  12.556  0.2724 -0.0855 -0.0760
 8173SOL    HW135981   4.485   3.867  12.504  0.3844  0.6268  0.3029
 8173SOL    HW235982   4.424   3.770  12.602  1.4080 -0.4933 -1.2229
 8174SOL     OW35983   4.619   1.024   6.306  0.0373  0.3628 -0.3092
 8174SOL    HW135984   4.625   1.115   6.333  3.2287 -0.8877  3.1188
 8174SOL    HW235985   4.524   1.019   6.310  0.0776 -1.0596 -1.0051
 8175SOL     OW35986   1.084   3.672   2.434  0.4711 -0.7641  0.3394
 8175SOL    HW135987   1.143   3.695   2.506  1.0428  0.0980 -0.3993
 8175SOL    HW235988   1.092   3.746   2.373 -0.7353 -1.9692 -1.2966
 8176SOL     OW35989   3.930   0.895   1.885  0.6384 -0.0862  0.4517
 8176SOL    HW135990   3.974   0.815   1.856 -1.3392 -0.8739 -0.3597
 8176SOL    HW235991   4.000   0.937   1.936 -1.6439  2.6516  1.3297
 8177SOL     OW35992   1.388   0.998  10.169  0.1145  0.2677  0.3005
 8177SOL    HW135993   1.376   0.916  10.218  2.3251 -0.3420 -0.1603
 8177SOL    HW235994   1.366   0.975  10.079  0.1980  2.2196 -0.2012
 8178SOL     OW35995   4.455   1.431   9.124 -0.6228 -0.1248 -0.5363
 8178SOL    HW135996   4.422   1.511   9.164 -0.7399 -0.8614  0.8739
 8178SOL    HW235997   4.548   1.452   9.126 -0.9655  1.3530 -0.4576
 8179SOL     OW35998   4.656   1.512   4.507  0.8211 -0.1738  0.8292
 8179SOL    HW135999   4.711   1.581   4.469 -0.4198  0.1231 -0.4284
 8179SOL    HW236000   4.595   1.570   4.554 -0.8481 -1.4367  0.2365
 8180SOL     OW36001   1.220   0.367   9.980  0.0373 -0.2638  0.1422
 8180SOL    HW136002   1.310   0.353   9.951  0.2301  0.4346  0.3997
 8180SOL    HW236003   1.235   0.400  10.069  0.3088  0.2628 -0.0971
 8181SOL     OW36004   1.969   1.933  17.605  0.8466 -0.0918 -0.5299
 8181SOL    HW136005   1.874   1.942  17.599  0.7258 -0.9572  0.1405
 8181SOL    HW236006   1.985   1.841  17.586 -0.6876 -0.6481  0.9134
 8182SOL     OW36007   4.207   2.333   5.382 -0.7346  0.2357  0.4332
 8182SOL    HW136008   4.215   2.367   5.472  4.3594  0.1817 -0.0079
 8182SOL    HW236009   4.111   2.329   5.381 -0.7046 -0.9260  1.8959
 8183SOL     OW36010   1.940   2.954  10.840  0.3045 -0.2357 -0.1034
 8183SOL    HW136011   1.874   3.022  10.826 -0.2812 -0.8117 -0.1168
 8183SOL    HW236012   2.020   3.006  10.849  1.4414 -1.9010 -0.5911
 8184SOL     OW36013   3.765   2.788   1.467 -0.4304  0.1166 -0.4831
 8184SOL    HW136014   3.672   2.789   1.488 -0.2804 -1.1775  0.2640
 8184SOL    HW236015   3.771   2.792   1.371 -2.3634 -2.1045 -0.7120
 8185SOL     OW36016   0.852   0.319   4.526  0.2750  0.5581 -0.0384
 8185SOL    HW136017   0.931   0.269   4.543 -1.6592 -1.8522  1.9205
 8185SOL    HW236018   0.797   0.268   4.466  0.5520  1.6426 -1.2217
 8186SOL     OW36019   1.539   0.614  16.269 -0.2980 -0.1065 -0.0559
 8186SOL    HW136020   1.506   0.650  16.351  1.8727  3.2961 -0.6709
 8186SOL    HW236021   1.594   0.538  16.288  1.1430  0.6369 -1.1944
 8187SOL     OW36022   1.268   1.688   1.894  0.2305 -0.5525 -0.2688
 8187SOL    HW136023   1.263   1.765   1.951  1.0039  0.4104 -1.4903
 8187SOL    HW236024   1.318   1.624   1.944  1.0513 -0.3600 -0.8417
 8188SOL     OW36025   0.775   1.787   9.329  0.3111 -0.8433  0.2491
 8188SOL    HW136026   0.680   1.794   9.326  0.3647 -0.7550 -1.1228
 8188SOL    HW236027   0.786   1.707   9.277  0.6363 -0.2421 -0.6215
 8189SOL     OW36028   3.895   0.373   6.451 -0.1885  0.1764 -0.3552
 8189SOL    HW136029   3.880   0.279   6.442  1.1297 -0.2017  1.3991
 8189SOL    HW236030   3.980   0.392   6.411 -0.8919 -1.2695 -2.5516
 8190SOL     OW36031   1.578   3.614   3.008  0.3586 -0.2700  0.3677
 8190SOL    HW136032   1.562   3.525   2.978  0.3170 -0.0140 -0.3616
 8190SOL    HW236033   1.499   3.621   3.061  1.8442 -1.2667  2.6984
 8191SOL     OW36034   2.793   0.091  12.429 -0.0882 -0.2942  0.3847
 8191SOL    HW136035   2.739   0.169  12.439 -1.0961 -0.8640 -0.5243
 8191SOL    HW236036   2.756   0.045  12.353  0.6505 -1.6975  0.8686
 8192SOL     OW36037   1.442   1.058   2.653 -0.3500 -0.2387  0.1605
 8192SOL    HW136038   1.447   1.016   2.739 -1.2886  0.4344  0.5440
 8192SOL    HW236039   1.449   0.979   2.599 -0.2883  0.3949 -0.7558
 8193SOL     OW36040   3.448   3.095   0.702 -0.0474 -0.1613  0.1112
 8193SOL    HW136041   3.538   3.129   0.702 -0.8002  1.8595  1.6697
 8193SOL    HW236042   3.463   3.002   0.688  0.1156 -0.3373  1.4338
 8194SOL     OW36043   1.023   3.424   5.269 -0.0612  0.3956 -0.4902
 8194SOL    HW136044   0.951   3.404   5.209 -1.3645  0.5680  0.9914
 8194SOL    HW236045   1.076   3.478   5.210  1.5648  0.0874  0.7026
 8195SOL     OW36046   1.207   1.170   9.910  0.8895  0.2980  0.0966
 8195SOL    HW136047   1.239   1.089   9.949  0.5874 -0.2144 -0.7022
 8195SOL    HW236048   1.283   1.223   9.888  2.2564 -1.1880  1.2181
 8196SOL     OW36049   0.181   0.314   6.109 -0.6246  0.5357  0.5108
 8196SOL    HW136050   0.162   0.240   6.167 -0.4202  0.4404  0.4543
 8196SOL    HW236051   0.147   0.266   6.034  2.1543  1.5587 -1.3913
 8197SOL     OW36052   2.621   4.177  16.751 -0.0987  0.2381 -0.2888
 8197SOL    HW136053   2.536   4.168  16.794 -0.4756 -0.1787 -1.1118
 8197SOL    HW236054   2.598   4.141  16.665  3.7033  1.7373 -1.8916
 8198SOL     OW36055   4.183   1.219  12.518 -0.3960  0.4410 -0.5348
 8198SOL    HW136056   4.107   1.277  12.515 -0.5910  0.0751 -2.8103
 8198SOL    HW236057   4.216   1.234  12.429 -0.5462  0.8928 -0.5182
 8199SOL     OW36058   3.444   3.182   8.008 -0.4158  0.0731  0.5440
 8199SOL    HW136059   3.432   3.087   8.009  0.1586  0.0075  1.0887
 8199SOL    HW236060   3.379   3.205   7.942 -1.6555 -3.9532  0.3457
 8200SOL     OW36061   4.466   0.690  16.725 -0.3259 -0.3304  0.2970
 8200SOL    HW136062   4.418   0.748  16.667  1.7837  2.4370  1.3485
 8200SOL    HW236063   4.520   0.755  16.769  0.2386 -1.2161  0.9226
 8201SOL     OW36064   4.712   3.983  17.442 -0.7441  0.1845 -0.3073
 8201SOL    HW136065   0.073   3.940  17.447 -1.2463 -0.8612 -0.7954
 8201SOL    HW236066   4.662   3.914  17.397 -0.4125 -0.7140  0.7145
 8202SOL     OW36067   2.230   2.025  14.061  0.0046 -0.0366  0.4560
 8202SOL    HW136068   2.239   1.931  14.076 -0.1290 -0.3359 -1.2730
 8202SOL    HW236069   2.139   2.042  14.083 -0.5766 -1.3497 -0.9525
 8203SOL     OW36070   3.240   1.286   7.310  0.3946  0.2356  0.1222
 8203SOL    HW136071   3.194   1.369   7.325 -0.9323 -0.3519 -0.6031
 8203SOL    HW236072   3.170   1.227   7.280  1.4131  0.4006 -2.6278
 8204SOL     OW36073   0.225   2.532   7.111 -0.6781 -0.1784  0.3283
 8204SOL    HW136074   0.147   2.579   7.138 -0.2158  1.4119 -1.1267
 8204SOL    HW236075   0.209   2.445   7.147  1.8366 -0.9886 -0.4653
 8205SOL     OW36076   0.219   4.257   6.140 -0.2930  0.3370 -0.2238
 8205SOL    HW136077   0.301   4.298   6.114 -0.3638  2.2521  2.6003
 8205SOL    HW236078   0.249   4.166   6.142  0.7021  0.5815 -3.9487
 8206SOL     OW36079   3.582   3.807  16.792 -0.1109  0.1714  0.2922
 8206SOL    HW136080   3.657   3.865  16.802 -0.6356  1.3502 -2.5238
 8206SOL    HW236081   3.524   3.868  16.745 -1.0975 -0.6728  0.4085
 8207SOL     OW36082   4.131   2.459   5.633 -0.1725 -0.1445  0.1188
 8207SOL    HW136083   4.144   2.541   5.585 -1.3527 -0.7955 -1.3299
 8207SOL    HW236084   4.043   2.472   5.671 -1.6616 -2.3581 -2.5880
 8208SOL     OW36085   0.332   2.865   8.776  0.7314 -0.4735 -0.6323
 8208SOL    HW136086   0.269   2.812   8.826  2.5152 -0.2049  1.8529
 8208SOL    HW236087   0.271   2.904   8.714  1.5708  0.1716 -1.0525
 8209SOL     OW36088   3.423   0.030  16.649 -0.2154 -0.2113 -0.3525
 8209SOL    HW136089   3.370   4.694  16.703  1.2347 -0.4277  0.8150
 8209SOL    HW236090   3.489   0.053  16.714  1.0441 -1.4747 -1.1815
 8210SOL     OW36091   1.758   4.533   5.881 -0.2465  0.2083 -0.3754
 8210SOL    HW136092   1.682   4.485   5.913  1.5849 -1.1137  1.9665
 8210SOL    HW236093   1.778   4.481   5.803  1.0084 -0.0034  0.0934
 8211SOL     OW36094   1.971   2.980   2.687 -0.2950 -0.1919  0.1048
 8211SOL    HW136095   2.046   2.961   2.743  1.3623 -0.9266 -2.3672
 8211SOL    HW236096   1.917   2.903   2.700 -0.4293 -0.1556 -0.2271
 8212SOL     OW36097   2.234   0.291   8.497  0.4807  0.0928 -0.3527
 8212SOL    HW136098   2.273   0.217   8.451  0.1863  0.7215 -1.6201
 8212SOL    HW236099   2.314   0.341   8.517  0.4028 -0.0343  0.2489
 8213SOL     OW36100   2.023   3.351  15.701  0.0617 -0.5040 -0.1198
 8213SOL    HW136101   2.104   3.387  15.664 -0.5468  1.9230  0.9252
 8213SOL    HW236102   1.969   3.430  15.699 -1.0333 -1.2625 -0.3234
 8214SOL     OW36103   3.016   3.004  12.134  0.2484 -0.2127  0.2693
 8214SOL    HW136104   3.010   2.909  12.124 -0.2423 -0.1224 -0.3113
 8214SOL    HW236105   2.980   3.026  12.048  0.2255 -0.2311  0.2740
 8215SOL     OW36106   3.856   3.291   8.201  0.1391 -0.1019  0.7978
 8215SOL    HW136107   3.851   3.196   8.202  3.0833 -0.2861  0.2370
 8215SOL    HW236108   3.934   3.306   8.147 -0.0579  2.7847  1.3134
 8216SOL     OW36109   3.765   0.076  16.573 -0.1291 -0.3393  0.4375
 8216SOL    HW136110   3.735   0.149  16.628 -2.2414 -1.1751  0.3767
 8216SOL    HW236111   3.682   0.039  16.542 -0.6583  0.5575  0.7807
 8217SOL     OW36112   3.809   4.018   3.944 -0.0842  0.1598  0.6650
 8217SOL    HW136113   3.890   4.053   3.982 -1.5066  2.9834  1.0867
 8217SOL    HW236114   3.839   4.007   3.854 -0.7369 -0.8726  0.5787
 8218SOL     OW36115   3.153   1.896   9.636 -0.4051  0.1761 -0.1539
 8218SOL    HW136116   3.129   1.803   9.630 -0.6562  0.2287  0.0721
 8218SOL    HW236117   3.119   1.928   9.553  0.3359  0.6541 -0.2740
 8219SOL     OW36118   1.201   1.798   7.487 -0.3904 -0.1588 -0.4383
 8219SOL    HW136119   1.218   1.877   7.437 -0.0466  0.5819  0.8437
 8219SOL    HW236120   1.164   1.816   7.573  2.5454 -1.2713  1.0803
 8220SOL     OW36121   1.993   0.187   2.867 -0.0662 -0.2147 -0.4617
 8220SOL    HW136122   1.919   0.135   2.901  1.5539  0.6038  4.2746
 8220SOL    HW236123   1.946   0.235   2.799  0.0616 -1.1568 -1.2222
 8221SOL     OW36124   4.314   0.954   3.110 -0.0683  0.3364  0.5171
 8221SOL    HW136125   4.275   0.893   3.047 -0.7959 -0.1605  1.4393
 8221SOL    HW236126   4.273   0.934   3.194 -0.3691  0.4665  0.4018
 8222SOL     OW36127   3.229   0.754  13.207  0.5094  0.5825  0.2441
 8222SOL    HW136128   3.216   0.849  13.214 -0.3282  0.4756  0.1437
 8222SOL    HW236129   3.304   0.733  13.263  1.6600 -1.0698 -1.9018
 8223SOL     OW36130   2.595   0.841   5.355 -0.0233 -0.5627  0.4048
 8223SOL    HW136131   2.578   0.746   5.356  2.6018 -1.0367  1.1153
 8223SOL    HW236132   2.675   0.854   5.405  0.4168  0.8360 -0.6794
 8224SOL     OW36133   0.004   3.613   5.138 -0.0981  0.4362 -0.2259
 8224SOL    HW136134   4.684   3.684   5.091 -0.8468 -0.6582 -1.1682
 8224SOL    HW236135   0.003   3.652   5.226  0.5105  0.4664 -0.2302
 8225SOL     OW36136   3.012   1.563   2.191 -0.1875 -0.0581  0.2552
 8225SOL    HW136137   3.060   1.601   2.117 -1.2071  3.4982  1.3827
 8225SOL    HW236138   3.003   1.472   2.162 -0.2358 -0.6936  2.3225
 8226SOL     OW36139   0.833   1.815   6.204 -0.0739  0.1707  0.2479
 8226SOL    HW136140   0.766   1.877   6.233  0.6485  0.7691  0.6128
 8226SOL    HW236141   0.867   1.779   6.286  0.9930  1.0439  0.1795
 8227SOL     OW36142   2.182   0.140   1.890 -0.4993  0.3129  0.0234
 8227SOL    HW136143   2.136   0.211   1.935  1.0067  1.0146  0.4254
 8227SOL    HW236144   2.125   0.092   1.829 -0.9430  0.4158  0.3516
 8228SOL     OW36145   4.380   2.742   4.866  0.1706  0.0029  0.0261
 8228SOL    HW136146   4.309   2.793   4.904  1.0549  0.8233  0.6064
 8228SOL    HW236147   4.421   2.725   4.950  0.5139  1.9252  0.2648
 8229SOL     OW36148   3.905   2.700   6.844  0.1415  0.6738 -0.2305
 8229SOL    HW136149   3.810   2.696   6.853  0.0279  3.0399 -0.3300
 8229SOL    HW236150   3.935   2.722   6.932 -3.1292 -1.8915  1.5146
 8230SOL     OW36151   2.065   2.999   4.770 -0.8365 -0.4126  0.0242
 8230SOL    HW136152   1.998   2.956   4.823 -1.4634 -1.7025 -1.8248
 8230SOL    HW236153   2.086   2.933   4.704 -1.2809  0.6923 -1.2341
 8231SOL     OW36154   0.720   2.392  10.001  0.1818  0.3444 -0.0807
 8231SOL    HW136155   0.737   2.325  10.068 -0.9699  0.5263  0.3902
 8231SOL    HW236156   0.785   2.360   9.938 -0.9630  1.2173 -1.6949
 8232SOL     OW36157   4.676   1.870   8.543  0.1200 -0.3011 -0.1534
 8232SOL    HW136158   0.048   1.876   8.535  0.2348 -0.0694  1.4929
 8232SOL    HW236159   4.670   1.788   8.592  0.1105 -0.2752 -0.1109
 8233SOL     OW36160   2.303   0.362   0.190 -0.0444  0.3925  0.1208
 8233SOL    HW136161   2.360   0.435   0.213  0.4177  0.1669 -0.2839
 8233SOL    HW236162   2.305   0.325   0.279 -2.0259 -1.4925 -0.6222
 8234SOL     OW36163   2.352   3.603   6.697 -0.7800 -0.2050 -0.4688
 8234SOL    HW136164   2.362   3.573   6.788  0.6177  0.9674 -0.2362
 8234SOL    HW236165   2.306   3.686   6.708 -0.6962 -0.2586  0.3052
 8235SOL     OW36166   0.871   3.004   6.189 -0.9762 -0.1447  0.6206
 8235SOL    HW136167   0.904   2.914   6.197 -0.3369  0.0233 -0.0952
 8235SOL    HW236168   0.920   3.052   6.255 -0.5308 -0.1342  0.2795
 8236SOL     OW36169   2.310   3.923   9.942 -0.4065  0.3653  0.4239
 8236SOL    HW136170   2.224   3.880   9.946 -0.0330 -0.3669  0.6580
 8236SOL    HW236171   2.308   3.986  10.015  0.1537  1.7935 -0.7982
 8237SOL     OW36172   3.735   3.112   7.988 -0.5141 -0.0198  0.4801
 8237SOL    HW136173   3.776   3.198   7.983 -1.0956  0.1012 -2.1618
 8237SOL    HW236174   3.641   3.127   7.999 -0.6169  1.4399 -2.2482
 8238SOL     OW36175   2.798   2.322  17.693  0.3783 -0.1715 -0.5337
 8238SOL    HW136176   2.859   2.250   0.016 -1.2896 -1.5684 -0.5290
 8238SOL    HW236177   2.787   2.312  17.599 -0.7503 -0.9241 -0.3159
 8239SOL     OW36178   0.408   3.739   4.910  0.7653  0.2233  0.2090
 8239SOL    HW136179   0.402   3.723   4.816 -0.6631  0.1643  0.3074
 8239SOL    HW236180   0.326   3.789   4.914 -0.2438 -1.3290 -0.9406
 8240SOL     OW36181   0.493   2.207   8.999 -0.0802 -0.7805 -0.5139
 8240SOL    HW136182   0.404   2.208   9.033 -0.1051 -1.3329 -0.5652
 8240SOL    HW236183   0.495   2.160   8.916  2.9445 -1.2767 -0.1759
 8241SOL     OW36184   3.768   4.554   3.223  0.1345 -0.4227 -0.6179
 8241SOL    HW136185   3.830   4.537   3.294  1.1711  1.5803 -1.0631
 8241SOL    HW236186   3.774   4.466   3.185  0.1390  0.0378 -1.6694
 8242SOL     OW36187   1.955   4.624   6.309  0.2111  0.0847  0.2745
 8242SOL    HW136188   2.019   4.683   6.350  1.8568 -0.6560 -1.2292
 8242SOL    HW236189   1.882   4.682   6.291  2.3868  3.0967  1.1919
 8243SOL     OW36190   3.884   1.782   7.605 -0.3802 -0.7592 -0.0362
 8243SOL    HW136191   3.813   1.721   7.589 -0.7221 -0.6636  1.1099
 8243SOL    HW236192   3.910   1.750   7.692 -1.2916  2.2839  1.3936
 8244SOL     OW36193   0.441   0.099  15.363 -0.2067  0.6064 -0.1858
 8244SOL    HW136194   0.356   0.058  15.379  0.3261 -0.3463  0.1895
 8244SOL    HW236195   0.422   0.145  15.281 -0.1742 -1.3120 -1.2480
 8245SOL     OW36196   2.342   2.554   2.037 -0.9322 -0.2125  0.9209
 8245SOL    HW136197   2.427   2.511   2.046 -1.9559 -1.5487  4.1087
 8245SOL    HW236198   2.281   2.482   2.055 -0.1723 -0.9814  0.4297
 8246SOL     OW36199   1.897   4.672   7.855  0.2641  0.1023  0.6633
 8246SOL    HW136200   1.952   4.594   7.864  0.3589  0.4952  3.2572
 8246SOL    HW236201   1.950   0.010   7.905  0.2699 -0.0211  0.8101
 8247SOL     OW36202   0.310   4.156   0.165 -0.5654  0.5270  0.1686
 8247SOL    HW136203   0.389   4.182   0.118 -0.0752 -3.8286 -1.4062
 8247SOL    HW236204   0.250   4.195   0.102  1.0797  1.3115 -0.9033
 8248SOL     OW36205   0.287   3.958   6.168  0.4102 -0.1569 -0.4572
 8248SOL    HW136206   0.261   3.925   6.081 -0.3631 -1.2945  0.2018
 8248SOL    HW236207   0.314   3.874   6.205  1.0311  0.3483  0.2209
 8249SOL     OW36208   1.153   3.547   4.355 -0.5939 -0.0179  0.3336
 8249SOL    HW136209   1.085   3.613   4.345 -1.6990 -1.2368 -0.1610
 8249SOL    HW236210   1.156   3.507   4.268 -0.1075 -0.3619  0.5084
 8250SOL     OW36211   4.473   4.365  13.610  0.1444 -0.1114  0.4349
 8250SOL    HW136212   4.560   4.370  13.652 -0.4594 -0.6614  1.7571
 8250SOL    HW236213   4.493   4.290  13.554 -0.0163  1.0762 -1.1984
 8251SOL     OW36214   3.105   0.210   8.441  0.8782 -0.1980  0.4313
 8251SOL    HW136215   3.153   0.144   8.492  0.5959 -1.2831 -0.6839
 8251SOL    HW236216   3.034   0.235   8.500  0.6424  2.1356 -0.8338
 8252SOL     OW36217   1.459   1.077   6.956 -1.1291 -0.1476  0.2650
 8252SOL    HW136218   1.498   1.096   7.041  0.4325  0.6539 -0.6252
 8252SOL    HW236219   1.484   1.153   6.902  0.3370 -0.5340  0.3923
 8253SOL     OW36220   0.798   4.141  15.319  0.4162 -0.2318 -0.8172
 8253SOL    HW136221   0.782   4.200  15.246  2.7396 -1.3536 -2.2322
 8253SOL    HW236222   0.886   4.130  15.283  0.6996 -2.0424  0.4245
 8254SOL     OW36223   3.375   1.220   3.491 -0.7469 -0.0602 -0.0135
 8254SOL    HW136224   3.372   1.252   3.581  0.3508 -0.6248  0.2271
 8254SOL    HW236225   3.385   1.125   3.498 -1.5014 -0.0801  0.7381
 8255SOL     OW36226   2.808   3.364   0.433 -0.3244 -0.4668  0.4291
 8255SOL    HW136227   2.868   3.404   0.496  1.0294 -2.4247  0.3962
 8255SOL    HW236228   2.730   3.413   0.459 -1.2486  0.0165 -3.2740
 8256SOL     OW36229   3.958   1.172  12.236  0.3912 -0.1656 -0.2495
 8256SOL    HW136230   3.885   1.182  12.297  0.7981  0.1282  0.1885
 8256SOL    HW236231   3.993   1.261  12.245 -1.0839  0.2558  1.4616
 8257SOL     OW36232   2.334   2.988  16.753  0.5966 -0.3890  0.0667
 8257SOL    HW136233   2.365   2.913  16.703 -1.4917 -1.3291  0.2135
 8257SOL    HW236234   2.418   3.014  16.791  0.5936  1.6498 -1.2992
 8258SOL     OW36235   3.779   1.734   6.591  0.1352  0.1359 -0.0510
 8258SOL    HW136236   3.820   1.750   6.507  2.6995  1.6862  1.4975
 8258SOL    HW236237   3.700   1.689   6.561  0.1911 -0.2794  0.4281
 8259SOL     OW36238   3.309   3.721  12.756 -0.0030  0.3069 -0.6595
 8259SOL    HW136239   3.356   3.709  12.839  0.1114 -0.9563 -0.9049
 8259SOL    HW236240   3.278   3.810  12.767 -0.3647  0.2993 -1.6795
 8260SOL     OW36241   1.445   3.894   3.141  0.0323 -0.6346  0.4803
 8260SOL    HW136242   1.375   3.833   3.165 -1.5897  0.8384 -0.4724
 8260SOL    HW236243   1.486   3.902   3.227 -0.6363  0.9898  0.6453
 8261SOL     OW36244   4.529   4.342   5.723  0.5701  0.4109 -0.2022
 8261SOL    HW136245   4.483   4.281   5.664  0.0494  1.4936 -0.9128
 8261SOL    HW236246   4.560   4.406   5.659  1.4737  1.0531  0.8775
 8262SOL     OW36247   4.696   1.260  14.540 -0.5614 -0.2670 -0.1247
 8262SOL    HW136248   4.604   1.247  14.517 -0.3329 -0.0810 -1.1806
 8262SOL    HW236249   0.013   1.204  14.472 -0.9296 -2.7805  1.7345
 8263SOL     OW36250   0.247   3.261   0.495 -0.0492  0.1219 -0.1815
 8263SOL    HW136251   0.332   3.304   0.487  0.4440 -0.6246  1.1677
 8263SOL    HW236252   0.193   3.318   0.550 -3.1607 -1.7302 -1.2544
 8264SOL     OW36253   3.292   4.073   4.775  0.4565  0.0460 -0.3727
 8264SOL    HW136254   3.243   4.068   4.857  0.6364  2.9435 -0.0866
 8264SOL    HW236255   3.229   4.115   4.716 -0.5598 -1.0617 -0.0770
 8265SOL     OW36256   2.528   0.045   5.731  0.4305 -0.0910  0.3258
 8265SOL    HW136257   2.561   0.131   5.704  0.7087 -0.9144 -1.8971
 8265SOL    HW236258   2.526   0.005   5.644 -1.4994  2.7071 -0.9283
 8266SOL     OW36259   2.319   0.647   3.374 -0.5029  0.4059 -0.0844
 8266SOL    HW136260   2.224   0.653   3.370 -0.4700  1.9368  1.3791
 8266SOL    HW236261   2.330   0.601   3.290  0.0748 -1.7578  1.1844
 8267SOL     OW36262   2.146   0.012   2.423  0.0431 -0.2793 -0.2427
 8267SOL    HW136263   2.111   4.675   2.488 -0.0393 -0.2657 -0.2742
 8267SOL    HW236264   2.120   4.695   2.340  0.8464 -2.1609  0.4253
 8268SOL     OW36265   2.306   2.722   5.470 -0.1959 -0.2470  0.2771
 8268SOL    HW136266   2.362   2.792   5.502 -0.3204 -0.9287  2.0253
 8268SOL    HW236267   2.346   2.710   5.384 -1.0374  1.4666 -0.3540
 8269SOL     OW36268   2.220   4.495   3.540  0.5553 -0.3176 -0.0862
 8269SOL    HW136269   2.159   4.566   3.517  0.3110 -0.6143 -0.3481
 8269SOL    HW236270   2.208   4.486   3.635 -1.1366  1.2454 -0.1441
 8270SOL     OW36271   3.701   0.644   4.034  0.5314 -0.5262  0.5886
 8270SOL    HW136272   3.622   0.699   4.036  0.7873 -0.1978  1.7646
 8270SOL    HW236273   3.750   0.725   4.048  0.1329 -0.0526 -0.7328
 8271SOL     OW36274   0.815   4.343   0.237 -0.2830  0.3938 -0.2870
 8271SOL    HW136275   0.786   4.264   0.189 -2.7416  1.2986 -0.2967
 8271SOL    HW236276   0.755   4.407   0.199  2.4175  3.4930  0.7099
 8272SOL     OW36277   2.207   0.956   7.334  0.5622  0.5721  0.1286
 8272SOL    HW136278   2.145   0.883   7.332  0.2462  0.8216  0.7013
 8272SOL    HW236279   2.238   0.948   7.424 -0.4381 -0.7837  0.3511
 8273SOL     OW36280   3.189   1.853   2.715 -0.0515  0.1412 -0.3812
 8273SOL    HW136281   3.173   1.866   2.809 -0.6315 -0.5529 -0.3844
 8273SOL    HW236282   3.196   1.758   2.706  2.2066  0.4367 -1.5422
 8274SOL     OW36283   4.167   0.760  15.119  0.1508 -0.1567 -0.0478
 8274SOL    HW136284   4.164   0.780  15.212 -1.0540  3.0628 -0.7590
 8274SOL    HW236285   4.222   0.829  15.079  0.2563  1.0057  2.1214
 8275SOL     OW36286   1.223   0.313   6.011 -0.0021  0.3959 -0.0875
 8275SOL    HW136287   1.315   0.288   6.006 -0.0779  0.5127 -2.4436
 8275SOL    HW236288   1.216   0.324   6.106 -0.9894 -0.9267 -0.0095
 8276SOL     OW36289   3.798   2.421   0.335  0.4320 -0.0140  0.1295
 8276SOL    HW136290   3.722   2.411   0.393 -0.6480 -0.6737 -1.3952
 8276SOL    HW236291   3.815   2.330   0.313  0.5608  0.6266 -2.4539
 8277SOL     OW36292   0.800   4.076   8.168 -0.0937 -0.1631 -0.1664
 8277SOL    HW136293   0.823   4.168   8.176  1.1514 -0.4061 -0.8048
 8277SOL    HW236294   0.848   4.050   8.089 -1.6192 -0.0051 -1.1631
 8278SOL     OW36295   4.376   2.325   9.374 -0.2138 -0.1601 -0.3098
 8278SOL    HW136296   4.363   2.420   9.370  1.0913 -0.0439 -1.8678
 8278SOL    HW236297   4.471   2.324   9.385 -0.4504 -1.8769  1.4305
 8279SOL     OW36298   3.864   3.110   0.298  0.2061  0.2736 -0.2710
 8279SOL    HW136299   3.921   3.049   0.346 -1.0507  0.1313  1.0425
 8279SOL    HW236300   3.886   3.084   0.209 -1.2046  0.7162 -0.7528
 8280SOL     OW36301   2.474   0.068   9.355 -0.8294  0.2211 -0.4546
 8280SOL    HW136302   2.495   0.017   9.277  2.4397 -0.9701  1.1946
 8280SOL    HW236303   2.512   0.011   9.422 -2.9604 -1.8635 -1.0060
 8281SOL     OW36304   2.571   0.027   4.385  0.9119 -0.2524  0.2549
 8281SOL    HW136305   2.559   4.670   4.435  0.6531 -0.0248  0.5579
 8281SOL    HW236306   2.634   4.722   4.319  0.9264  2.7534 -1.0369
 8282SOL     OW36307   2.095   0.891   6.940 -0.1461 -0.7251  0.0787
 8282SOL    HW136308   2.183   0.868   6.971  0.0129  1.3874  1.2314
 8282SOL    HW236309   2.113   0.985   6.934 -1.9066 -0.3625  0.5457
 8283SOL     OW36310   1.452   0.603   6.654 -0.0000  0.2133  0.7423
 8283SOL    HW136311   1.480   0.685   6.611  3.3389 -0.7554  1.0769
 8283SOL    HW236312   1.408   0.556   6.583  2.0938  1.9487 -1.6982
 8284SOL     OW36313   1.441   3.850  14.465 -0.1486  0.1498  0.3487
 8284SOL    HW136314   1.486   3.834  14.548  0.8030  0.7878 -0.0404
 8284SOL    HW236315   1.499   3.798  14.409  0.9012  1.6841  0.0183
 8285SOL     OW36316   1.741   3.100   2.070 -0.0279  0.0894  0.2624
 8285SOL    HW136317   1.807   3.045   2.029 -0.5963 -1.3157  1.2483
 8285SOL    HW236318   1.678   3.098   1.997  0.0312 -2.1981  0.2795
 8286SOL     OW36319   2.703   0.077  10.223 -0.2159 -0.1079  0.1968
 8286SOL    HW136320   2.761   0.034  10.160  0.8637  0.4640  0.7966
 8286SOL    HW236321   2.651   0.142  10.175 -0.1859 -1.0368 -1.1056
 8287SOL     OW36322   4.165   4.632   8.898 -0.9769 -0.4623 -0.3281
 8287SOL    HW136323   4.118   4.685   8.963 -2.2374 -0.0139 -1.6032
 8287SOL    HW236324   4.109   4.637   8.821  0.0379  0.1574 -1.0239
 8288SOL     OW36325   4.700   2.285   3.939 -0.2643  0.1578  0.4558
 8288SOL    HW136326   0.054   2.237   3.910 -1.5165 -0.1620 -2.3420
 8288SOL    HW236327   0.014   2.366   3.974  0.5054 -0.2070  0.4875
 8289SOL     OW36328   1.285   2.318   9.636  0.3992 -0.4865  0.1735
 8289SOL    HW136329   1.308   2.400   9.592  1.5040  0.2370  2.0702
 8289SOL    HW236330   1.213   2.351   9.690  1.5185  0.9927  0.7933
 8290SOL     OW36331   4.274   1.002   2.761  0.5743 -0.1935 -0.2030
 8290SOL    HW136332   4.223   0.981   2.838  1.3679  0.5033  0.5228
 8290SOL    HW236333   4.286   1.097   2.770  0.1237 -0.1357 -0.2097
 8291SOL     OW36334   4.661   0.225  15.821 -0.0673 -0.3494  0.1402
 8291SOL    HW136335   4.678   0.270  15.738  0.9702  1.3076  1.2493
 8291SOL    HW236336   4.619   0.146  15.785  1.7526 -0.1785 -2.4046
 8292SOL     OW36337   2.357   4.073   4.920 -0.3800  0.0821  0.0334
 8292SOL    HW136338   2.374   4.166   4.908  0.5226  0.4618  4.0661
 8292SOL    HW236339   2.282   4.061   4.862 -0.2237  3.4315 -0.8140
 8293SOL     OW36340   3.110   1.255   7.001  0.0014  0.0839  0.1960
 8293SOL    HW136341   3.033   1.243   6.946 -0.3956 -0.1550  0.7957
 8293SOL    HW236342   3.100   1.346   7.027 -1.1505 -0.2410  0.8993
 8294SOL     OW36343   0.912   4.179   4.413  0.9836  0.2878 -0.4136
 8294SOL    HW136344   0.865   4.241   4.468  1.4486  0.6172 -0.3866
 8294SOL    HW236345   0.938   4.114   4.478  0.0076 -1.2738 -1.5844
 8295SOL     OW36346   1.190   1.074   1.917 -0.0390 -0.7704  0.2063
 8295SOL    HW136347   1.114   1.098   1.863  0.9959 -0.0649 -0.9314
 8295SOL    HW236348   1.164   0.984   1.935  1.2172 -0.9950  0.8926
 8296SOL     OW36349   3.212   0.442   5.430  0.4610 -0.3507  0.2111
 8296SOL    HW136350   3.210   0.370   5.494  1.2962 -0.5608  0.0001
 8296SOL    HW236351   3.154   0.402   5.365 -2.0626 -1.5766  3.2364
 8297SOL     OW36352   2.996   3.364  17.415  0.4033  0.6787  0.1779
 8297SOL    HW136353   3.040   3.315  17.484 -0.4971 -0.9169 -0.3878
 8297SOL    HW236354   2.909   3.365  17.455 -0.2099 -0.5460 -1.1506
 8298SOL     OW36355   1.899   3.672   7.174 -0.0889  0.6042 -0.5312
 8298SOL    HW136356   1.829   3.724   7.214 -0.2722  1.1045 -1.5002
 8298SOL    HW236357   1.902   3.599   7.236 -0.2663  1.3373  0.3410
 8299SOL     OW36358   0.308   0.406   6.973 -0.0949  0.2485  0.4842
 8299SOL    HW136359   0.349   0.461   7.040 -0.3884 -1.4433  2.0667
 8299SOL    HW236360   0.390   0.358   6.959  0.4715  0.9117  1.5007
 8300SOL     OW36361   2.314   1.110   4.467  0.5984  0.3426 -0.4033
 8300SOL    HW136362   2.328   1.173   4.396 -3.0251  0.2078 -1.2563
 8300SOL    HW236363   2.224   1.077   4.468  0.2140  1.3759 -0.2500
 8301SOL     OW36364   4.274   0.231   5.207  0.0942 -0.1491 -0.2841
 8301SOL    HW136365   4.188   0.273   5.201  0.6311  0.7286 -1.8480
 8301SOL    HW236366   4.328   0.268   5.138 -0.5199 -0.1139 -0.7479
 8302SOL     OW36367   0.179   3.584   7.751 -0.1065 -0.4058 -0.2779
 8302SOL    HW136368   0.242   3.567   7.820 -2.1018 -2.0987  1.1008
 8302SOL    HW236369   0.206   3.674   7.733  1.2785 -0.4168  1.7624
 8303SOL     OW36370   1.947   4.518   3.891 -0.5210  0.0854  0.6755
 8303SOL    HW136371   2.024   4.552   3.936 -0.5490  0.9470  0.0754
 8303SOL    HW236372   1.934   4.585   3.824  0.9300 -0.0246  0.2806
 8304SOL     OW36373   2.076   2.653   1.662 -0.0571 -0.1651 -0.3347
 8304SOL    HW136374   1.991   2.697   1.661 -1.9745 -3.9443 -2.3774
 8304SOL    HW236375   2.121   2.696   1.735  0.3902  0.7188 -1.1273
 8305SOL     OW36376   2.145   1.926   1.484 -0.1999  0.0268 -0.3152
 8305SOL    HW136377   2.188   2.009   1.502 -2.7410  0.6591  2.8043
 8305SOL    HW236378   2.054   1.956   1.473  1.0150  2.6704 -3.2233
 8306SOL     OW36379   3.442   1.433   3.336  0.1140  0.1082  0.5591
 8306SOL    HW136380   3.524   1.466   3.372  0.0915  0.6614  0.0948
 8306SOL    HW236381   3.453   1.343   3.366 -1.6227 -0.5716 -0.8331
 8307SOL     OW36382   3.093   0.290   5.919  0.2463  0.4884  0.2036
 8307SOL    HW136383   3.121   0.371   5.876  1.4523  0.1405  0.3302
 8307SOL    HW236384   3.092   0.321   6.009  3.4679 -1.3475  0.8858
 8308SOL     OW36385   3.784   2.963   7.507 -0.1925 -0.4709 -0.1146
 8308SOL    HW136386   3.769   2.923   7.593  0.5099 -0.3016  0.0823
 8308SOL    HW236387   3.780   3.053   7.539  1.8211 -0.2431 -0.5314
 8309SOL     OW36388   3.525   0.345   3.880 -0.2223  0.0359 -0.0952
 8309SOL    HW136389   3.492   0.307   3.961  1.0940  0.1612  0.5102
 8309SOL    HW236390   3.475   0.426   3.869 -1.4966 -0.3856  2.7479
 8310SOL     OW36391   3.349   1.077   2.004  0.4005 -0.1863 -0.1013
 8310SOL    HW136392   3.359   1.144   1.936  0.8738  0.0407  0.1914
 8310SOL    HW236393   3.346   1.142   2.074 -2.9593 -1.8636  1.2733
 8311SOL     OW36394   4.332   1.957  13.502  0.2098 -0.7512 -0.2613
 8311SOL    HW136395   4.291   2.035  13.539 -2.7663 -1.4750 -2.0755
 8311SOL    HW236396   4.267   1.887  13.496 -0.3801 -0.1094 -1.2973
 8312SOL     OW36397   0.319   0.314  17.562 -0.2593  0.1960 -0.3949
 8312SOL    HW136398   0.304   0.375  17.633 -0.0524  0.2250 -0.3769
 8312SOL    HW236399   0.385   0.360  17.511 -0.2003  0.2778 -0.2434
 8313SOL     OW36400   1.859   1.459   2.000 -0.2364 -0.9760 -0.1667
 8313SOL    HW136401   1.805   1.535   2.024  0.0462 -1.4111  1.8206
 8313SOL    HW236402   1.939   1.495   2.039 -1.0695 -0.0792  0.7151
 8314SOL     OW36403   3.280   3.159   1.233  0.4161  0.1855  0.1366
 8314SOL    HW136404   3.290   3.085   1.173 -0.7118  0.1276  0.0288
 8314SOL    HW236405   3.358   3.207   1.205 -0.0362  0.6331 -0.3399
 8315SOL     OW36406   2.321   1.080   2.517  0.1536 -0.2002  0.2951
 8315SOL    HW136407   2.408   1.102   2.550 -0.3336  2.6209 -0.3389
 8315SOL    HW236408   2.349   1.034   2.438  1.0520  0.2467  0.3535
 8316SOL     OW36409   2.127   3.763   9.161 -0.0666 -0.4978 -0.0600
 8316SOL    HW136410   2.120   3.693   9.096 -0.0489  0.6223 -1.2673
 8316SOL    HW236411   2.042   3.805   9.154  0.1855  0.2982  1.6558
 8317SOL     OW36412   3.849   3.687  14.442 -0.5783  0.1606  0.9489
 8317SOL    HW136413   3.878   3.623  14.507  3.2279  2.1909  1.2434
 8317SOL    HW236414   3.754   3.691  14.455 -0.4258  1.5068  1.5948
 8318SOL     OW36415   3.185   3.406   2.003  0.1095 -0.2452 -0.0062
 8318SOL    HW136416   3.226   3.384   1.920 -1.9597 -0.4254 -0.9869
 8318SOL    HW236417   3.123   3.332   2.003 -0.5049  0.2693  0.1089
 8319SOL     OW36418   1.280   1.444   7.840  0.2005 -0.2673 -0.3348
 8319SOL    HW136419   1.266   1.389   7.917 -2.2814  0.1318 -0.5319
 8319SOL    HW236420   1.194   1.449   7.800  0.9121  1.1898 -1.6706
 8320SOL     OW36421   1.175   2.528   4.717  0.4000 -0.4347  0.2457
 8320SOL    HW136422   1.264   2.518   4.683  0.7878 -0.3720  1.2215
 8320SOL    HW236423   1.198   2.564   4.803 -0.7323  0.6247  0.1055
 8321SOL     OW36424   0.097   3.376  13.206 -0.4458  0.2753  0.4797
 8321SOL    HW136425   0.079   3.283  13.218  1.0169 -0.0265  0.3502
 8321SOL    HW236426   0.183   3.381  13.248 -0.2922  2.1964 -0.0713
 8322SOL     OW36427   2.897   2.283   3.854  0.4271  0.1933 -0.6109
 8322SOL    HW136428   2.819   2.301   3.802  0.0780  0.1791 -0.0991
 8322SOL    HW236429   2.876   2.207   3.908 -0.6579  0.6341 -0.4121
 8323SOL     OW36430   1.475   0.289   9.870 -0.2509  0.4889 -0.0371
 8323SOL    HW136431   1.488   0.223   9.802 -0.2041  0.4853 -0.0244
 8323SOL    HW236432   1.526   0.357   9.827 -0.6420 -0.1817 -1.5716
 8324SOL     OW36433   1.868   0.016   4.166  0.5809 -0.4077 -0.7680
 8324SOL    HW136434   1.894   4.712   4.254 -0.3631 -0.4274 -0.4992
 8324SOL    HW236435   1.947   0.001   4.115  0.5731  1.4281 -1.3266
 8325SOL     OW36436   1.652   3.302   7.182 -0.6587 -0.5298  0.0305
 8325SOL    HW136437   1.633   3.377   7.237 -0.6270  0.7968 -1.7869
 8325SOL    HW236438   1.680   3.247   7.255  1.0845  3.9562  2.7371
 8326SOL     OW36439   3.080   1.202   1.445 -0.7777  0.1703  0.5045
 8326SOL    HW136440   3.142   1.224   1.376  0.2994 -0.6649  1.2206
 8326SOL    HW236441   3.038   1.124   1.409 -0.6974  0.3046  0.1201
 8327SOL     OW36442   1.520   1.863   7.494  0.1109 -0.6284  0.0254
 8327SOL    HW136443   1.493   1.950   7.466 -1.0574 -1.4629 -1.4438
 8327SOL    HW236444   1.435   1.820   7.494  0.4126 -1.2329 -0.3137
 8328SOL     OW36445   1.230   4.445   6.270 -0.6574  0.0008 -0.5942
 8328SOL    HW136446   1.140   4.414   6.264 -0.9468  0.3547  1.8725
 8328SOL    HW236447   1.262   4.394   6.344 -1.0390 -0.8470 -1.0080
 8329SOL     OW36448   1.710   2.852   6.681 -0.0163  0.7956 -0.5227
 8329SOL    HW136449   1.737   2.878   6.593 -0.0726  1.0655 -0.4619
 8329SOL    HW236450   1.695   2.937   6.724 -2.0482 -0.8704  2.0208
 8330SOL     OW36451   2.785   2.838   8.798  0.2021 -0.3562 -0.5622
 8330SOL    HW136452   2.758   2.803   8.883 -2.3318  1.2254 -0.7065
 8330SOL    HW236453   2.858   2.779   8.781 -0.5819 -0.7704 -2.4734
 8331SOL     OW36454   0.379   4.629   5.589 -0.4983 -0.3651 -0.4395
 8331SOL    HW136455   0.465   4.669   5.578 -0.0213 -1.2857 -0.0750
 8331SOL    HW236456   0.406   4.540   5.611 -3.4702 -0.7958  1.5195
 8332SOL     OW36457   1.769   4.369   9.055 -0.6182 -0.5659 -0.4894
 8332SOL    HW136458   1.794   4.296   8.999 -0.5170 -0.5086 -0.5206
 8332SOL    HW236459   1.733   4.427   8.988  1.7265 -0.8943 -2.0444
 8333SOL     OW36460   2.188   3.594   5.282  0.0838  0.4179 -0.8117
 8333SOL    HW136461   2.157   3.684   5.292  0.3955  0.4025  0.3530
 8333SOL    HW236462   2.129   3.541   5.336  1.1040 -1.2005 -1.2740
 8334SOL     OW36463   3.081   4.040   5.606 -0.2995 -0.5750 -0.5824
 8334SOL    HW136464   3.155   4.050   5.546  1.4018 -1.5228  1.3330
 8334SOL    HW236465   3.030   4.119   5.590 -0.6021 -0.7497 -0.4940
 8335SOL     OW36466   2.329   3.498   2.923  0.1614 -0.2368 -0.4482
 8335SOL    HW136467   2.350   3.550   2.845  2.2468 -2.9493 -1.7035
 8335SOL    HW236468   2.238   3.524   2.930 -0.1826 -2.6333  3.8879
 8336SOL     OW36469   3.206   3.166   7.333  0.0289 -0.7644  0.3538
 8336SOL    HW136470   3.188   3.170   7.239 -1.9055 -2.0810  0.6766
 8336SOL    HW236471   3.167   3.251   7.356  0.3073 -0.1229 -1.5528
 8337SOL     OW36472   0.077   3.556   8.521 -0.3698 -0.8174  0.5739
 8337SOL    HW136473   4.706   3.574   8.527  0.3021  2.5245  0.7064
 8337SOL    HW236474   0.072   3.460   8.521 -0.7962 -0.7991 -0.4027
 8338SOL     OW36475   3.971   0.361   0.537 -0.0706  0.3547  0.1683
 8338SOL    HW136476   3.910   0.331   0.470 -0.0223 -3.3116  1.7778
 8338SOL    HW236477   4.052   0.347   0.489 -0.3008  0.2005 -0.1780
 8339SOL     OW36478   3.819   3.713   8.402  0.1541  0.5317 -0.2942
 8339SOL    HW136479   3.786   3.645   8.344  1.1177 -0.8054  0.7487
 8339SOL    HW236480   3.840   3.658   8.477  2.7886  2.0259  0.0547
 8340SOL     OW36481   2.489   2.656   5.032 -0.1437  0.0682  0.1551
 8340SOL    HW136482   2.419   2.692   4.978 -1.1317  1.2307  2.2283
 8340SOL    HW236483   2.565   2.685   4.981  0.1372  0.4674  0.7932
 8341SOL     OW36484   1.672   3.215   5.910  0.0634  0.5574 -0.1650
 8341SOL    HW136485   1.583   3.204   5.876 -0.1744  0.9186  0.3430
 8341SOL    HW236486   1.705   3.291   5.862 -0.8413  0.1528 -1.4240
 8342SOL     OW36487   1.362   3.036   6.686  0.4130  0.4833  0.6808
 8342SOL    HW136488   1.387   2.955   6.641  0.3810  1.2342 -0.6953
 8342SOL    HW236489   1.391   3.105   6.626 -0.6541 -0.9235 -1.4394
 8343SOL     OW36490   2.658   3.654   4.945 -0.1546  0.2953 -0.3663
 8343SOL    HW136491   2.693   3.606   4.870  0.7934 -0.0611  0.3065
 8343SOL    HW236492   2.644   3.738   4.901  0.2965  0.8052  0.4572
 8344SOL     OW36493   2.644   1.321  11.929  0.1299  0.2968  0.3316
 8344SOL    HW136494   2.634   1.348  12.020 -2.0254 -1.2115  0.5262
 8344SOL    HW236495   2.570   1.361  11.883  0.0093 -0.7530 -0.3807
 8345SOL     OW36496   0.065   3.555   8.142  0.2086 -0.2704  0.1801
 8345SOL    HW136497   0.004   3.587   8.209 -0.3344 -1.0416  0.0541
 8345SOL    HW236498   0.004   3.505   8.088 -1.5189  0.7659  1.1548
 8346SOL     OW36499   1.506   4.477   2.365  1.5172 -0.3383  0.3352
 8346SOL    HW136500   1.491   4.566   2.336 -2.2239 -0.7830  0.8761
 8346SOL    HW236501   1.467   4.433   2.289  2.1189  0.6074 -0.5211
 8347SOL     OW36502   0.526   4.375   6.803 -0.1861  0.2652  0.0165
 8347SOL    HW136503   0.580   4.309   6.847 -0.0058 -1.3868 -2.6445
 8347SOL    HW236504   0.530   4.334   6.717 -0.8141  1.3156 -0.5079
 8348SOL     OW36505   4.292   1.507  10.814  0.4708 -0.0389 -0.2618
 8348SOL    HW136506   4.277   1.450  10.890  0.5257 -1.6534 -1.4627
 8348SOL    HW236507   4.232   1.470  10.749 -0.4589  2.7888 -1.0326
 8349SOL     OW36508   4.485   1.394  17.336 -0.4383 -0.0262 -0.9693
 8349SOL    HW136509   4.490   1.339  17.414 -1.0238  0.6869 -0.4314
 8349SOL    HW236510   4.569   1.440  17.329 -0.4764 -0.1755 -2.4627
 8350SOL     OW36511   3.243   1.281   4.427 -1.0340  0.5273 -0.4272
 8350SOL    HW136512   3.254   1.196   4.469 -2.1042  0.5994 -0.0134
 8350SOL    HW236513   3.198   1.256   4.347 -0.5999  1.3326 -0.9327
 8351SOL     OW36514   2.050   4.662  15.513 -0.3361 -0.3144  0.2707
 8351SOL    HW136515   2.075   0.025  15.481 -0.7641 -0.5656 -0.7328
 8351SOL    HW236516   2.131   4.610  15.512 -0.3873 -0.3868 -0.0372
 8352SOL     OW36517   2.343   2.791   8.296 -0.3526 -0.1648  0.2350
 8352SOL    HW136518   2.387   2.709   8.321  1.5653  1.0046  0.6877
 8352SOL    HW236519   2.348   2.830   8.383  0.3268  2.1525 -0.8568
 8353SOL     OW36520   2.928   4.349   7.344  0.0003  0.0540  0.1860
 8353SOL    HW136521   3.007   4.309   7.308  0.1364  1.3629 -0.9600
 8353SOL    HW236522   2.947   4.321   7.434  0.3374  1.7065  0.6129
 8354SOL     OW36523   2.318   3.969   2.100  0.3803 -0.4150  0.1654
 8354SOL    HW136524   2.399   3.932   2.136  0.1463  0.2002  1.3374
 8354SOL    HW236525   2.317   3.935   2.011  1.6997 -2.4012  0.8909
 8355SOL     OW36526   1.955   2.545   2.729 -0.1189  0.4059 -0.1660
 8355SOL    HW136527   2.047   2.533   2.705 -0.1331  0.2918 -0.1656
 8355SOL    HW236528   1.920   2.486   2.662 -1.3759  2.1519 -1.0278
 8356SOL     OW36529   1.002   1.190  13.904 -0.2695  0.0113 -0.0015
 8356SOL    HW136530   1.004   1.280  13.936  1.1712  0.1028 -0.3700
 8356SOL    HW236531   1.001   1.202  13.809  1.1694  2.2890  0.2833
 8357SOL     OW36532   1.438   4.089   5.029 -0.1819  0.1992 -0.0074
 8357SOL    HW136533   1.354   4.049   5.053  0.3090  0.4863  2.1506
 8357SOL    HW236534   1.506   4.024   5.043  1.7074  2.3214  0.6573
 8358SOL     OW36535   0.272   2.308   6.684  0.0485 -0.0959 -0.2137
 8358SOL    HW136536   0.321   2.276   6.609 -1.0666  0.7041 -1.2691
 8358SOL    HW236537   0.290   2.402   6.681 -0.1598  0.0074  1.4594
 8359SOL     OW36538   1.970   0.751   3.340 -0.1890 -0.0108 -0.0998
 8359SOL    HW136539   2.016   0.773   3.259 -0.2160  0.7512  0.0887
 8359SOL    HW236540   1.883   0.751   3.301 -0.6409  3.0917  0.8944
 8360SOL     OW36541   0.231   4.510   7.071 -0.5575  0.2655 -0.4491
 8360SOL    HW136542   0.260   4.577   7.009  0.4764  1.6663  1.5400
 8360SOL    HW236543   0.140   4.539   7.075 -0.9915 -1.1483  0.1758
 8361SOL     OW36544   1.367   3.429   6.026 -0.0075 -0.6877 -0.6911
 8361SOL    HW136545   1.327   3.516   6.034 -0.0206 -0.5701 -1.9522
 8361SOL    HW236546   1.437   3.447   5.962 -0.2643 -0.8902 -1.0288
 8362SOL     OW36547   0.643   1.880   3.275  0.7778  0.2432 -0.2169
 8362SOL    HW136548   0.603   1.900   3.190 -0.3622  0.1423  0.2988
 8362SOL    HW236549   0.703   1.954   3.276 -0.9384  1.6380 -0.4329
 8363SOL     OW36550   1.293   1.392  14.650 -0.3788 -0.3104 -0.4262
 8363SOL    HW136551   1.382   1.388  14.685 -0.0302  1.5586 -1.1120
 8363SOL    HW236552   1.233   1.416  14.722 -0.9560 -1.3312 -0.5671
 8364SOL     OW36553   0.574   0.617  15.190 -0.2820 -0.6925 -0.1933
 8364SOL    HW136554   0.606   0.590  15.103  2.7469 -2.3183  1.4159
 8364SOL    HW236555   0.526   0.539  15.217  3.2863 -2.7170  0.3712
 8365SOL     OW36556   0.871   4.578   1.676  0.7953  0.5981  0.0132
 8365SOL    HW136557   0.850   4.623   1.594 -1.0473 -0.2331  0.0392
 8365SOL    HW236558   0.789   4.573   1.724 -0.1302  2.6637 -1.3235
 8366SOL     OW36559   1.299   0.444   8.611  0.1632 -0.2766  0.0549
 8366SOL    HW136560   1.384   0.418   8.645  0.4019 -1.2201 -1.2259
 8366SOL    HW236561   1.242   0.395   8.670 -2.9648  2.1377 -0.9450
 8367SOL     OW36562   4.534   0.654   8.894 -0.0310  0.4042  0.0443
 8367SOL    HW136563   4.540   0.560   8.877 -0.5559  0.1446  1.3234
 8367SOL    HW236564   4.457   0.678   8.842  0.8186  0.2853 -1.2810
 8368SOL     OW36565   1.433   3.832   2.805 -0.1523 -0.1412  0.6309
 8368SOL    HW136566   1.520   3.859   2.774  0.0400 -1.3264  0.1414
 8368SOL    HW236567   1.452   3.807   2.895 -0.3221  0.9746  0.9728
 8369SOL     OW36568   3.814   1.874   4.036  0.3888  0.1436  0.1231
 8369SOL    HW136569   3.764   1.948   4.002 -1.1484 -0.6033  0.7236
 8369SOL    HW236570   3.796   1.888   4.130  0.2295 -2.9876  0.5623
 8370SOL     OW36571   2.764   3.791   6.409  0.4763 -0.0887  0.7143
 8370SOL    HW136572   2.724   3.781   6.496 -3.0068  2.1950 -0.6051
 8370SOL    HW236573   2.852   3.818   6.433  0.4255 -0.3630  1.2231
 8371SOL     OW36574   4.440   4.572   6.007  0.2971 -0.4986  0.4394
 8371SOL    HW136575   4.511   4.511   5.988  0.4262 -0.5873  1.2364
 8371SOL    HW236576   4.444   4.601   6.098 -0.3363 -2.5200  1.1135
 8372SOL     OW36577   0.502   1.010   8.280 -0.2318  0.6505  0.0924
 8372SOL    HW136578   0.571   0.999   8.215  0.5181 -2.4951  1.4257
 8372SOL    HW236579   0.487   1.105   8.274 -0.1028  0.7486  1.4684
 8373SOL     OW36580   3.320   1.692  13.253  0.8247  0.1568 -0.1985
 8373SOL    HW136581   3.265   1.741  13.191  0.9618 -1.2661 -1.4686
 8373SOL    HW236582   3.269   1.612  13.264  1.0867  0.2092  1.3950
 8374SOL     OW36583   0.292   1.891   7.465 -0.0438 -0.4807  0.5445
 8374SOL    HW136584   0.281   1.821   7.401  1.9752 -1.5390  1.3377
 8374SOL    HW236585   0.386   1.890   7.487 -1.1109  3.2952  5.3263
 8375SOL     OW36586   4.629   1.826  16.538  0.5045  0.3627 -0.1995
 8375SOL    HW136587   4.655   1.747  16.584 -1.4640  0.1786  0.5970
 8375SOL    HW236588   4.534   1.816  16.537  0.5406  0.0035  0.0893
 8376SOL     OW36589   2.958   1.929   5.143 -0.0491 -0.1135 -0.0818
 8376SOL    HW136590   2.990   1.993   5.207  0.4281 -1.5527  1.1274
 8376SOL    HW236591   2.995   1.954   5.059  0.3592 -2.7258 -0.6960
 8377SOL     OW36592   4.577   0.058   8.088 -0.5206 -0.0570 -0.1309
 8377SOL    HW136593   4.627   0.102   8.158  0.2365  0.1921 -0.8223
 8377SOL    HW236594   4.495   0.104   8.073  0.0148  0.7465 -0.6024
 8378SOL     OW36595   3.784   4.707   8.555 -0.8784 -0.0302  0.5526
 8378SOL    HW136596   3.727   0.029   8.617 -0.9546 -0.8433  1.0870
 8378SOL    HW236597   3.726   4.653   8.502  0.8641 -1.5668  0.2091
 8379SOL     OW36598   2.020   3.425  15.130  0.0486  0.0163  0.0530
 8379SOL    HW136599   2.021   3.403  15.224 -0.4463 -2.0600 -0.4316
 8379SOL    HW236600   2.089   3.490  15.117 -0.2701  0.2856 -0.2842
 8380SOL     OW36601   0.244   3.759   8.172 -0.1246  0.3569 -0.4039
 8380SOL    HW136602   0.184   3.688   8.149  0.0311  0.7418 -2.0162
 8380SOL    HW236603   0.299   3.764   8.094  0.2117 -1.4231 -0.2656
 8381SOL     OW36604   1.390   1.813   6.293  0.0806  0.7215  0.1314
 8381SOL    HW136605   1.402   1.838   6.201  0.9752  1.5680  0.4784
 8381SOL    HW236606   1.325   1.743   6.296  1.7084 -0.8442 -0.7773
 8382SOL     OW36607   0.764   4.600   3.565  0.0330  0.3476  0.0446
 8382SOL    HW136608   0.752   4.558   3.650 -1.5547 -0.1404 -0.4263
 8382SOL    HW236609   0.674   4.600   3.532  0.2682 -0.3985 -0.5931
 8383SOL     OW36610   2.801   4.723   8.506 -0.4985 -0.0176  0.4257
 8383SOL    HW136611   2.708   4.715   8.528 -0.7720  1.5901 -0.1391
 8383SOL    HW236612   2.818   0.083   8.548  1.6513 -0.4352  0.3565
 8384SOL     OW36613   3.857   2.961  16.660 -0.0963  0.1227  0.1341
 8384SOL    HW136614   3.856   3.057  16.663 -0.8276  0.1020  0.6457
 8384SOL    HW236615   3.879   2.950  16.753 -0.9433 -2.2366  0.0495
 8385SOL     OW36616   3.489   1.083   6.873 -0.2059  0.5141 -0.1408
 8385SOL    HW136617   3.448   1.139   6.939  0.2895  1.4188 -0.6018
 8385SOL    HW236618   3.564   1.137   6.846  1.3786 -2.2037 -1.1164
 8386SOL     OW36619   4.611   1.195   1.901 -0.0674  0.0535  0.6733
 8386SOL    HW136620   4.534   1.145   1.875 -0.5426  0.3842  1.4403
 8386SOL    HW236621   4.681   1.145   1.859 -0.4093 -0.6463  0.9478
 8387SOL     OW36622   2.034   0.378  13.344  0.5531  0.2941 -0.0724
 8387SOL    HW136623   2.004   0.336  13.264 -1.4175 -0.9110  1.3067
 8387SOL    HW236624   2.072   0.308  13.397  0.9649  1.9552  1.8356
 8388SOL     OW36625   1.690   0.556   6.769 -0.3020  0.0281  0.2974
 8388SOL    HW136626   1.606   0.591   6.740 -0.8602 -2.0665 -0.5960
 8388SOL    HW236627   1.747   0.588   6.699 -0.3146 -0.5383  0.0312
 8389SOL     OW36628   3.532   3.239   7.273 -0.1199  0.3441  0.4893
 8389SOL    HW136629   3.477   3.213   7.346 -0.6637 -1.6347 -0.6272
 8389SOL    HW236630   3.497   3.326   7.257  0.6898  0.5954  0.0835
 8390SOL     OW36631   4.390   3.237   7.023 -0.0398 -0.1640  0.0517
 8390SOL    HW136632   4.398   3.278   6.937 -1.0893 -0.3192 -0.1213
 8390SOL    HW236633   4.341   3.158   7.000 -0.3650  0.1576 -0.3650
 8391SOL     OW36634   4.219   2.837   6.874 -0.3969  0.1303 -0.1787
 8391SOL    HW136635   4.160   2.816   6.946  1.9540  2.4261  2.4065
 8391SOL    HW236636   4.166   2.911   6.844 -0.2750 -0.2609 -1.3569
 8392SOL     OW36637   2.642   3.114   0.088  0.1975  0.8124 -0.1234
 8392SOL    HW136638   2.697   3.115   0.009  3.7431  1.6894  2.3495
 8392SOL    HW236639   2.690   3.172   0.146  0.2929 -0.2755  0.8788
 8393SOL     OW36640   3.133   0.839  12.556 -0.4236 -0.2664 -0.5174
 8393SOL    HW136641   3.052   0.888  12.543  0.2857  0.7898 -0.9745
 8393SOL    HW236642   3.105   0.803  12.640 -1.8963 -0.2879 -1.0138
 8394SOL     OW36643   4.544   0.461   0.245 -0.5791 -0.0674 -0.2089
 8394SOL    HW136644   4.630   0.499   0.258 -0.7581  0.1646  0.3448
 8394SOL    HW236645   4.493   0.511   0.309  1.7090  2.7426 -0.6448
 8395SOL     OW36646   0.523   4.353  15.782  0.3381 -0.1931 -0.2748
 8395SOL    HW136647   0.498   4.440  15.751 -4.3744 -0.8567  1.5331
 8395SOL    HW236648   0.484   4.356  15.869 -1.4205 -1.3828 -0.9974
 8396SOL     OW36649   1.519   1.980   4.958 -0.1703  0.0737  0.4223
 8396SOL    HW136650   1.605   1.949   4.930 -0.1245 -1.1867  1.9945
 8396SOL    HW236651   1.496   2.035   4.883 -0.2707 -0.7890 -0.1746
 8397SOL     OW36652   2.511   1.551   5.884  0.0960  0.2153  0.1221
 8397SOL    HW136653   2.591   1.549   5.936 -0.0790  0.1769  0.3903
 8397SOL    HW236654   2.437   1.573   5.941 -0.1989  0.5092 -0.3768
 8398SOL     OW36655   0.407   1.891  12.819  0.5891 -0.2010  0.8242
 8398SOL    HW136656   0.346   1.930  12.757  0.0928  0.4139  1.6911
 8398SOL    HW236657   0.439   1.972  12.860 -0.7769 -0.6024  2.6975
 8399SOL     OW36658   2.558   4.521   4.854 -0.0528  0.1605 -0.0251
 8399SOL    HW136659   2.470   4.483   4.862 -1.2016  2.9005  0.0472
 8399SOL    HW236660   2.599   4.445   4.895  0.9065  1.2745  1.0689
 8400SOL     OW36661   2.054   2.602   9.328 -0.1944  0.1131 -0.7569
 8400SOL    HW136662   2.141   2.639   9.341  0.9718 -2.0591 -2.4477
 8400SOL    HW236663   2.012   2.657   9.262 -1.0359 -2.3662 -2.2859
 8401SOL     OW36664   2.100   0.655  14.982  0.5418 -0.3717  0.2504
 8401SOL    HW136665   2.027   0.669  15.043  0.0761 -2.7044  0.2334
 8401SOL    HW236666   2.174   0.687  15.033  0.5488 -1.9343  1.2371
 8402SOL     OW36667   3.141   2.824   8.027 -0.1002 -0.2559 -0.2943
 8402SOL    HW136668   3.151   2.891   7.959 -0.6774  2.9661  2.7615
 8402SOL    HW236669   3.121   2.878   8.104 -1.0476 -0.4977 -0.3756
 8403SOL     OW36670   3.783   3.487   2.205  0.1688 -0.5418  0.3318
 8403SOL    HW136671   3.853   3.434   2.166  2.2246  2.2645  0.1597
 8403SOL    HW236672   3.710   3.431   2.182  3.2737 -4.5219  0.2279
 8404SOL     OW36673   3.298   1.999   3.186 -0.2321 -0.6662  0.3381
 8404SOL    HW136674   3.346   2.081   3.180  2.8031 -2.3151  2.1363
 8404SOL    HW236675   3.362   1.933   3.159 -0.6550  0.3196 -3.1288
 8405SOL     OW36676   4.152   1.906   7.723  0.3021  0.2620 -0.2524
 8405SOL    HW136677   4.186   1.901   7.813 -0.6442 -1.7479  0.0050
 8405SOL    HW236678   4.080   1.843   7.726  0.3098  0.2777  0.3855
 8406SOL     OW36679   2.852   1.541   3.502 -0.0442 -0.1397  0.2704
 8406SOL    HW136680   2.802   1.593   3.439  2.2236 -1.9050 -2.9826
 8406SOL    HW236681   2.835   1.608   3.569 -0.0608 -0.2284  0.3550
 8407SOL     OW36682   0.788   0.427   4.775  0.3376 -0.3225  0.4546
 8407SOL    HW136683   0.830   0.382   4.702 -0.3958 -2.4661  1.3650
 8407SOL    HW236684   0.699   0.408   4.746  0.2594 -0.8873  1.0578
 8408SOL     OW36685   4.538   3.150   3.864  0.3258  0.3938 -0.0080
 8408SOL    HW136686   4.581   3.189   3.788 -1.2750  0.7676 -0.7262
 8408SOL    HW236687   4.480   3.086   3.823  1.2115 -0.6819  0.4041
 8409SOL     OW36688   2.083   1.173  16.404 -0.3373 -0.7218  0.0926
 8409SOL    HW136689   2.158   1.144  16.457  0.3365 -0.2976 -0.6282
 8409SOL    HW236690   2.019   1.189  16.473  2.7759  3.4134  2.0164
 8410SOL     OW36691   0.426   3.750   4.650 -0.0847 -0.3060  0.3096
 8410SOL    HW136692   0.440   3.768   4.557  2.3223 -0.6235  0.6030
 8410SOL    HW236693   0.430   3.655   4.657  1.6293 -0.1169  2.0996
 8411SOL     OW36694   3.115   1.174   4.167  0.0737 -0.6860  0.1022
 8411SOL    HW136695   3.108   1.174   4.071  1.7414  0.2040 -0.0102
 8411SOL    HW236696   3.144   1.085   4.185 -0.9090 -1.0013  0.1396
 8412SOL     OW36697   3.689   0.161   8.255 -0.4638 -0.2427  0.3101
 8412SOL    HW136698   3.662   0.240   8.304 -2.4227 -0.2888 -0.6893
 8412SOL    HW236699   3.616   0.103   8.274 -1.8093  2.1051  2.3718
 8413SOL     OW36700   0.468   1.660   8.275 -0.2949  0.4714 -0.2150
 8413SOL    HW136701   0.563   1.663   8.259 -0.3289 -0.2335 -0.5778
 8413SOL    HW236702   0.471   1.693   8.365 -2.2041 -2.0674  0.7876
 8414SOL     OW36703   2.167   2.494   7.077 -0.3095  0.1518 -0.0530
 8414SOL    HW136704   2.251   2.513   7.119 -0.3929 -0.1731  0.2654
 8414SOL    HW236705   2.126   2.579   7.090  3.2216  1.7251  0.7773
 8415SOL     OW36706   1.376   3.370   4.307  0.1134  0.2588 -0.5521
 8415SOL    HW136707   1.316   3.437   4.341  0.3014  0.1711 -0.0414
 8415SOL    HW236708   1.315   3.296   4.315  0.2125 -0.0484 -2.6466
 8416SOL     OW36709   1.004   3.907   8.947  0.9669 -0.4859  0.1504
 8416SOL    HW136710   1.041   3.916   8.860  0.3400  3.6220  0.3260
 8416SOL    HW236711   1.001   3.812   8.952  0.3926 -0.6459 -3.1777
 8417SOL     OW36712   3.703   0.334  14.344 -0.3724 -0.7287  0.6946
 8417SOL    HW136713   3.775   0.396  14.356 -0.9543  0.6532 -2.7899
 8417SOL    HW236714   3.672   0.360  14.257  1.1045  0.4049  0.5147
 8418SOL     OW36715   2.750   0.892  11.369 -0.3693 -0.0912  0.0629
 8418SOL    HW136716   2.692   0.832  11.322  0.1405 -1.5368  1.2699
 8418SOL    HW236717   2.782   0.824  11.429 -1.5114  0.2362  1.0458
 8419SOL     OW36718   4.522   2.553   7.308  0.7489  0.4275 -0.2736
 8419SOL    HW136719   4.446   2.516   7.352  0.1574  0.7490 -1.0309
 8419SOL    HW236720   4.582   2.482   7.332  1.3674  1.2391  0.5938
 8420SOL     OW36721   2.533   3.855   7.060 -0.1403 -0.4835 -0.0174
 8420SOL    HW136722   2.534   3.815   6.973  1.6341 -1.0743  0.2778
 8420SOL    HW236723   2.455   3.910   7.052 -1.2015 -2.3422 -2.6485
 8421SOL     OW36724   3.852   2.436  16.468 -0.0424 -0.1910 -0.2735
 8421SOL    HW136725   3.944   2.463  16.467  0.4791 -2.1107 -4.2957
 8421SOL    HW236726   3.813   2.510  16.513 -0.6360  1.1186 -2.9484
 8422SOL     OW36727   1.701   1.990   4.398 -0.9395 -0.0808 -0.2333
 8422SOL    HW136728   1.624   1.990   4.341 -2.0531  3.0173  1.3261
 8422SOL    HW236729   1.774   1.977   4.337 -0.0662 -1.2145  1.0494
 8423SOL     OW36730   3.507   3.013   2.710  0.3912  0.3164  0.2384
 8423SOL    HW136731   3.450   3.080   2.671 -0.7613 -0.3769  0.7387
 8423SOL    HW236732   3.595   3.049   2.705  1.0708 -1.0068  2.9350
 8424SOL     OW36733   2.193   3.396   7.589 -0.3139  0.7273  0.2166
 8424SOL    HW136734   2.212   3.416   7.497  0.8630 -2.3233 -0.1978
 8424SOL    HW236735   2.284   3.394   7.618 -0.9714 -2.3678  1.9990
 8425SOL     OW36736   1.003   3.105   7.437  0.1247  0.6938  0.0624
 8425SOL    HW136737   1.036   3.035   7.494  1.9823  2.8202  1.5625
 8425SOL    HW236738   0.967   3.174   7.492  1.4789 -0.9687  3.0300
 8426SOL     OW36739   4.459   3.880   6.784 -0.2814 -0.1329 -0.0269
 8426SOL    HW136740   4.536   3.915   6.829  0.9455  0.4364 -2.5211
 8426SOL    HW236741   4.407   3.957   6.763  0.6934 -0.0713 -2.2668
 8427SOL     OW36742   3.674   1.148  12.463  0.3561 -0.5256 -0.5495
 8427SOL    HW136743   3.635   1.229  12.432  0.4456 -0.4397 -0.4370
 8427SOL    HW236744   3.608   1.110  12.521  0.7598 -0.6212 -0.1510
 8428SOL     OW36745   2.134   4.632  12.756  0.4712 -0.0075 -0.5214
 8428SOL    HW136746   2.116   4.710  12.704  0.9792 -1.2792 -2.5638
 8428SOL    HW236747   2.225   4.616  12.732 -0.1308 -1.7384 -1.6484
 8429SOL     OW36748   1.296   4.047  15.506  0.1728 -0.3943 -0.3060
 8429SOL    HW136749   1.343   4.020  15.585  3.5541  1.6778 -1.6269
 8429SOL    HW236750   1.293   3.962  15.461  2.5382 -0.1651 -0.9210
 8430SOL     OW36751   2.585   3.153   2.790 -0.4799 -0.5659 -0.4214
 8430SOL    HW136752   2.587   3.059   2.771  1.2888 -0.6676  0.2265
 8430SOL    HW236753   2.650   3.184   2.727 -1.7385  2.0212 -0.4393
 8431SOL     OW36754   0.679   2.014   2.872  0.2121 -0.3339 -0.2178
 8431SOL    HW136755   0.765   2.031   2.833 -0.3804 -1.4092 -1.9957
 8431SOL    HW236756   0.668   1.921   2.853  1.7601 -0.7628  0.9346
 8432SOL     OW36757   1.258   1.753  11.100 -0.8401 -0.1133 -0.4755
 8432SOL    HW136758   1.163   1.755  11.094 -0.7218 -0.5588 -2.6637
 8432SOL    HW236759   1.275   1.780  11.010  1.8943  0.6131  0.2476
 8433SOL     OW36760   3.339   1.477  17.496 -0.1559 -0.1610  0.5928
 8433SOL    HW136761   3.370   1.391  17.466  0.2241  0.4000 -0.6124
 8433SOL    HW236762   3.405   1.534  17.456  0.4281 -0.3623  1.2772
 8434SOL     OW36763   0.549   3.276   8.376 -0.5419 -0.0776  0.4967
 8434SOL    HW136764   0.520   3.257   8.465  0.7110  1.3181  1.1874
 8434SOL    HW236765   0.568   3.368   8.393 -0.8251  0.4231 -1.9016
 8435SOL     OW36766   0.269   2.930   2.814 -0.2981  0.5722  0.4528
 8435SOL    HW136767   0.333   2.863   2.790 -0.9786  0.5345 -1.2160
 8435SOL    HW236768   0.197   2.903   2.758  3.5040 -2.3213 -3.0259
 8436SOL     OW36769   4.657   4.013  16.981  0.5715 -0.7466  0.2514
 8436SOL    HW136770   4.590   3.958  17.020 -0.0101  0.3693  0.8145
 8436SOL    HW236771   4.649   3.972  16.895  0.5633  0.6768 -0.4288
 8437SOL     OW36772   0.395   3.615  12.956 -0.2278 -0.2609 -0.0153
 8437SOL    HW136773   0.346   3.696  12.961 -0.4522 -0.2629 -2.2991
 8437SOL    HW236774   0.327   3.567  12.907  1.1413 -1.9628 -0.2564
 8438SOL     OW36775   0.566   4.695  17.676 -0.3919  0.0207 -0.0078
 8438SOL    HW136776   0.500   4.718  17.611  0.3611  0.9755 -0.4442
 8438SOL    HW236777   0.607   0.056   0.002 -1.9132  0.7452  0.0505
 8439SOL     OW36778   1.215   4.240   5.793 -0.6660 -0.3921 -0.0265
 8439SOL    HW136779   1.296   4.190   5.802 -0.2231  0.4078  0.4525
 8439SOL    HW236780   1.222   4.295   5.872 -1.7323  2.1156 -1.6914
 8440SOL     OW36781   2.737   3.216  12.442 -0.1490  0.1083  0.1773
 8440SOL    HW136782   2.711   3.288  12.385 -1.8472 -1.4889 -1.0553
 8440SOL    HW236783   2.820   3.186  12.405 -1.3564 -0.3093 -2.1779
 8441SOL     OW36784   3.530   0.244   7.982 -0.0035  0.3743  0.2536
 8441SOL    HW136785   3.615   0.283   8.005 -0.8015  1.5215  1.2797
 8441SOL    HW236786   3.499   0.195   8.058 -0.2164 -0.8156 -0.6079
 8442SOL     OW36787   4.420   0.341   9.899 -0.4537  0.5995  0.1213
 8442SOL    HW136788   4.506   0.300   9.911 -0.3673  1.3741  2.1764
 8442SOL    HW236789   4.425   0.409   9.967  0.6950  0.3703  0.2558
 8443SOL     OW36790   3.704   4.410   6.380 -0.2351  0.2501  0.0276
 8443SOL    HW136791   3.610   4.396   6.383 -0.3506  1.2504  0.8704
 8443SOL    HW236792   3.718   4.316   6.376 -1.1467  0.1574 -0.7648
 8444SOL     OW36793   2.102   0.654  15.371 -0.1846 -0.1273 -0.0476
 8444SOL    HW136794   2.102   0.741  15.410  0.6833  0.2369 -0.8660
 8444SOL    HW236795   2.038   0.667  15.301  0.0703  0.6684 -0.1269
 8445SOL     OW36796   3.376   2.015   4.588  0.0044 -0.0310  0.2080
 8445SOL    HW136797   3.426   2.035   4.667 -0.4309 -1.1716  0.7778
 8445SOL    HW236798   3.365   2.104   4.554 -1.7300 -0.9393 -1.5915
 8446SOL     OW36799   0.730   0.790  10.887 -0.0338  0.2151 -0.3613
 8446SOL    HW136800   0.705   0.737  10.811 -0.8201 -0.6904  0.5370
 8446SOL    HW236801   0.746   0.872  10.841  0.3475 -0.9149 -2.2340
 8447SOL     OW36802   2.256   1.074  16.596 -0.2103  0.1784 -0.3916
 8447SOL    HW136803   2.220   1.110  16.677 -0.6085 -0.7031 -0.1752
 8447SOL    HW236804   2.314   1.003  16.623 -1.5003 -0.5215  0.5044
 8448SOL     OW36805   0.433   2.419   6.011 -0.6063 -0.0559 -0.0970
 8448SOL    HW136806   0.339   2.402   6.008 -0.4328 -0.8849 -0.6024
 8448SOL    HW236807   0.449   2.460   5.926  0.2063 -1.1847 -0.4803
 8449SOL     OW36808   2.116   3.440   5.683 -0.2613 -0.5828  0.0382
 8449SOL    HW136809   2.062   3.479   5.614 -0.2055  0.6081  0.6580
 8449SOL    HW236810   2.060   3.469   5.756  0.8498  1.0979  0.2237
 8450SOL     OW36811   1.070   1.849   4.878  0.0085  0.5251  0.0443
 8450SOL    HW136812   1.162   1.835   4.900 -0.0420  0.3548  0.1516
 8450SOL    HW236813   1.043   1.766   4.839 -2.7306  1.1409  0.6467
 8451SOL     OW36814   2.371   0.332   5.558 -0.6961  0.1182 -0.2737
 8451SOL    HW136815   2.453   0.291   5.584 -0.1620  0.9271 -0.6647
 8451SOL    HW236816   2.371   0.404   5.622  0.2095  0.2034 -0.3611
 8452SOL     OW36817   1.169   3.564  14.806 -0.0846 -0.0633  0.1652
 8452SOL    HW136818   1.263   3.554  14.791  0.1265 -1.2396  2.1485
 8452SOL    HW236819   1.149   3.481  14.849 -0.6444  0.5727  1.1263
 8453SOL     OW36820   4.091   3.533   5.401 -0.3421 -0.0307 -0.3214
 8453SOL    HW136821   4.155   3.604   5.392  1.4699 -1.7070 -0.7261
 8453SOL    HW236822   4.135   3.499   5.479 -1.3786 -1.0928 -0.2001
 8454SOL     OW36823   0.239   0.032   2.901  0.1340 -0.2283 -0.4738
 8454SOL    HW136824   0.320   0.054   2.854  0.4156  0.8049  0.4841
 8454SOL    HW236825   0.264   0.071   2.985 -1.7985 -0.8510  0.3769
 8455SOL     OW36826   2.039   2.517   6.285 -0.3238 -0.0667 -0.2958
 8455SOL    HW136827   1.969   2.574   6.317 -0.0861 -0.0710  0.2242
 8455SOL    HW236828   2.065   2.561   6.204 -0.6971  1.3712  0.3666
 8456SOL     OW36829   1.349   0.603   3.064  0.3868  0.0817 -0.5068
 8456SOL    HW136830   1.279   0.649   3.111  1.6985  0.2606  1.2704
 8456SOL    HW236831   1.420   0.600   3.128  0.8406  1.0126 -0.9725
 8457SOL     OW36832   1.655   3.632  14.594  0.2182  0.3763  0.2082
 8457SOL    HW136833   1.658   3.546  14.551  0.5267 -0.3732  1.7272
 8457SOL    HW236834   1.739   3.639  14.640  0.2681  0.1149  0.1574
 8458SOL     OW36835   2.515   3.838   2.878 -0.4226  0.0756  0.1312
 8458SOL    HW136836   2.430   3.822   2.918  0.5756 -1.6415  1.5497
 8458SOL    HW236837   2.567   3.770   2.920  0.5756  2.2773  2.4649
 8459SOL     OW36838   2.252   1.162   5.236 -0.3223  0.1809 -0.2561
 8459SOL    HW136839   2.301   1.239   5.209 -1.7075  0.4866 -1.9053
 8459SOL    HW236840   2.261   1.176   5.330 -4.1894  0.8700 -0.0007
 8460SOL     OW36841   2.122   2.323   5.009  0.2201 -0.1800  0.1293
 8460SOL    HW136842   2.046   2.277   5.044  0.0316  0.1718  0.1903
 8460SOL    HW236843   2.172   2.255   4.966 -0.2036 -0.6797  0.4326
 8461SOL     OW36844   3.198   1.746   2.013 -0.0120 -0.8621  0.3270
 8461SOL    HW136845   3.211   1.712   1.924 -0.4773 -0.2301  0.0181
 8461SOL    HW236846   3.269   1.808   2.027  1.3617 -2.3814  0.0712
 8462SOL     OW36847   4.376   4.411   4.588 -0.5828 -0.5511 -0.6930
 8462SOL    HW136848   4.311   4.475   4.617  0.0869  0.4039 -1.3294
 8462SOL    HW236849   4.457   4.461   4.593 -0.0843 -1.4941  0.6708
 8463SOL     OW36850   4.259   0.269  13.233  0.1844 -0.4110 -0.0352
 8463SOL    HW136851   4.173   0.302  13.204  0.7503 -0.0144 -1.2843
 8463SOL    HW236852   4.270   0.186  13.186  1.4084  0.1859 -0.8089
 8464SOL     OW36853   0.749   1.155   1.075  0.0025  0.3108  0.1612
 8464SOL    HW136854   0.814   1.087   1.092 -0.6559 -0.4918 -0.5006
 8464SOL    HW236855   0.675   1.123   1.127 -0.5188 -2.5737 -2.3175
 8465SOL     OW36856   1.508   1.376   4.259  0.5085 -0.3407 -0.6920
 8465SOL    HW136857   1.575   1.313   4.233 -0.9654 -1.8586 -0.7824
 8465SOL    HW236858   1.510   1.446   4.193  0.1443  0.1582 -0.1737
 8466SOL     OW36859   4.045   1.561  10.696  0.2770 -0.1170  0.3145
 8466SOL    HW136860   4.062   1.607  10.779  3.8835  0.8382 -0.9566
 8466SOL    HW236861   3.968   1.506  10.711 -0.1003 -0.5975 -3.3860
 8467SOL     OW36862   1.755   4.075   2.211 -0.1458 -0.0774 -0.1380
 8467SOL    HW136863   1.696   4.012   2.253 -2.9035  1.7069 -1.3598
 8467SOL    HW236864   1.693   4.128   2.161  0.8767  0.4451 -0.8310
 8468SOL     OW36865   4.217   0.744   0.845  0.0935  0.8234  0.0279
 8468SOL    HW136866   4.185   0.775   0.760 -3.9706 -1.5169  0.7138
 8468SOL    HW236867   4.154   0.673   0.859 -0.0459  1.3716  2.1485
 8469SOL     OW36868   1.420   2.982  15.791  0.7094  0.7346  0.3284
 8469SOL    HW136869   1.396   2.891  15.806  3.4020  0.1952  1.3092
 8469SOL    HW236870   1.473   2.970  15.712 -0.6772 -0.5597 -0.4218
 8470SOL     OW36871   3.746   1.018   9.274 -0.3384 -0.2546  0.4655
 8470SOL    HW136872   3.792   1.067   9.207  0.7679  0.6658  1.8876
 8470SOL    HW236873   3.751   0.932   9.233  0.3553  0.2921 -0.5700
 8471SOL     OW36874   0.322   2.182   6.916  0.4850  0.5661  0.1314
 8471SOL    HW136875   0.252   2.207   6.976  0.2657 -2.6015  1.2048
 8471SOL    HW236876   0.316   2.248   6.848 -0.8139 -0.5666 -0.8592
 8472SOL     OW36877   2.372   1.836   4.219  0.6850 -0.4231 -0.0140
 8472SOL    HW136878   2.286   1.794   4.212  0.8572 -0.6016 -1.0445
 8472SOL    HW236879   2.427   1.778   4.271 -0.1781 -1.6199 -0.4360
 8473SOL     OW36880   4.031   1.644  12.911  0.2167 -0.0355 -0.3423
 8473SOL    HW136881   4.109   1.589  12.902 -0.1941 -0.7178  0.2450
 8473SOL    HW236882   4.037   1.699  12.834  1.9681  0.8927  0.4465
 8474SOL     OW36883   2.253   1.245  10.034  0.3714  0.4466 -0.6408
 8474SOL    HW136884   2.344   1.267  10.051  1.1311 -2.6275 -0.8061
 8474SOL    HW236885   2.229   1.264  10.125 -0.9392 -1.5462 -0.5742
 8475SOL     OW36886   4.490   2.417   5.042 -0.4153  0.1074 -0.2443
 8475SOL    HW136887   4.465   2.365   4.965 -1.7282  0.7958 -0.2871
 8475SOL    HW236888   4.488   2.354   5.113 -0.2911 -0.1090 -0.4341
 8476SOL     OW36889   1.649   4.576   6.648  0.3055  0.0275  0.0448
 8476SOL    HW136890   1.601   4.630   6.586  0.9663  1.4120  0.7362
 8476SOL    HW236891   1.697   4.649   6.687 -0.8880  1.2104 -0.6880
 8477SOL     OW36892   3.541   0.025   7.477 -0.0282  0.0309  0.2716
 8477SOL    HW136893   3.542   0.041   7.571  1.7332 -0.3379  0.3187
 8477SOL    HW236894   3.478   0.085   7.439 -0.7794 -0.2488  1.0713
 8478SOL     OW36895   1.586   1.276  10.899 -0.1574  0.2710  0.4803
 8478SOL    HW136896   1.503   1.321  10.912  0.0281  0.7250  0.1094
 8478SOL    HW236897   1.602   1.301  10.808 -0.0171 -0.2822  0.3503
 8479SOL     OW36898   2.205   0.632   7.189 -0.6388 -0.4384 -0.1129
 8479SOL    HW136899   2.126   0.680   7.216  1.0152  1.4681  1.3370
 8479SOL    HW236900   2.174   0.561   7.133  0.9508 -1.9415  0.9480
 8480SOL     OW36901   1.617   2.098   7.244 -0.0725  0.2451 -0.0236
 8480SOL    HW136902   1.694   2.143   7.207 -0.6759  0.4462 -1.0340
 8480SOL    HW236903   1.650   2.008   7.245 -0.9572 -0.0814 -0.3096
 8481SOL     OW36904   3.117   1.254  10.503 -0.1883 -0.3489 -0.0191
 8481SOL    HW136905   3.038   1.291  10.463  0.6500 -0.9747 -2.2881
 8481SOL    HW236906   3.112   1.308  10.581 -0.2428 -0.4459  0.0439
 8482SOL     OW36907   3.815   1.412   3.959  0.0037  0.3045 -0.4829
 8482SOL    HW136908   3.888   1.420   3.898  1.6266  2.8886  1.7642
 8482SOL    HW236909   3.813   1.492   4.011  0.1265  0.3338 -0.5241
 8483SOL     OW36910   0.557   4.619   8.219  0.1130  0.4792 -0.3038
 8483SOL    HW136911   0.598   4.559   8.281  0.7365  2.1005  0.8405
 8483SOL    HW236912   0.532   4.693   8.274  0.2015  1.2966 -1.3574
 8484SOL     OW36913   2.166   0.155   1.460 -0.3858 -0.4036  0.6473
 8484SOL    HW136914   2.238   0.191   1.511  1.0253 -1.9075 -0.3112
 8484SOL    HW236915   2.095   0.176   1.521 -0.4351 -0.5806  0.6495
 8485SOL     OW36916   2.006   0.415   7.473 -0.1869  0.2425  0.0595
 8485SOL    HW136917   2.048   0.496   7.442 -0.0831  0.5060  0.8899
 8485SOL    HW236918   1.929   0.403   7.417 -0.0050  0.5822 -0.2636
 8486SOL     OW36919   2.380   4.106   1.140 -0.7724  0.4968 -0.5017
 8486SOL    HW136920   2.473   4.090   1.154 -0.7181  1.8995  0.8423
 8486SOL    HW236921   2.384   4.196   1.173  1.0710  0.3469 -0.3264
 8487SOL     OW36922   2.955   0.561   4.597 -0.6318  0.4763  0.1165
 8487SOL    HW136923   2.960   0.466   4.587  1.1329  0.7052 -1.2901
 8487SOL    HW236924   3.043   0.585   4.628  0.2114 -0.8431 -1.2492
 8488SOL     OW36925   3.912   0.699   3.244 -0.5087 -0.3537  0.0968
 8488SOL    HW136926   3.954   0.635   3.186  0.6727 -0.3758  0.9698
 8488SOL    HW236927   3.861   0.754   3.184  0.9896  2.1582  1.1488
 8489SOL     OW36928   2.117   1.297   6.281 -0.1720 -0.3651 -0.0592
 8489SOL    HW136929   2.120   1.294   6.185 -1.8051 -0.9273 -0.0937
 8489SOL    HW236930   2.052   1.232   6.308  1.0795 -0.6270  2.2632
 8490SOL     OW36931   3.012   0.554  12.519  0.4822  0.0017  0.0273
 8490SOL    HW136932   3.075   0.482  12.517 -0.0157 -0.4546  0.6954
 8490SOL    HW236933   3.027   0.574  12.611 -1.1365 -1.6128  0.6531
 8491SOL     OW36934   0.087   1.880   9.627 -0.4849  0.0018  0.5859
 8491SOL    HW136935   4.720   1.909   9.632 -0.5138 -0.2151  1.2578
 8491SOL    HW236936   0.122   1.915   9.544 -2.3384 -0.0808 -0.2203
 8492SOL     OW36937   3.661   4.348   4.663 -0.1321  0.4930  0.2167
 8492SOL    HW136938   3.640   4.433   4.626 -3.7241  0.0294  1.1381
 8492SOL    HW236939   3.658   4.366   4.757 -2.1269  0.7693  0.0956
 8493SOL     OW36940   3.656   4.331   5.226  0.0395  0.7328 -0.1597
 8493SOL    HW136941   3.677   4.279   5.304  0.6257 -0.4466 -1.0954
 8493SOL    HW236942   3.709   4.408   5.246  1.4987 -0.3218  0.1400
 8494SOL     OW36943   1.152   2.624   9.677 -0.4863 -0.0762 -0.4998
 8494SOL    HW136944   1.210   2.672   9.736  0.1813 -1.2730 -0.1944
 8494SOL    HW236945   1.073   2.676   9.688 -0.0588  1.0540 -2.6965
 8495SOL     OW36946   0.742   0.302  11.433  0.2314  0.6481  0.5038
 8495SOL    HW136947   0.794   0.332  11.358 -0.5032 -0.7593 -0.5564
 8495SOL    HW236948   0.811   0.304  11.499  0.7923  1.7280 -0.1046
 8496SOL     OW36949   1.894   0.109   5.747  0.2944 -0.6886  0.3589
 8496SOL    HW136950   1.927   0.083   5.833  0.4039  0.3270  0.6265
 8496SOL    HW236951   1.962   0.069   5.693 -1.7999 -2.6605 -0.8269
 8497SOL     OW36952   3.262   2.786   4.345  0.2867  0.1634  0.2918
 8497SOL    HW136953   3.234   2.809   4.256 -0.9350 -1.7994  0.1810
 8497SOL    HW236954   3.183   2.808   4.395  0.9937  1.9146  0.6728
 8498SOL     OW36955   1.749   0.420   4.824 -0.0011  0.4107 -0.0498
 8498SOL    HW136956   1.712   0.451   4.742  0.8083 -1.2849 -1.0458
 8498SOL    HW236957   1.843   0.434   4.814 -0.0207 -1.8017 -3.0363
 8499SOL     OW36958   2.980   0.175   6.696 -0.5530 -0.4286  0.3559
 8499SOL    HW136959   3.061   0.166   6.645 -0.3358 -0.2113  0.6556
 8499SOL    HW236960   2.959   0.089   6.732  2.6025 -1.2718  0.1783
 8500SOL     OW36961   3.735   1.694   5.002  0.3699 -0.3826  0.2254
 8500SOL    HW136962   3.661   1.686   5.062 -0.5215 -0.4914 -0.8816
 8500SOL    HW236963   3.706   1.763   4.942  1.0935 -0.4603 -0.2148
 8501SOL     OW36964   2.167   3.882   4.867 -0.0458 -0.8112  0.2697
 8501SOL    HW136965   2.206   3.835   4.941  0.4980 -2.9675 -1.4038
 8501SOL    HW236966   2.091   3.929   4.903 -0.2466 -1.6433  0.9283
 8502SOL     OW36967   1.076   2.881   4.917  0.2793  0.4442 -0.2707
 8502SOL    HW136968   1.066   2.786   4.929 -3.1651  0.8553 -0.0234
 8502SOL    HW236969   1.071   2.911   5.008 -4.6762  3.1582 -1.4436
 8503SOL     OW36970   0.743   4.518  13.782  0.5208  0.1129  0.2847
 8503SOL    HW136971   0.838   4.520  13.780  0.4632  1.5368 -1.1550
 8503SOL    HW236972   0.719   4.496  13.872 -0.2671 -0.2137 -0.0016
 8504SOL     OW36973   3.540   0.169   6.933 -0.5143 -0.4127 -0.1931
 8504SOL    HW136974   3.521   0.082   6.897  0.4518  0.1792 -2.0978
 8504SOL    HW236975   3.625   0.188   6.894 -0.4997 -0.8760 -0.3851
 8505SOL     OW36976   2.733   4.113  15.991  0.0157  0.0546  0.2345
 8505SOL    HW136977   2.784   4.073  15.921 -1.6401 -2.3734  0.4252
 8505SOL    HW236978   2.679   4.177  15.944 -0.2761  0.3329  0.9423
 8506SOL     OW36979   0.373   1.147   7.135 -0.3043  0.9211 -0.1613
 8506SOL    HW136980   0.384   1.063   7.181  1.1632  1.9259  1.3330
 8506SOL    HW236981   0.389   1.204   7.211 -1.6336 -0.1735  0.9381
 8507SOL     OW36982   3.123   1.553   8.384  0.1009  0.4275  0.2754
 8507SOL    HW136983   3.037   1.594   8.395  0.6479  1.3497  1.1663
 8507SOL    HW236984   3.180   1.624   8.353  1.3044 -0.9956 -0.7198
 8508SOL     OW36985   4.465   4.008   2.333 -0.4551 -0.1625  0.0736
 8508SOL    HW136986   4.425   4.037   2.415 -0.2315 -3.5683  1.3949
 8508SOL    HW236987   4.481   4.094   2.296 -0.0523  0.8156  2.5165
 8509SOL     OW36988   4.191   1.545   7.694 -0.4985  0.4795 -0.3979
 8509SOL    HW136989   4.227   1.620   7.740 -0.9115  0.7942 -0.5896
 8509SOL    HW236990   4.269   1.490   7.700 -0.4191  0.6423  0.0187
 8510SOL     OW36991   3.355   4.081  16.332  0.9395  0.0536 -0.5978
 8510SOL    HW136992   3.285   4.121  16.383  2.0269  1.5878 -0.3004
 8510SOL    HW236993   3.298   4.026  16.278 -1.1029 -1.2936  2.9516
 8511SOL     OW36994   4.396   0.483   2.361 -0.4081  0.1670  0.4860
 8511SOL    HW136995   4.392   0.393   2.328 -1.8921  0.4054  0.0289
 8511SOL    HW236996   4.313   0.530   2.352 -0.7892 -0.8096 -1.1140
 8512SOL     OW36997   1.786   0.073  15.581 -0.2201 -0.2897 -0.4616
 8512SOL    HW136998   1.750   0.152  15.539  0.6854 -0.1157 -0.8964
 8512SOL    HW236999   1.865   0.054  15.531  1.3542  0.2822  1.8148
 8513SOL     OW37000   1.336   3.806   0.684 -0.0207  0.4046  0.0437
 8513SOL    HW137001   1.374   3.723   0.657 -0.7630 -0.0853  0.5066
 8513SOL    HW237002   1.412   3.842   0.729  1.3250 -0.5531 -1.4477
 8514SOL     OW37003   1.584   1.905   7.937  0.4194  0.8206 -0.2815
 8514SOL    HW137004   1.637   1.985   7.937  0.3328  0.8785 -0.2585
 8514SOL    HW237005   1.615   1.848   8.007  1.7534  1.6984 -0.1514
 8515SOL     OW37006   4.308   2.939   6.094 -0.7164 -0.1729 -0.0788
 8515SOL    HW137007   4.331   2.902   6.179 -1.6047 -0.3687  0.0758
 8515SOL    HW237008   4.282   3.027   6.118 -1.2901  0.1304 -1.7926
 8516SOL     OW37009   2.758   2.903   4.453  0.0460 -0.0029 -0.0567
 8516SOL    HW137010   2.853   2.908   4.442  0.1972 -2.5154  0.0835
 8516SOL    HW237011   2.735   2.848   4.379  2.4762 -0.2617 -0.6170
 8517SOL     OW37012   4.431   3.968  14.333  0.2862  0.1939  0.0780
 8517SOL    HW137013   4.336   3.959  14.333  0.3700 -0.6695 -0.3087
 8517SOL    HW237014   4.438   4.052  14.379  1.3366 -0.5595  1.3096
 8518SOL     OW37015   1.569   0.277  12.995  0.4832  0.6003  0.2409
 8518SOL    HW137016   1.595   0.241  13.079  2.9618  2.7469  0.3936
 8518SOL    HW237017   1.497   0.334  13.024  0.3164 -0.7160  2.3683
 8519SOL     OW37018   0.518   3.129   5.320 -0.6295  0.4115 -0.5319
 8519SOL    HW137019   0.518   3.188   5.246  0.4750  1.8522  0.6207
 8519SOL    HW237020   0.423   3.122   5.333 -0.3372  0.3946  1.6933
 8520SOL     OW37021   0.773   3.086   8.621 -0.2271 -0.1224 -0.0459
 8520SOL    HW137022   0.716   3.012   8.642 -2.0819  0.7866 -1.8967
 8520SOL    HW237023   0.735   3.118   8.540 -0.1125 -0.6557 -0.3080
 8521SOL     OW37024   3.994   4.169   1.485  1.1502  0.4042  0.1124
 8521SOL    HW137025   4.011   4.163   1.579  1.6311  0.3381  0.0188
 8521SOL    HW237026   3.974   4.263   1.484 -1.1533 -0.1012 -1.0937
 8522SOL     OW37027   1.697   2.887   8.046  0.3980  0.3120  0.7126
 8522SOL    HW137028   1.633   2.868   7.977  0.3959  1.3717  0.4195
 8522SOL    HW237029   1.666   2.829   8.115  1.4028 -0.7371  0.2962
 8523SOL     OW37030   1.575   1.186   7.174  0.3111  0.3409 -0.5969
 8523SOL    HW137031   1.665   1.153   7.179  1.0798  2.3814 -1.0090
 8523SOL    HW237032   1.560   1.202   7.267 -0.6205  0.2221 -0.7300
 8524SOL     OW37033   2.539   2.350   0.109  0.0588 -0.0740  0.7625
 8524SOL    HW137034   2.523   2.391   0.194  0.2065 -2.6513  2.0368
 8524SOL    HW237035   2.633   2.363   0.093 -0.2644  1.2939 -0.0426
 8525SOL     OW37036   3.511   1.638   6.569  0.0079 -0.1694 -0.7704
 8525SOL    HW137037   3.455   1.570   6.531 -2.2137  1.0853  0.2720
 8525SOL    HW237038   3.449   1.710   6.555  0.4816  0.6158  1.1426
 8526SOL     OW37039   2.353   0.950   2.291 -0.2204 -0.0331  0.0169
 8526SOL    HW137040   2.444   0.963   2.265  0.4155  0.7427  2.6897
 8526SOL    HW237041   2.320   0.931   2.203  1.4683 -0.0836 -0.6160
 8527SOL     OW37042   1.382   3.572   7.547  0.0534 -0.2869 -0.3645
 8527SOL    HW137043   1.350   3.482   7.551 -2.3399  0.5807  0.2130
 8527SOL    HW237044   1.405   3.579   7.455  1.6482 -1.1820 -0.0245
 8528SOL     OW37045   1.481   4.290  10.056  0.1898  0.0375 -0.2883
 8528SOL    HW137046   1.525   4.373  10.071  0.8429 -0.4710  0.5964
 8528SOL    HW237047   1.426   4.328   9.987  0.1339 -1.6224 -1.1576
 8529SOL     OW37048   0.525   2.483   1.384  0.1132  0.1744 -0.1157
 8529SOL    HW137049   0.469   2.533   1.324 -1.3512 -0.5272  0.6610
 8529SOL    HW237050   0.457   2.417   1.400 -0.2176  0.6205  0.3106
 8530SOL     OW37051   4.721   2.946   8.184  0.4693 -0.0290 -0.1979
 8530SOL    HW137052   4.625   2.940   8.191  0.5578 -2.3040 -1.2478
 8530SOL    HW237053   0.012   3.003   8.109 -0.6282  1.0195  0.3821
 8531SOL     OW37054   1.861   0.732  12.536 -0.5484 -0.1043  0.1058
 8531SOL    HW137055   1.794   0.679  12.579  0.0412 -2.3662 -1.7020
 8531SOL    HW237056   1.843   0.820  12.567 -2.2656 -0.7891  1.0828
 8532SOL     OW37057   2.954   0.444  11.758 -0.3130  0.0711 -0.0363
 8532SOL    HW137058   3.019   0.486  11.701 -0.1319 -1.8551 -1.2435
 8532SOL    HW237059   2.975   0.495  11.836  1.1714  0.9289 -1.0058
 8533SOL     OW37060   2.464   3.957   6.473 -0.1923  0.2342 -0.0719
 8533SOL    HW137061   2.417   4.038   6.494 -0.7417 -0.3024  0.7832
 8533SOL    HW237062   2.544   3.993   6.435 -0.5377 -1.0160 -1.9878
 8534SOL     OW37063   4.639   3.238   7.344  0.0414 -0.0846  0.2184
 8534SOL    HW137064   4.633   3.277   7.257 -0.9956 -1.2638 -0.2364
 8534SOL    HW237065   4.546   3.231   7.365 -0.5693  1.2974 -2.1459
 8535SOL     OW37066   4.211   2.403  11.432  0.0102  0.6593  0.1302
 8535SOL    HW137067   4.275   2.382  11.364  0.2172 -2.3459  1.2527
 8535SOL    HW237068   4.268   2.459  11.485 -0.0693  0.7405  0.1292
 8536SOL     OW37069   4.174   0.412   6.469  0.6619  0.3833  0.5091
 8536SOL    HW137070   4.213   0.495   6.496  1.3507  0.3689 -0.4438
 8536SOL    HW237071   4.243   0.356   6.503  1.4777  1.0577 -0.0506
 8537SOL     OW37072   0.670   4.497   0.939 -0.2063  0.0923  0.1489
 8537SOL    HW137073   0.582   4.511   0.904 -0.4989  0.4744  1.0562
 8537SOL    HW237074   0.714   4.581   0.926  1.4148 -0.7690  0.0393
 8538SOL     OW37075   3.126   1.540  11.586 -0.3937 -0.3632 -0.1847
 8538SOL    HW137076   3.030   1.545  11.584 -0.4820 -2.4942 -1.5696
 8538SOL    HW237077   3.144   1.460  11.537  1.2019 -0.0273 -0.1614
 8539SOL     OW37078   4.568   3.458   9.201 -0.3949 -0.1383  0.5007
 8539SOL    HW137079   4.588   3.495   9.287  2.3834 -2.6122  0.9557
 8539SOL    HW237080   4.532   3.533   9.153  1.5510  0.1933 -0.4528
 8540SOL     OW37081   2.723   4.406   4.097  0.3842  0.1149 -0.4443
 8540SOL    HW137082   2.775   4.345   4.150 -0.6595 -0.5744 -0.2152
 8540SOL    HW237083   2.744   4.367   4.012  4.1923 -0.6525  0.8647
 8541SOL     OW37084   4.073   2.055  15.630  0.2776  0.0895  0.5021
 8541SOL    HW137085   4.055   2.031  15.539  3.2230 -3.1580  0.7861
 8541SOL    HW237086   4.077   2.150  15.620  1.2595 -0.2329 -2.0702
 8542SOL     OW37087   3.390   0.952   3.464 -0.4226  0.0729 -0.0647
 8542SOL    HW137088   3.333   0.899   3.520  3.7097 -0.1722  3.8223
 8542SOL    HW237089   3.411   0.877   3.408 -1.8675 -1.8529  1.9951
 8543SOL     OW37090   2.453   0.895   2.779  0.0864  0.0483 -0.4800
 8543SOL    HW137091   2.451   0.833   2.852  0.1905 -0.4209 -0.8714
 8543SOL    HW237092   2.394   0.963   2.810 -1.5301 -0.3951 -2.6046
 8544SOL     OW37093   1.952   3.176   6.361  0.0015  0.2045  0.1519
 8544SOL    HW137094   1.932   3.174   6.268 -2.9761 -0.9543  0.8002
 8544SOL    HW237095   1.954   3.270   6.383  1.1249 -0.3326  2.3554
 8545SOL     OW37096   1.579   3.072   0.487 -0.5560 -0.2799 -0.6255
 8545SOL    HW137097   1.671   3.081   0.465 -0.5483  1.5600  0.2073
 8545SOL    HW237098   1.558   3.147   0.542 -0.3799 -1.4200  0.9882
 8546SOL     OW37099   0.595   2.822   2.051 -0.0648 -0.2482 -0.9333
 8546SOL    HW137100   0.620   2.914   2.044  1.9532 -0.6903  0.4251
 8546SOL    HW237101   0.500   2.826   2.047 -0.0883  0.9335  1.0302
 8547SOL     OW37102   2.893   1.989   1.733 -0.5387 -0.3202  0.3827
 8547SOL    HW137103   2.821   2.037   1.692  0.1525 -1.4900 -2.2009
 8547SOL    HW237104   2.846   1.921   1.781 -1.3756 -0.4721 -0.6640
 8548SOL     OW37105   1.089   0.909   7.892 -0.4275 -0.1206 -0.0768
 8548SOL    HW137106   1.115   0.821   7.918  0.0108 -0.2293 -0.8998
 8548SOL    HW237107   1.135   0.958   7.960 -1.2892 -2.1765  2.0083
 8549SOL     OW37108   1.521   1.050  13.495 -0.1213 -0.0453 -0.5208
 8549SOL    HW137109   1.598   1.077  13.545 -0.0267 -0.5055 -0.4159
 8549SOL    HW237110   1.565   0.996  13.430 -1.9923 -2.6892  0.3807
 8550SOL     OW37111   3.120   1.641   3.875  0.0302  0.1653 -0.1205
 8550SOL    HW137112   3.214   1.632   3.857 -0.1344 -0.2448 -0.7556
 8550SOL    HW237113   3.087   1.559   3.839  1.4038  0.4189 -1.9426
 8551SOL     OW37114   4.297   2.482   6.042 -0.2716 -0.5567  0.4404
 8551SOL    HW137115   4.314   2.528   6.124  0.7973 -0.4492  0.1697
 8551SOL    HW237116   4.234   2.412   6.056  0.1126 -0.7562  1.1550
 8552SOL     OW37117   0.196   2.728   8.302 -0.0049  0.1079 -0.1302
 8552SOL    HW137118   0.257   2.745   8.231  0.5946  0.6611  0.5166
 8552SOL    HW237119   0.124   2.790   8.287  0.3352  0.2949 -0.9721
 8553SOL     OW37120   3.040   0.837   8.194  0.0774 -0.4761  0.0509
 8553SOL    HW137121   2.959   0.863   8.236  0.3694 -0.4221  0.5861
 8553SOL    HW237122   3.098   0.874   8.260 -0.5475  1.3475 -0.4168
 8554SOL     OW37123   2.863   2.402   7.045  0.1095  0.3258 -0.2641
 8554SOL    HW137124   2.831   2.365   7.127  1.5103 -2.8795 -1.1603
 8554SOL    HW237125   2.957   2.414   7.060  0.4511  1.9221 -3.7557
 8555SOL     OW37126   1.447   0.225   8.908  0.1187  0.2967 -0.2478
 8555SOL    HW137127   1.460   0.304   8.961 -2.3575  0.6447 -0.1460
 8555SOL    HW237128   1.524   0.172   8.926  0.8338  2.1373  2.1577
 8556SOL     OW37129   1.938   0.652   8.934 -0.0298  0.1592 -0.0499
 8556SOL    HW137130   1.882   0.693   9.000 -1.3063  1.4602 -1.9106
 8556SOL    HW237131   2.018   0.661   8.985 -0.0596 -0.6030  0.1304
 8557SOL     OW37132   1.186   1.922   6.663 -0.0617 -0.4745 -0.1919
 8557SOL    HW137133   1.233   1.958   6.738 -1.2931 -0.1199  0.4111
 8557SOL    HW237134   1.220   1.832   6.664  0.5988 -0.2080  1.2460
 8558SOL     OW37135   0.876   4.042  16.064 -0.0786 -0.1246  0.5170
 8558SOL    HW137136   0.947   3.994  16.107  0.3585 -1.0180 -1.2070
 8558SOL    HW237137   0.911   4.131  16.066  1.3312 -0.7129  2.0434
 8559SOL     OW37138   0.687   2.597  15.985  0.1998 -0.7288  0.2171
 8559SOL    HW137139   0.729   2.523  15.941  0.5403 -0.7508  0.5817
 8559SOL    HW237140   0.741   2.665  15.945  0.4457 -1.4717 -0.7037
 8560SOL     OW37141   0.739   0.448   3.771  0.0705 -0.6507 -0.1509
 8560SOL    HW137142   0.792   0.496   3.835 -0.1178  1.4237 -1.5543
 8560SOL    HW237143   0.808   0.419   3.711  0.3338  0.3367 -0.3196
 8561SOL     OW37144   0.671   2.023   3.797 -0.3368 -0.0277  0.9753
 8561SOL    HW137145   0.673   2.024   3.892 -0.1734  2.2627  0.9580
 8561SOL    HW237146   0.762   2.037   3.768 -1.5923  1.5338 -2.1950
 8562SOL     OW37147   2.299   2.282   0.491  0.4830 -1.1013  0.4606
 8562SOL    HW137148   2.382   2.265   0.447  1.2109  0.6688  1.1225
 8562SOL    HW237149   2.259   2.195   0.493 -1.1920 -0.3086  1.7927
 8563SOL     OW37150   0.715   4.549   9.225 -0.1136 -0.1142  0.4072
 8563SOL    HW137151   0.686   4.511   9.142  2.0424  0.6440 -0.6913
 8563SOL    HW237152   0.809   4.544   9.209 -0.3102  2.1075 -1.3656
 8564SOL     OW37153   4.704   3.602  17.516 -0.0577 -0.1395 -0.0131
 8564SOL    HW137154   0.063   3.648  17.496 -0.6468 -0.3547 -2.9988
 8564SOL    HW237155   4.645   3.653  17.460 -0.7889 -2.9998 -1.8613
 8565SOL     OW37156   0.965   1.826   3.712  0.1653  0.3247 -0.2056
 8565SOL    HW137157   0.894   1.780   3.667  1.0333 -1.6675  0.4691
 8565SOL    HW237158   1.023   1.803   3.640  1.0232  1.9759 -0.0488
 8566SOL     OW37159   0.636   4.177   2.722  0.7881 -0.4835 -0.3450
 8566SOL    HW137160   0.668   4.202   2.809  0.8514 -1.8692  0.0336
 8566SOL    HW237161   0.692   4.234   2.669 -0.2462  0.6276 -0.2435
 8567SOL     OW37162   2.779   3.035  14.198 -0.0029 -0.1611  0.8694
 8567SOL    HW137163   2.820   3.030  14.112 -0.4971 -3.4299  0.8269
 8567SOL    HW237164   2.692   3.061  14.167 -0.4148  0.1095  2.2363
 8568SOL     OW37165   2.827   3.152  17.570 -0.8273  0.1413 -0.4632
 8568SOL    HW137166   2.837   3.241  17.603 -2.8481 -0.2805  1.3200
 8568SOL    HW237167   2.918   3.122  17.579 -0.2483  1.1640 -3.0286
 8569SOL     OW37168   2.470   4.430   3.429  0.3164  0.2668  0.3133
 8569SOL    HW137169   2.520   4.504   3.464 -2.2370  2.6585 -1.1527
 8569SOL    HW237170   2.378   4.447   3.451  0.5248  1.4484  0.2657
 8570SOL     OW37171   4.447   2.376   3.224  0.2812 -0.0701  0.2397
 8570SOL    HW137172   4.530   2.348   3.261  0.0033 -1.2692 -0.0589
 8570SOL    HW237173   4.397   2.295   3.236  2.5949 -1.4484  0.4443
 8571SOL     OW37174   2.946   0.323  13.004 -0.0921 -0.1520 -0.5328
 8571SOL    HW137175   2.976   0.400  13.053 -0.5301 -0.9278  0.9660
 8571SOL    HW237176   2.870   0.303  13.058  1.6996 -2.5150  1.1641
 8572SOL     OW37177   0.919   0.876   2.155 -0.0816  0.4611  0.1794
 8572SOL    HW137178   0.836   0.924   2.157 -0.6300 -0.5223  1.1403
 8572SOL    HW237179   0.903   0.807   2.220 -1.0204 -0.6342 -1.2135
 8573SOL     OW37180   2.236   3.246  16.027 -1.0621 -0.4594 -0.6970
 8573SOL    HW137181   2.210   3.326  16.072  1.1124  0.3175 -0.8123
 8573SOL    HW237182   2.312   3.272  15.975 -0.8966  0.0963 -0.1789
 8574SOL     OW37183   2.408   2.686   3.978  0.1115  0.1189  0.3459
 8574SOL    HW137184   2.367   2.773   3.979 -2.2595 -0.9723 -0.8568
 8574SOL    HW237185   2.343   2.618   3.958  0.7467  0.1645 -1.9435
 8575SOL     OW37186   3.455   0.753  13.003  0.5533  0.5039  0.5825
 8575SOL    HW137187   3.491   0.679  12.955 -0.6189 -0.0570  0.5801
 8575SOL    HW237188   3.487   0.823  12.946  1.0470 -0.9562 -0.9201
 8576SOL     OW37189   2.176   1.098   8.738  0.4389  0.4303  0.1440
 8576SOL    HW137190   2.253   1.144   8.772  0.7081 -0.3835  0.6446
 8576SOL    HW237191   2.203   1.089   8.646  2.2963 -0.2578  0.7528
 8577SOL     OW37192   2.134   1.327  11.647 -0.1176  0.1664 -0.0171
 8577SOL    HW137193   2.099   1.241  11.671  2.9988 -1.4389 -1.2831
 8577SOL    HW237194   2.078   1.348  11.573  2.6429 -2.2512 -2.7699
 8578SOL     OW37195   4.205   0.467  10.275  0.3330  0.1186  0.1629
 8578SOL    HW137196   4.213   0.514  10.358 -1.1333  1.5326 -0.4707
 8578SOL    HW237197   4.148   0.392  10.292 -0.0721  0.4051  0.0704
 8579SOL     OW37198   2.826   1.728   9.993  0.5117  0.7262  0.3238
 8579SOL    HW137199   2.895   1.696  10.052  2.2907  0.5054 -1.8890
 8579SOL    HW237200   2.746   1.712  10.042  0.7561  0.3008  0.5850
 8580SOL     OW37201   3.389   2.258   2.252  0.2224  0.2491  0.2791
 8580SOL    HW137202   3.356   2.214   2.174 -2.9925 -0.8450  2.2758
 8580SOL    HW237203   3.322   2.324   2.268  2.6724  3.2532 -1.7123
 8581SOL     OW37204   2.885   4.574   3.215  0.2646 -0.5083 -0.0006
 8581SOL    HW137205   2.795   4.605   3.203  0.1053 -0.1713  2.0388
 8581SOL    HW237206   2.872   4.482   3.239  0.1084 -0.6688 -0.7065
 8582SOL     OW37207   0.471   0.117   7.223 -0.1831 -0.3773 -0.6651
 8582SOL    HW137208   0.492   0.024   7.235  0.9438 -0.1287 -0.6612
 8582SOL    HW237209   0.550   0.170   7.235 -0.4446 -0.5385  1.7412
 8583SOL     OW37210   1.590   1.681   9.845 -0.0405 -0.0315 -0.1876
 8583SOL    HW137211   1.664   1.676   9.784  0.0233 -1.3196  0.0027
 8583SOL    HW237212   1.559   1.771   9.831 -1.1593 -0.3609  0.2247
 8584SOL     OW37213   2.651   2.905   2.593 -0.2428 -0.5596 -0.1808
 8584SOL    HW137214   2.735   2.928   2.553 -0.6355  2.4260  0.7230
 8584SOL    HW237215   2.592   2.923   2.519 -1.4802 -0.0116  0.9373
 8585SOL     OW37216   1.436   0.170   9.361 -0.4073  0.4009 -0.3926
 8585SOL    HW137217   1.430   0.094   9.303  0.3011 -0.6504  0.8974
 8585SOL    HW237218   1.413   0.132   9.446  0.5184 -2.2515 -1.3296
 8586SOL     OW37219   0.040   1.909  11.590 -0.2943  0.5816 -0.4388
 8586SOL    HW137220   0.001   1.945  11.511 -0.1595  2.9673  0.5640
 8586SOL    HW237221   4.688   1.893  11.647 -0.4883  0.9518 -0.5939
 8587SOL     OW37222   3.591   4.079   4.793  0.9696 -0.1059  0.7191
 8587SOL    HW137223   3.598   4.160   4.743 -2.2270 -1.8639 -2.6623
 8587SOL    HW237224   3.496   4.067   4.786  1.2255 -1.1074 -1.2769
 8588SOL     OW37225   3.793   1.318   0.485  0.2376 -0.2651 -0.2374
 8588SOL    HW137226   3.729   1.388   0.497  0.3549 -0.0898 -0.6315
 8588SOL    HW237227   3.821   1.336   0.395 -2.1851  0.3574 -0.8720
 8589SOL     OW37228   0.756   3.401  15.355 -0.0015  0.5580 -0.6418
 8589SOL    HW137229   0.805   3.483  15.365  0.8175 -0.0203  0.1601
 8589SOL    HW237230   0.665   3.425  15.368 -0.1843 -0.1789 -0.5911
 8590SOL     OW37231   0.208   2.106   8.305  0.3080 -0.0054 -0.4268
 8590SOL    HW137232   0.302   2.095   8.294  0.7284  2.1107  1.0774
 8590SOL    HW237233   0.177   2.015   8.297  0.0514 -0.0956  1.4265
 8591SOL     OW37234   3.941   2.341   2.891  0.7089  0.4552 -0.2670
 8591SOL    HW137235   4.020   2.388   2.865 -0.5982  2.9470  0.3009
 8591SOL    HW237236   3.915   2.297   2.810 -0.9513 -0.9956  1.0498
 8592SOL     OW37237   4.663   3.929  12.496 -0.3142  0.1596  0.5461
 8592SOL    HW137238   4.711   3.938  12.578 -1.1061 -1.7128  1.2127
 8592SOL    HW237239   4.719   3.865  12.451 -0.2463  0.1216  0.6860
 8593SOL     OW37240   0.711   1.297  12.499  0.6091 -0.5628 -0.4971
 8593SOL    HW137241   0.647   1.304  12.429  2.0618 -1.0518 -1.8664
 8593SOL    HW237242   0.777   1.351  12.456  0.2473  0.8182  0.6837
 8594SOL     OW37243   0.245   0.216   7.575 -0.5050 -0.0350 -0.1945
 8594SOL    HW137244   0.297   0.189   7.651  0.8447  0.3592 -0.9782
 8594SOL    HW237245   0.161   0.181   7.603 -0.4387  0.5318  0.6793
 8595SOL     OW37246   0.743   4.288   1.084 -0.0765 -0.1981  0.0516
 8595SOL    HW137247   0.731   4.369   1.034 -1.0882  1.1089  2.4049
 8595SOL    HW237248   0.652   4.283   1.113  0.5993  1.9675  2.6952
 8596SOL     OW37249   3.138   1.222   1.030  0.0323  0.7237 -0.2278
 8596SOL    HW137250   3.059   1.188   1.073 -0.0307  1.1293 -0.0272
 8596SOL    HW237251   3.208   1.177   1.077 -1.5000 -0.3174  1.0991
 8597SOL     OW37252   0.496   3.810   8.408 -0.2543  0.3351  0.1573
 8597SOL    HW137253   0.476   3.866   8.483  0.5759  1.1644 -0.2331
 8597SOL    HW237254   0.448   3.861   8.342 -1.4322  0.2634  0.9690
 8598SOL     OW37255   0.225   1.374   4.690  0.0830 -0.3039  0.3170
 8598SOL    HW137256   0.226   1.419   4.774  1.3570  0.8949 -0.3403
 8598SOL    HW237257   0.141   1.410   4.660 -0.3877 -1.6047  0.0896
 8599SOL     OW37258   2.715   2.680   4.282  0.4008  0.4263  0.0208
 8599SOL    HW137259   2.626   2.678   4.318  0.0359  2.1525 -0.8003
 8599SOL    HW237260   2.724   2.585   4.270  1.4616  0.8754 -2.8221
 8600SOL     OW37261   3.215   3.574   2.218 -0.2602 -0.0948  0.0711
 8600SOL    HW137262   3.151   3.554   2.286  0.4850 -0.2155  0.7387
 8600SOL    HW237263   3.180   3.521   2.147  1.3211  0.0629 -0.8243
 8601SOL     OW37264   3.483   4.211   3.841 -0.9843 -0.0892 -0.0105
 8601SOL    HW137265   3.556   4.237   3.785  0.2216 -0.4745  1.3697
 8601SOL    HW237266   3.458   4.137   3.787  0.5356 -0.9797  0.4998
 8602SOL     OW37267   2.963   2.400   2.996 -0.2230 -0.2626  0.5021
 8602SOL    HW137268   2.890   2.461   3.003  0.2778  0.1800  1.8512
 8602SOL    HW237269   3.016   2.450   3.058 -0.8352 -0.3494  1.0999
 8603SOL     OW37270   1.734   3.202   7.527 -0.2037  0.1772  0.2344
 8603SOL    HW137271   1.826   3.222   7.547 -0.7372  2.3462  0.5146
 8603SOL    HW237272   1.752   3.125   7.474  1.7358 -0.2899  1.5422
 8604SOL     OW37273   4.340   3.204  14.776  0.4787 -0.3230 -0.4945
 8604SOL    HW137274   4.334   3.128  14.717 -1.5732 -0.1406 -0.5309
 8604SOL    HW237275   4.351   3.160  14.860  0.3617 -0.0450 -0.3332
 8605SOL     OW37276   4.545   2.046  10.954 -0.2681 -0.5702 -0.3820
 8605SOL    HW137277   4.618   2.013  11.007 -1.2379 -0.4419  1.0261
 8605SOL    HW237278   4.592   2.097  10.888  1.9739 -2.4172 -0.2280
 8606SOL     OW37279   1.212   1.452  13.012 -0.7136 -0.4197  0.0129
 8606SOL    HW137280   1.243   1.525  13.065 -2.2794  0.8347 -0.8410
 8606SOL    HW237281   1.128   1.443  13.057  0.4532 -2.8602  1.7264
 8607SOL     OW37282   1.258   3.632   9.874 -0.0208  0.5422  0.1801
 8607SOL    HW137283   1.270   3.727   9.880 -0.3872  0.6242 -0.3300
 8607SOL    HW237284   1.172   3.622   9.914 -0.1435  1.1942  0.0773
 8608SOL     OW37285   1.776   1.386   0.503  0.3710 -0.2392  0.5232
 8608SOL    HW137286   1.720   1.436   0.443  3.2989  0.3291 -1.7171
 8608SOL    HW237287   1.736   1.299   0.501  1.2521 -0.6237 -0.0481
 8609SOL     OW37288   3.232   3.616   0.573 -0.5209  0.6268 -0.4026
 8609SOL    HW137289   3.173   3.678   0.529  0.4804  1.9972  0.1970
 8609SOL    HW237290   3.311   3.625   0.521 -0.7989  0.1163 -0.9088
 8610SOL     OW37291   0.881   2.776  15.606 -0.2044 -0.0745 -0.1003
 8610SOL    HW137292   0.947   2.722  15.562 -1.9179 -0.7409 -1.8349
 8610SOL    HW237293   0.874   2.849  15.545  0.1871 -0.0720 -0.1412
 8611SOL     OW37294   1.596   3.502  11.700 -0.2721 -0.0641  0.1146
 8611SOL    HW137295   1.587   3.596  11.683 -0.1205 -0.1480 -0.4421
 8611SOL    HW237296   1.560   3.462  11.621 -1.1003  0.1459  0.3933
 8612SOL     OW37297   1.127   0.150   6.783 -0.2805  0.3105  0.0979
 8612SOL    HW137298   1.197   0.209   6.755 -0.0099  0.3119  0.7716
 8612SOL    HW237299   1.172   0.069   6.808 -2.6325 -1.0553 -0.1142
 8613SOL     OW37300   0.048   3.981   7.594  0.1640 -0.5273 -0.0913
 8613SOL    HW137301   0.090   4.039   7.531  0.1971 -2.7404 -2.1482
 8613SOL    HW237302   0.009   4.040   7.658 -0.6197 -0.3862 -0.6888
 8614SOL     OW37303   2.458   3.853   4.353 -0.1885  0.7916  1.0001
 8614SOL    HW137304   2.418   3.774   4.316 -0.4752  1.2897  0.2565
 8614SOL    HW237305   2.543   3.851   4.311  0.4866 -0.6237  2.4355
 8615SOL     OW37306   3.511   1.621   2.342 -0.0709  0.0798 -1.0812
 8615SOL    HW137307   3.602   1.592   2.352  0.3098  2.1522  1.4826
 8615SOL    HW237308   3.480   1.601   2.430 -1.0823 -1.7764 -1.8628
 8616SOL     OW37309   4.470   3.234   6.591 -0.2579  0.4115  0.5674
 8616SOL    HW137310   4.508   3.307   6.641 -0.1929  1.6503 -1.3203
 8616SOL    HW237311   4.385   3.230   6.635 -0.1676  1.2660  0.8166
 8617SOL     OW37312   0.017   3.501   7.496 -0.1604 -0.2601  0.1360
 8617SOL    HW137313   4.665   3.466   7.543 -1.4001  2.0694 -0.1328
 8617SOL    HW237314   0.070   3.529   7.571  2.9252 -2.8465 -1.0924
 8618SOL     OW37315   2.665   1.197   3.272 -0.4787  0.3183  0.0263
 8618SOL    HW137316   2.709   1.194   3.358 -0.0140 -0.0530 -0.2254
 8618SOL    HW237317   2.748   1.208   3.225  0.4940 -1.8021  1.2660
 8619SOL     OW37318   2.615   1.671   2.808  0.3947  0.1748  0.4252
 8619SOL    HW137319   2.538   1.617   2.789 -0.8411  3.2586 -3.2982
 8619SOL    HW237320   2.645   1.627   2.887 -1.4853  0.3784  1.2572
 8620SOL     OW37321   1.143   0.088  15.495 -0.0381  0.8780  0.2691
 8620SOL    HW137322   1.156   0.000  15.460  2.1553 -0.0367  3.3888
 8620SOL    HW237323   1.097   0.126  15.420  0.1878 -1.6813 -1.1560
 8621SOL     OW37324   0.550   2.911   2.542  0.2346 -0.2456  0.2156
 8621SOL    HW137325   0.633   2.953   2.564  0.0461 -0.2645  0.9508
 8621SOL    HW237326   0.534   2.958   2.460 -0.9683  1.4230  1.4213
 8622SOL     OW37327   2.562   1.131   5.318  0.6322  0.0672  0.6470
 8622SOL    HW137328   2.657   1.144   5.328  0.5020 -0.3024  2.2492
 8622SOL    HW237329   2.555   1.065   5.387  0.9849 -0.9286 -0.2648
 8623SOL     OW37330   2.451   2.437   4.541  0.6496 -0.1326  0.6160
 8623SOL    HW137331   2.363   2.467   4.566 -0.1880 -1.1418 -1.1086
 8623SOL    HW237332   2.437   2.479   4.456  1.4486  0.7967  0.9496
 8624SOL     OW37333   3.952   2.418  16.849 -0.1117  0.0195 -0.5320
 8624SOL    HW137334   4.021   2.352  16.854  0.2243  0.4123 -0.0202
 8624SOL    HW237335   3.961   2.472  16.928 -0.7437  1.9232 -1.7789
 8625SOL     OW37336   2.157   4.671  10.799  0.6216 -0.4442 -0.0719
 8625SOL    HW137337   2.242   4.706  10.827  1.4274 -1.2275 -1.5197
 8625SOL    HW237338   2.178   4.592  10.750  1.6223  0.0532 -0.4383
 8626SOL     OW37339   4.647   3.656   6.735 -0.2019 -0.1233 -0.0289
 8626SOL    HW137340   4.573   3.697   6.691  0.1837 -0.6211 -1.1465
 8626SOL    HW237341   4.698   3.724   6.779 -2.3844  1.9922 -0.7649
 8627SOL     OW37342   0.758   3.648   6.669 -0.5190  0.3057 -0.3916
 8627SOL    HW137343   0.809   3.629   6.748 -1.2933 -0.5531 -0.0925
 8627SOL    HW237344   0.721   3.734   6.685 -1.8140 -0.4259  0.6112
 8628SOL     OW37345   0.156   1.627   1.805  0.3674  0.3028  0.3591
 8628SOL    HW137346   0.224   1.690   1.780  0.5735  0.4983  1.3928
 8628SOL    HW237347   0.137   1.559   1.740 -2.0789  0.4449  0.9563
 8629SOL     OW37348   3.490   3.660   6.051 -0.1610 -0.3470 -0.1048
 8629SOL    HW137349   3.555   3.660   5.980  0.3991 -0.4770  0.4102
 8629SOL    HW237350   3.527   3.603   6.118  1.1554 -1.6289 -1.9014
 8630SOL     OW37351   2.182   1.653  10.083 -0.2723  0.2230  0.1430
 8630SOL    HW137352   2.218   1.574  10.124 -2.9469  0.1805  2.4274
 8630SOL    HW237353   2.160   1.703  10.162  1.1038  2.6198 -0.9996
 8631SOL     OW37354   2.791   1.268   3.560  0.2520  0.5275 -0.6772
 8631SOL    HW137355   2.751   1.288   3.645  0.6373  0.6459 -0.5232
 8631SOL    HW237356   2.816   1.357   3.538 -0.7781  0.9174 -0.2591
 8632SOL     OW37357   2.570   0.273   1.653 -0.1611 -0.1861 -0.1454
 8632SOL    HW137358   2.575   0.352   1.599 -0.2806  0.9723  1.5309
 8632SOL    HW237359   2.476   0.282   1.670  0.5860  2.0148  2.8661
 8633SOL     OW37360   2.010   3.770  10.022 -0.3191  0.1449 -0.8164
 8633SOL    HW137361   1.972   3.734   9.941  0.0193 -0.5976 -0.6438
 8633SOL    HW237362   1.963   3.718  10.087  2.0232  0.5071  1.1250
 8634SOL     OW37363   2.204   3.759   0.654  0.0879 -0.2108 -0.2680
 8634SOL    HW137364   2.235   3.831   0.599  3.7296 -0.6379  1.2106
 8634SOL    HW237365   2.110   3.774   0.660  0.2974  1.0113 -0.1873
 8635SOL     OW37366   2.718   2.646   5.387  0.0739 -0.4499  0.0312
 8635SOL    HW137367   2.676   2.564   5.414 -1.1184  1.0395  2.6616
 8635SOL    HW237368   2.741   2.693   5.466  0.6382 -0.6096 -0.0348
 8636SOL     OW37369   3.364   3.044   7.088 -0.7521 -0.2162 -0.1960
 8636SOL    HW137370   3.450   3.016   7.059 -0.9740 -0.1259 -0.9541
 8636SOL    HW237371   3.383   3.124   7.136  1.0642 -1.7627  1.6220
 8637SOL     OW37372   1.993   0.231   4.765  0.1454 -0.1469 -0.3853
 8637SOL    HW137373   1.907   0.189   4.773  0.9900 -2.1291 -1.9967
 8637SOL    HW237374   2.057   0.167   4.796  2.5770  1.9858 -0.9929
 8638SOL     OW37375   0.028   0.460   7.130  0.2793 -0.0657 -0.2051
 8638SOL    HW137376   0.047   0.552   7.113  1.5015 -0.1840  0.4766
 8638SOL    HW237377   4.657   0.467   7.137  0.4248 -0.0835  1.9516
 8639SOL     OW37378   4.655   2.332   9.395 -0.3372 -0.5332 -0.4170
 8639SOL    HW137379   0.022   2.305   9.405  0.2433  0.6430 -2.2820
 8639SOL    HW237380   4.671   2.393   9.322  0.8166 -0.3964 -0.0455
 8640SOL     OW37381   4.308   4.092   6.715 -0.0390  0.0092 -0.0782
 8640SOL    HW137382   4.236   4.069   6.658 -0.2531 -0.0491  0.2141
 8640SOL    HW237383   4.339   4.179   6.690 -0.6027  0.6839  1.5512
 8641SOL     OW37384   2.679   0.141   0.135  0.3983 -0.8220 -0.2131
 8641SOL    HW137385   2.714   0.130   0.223 -1.5304  1.9672  0.8811
 8641SOL    HW237386   2.699   0.053   0.103 -0.1078 -0.6806 -0.9229
 8642SOL     OW37387   2.472   3.764  13.181 -0.1722 -0.2499 -0.2089
 8642SOL    HW137388   2.407   3.778  13.251 -0.3494 -1.5423 -0.1029
 8642SOL    HW237389   2.419   3.716  13.118  1.5886 -1.8751 -0.4533
 8643SOL     OW37390   0.631   3.690   5.077 -0.2236  0.1146 -0.1523
 8643SOL    HW137391   0.539   3.695   5.052 -0.2285  1.9419  0.1807
 8643SOL    HW237392   0.672   3.649   5.001 -0.4770  0.8125 -0.6678
 8644SOL     OW37393   1.092   2.239   0.253  0.2620 -0.5575 -0.4940
 8644SOL    HW137394   1.120   2.152   0.223  0.0673 -0.7822 -0.0210
 8644SOL    HW237395   1.001   2.236   0.224 -0.7993 -2.3088  2.9279
 8645SOL     OW37396   0.191   4.108   7.249  0.0036 -0.4136  0.1823
 8645SOL    HW137397   0.232   4.117   7.335  1.0081  1.7325 -0.5133
 8645SOL    HW237398   0.251   4.164   7.200 -1.1942 -0.3102 -1.1612
 8646SOL     OW37399   1.965   3.210  10.598  0.3647  0.7698 -0.3249
 8646SOL    HW137400   2.056   3.188  10.618  0.2475 -0.9788 -1.7306
 8646SOL    HW237401   1.933   3.122  10.577  0.3147  0.4917  0.9637
 8647SOL     OW37402   0.913   1.158   4.350  0.1378 -0.3130 -0.1447
 8647SOL    HW137403   0.929   1.246   4.383 -0.4764 -0.2663  0.0380
 8647SOL    HW237404   0.902   1.108   4.431 -0.6783  1.0466  0.5792
 8648SOL     OW37405   2.392   4.633   8.147  0.2273 -0.1787 -0.3600
 8648SOL    HW137406   2.428   4.666   8.065 -2.3489  2.5110 -0.3843
 8648SOL    HW237407   2.329   4.702   8.166  0.2575 -0.2949  0.1803
 8649SOL     OW37408   2.534   4.409   1.164 -0.6798  0.4123 -0.0333
 8649SOL    HW137409   2.545   4.398   1.070 -0.5436  0.9139 -0.0765
 8649SOL    HW237410   2.484   4.490   1.172 -0.0029  0.7702  0.5923
 8650SOL     OW37411   2.966   1.153   2.518 -0.4448 -0.6115 -0.0483
 8650SOL    HW137412   3.024   1.111   2.454 -2.0236 -2.0430 -0.5398
 8650SOL    HW237413   2.890   1.099   2.497 -1.0204  0.4937 -0.8100
 8651SOL     OW37414   1.106   2.549   5.922 -0.1847 -0.1321 -0.5298
 8651SOL    HW137415   1.191   2.551   5.878  0.1435 -3.4011 -0.0692
 8651SOL    HW237416   1.133   2.504   6.002  0.8638 -0.0718 -0.8581
 8652SOL     OW37417   0.783   3.608  13.884 -0.8493 -0.1376  0.1179
 8652SOL    HW137418   0.857   3.668  13.899 -1.4936  0.8375 -0.5858
 8652SOL    HW237419   0.777   3.565  13.969 -1.7511 -0.6291 -0.2032
 8653SOL     OW37420   3.186   1.829   3.363 -0.1456  0.0431  0.0562
 8653SOL    HW137421   3.255   1.767   3.387  1.2868  1.1707 -1.1960
 8653SOL    HW237422   3.218   1.886   3.294 -0.8447  0.4505  0.0753
 8654SOL     OW37423   2.695   2.335   3.620  0.1689  0.4182 -0.1859
 8654SOL    HW137424   2.685   2.423   3.582 -0.9113  0.1740 -0.4564
 8654SOL    HW237425   2.751   2.303   3.549  1.9494  2.5773  0.2237
 8655SOL     OW37426   1.531   0.049   2.365 -0.0481 -0.0095  0.0968
 8655SOL    HW137427   1.603   0.040   2.303 -0.2795  1.0388 -0.3293
 8655SOL    HW237428   1.582   0.062   2.445 -0.8222  1.6097  0.3249
 8656SOL     OW37429   0.907   0.451  17.105 -0.2037  0.2403 -0.6895
 8656SOL    HW137430   0.991   0.427  17.067  0.7687  1.2671  0.8073
 8656SOL    HW237431   0.907   0.547  17.100 -0.8036  0.4123  2.4687
 8657SOL     OW37432   3.044   2.276   4.288 -0.3462  0.5193  0.6265
 8657SOL    HW137433   3.089   2.248   4.208 -1.7673  1.2202 -0.4231
 8657SOL    HW237434   3.048   2.371   4.282 -0.4011  0.5437  1.0000
 8658SOL     OW37435   0.612   2.778  16.279  0.4703  0.4549 -0.0561
 8658SOL    HW137436   0.654   2.702  16.319 -2.2391 -1.8730 -1.6582
 8658SOL    HW237437   0.522   2.761  16.306  0.1880  1.4505 -0.3825
 8659SOL     OW37438   4.719   4.423   3.733 -0.1619 -0.1204  0.2989
 8659SOL    HW137439   4.633   4.395   3.764 -1.3943  2.7815 -0.4635
 8659SOL    HW237440   0.007   4.379   3.649 -1.8386  0.5774 -0.3079
 8660SOL     OW37441   1.534   3.532  12.415 -0.0056 -0.1192 -0.7613
 8660SOL    HW137442   1.626   3.506  12.419 -0.0563 -0.3236 -0.9149
 8660SOL    HW237443   1.537   3.570  12.327 -0.0331 -0.7892 -1.0562
 8661SOL     OW37444   1.314   0.976  15.868 -0.6459 -0.4937  0.6751
 8661SOL    HW137445   1.399   1.010  15.898 -0.7579 -0.6281  1.1397
 8661SOL    HW237446   1.293   0.924  15.945 -0.9128 -1.1616  0.1502
 8662SOL     OW37447   2.296   2.269  16.501  0.4558 -0.0184 -0.5823
 8662SOL    HW137448   2.361   2.199  16.503  1.9772  1.4002 -0.7067
 8662SOL    HW237449   2.284   2.287  16.407  1.0443 -0.4837 -0.7476
 8663SOL     OW37450   0.555   4.376   0.537 -0.4679  0.4237 -0.1659
 8663SOL    HW137451   0.611   4.298   0.544 -2.1844 -0.6978  0.9168
 8663SOL    HW237452   0.560   4.424   0.620  1.3739  0.3351 -0.2185
 8664SOL     OW37453   1.897   0.567  15.974  1.2390  0.0185  0.0138
 8664SOL    HW137454   1.877   0.570  16.068  0.3840  1.5279 -0.2080
 8664SOL    HW237455   1.821   0.514  15.949  1.6125 -0.7507  0.5243
 8665SOL     OW37456   0.430   4.401   8.449  0.3582  0.1954  0.2088
 8665SOL    HW137457   0.416   4.488   8.410 -1.1163 -0.3838 -0.5486
 8665SOL    HW237458   0.340   4.379   8.472  1.4581 -0.3796  3.9451
 8666SOL     OW37459   3.944   4.358   8.604 -0.2794  0.2629 -0.1550
 8666SOL    HW137460   3.923   4.315   8.521 -1.7438 -0.2431  0.4621
 8666SOL    HW237461   3.882   4.314   8.663  0.3048  1.3106  1.2403
 8667SOL     OW37462   2.664   1.330   8.018  0.4806  0.0204  0.3524
 8667SOL    HW137463   2.656   1.393   8.090  1.4217 -0.7374  1.1210
 8667SOL    HW237464   2.581   1.285   8.031  0.8892 -0.8748 -0.1222
 8668SOL     OW37465   1.362   2.048  13.090 -0.5630  0.0598  0.4107
 8668SOL    HW137466   1.422   1.979  13.061  0.9882  0.1181  3.5595
 8668SOL    HW237467   1.397   2.081  13.172 -0.3710  0.7913  0.0338
 8669SOL     OW37468   2.792   2.461  10.642 -0.7146 -0.1299  0.7873
 8669SOL    HW137469   2.724   2.396  10.623  0.1765 -1.0339  0.6982
 8669SOL    HW237470   2.743   2.526  10.693  0.5132  0.1975  1.5456
 8670SOL     OW37471   2.360   4.613   7.670  0.1185 -0.0558  0.0253
 8670SOL    HW137472   2.369   4.630   7.763 -0.7666  1.0830 -0.1008
 8670SOL    HW237473   2.440   4.567   7.643  0.9257  1.0455  0.5544
 8671SOL     OW37474   1.230   0.334   9.196 -0.3870  0.0820 -0.5678
 8671SOL    HW137475   1.239   0.375   9.282 -2.9242 -1.2063  0.2856
 8671SOL    HW237476   1.291   0.264   9.216 -1.1939 -0.6710 -0.7691
 8672SOL     OW37477   0.238   3.546   2.983 -0.0534 -0.1634  0.0140
 8672SOL    HW137478   0.283   3.462   2.987  0.9097  0.3746  0.8799
 8672SOL    HW237479   0.169   3.515   3.042 -1.9715  0.1123 -2.1126
 8673SOL     OW37480   1.991   3.202   1.542  0.2563 -0.1970  0.0165
 8673SOL    HW137481   1.958   3.113   1.531 -1.1157  0.3252 -0.1433
 8673SOL    HW237482   1.938   3.252   1.480 -0.5985 -0.7557  0.2849
 8674SOL     OW37483   3.569   0.168   2.160  0.2151 -0.2469  0.3172
 8674SOL    HW137484   3.626   0.168   2.084 -0.8291 -2.7125 -0.4687
 8674SOL    HW237485   3.485   0.182   2.116  1.4446 -0.7728 -2.1680
 8675SOL     OW37486   3.617   1.598  16.060 -0.3003  0.3554 -0.2724
 8675SOL    HW137487   3.653   1.687  16.064 -1.1392  0.6946 -0.2255
 8675SOL    HW237488   3.530   1.622  16.029 -0.8418  0.2330  1.1389
 8676SOL     OW37489   0.099   1.349   2.926  0.4416 -0.6601 -0.3586
 8676SOL    HW137490   0.025   1.313   2.975  0.5256  1.0552  1.0465
 8676SOL    HW237491   0.183   1.330   2.968  0.9311 -0.0723 -1.0678
 8677SOL     OW37492   4.488   3.698   6.280 -0.2013 -0.1920 -0.3893
 8677SOL    HW137493   4.456   3.722   6.367 -0.6605 -0.1528 -0.5733
 8677SOL    HW237494   4.559   3.633   6.285  1.2279  1.5013  1.3582
 8678SOL     OW37495   3.751   1.937   2.476  0.2336 -0.2728 -0.0593
 8678SOL    HW137496   3.736   2.005   2.411  0.4744 -0.3117 -0.1574
 8678SOL    HW237497   3.794   1.869   2.425  0.3657 -1.6373  1.8590
 8679SOL     OW37498   0.122   1.735   4.527  0.5160 -0.4951  0.5342
 8679SOL    HW137499   0.178   1.808   4.553 -0.1561  0.3602 -0.3943
 8679SOL    HW237500   0.044   1.791   4.536 -0.4893 -1.8940  0.6450
 8680SOL     OW37501   1.947   2.908   2.038  0.3487 -0.7023 -0.1717
 8680SOL    HW137502   2.029   2.866   2.064  0.0407 -0.9869  0.3486
 8680SOL    HW237503   1.981   2.952   1.960  1.7339 -1.0181  0.2623
 8681SOL     OW37504   2.447   4.614  10.149  0.2908  0.3677 -0.1232
 8681SOL    HW137505   2.367   4.668  10.147  0.6664  0.8888 -1.2773
 8681SOL    HW237506   2.460   4.595  10.056 -2.1012 -0.0961 -0.3801
 8682SOL     OW37507   0.984   3.896   6.592 -0.1442  0.2103 -0.8340
 8682SOL    HW137508   1.042   3.848   6.651 -0.8395 -0.1024 -0.3945
 8682SOL    HW237509   0.900   3.896   6.638  0.1146  0.2280 -0.3619
 8683SOL     OW37510   0.606   0.737  15.955 -0.0747 -0.5565 -0.1726
 8683SOL    HW137511   0.565   0.663  16.000 -2.0310  0.0486 -0.9858
 8683SOL    HW237512   0.684   0.745  16.011  1.5586 -2.2684 -2.2107
 8684SOL     OW37513   2.305   0.923  17.522 -0.8790 -0.1051 -0.0938
 8684SOL    HW137514   2.263   0.838  17.508  1.7113 -0.8907 -2.9664
 8684SOL    HW237515   2.307   0.961  17.434  1.0587  0.0878  0.0430
 8685SOL     OW37516   2.764   0.425   7.597  0.2694  0.4980  0.3621
 8685SOL    HW137517   2.713   0.364   7.544  0.2705 -1.6248  2.8056
 8685SOL    HW237518   2.854   0.408   7.568 -0.4831  1.0513 -2.3020
 8686SOL     OW37519   0.267   4.690   9.231  0.4496  0.0650  0.5636
 8686SOL    HW137520   0.337   4.635   9.264  1.7390  1.0109 -0.5907
 8686SOL    HW237521   0.259   4.657   9.141 -1.8643  0.4200  0.6217
 8687SOL     OW37522   4.535   4.062   4.300  0.4268  0.4970 -0.0171
 8687SOL    HW137523   4.612   4.115   4.323  0.6801 -0.9154  2.4036
 8687SOL    HW237524   4.503   4.044   4.388 -1.4490  1.5305 -0.4835
 8688SOL     OW37525   3.892   2.179   6.136 -0.0090 -0.2608 -0.3268
 8688SOL    HW137526   3.836   2.223   6.073  0.4322 -0.7327 -1.0501
 8688SOL    HW237527   3.936   2.114   6.081 -1.3231 -1.0462 -0.4215
 8689SOL     OW37528   3.089   0.362   3.323 -0.1113  0.0450  0.4948
 8689SOL    HW137529   3.176   0.329   3.343  0.1579 -0.6352 -1.9272
 8689SOL    HW237530   3.075   0.420   3.398  1.6248 -0.3939  1.1552
 8690SOL     OW37531   4.617   2.181   8.272 -0.1641  0.0391  0.1343
 8690SOL    HW137532   4.704   2.219   8.284 -0.0715  0.2912 -1.2467
 8690SOL    HW237533   4.589   2.175   8.363 -0.1157  1.7725  0.2679
 8691SOL     OW37534   4.075   4.411   7.568  0.0530  0.1970 -0.6622
 8691SOL    HW137535   4.038   4.499   7.560 -0.4749 -0.0078 -0.4799
 8691SOL    HW237536   4.011   4.356   7.523 -1.3667  0.8330  0.5857
 8692SOL     OW37537   4.349   2.099   9.201  0.9744  0.8308  0.1609
 8692SOL    HW137538   4.264   2.056   9.198  1.7608 -0.7444  0.2309
 8692SOL    HW237539   4.342   2.177   9.256 -0.4441  0.5558  0.3770
 8693SOL     OW37540   4.464   0.848   4.140  0.2615  0.4110  0.2545
 8693SOL    HW137541   4.510   0.874   4.220 -0.0143 -1.0054  0.8797
 8693SOL    HW237542   4.528   0.872   4.073  0.9534 -1.6596  0.1657
 8694SOL     OW37543   1.717   2.572   6.391 -0.2799 -0.3045 -0.4954
 8694SOL    HW137544   1.744   2.554   6.481 -1.9464  0.2327  0.0973
 8694SOL    HW237545   1.634   2.618   6.404  0.3621  0.5324  0.6145
 8695SOL     OW37546   2.175   1.518   7.959  0.0571 -1.1627  0.2652
 8695SOL    HW137547   2.214   1.552   8.040  1.7306 -1.9894 -0.1842
 8695SOL    HW237548   2.159   1.427   7.984  1.1883 -2.2957 -3.1661
 8696SOL     OW37549   1.431   4.548   7.437 -0.4273  0.6391  0.2308
 8696SOL    HW137550   1.408   4.459   7.410  4.1754 -0.2876 -0.5742
 8696SOL    HW237551   1.492   4.527   7.508 -1.5897  1.8534  1.5887
 8697SOL     OW37552   1.073   3.450   8.242  0.2988 -0.0513  0.1970
 8697SOL    HW137553   1.069   3.418   8.152 -0.4494  0.7287 -0.0468
 8697SOL    HW237554   0.982   3.476   8.256  0.7544  1.1493  0.9532
 8698SOL     OW37555   0.220   4.577   3.658 -0.4197  0.0518  0.2359
 8698SOL    HW137556   0.240   4.640   3.727  1.8147 -0.3696 -0.0395
 8698SOL    HW237557   0.169   4.517   3.713 -1.2955  1.1395  0.6134
 8699SOL     OW37558   3.810   2.003   0.999 -0.1020 -0.1106 -0.2864
 8699SOL    HW137559   3.797   1.986   1.092 -2.3397 -0.8633 -0.7432
 8699SOL    HW237560   3.760   2.079   0.969 -1.3615 -0.7820  0.1489
 8700SOL     OW37561   4.091   0.773   6.789 -1.1501  0.3471 -0.3835
 8700SOL    HW137562   4.122   0.683   6.795 -0.5736  0.2814 -4.0331
 8700SOL    HW237563   4.013   0.757   6.842 -1.0506  0.4950 -0.1936
 8701SOL     OW37564   0.792   0.273   1.658  0.1563 -0.3073 -0.2561
 8701SOL    HW137565   0.728   0.223   1.708 -0.8255  0.2604 -0.9503
 8701SOL    HW237566   0.804   0.211   1.586  0.1828 -0.9328  0.2905
 8702SOL     OW37567   0.219   3.086  16.001 -0.1209 -0.2350 -0.0381
 8702SOL    HW137568   0.221   2.997  15.965  0.0971  0.0919 -0.8376
 8702SOL    HW237569   0.129   3.106  15.976 -0.0121 -1.0392 -1.0789
 8703SOL     OW37570   0.342   1.823   1.984  0.0029  0.4194  0.4998
 8703SOL    HW137571   0.255   1.863   1.982  0.5501  1.5631 -0.4814
 8703SOL    HW237572   0.371   1.832   1.893 -0.1417  2.5400  0.6640
 8704SOL     OW37573   1.947   1.690  12.907  0.1480  0.4949  0.1159
 8704SOL    HW137574   1.981   1.619  12.961  2.3570  1.0995 -0.4674
 8704SOL    HW237575   2.027   1.722  12.864  1.1606 -1.3900  0.6171
 8705SOL     OW37576   1.647   3.206   7.805 -0.4760 -0.0954  0.2343
 8705SOL    HW137577   1.652   3.182   7.713 -0.9599  0.1822  0.1339
 8705SOL    HW237578   1.677   3.122   7.839 -3.3998 -0.9709  0.6494
 8706SOL     OW37579   4.153   4.036   2.844  0.2618 -0.2136  0.0351
 8706SOL    HW137580   4.191   4.005   2.926 -0.4145 -1.0352  0.0332
 8706SOL    HW237581   4.113   4.120   2.867  0.9868 -0.8686  3.7397
 8707SOL     OW37582   0.739   0.236   8.280 -0.5606 -0.0098 -0.0069
 8707SOL    HW137583   0.776   0.164   8.230  1.5397 -0.5223  2.2621
 8707SOL    HW237584   0.772   0.205   8.365  1.3865 -0.8497 -1.0689
 8708SOL     OW37585   4.091   2.523   4.076 -0.1946 -0.6335 -0.1772
 8708SOL    HW137586   4.124   2.544   4.164 -2.4446  4.2012 -0.5015
 8708SOL    HW237587   4.100   2.427   4.075 -1.5765 -0.7472 -1.0827
 8709SOL     OW37588   1.157   2.241   6.373  0.5205  0.4433  0.3896
 8709SOL    HW137589   1.098   2.171   6.398  0.9787 -0.0472  0.0790
 8709SOL    HW237590   1.233   2.188   6.347  0.2975  0.4384 -0.2453
 8710SOL     OW37591   4.589   3.326   2.936 -0.3811  0.6037  0.2489
 8710SOL    HW137592   4.523   3.390   2.963 -1.1979  0.4313 -1.3707
 8710SOL    HW237593   4.588   3.323   2.841  0.2480 -0.2886  0.2673
 8711SOL     OW37594   0.266   2.752  15.167 -0.3505 -0.2762 -0.7297
 8711SOL    HW137595   0.190   2.794  15.207 -0.1214 -1.0985  0.5516
 8711SOL    HW237596   0.242   2.659  15.172  0.4067 -0.4494 -0.3256
 8712SOL     OW37597   2.381   0.092   2.058 -0.2495  0.1114  0.2258
 8712SOL    HW137598   2.309   0.110   1.998  1.5657  1.3420 -1.5672
 8712SOL    HW237599   2.445   0.160   2.039 -1.9090  0.7935 -2.9039
 8713SOL     OW37600   0.827   0.111   8.515 -0.4033  0.2717  0.3743
 8713SOL    HW137601   0.784   0.026   8.517 -0.7566  0.4160 -1.5887
 8713SOL    HW237602   0.901   0.097   8.574  0.0068 -1.4176 -0.5583
 8714SOL     OW37603   0.688   4.603   8.539  1.2212  0.4758  0.1413
 8714SOL    HW137604   0.695   4.519   8.584 -0.6333 -0.2795 -0.9927
 8714SOL    HW237605   0.599   4.630   8.561  0.1772 -1.9041 -1.1296
 8715SOL     OW37606   3.456   3.194   2.084 -1.2517 -0.1590 -0.0333
 8715SOL    HW137607   3.443   3.267   2.144  1.7555 -0.0666  0.5348
 8715SOL    HW237608   3.468   3.235   1.999 -0.3470 -0.9435 -0.2939
 8716SOL     OW37609   0.197   0.272   5.461 -0.0718 -0.0879  0.1843
 8716SOL    HW137610   0.231   0.209   5.398  1.5865  4.2380 -3.2058
 8716SOL    HW237611   0.268   0.304   5.517 -0.5332 -1.2337  1.4286
 8717SOL     OW37612   2.094   1.560   2.115  0.1384  0.3372 -0.0766
 8717SOL    HW137613   2.082   1.638   2.170 -1.1707  0.2545 -0.2467
 8717SOL    HW237614   2.178   1.588   2.078  0.9861 -2.3839 -0.1858
 8718SOL     OW37615   3.526   0.315   9.975  0.5225  0.2014  0.1915
 8718SOL    HW137616   3.526   0.335   9.882 -1.1929 -2.2857 -0.3573
 8718SOL    HW237617   3.467   0.239   9.972 -2.1163  2.2140  2.4276
 8719SOL     OW37618   0.849   0.855   0.139  0.1293 -0.2676  0.2102
 8719SOL    HW137619   0.789   0.799   0.089  2.3879 -1.6350 -0.9455
 8719SOL    HW237620   0.848   0.821   0.228  1.0825 -1.1794 -0.1223
 8720SOL     OW37621   0.157   1.492   1.592  0.5845  0.2453  0.1116
 8720SOL    HW137622   0.140   1.408   1.549 -0.2473 -0.0600  1.0270
 8720SOL    HW237623   0.128   1.550   1.522 -1.7086 -1.1502 -0.1025
 8721SOL     OW37624   3.285   3.925  14.253 -0.0704  0.1742 -0.4299
 8721SOL    HW137625   3.280   3.864  14.180  1.0718 -1.3829  0.8109
 8721SOL    HW237626   3.202   3.973  14.244  0.0274  0.1439 -1.5872
 8722SOL     OW37627   0.266   3.010   6.625  0.6372 -0.2897 -0.3013
 8722SOL    HW137628   0.257   3.042   6.536  2.1189 -1.1732 -0.7602
 8722SOL    HW237629   0.206   3.071   6.667 -1.3195 -2.6522  0.3727
 8723SOL     OW37630   0.680   0.723   8.489 -0.1399 -0.6681  0.0981
 8723SOL    HW137631   0.661   0.652   8.549  0.5642 -1.1688 -0.2632
 8723SOL    HW237632   0.594   0.763   8.475 -0.2512 -1.4016 -1.3002
 8724SOL     OW37633   1.905   0.109   9.959  0.2235 -0.2237 -0.2675
 8724SOL    HW137634   1.841   0.086  10.026  3.3568  0.2984  2.9463
 8724SOL    HW237635   1.989   0.092  10.003  0.1594 -0.0756 -0.0870
 8725SOL     OW37636   3.967   0.150  16.407  0.3067 -0.3315  0.4927
 8725SOL    HW137637   4.033   0.081  16.393 -0.9178 -1.3701 -0.1576
 8725SOL    HW237638   3.893   0.093  16.427  0.4565 -1.0255 -0.8684
 8726SOL     OW37639   3.008   2.947   5.894  0.0121  0.2511 -0.3712
 8726SOL    HW137640   2.990   2.921   5.984  3.1886 -0.4361  0.0780
 8726SOL    HW237641   2.962   2.880   5.842  1.6743 -1.7957  0.7853
 8727SOL     OW37642   1.813   1.347   5.126 -0.0702 -0.1083 -0.9789
 8727SOL    HW137643   1.848   1.388   5.047 -1.1563 -1.1461 -1.9971
 8727SOL    HW237644   1.875   1.274   5.131  1.0480  0.7530 -2.0722
 8728SOL     OW37645   2.930   2.970   0.461 -0.3365 -0.0627  0.5186
 8728SOL    HW137646   2.930   2.874   0.456  1.6246 -0.0406  0.0431
 8728SOL    HW237647   2.861   2.973   0.527 -1.0766  1.1572 -0.3085
 8729SOL     OW37648   1.594   2.308  13.861  0.0508 -0.3317  0.0847
 8729SOL    HW137649   1.623   2.244  13.927  0.9370 -0.2024 -0.1810
 8729SOL    HW237650   1.602   2.392  13.905 -0.1192  0.3838 -1.2751
 8730SOL     OW37651   3.747   0.638   3.742 -0.2451  0.0233 -0.8400
 8730SOL    HW137652   3.701   0.612   3.822  1.7463 -4.5303 -1.1633
 8730SOL    HW237653   3.823   0.686   3.775  0.0665 -0.4256 -0.9031
 8731SOL     OW37654   1.427   3.101   5.816 -0.4168  0.2866  0.1549
 8731SOL    HW137655   1.412   3.006   5.820  0.3726  0.1202 -0.8625
 8731SOL    HW237656   1.338   3.134   5.806 -0.6573 -1.0147 -2.1400
 8732SOL     OW37657   3.336   3.357   5.042  0.0454 -0.1897 -0.5360
 8732SOL    HW137658   3.284   3.321   5.114  0.9978  2.5023  1.4863
 8732SOL    HW237659   3.428   3.340   5.062  0.6565  1.2766 -2.1389
 8733SOL     OW37660   0.840   2.971   1.706  0.4132 -0.2181  0.1998
 8733SOL    HW137661   0.903   2.959   1.635  1.4877 -0.5359  1.1947
 8733SOL    HW237662   0.847   2.886   1.749  0.4373  0.0967  0.8234
 8734SOL     OW37663   2.252   2.738   9.465 -0.4746 -0.2800 -0.1641
 8734SOL    HW137664   2.323   2.740   9.530  1.2489  4.9529 -2.2533
 8734SOL    HW237665   2.210   2.820   9.493  2.8719  3.0834 -5.0485
 8735SOL     OW37666   2.039   2.889  17.578  0.2249 -0.2669 -0.4781
 8735SOL    HW137667   1.982   2.907  17.503 -0.6418 -0.9949  0.0180
 8735SOL    HW237668   2.072   2.975  17.604 -0.7057 -0.1882  0.4549
 8736SOL     OW37669   2.648   3.649  12.923  0.2511  0.5941 -0.1350
 8736SOL    HW137670   2.723   3.674  12.975 -0.1360  0.4403  0.4927
 8736SOL    HW237671   2.623   3.738  12.896 -0.4773 -0.2294 -2.1701
 8737SOL     OW37672   3.733   2.862   6.331  0.4739 -0.0397 -0.1662
 8737SOL    HW137673   3.792   2.916   6.384  0.7324  0.6112 -1.1195
 8737SOL    HW237674   3.686   2.928   6.281 -0.2611  0.8937  1.7684
 8738SOL     OW37675   2.293   2.866   4.272 -0.2310 -0.1126 -0.2529
 8738SOL    HW137676   2.275   2.865   4.178 -1.0887  0.6621 -0.0942
 8738SOL    HW237677   2.312   2.959   4.287 -0.4294 -0.4249  1.8309
 8739SOL     OW37678   2.069   3.672   0.313  0.2095  0.6029  0.6541
 8739SOL    HW137679   2.142   3.716   0.357 -1.4851  1.8058  2.2712
 8739SOL    HW237680   2.082   3.720   0.231 -2.4398  0.9707  0.4477
 8740SOL     OW37681   2.247   2.260   8.566 -0.1299  0.3409 -0.1557
 8740SOL    HW137682   2.200   2.178   8.581  0.4792 -0.0836 -0.6058
 8740SOL    HW237683   2.315   2.246   8.632 -0.5964 -1.6578 -0.0903
 8741SOL     OW37684   2.438   2.927   5.578  0.0087  0.2175 -0.0767
 8741SOL    HW137685   2.383   2.929   5.657 -0.0219  0.3001 -0.1001
 8741SOL    HW237686   2.443   3.021   5.559  1.0998  0.4858  1.4789
 8742SOL     OW37687   1.363   0.643   9.178 -0.5581 -0.6680  0.2637
 8742SOL    HW137688   1.298   0.699   9.221  0.0164 -1.3053  1.9470
 8742SOL    HW237689   1.305   0.569   9.162  0.0308 -0.7140 -1.6470
 8743SOL     OW37690   2.823   4.215   1.649  0.2670  0.2741  0.3942
 8743SOL    HW137691   2.893   4.182   1.706 -1.7822  1.5201  3.6458
 8743SOL    HW237692   2.763   4.233   1.721  0.3829 -1.1947  0.8717
 8744SOL     OW37693   1.508   4.473   6.173 -0.2619 -0.2376  0.1757
 8744SOL    HW137694   1.516   4.526   6.252  0.7914  0.1828 -0.2117
 8744SOL    HW237695   1.466   4.532   6.109  0.6662 -0.5005 -0.6791
 8745SOL     OW37696   3.567   2.035   2.116  0.3104 -0.4741  0.0486
 8745SOL    HW137697   3.495   2.010   2.173 -1.6720 -0.6396 -2.5241
 8745SOL    HW237698   3.556   1.958   2.060 -1.4902  0.5349 -0.9813
 8746SOL     OW37699   1.308   3.956   9.036 -0.3230  0.2652  0.1054
 8746SOL    HW137700   1.286   3.984   8.947  0.6836  0.3096 -0.1240
 8746SOL    HW237701   1.338   3.869   9.012 -1.0236 -0.2644  1.1750
 8747SOL     OW37702   3.425   0.653   4.913 -0.2018 -0.1592 -0.2659
 8747SOL    HW137703   3.508   0.672   4.869 -1.6715 -2.2107 -3.9051
 8747SOL    HW237704   3.431   0.693   5.000  1.2215 -1.3564  0.1960
 8748SOL     OW37705   2.153   3.057   8.836  0.3492 -0.7507 -0.4162
 8748SOL    HW137706   2.175   3.145   8.804  0.5751 -0.4780  0.5007
 8748SOL    HW237707   2.197   3.054   8.920  0.2067 -0.4963 -0.3312
 8749SOL     OW37708   1.564   2.756   5.263  0.7481 -0.5819  0.4286
 8749SOL    HW137709   1.548   2.753   5.357  1.0832 -1.7653  0.4414
 8749SOL    HW237710   1.487   2.705   5.237 -0.4452  1.5400 -0.2328
 8750SOL     OW37711   4.637   4.423   4.790 -0.1422  0.5988 -0.6283
 8750SOL    HW137712   4.612   4.486   4.723 -0.7626 -0.1816 -1.1276
 8750SOL    HW237713   4.702   4.468   4.845 -1.5700  2.2845 -0.3217
 8751SOL     OW37714   2.686   3.471   7.198 -0.0947 -0.4706 -0.0228
 8751SOL    HW137715   2.770   3.477   7.243 -0.0782  2.2019 -0.3957
 8751SOL    HW237716   2.661   3.381   7.220 -1.5338 -0.1706 -0.3843
 8752SOL     OW37717   4.048   3.683   3.021  0.4705 -0.3024 -0.0333
 8752SOL    HW137718   3.980   3.662   3.084 -0.2781  0.3242 -0.6303
 8752SOL    HW237719   4.069   3.595   2.991  2.3097 -0.3322  1.3708
 8753SOL     OW37720   3.194   2.837  16.065  0.5670  0.1979 -0.0068
 8753SOL    HW137721   3.274   2.868  16.023 -0.2119 -1.6045 -2.7725
 8753SOL    HW237722   3.183   2.758  16.013  3.3917 -0.2259  0.0295
 8754SOL     OW37723   1.008   4.233  11.538  0.0750  0.4017 -0.1081
 8754SOL    HW137724   1.037   4.141  11.541 -1.0711  0.0306 -0.4752
 8754SOL    HW237725   0.918   4.219  11.510  0.4098 -3.2719  0.6507
 8755SOL     OW37726   1.622   2.426   8.796 -0.0289  0.3762 -0.3671
 8755SOL    HW137727   1.614   2.509   8.748 -1.6018 -1.1743 -2.7767
 8755SOL    HW237728   1.650   2.358   8.735 -0.8806  0.0925 -0.4351
 8756SOL     OW37729   2.555   0.048   2.268  0.0957  0.4342  0.2264
 8756SOL    HW137730   2.618   0.012   2.205 -1.5285  0.4178 -1.3684
 8756SOL    HW237731   2.482   0.039   2.207 -0.6220 -1.9702  1.4128
 8757SOL     OW37732   1.552   2.027   9.327  0.4431  0.6260  0.0779
 8757SOL    HW137733   1.607   2.008   9.403  1.4859  1.1681 -0.5397
 8757SOL    HW237734   1.483   1.963   9.341  0.4276  0.0578 -2.5051
 8758SOL     OW37735   1.033   0.212   5.251 -0.1290  0.0275  0.2506
 8758SOL    HW137736   1.021   0.307   5.247 -2.0246 -0.1999  0.4493
 8758SOL    HW237737   0.947   0.173   5.238 -0.4910  0.7340  0.5408
 8759SOL     OW37738   1.127   0.057  10.590 -0.1430  0.8003  0.1071
 8759SOL    HW137739   1.072   4.706  10.565  0.8787  0.4248 -0.9978
 8759SOL    HW237740   1.195   0.017  10.644 -0.3989  1.0045  0.5839
 8760SOL     OW37741   1.941   2.359   3.662  0.1979 -0.5148  0.6019
 8760SOL    HW137742   1.986   2.430   3.617  0.6620 -2.4164 -1.9175
 8760SOL    HW237743   2.013   2.300   3.684  0.5849  1.0658  3.7134
 8761SOL     OW37744   0.221   3.707   3.683  0.4513 -0.1204 -0.0699
 8761SOL    HW137745   0.258   3.737   3.767  1.7830 -1.1476 -0.2984
 8761SOL    HW237746   0.195   3.790   3.642  0.0482 -0.7708 -1.1154
 8762SOL     OW37747   1.150   4.085   2.031 -0.0727 -0.3945  0.2219
 8762SOL    HW137748   1.222   4.035   1.993  0.0025 -1.5208  1.8731
 8762SOL    HW237749   1.199   4.164   2.055  1.8967 -1.9893  1.4019
 8763SOL     OW37750   3.214   0.891   4.845  0.6701  0.1962 -0.3963
 8763SOL    HW137751   3.213   0.916   4.937  0.5942 -0.1321 -0.3095
 8763SOL    HW237752   3.300   0.913   4.809  1.0063 -0.1615  0.1902
 8764SOL     OW37753   3.122   1.484   3.489 -0.1602  0.2811  0.0586
 8764SOL    HW137754   3.035   1.525   3.494  0.3735  1.2860  1.0047
 8764SOL    HW237755   3.140   1.495   3.395 -2.7698  0.2300 -0.4658
 8765SOL     OW37756   0.678   1.092  11.061  0.4745  0.5116 -0.4061
 8765SOL    HW137757   0.733   1.170  11.065 -2.6753  2.7639 -1.1724
 8765SOL    HW237758   0.665   1.073  10.968  1.2338  0.4723 -0.5118
 8766SOL     OW37759   0.998   2.771  15.239  0.3021  0.2520  0.2214
 8766SOL    HW137760   1.035   2.856  15.213 -1.4542  1.3306  1.2765
 8766SOL    HW237761   0.917   2.795  15.283 -0.3450  0.3688 -1.0455
 8767SOL     OW37762   3.269   1.850  13.677 -0.4923  0.0524  0.1794
 8767SOL    HW137763   3.309   1.922  13.628 -1.4699  0.7614  0.4232
 8767SOL    HW237764   3.217   1.906  13.736 -0.8015 -1.5011  1.3793
 8768SOL     OW37765   1.301   3.872   9.373  0.2662 -0.7682 -0.3499
 8768SOL    HW137766   1.263   3.834   9.294 -0.9445  2.1715 -1.1860
 8768SOL    HW237767   1.273   3.809   9.439  0.7356 -1.1307 -0.4953
 8769SOL     OW37768   4.032   2.220   7.432  0.4436  0.0623  0.3767
 8769SOL    HW137769   3.970   2.277   7.386 -1.0875 -0.5322  1.7121
 8769SOL    HW237770   4.008   2.130   7.412 -2.3762  1.1446 -1.1678
 8770SOL     OW37771   0.994   1.695   2.426 -0.4620  0.6640  0.0747
 8770SOL    HW137772   0.965   1.780   2.460  1.3082  0.7369  1.4130
 8770SOL    HW237773   0.931   1.630   2.455  0.7122 -0.3562  0.3327
 8771SOL     OW37774   1.460   1.039  11.998  0.0132 -0.2561 -0.6640
 8771SOL    HW137775   1.509   1.006  12.073  0.5444 -0.4928 -1.1138
 8771SOL    HW237776   1.372   1.030  12.036 -0.0642 -0.7342 -0.9506
 8772SOL     OW37777   1.680   0.499  16.907  0.3408 -0.0342  0.7647
 8772SOL    HW137778   1.742   0.544  16.849 -0.7123  3.0934  2.0763
 8772SOL    HW237779   1.708   0.534  16.991  0.3365  1.8649 -0.0238
 8773SOL     OW37780   1.848   3.360  11.763 -0.3191  0.0923 -0.3529
 8773SOL    HW137781   1.880   3.374  11.673  0.0352 -2.0920 -0.5836
 8773SOL    HW237782   1.772   3.418  11.773  0.5482  1.2088 -0.2574
 8774SOL     OW37783   3.466   4.211   8.201  0.2869 -0.1111 -0.3475
 8774SOL    HW137784   3.379   4.192   8.237  0.2198  2.7183  1.0072
 8774SOL    HW237785   3.515   4.172   8.273  0.0697  1.9310  0.9063
 8775SOL     OW37786   2.691   4.143   6.171 -0.2102  0.1362  0.6476
 8775SOL    HW137787   2.636   4.221   6.178 -0.5685 -0.2144  1.8098
 8775SOL    HW237788   2.720   4.135   6.262  2.5211  0.2442 -0.2089
 8776SOL     OW37789   2.456   1.927   2.760 -0.1056  0.3265  0.1445
 8776SOL    HW137790   2.524   1.889   2.816  0.7443 -1.0387 -1.8518
 8776SOL    HW237791   2.499   1.929   2.675 -0.5413 -0.2105 -0.0828
 8777SOL     OW37792   3.355   4.178  11.149  0.4297 -0.3873  0.0829
 8777SOL    HW137793   3.366   4.170  11.055 -1.4001  0.0616 -0.1700
 8777SOL    HW237794   3.441   4.147  11.177  0.2371  0.6262  1.8473
 8778SOL     OW37795   2.723   3.172   4.465  0.6403 -0.2468 -0.2349
 8778SOL    HW137796   2.806   3.168   4.513 -0.9377  1.5284  2.6321
 8778SOL    HW237797   2.718   3.077   4.449  0.4078 -0.2103 -0.3813
 8779SOL     OW37798   1.209   3.239   8.330  0.0359  0.0096 -0.2211
 8779SOL    HW137799   1.172   3.323   8.304 -0.5227 -0.1249  0.1322
 8779SOL    HW237800   1.140   3.204   8.387 -0.2649 -0.5529 -0.9281
 8780SOL     OW37801   4.441   2.584   5.817  0.3732 -0.3070  0.7701
 8780SOL    HW137802   4.415   2.656   5.760 -2.7254 -0.3775  2.1004
 8780SOL    HW237803   4.404   2.608   5.902  1.4151  1.8813  0.5885
 8781SOL     OW37804   2.286   0.388  15.836  0.3711 -0.5615  0.1849
 8781SOL    HW137805   2.317   0.458  15.893 -1.8958 -0.3546  1.1972
 8781SOL    HW237806   2.236   0.430  15.766 -0.7806 -0.5399  1.0201
 8782SOL     OW37807   3.679   1.018   3.403  0.2317  0.1245 -0.3215
 8782SOL    HW137808   3.663   1.055   3.490  0.6500  0.6028 -0.4540
 8782SOL    HW237809   3.587   1.009   3.378  0.1006 -0.8875  0.5139
 8783SOL     OW37810   3.278   4.362   7.386 -0.0067 -0.2776 -0.1691
 8783SOL    HW137811   3.218   4.430   7.418  0.4461  0.4751 -0.8965
 8783SOL    HW237812   3.223   4.286   7.368 -3.2018  1.8479  0.5514
 8784SOL     OW37813   2.822   3.482   2.273  0.3312 -0.7217 -0.5855
 8784SOL    HW137814   2.757   3.452   2.337  0.0994 -1.4309 -1.1523
 8784SOL    HW237815   2.765   3.541   2.224 -0.2629 -0.1115  0.8271
 8785SOL     OW37816   0.936   0.880   9.458  0.3306 -0.2276  0.2360
 8785SOL    HW137817   0.929   0.965   9.502  1.0551 -0.2379  0.3740
 8785SOL    HW237818   0.860   0.890   9.401 -0.4574 -2.0082  0.9873
 8786SOL     OW37819   2.400   0.061  10.943  0.7899  0.3532  0.0053
 8786SOL    HW137820   2.489   0.098  10.947  0.3528  1.5776 -1.5686
 8786SOL    HW237821   2.408   4.720  11.013 -0.3375  0.4837  0.2579
 8787SOL     OW37822   1.325   1.794   5.814  0.2023 -0.2577  0.5267
 8787SOL    HW137823   1.242   1.746   5.819 -0.0314  0.0964 -0.0226
 8787SOL    HW237824   1.324   1.807   5.720  0.1700  2.0018  0.8383
 8788SOL     OW37825   4.508   3.350   4.045  0.1019  0.1588 -0.3138
 8788SOL    HW137826   4.572   3.325   4.112  1.1814  1.5451 -0.8116
 8788SOL    HW237827   4.500   3.273   3.989 -0.5873 -0.7542  1.0306
 8789SOL     OW37828   2.223   4.527   5.902  0.5000  0.3190  0.0326
 8789SOL    HW137829   2.210   4.568   5.816  2.1663 -1.4670 -1.0727
 8789SOL    HW237830   2.225   4.606   5.956  1.0980 -0.4280  1.0928
 8790SOL     OW37831   1.072   1.624   6.670 -0.9299  0.2740  0.1223
 8790SOL    HW137832   1.165   1.642   6.653 -0.8938 -0.2284 -0.2135
 8790SOL    HW237833   1.054   1.655   6.758  0.8866  0.5356  0.4037
 8791SOL     OW37834   2.759   4.327   3.236  0.1214 -0.5387 -0.4630
 8791SOL    HW137835   2.665   4.344   3.245  0.7428  1.1787  2.7127
 8791SOL    HW237836   2.767   4.240   3.197  2.2730 -0.8108  0.5699
 8792SOL     OW37837   0.952   1.256  12.982 -1.0833 -0.0548  0.5446
 8792SOL    HW137838   1.010   1.266  12.906  0.4198  2.1602  1.9693
 8792SOL    HW237839   0.866   1.247  12.940  0.1698  0.1338 -2.0883
 8793SOL     OW37840   2.874   1.475  13.853 -0.7881 -0.2596  0.0915
 8793SOL    HW137841   2.846   1.425  13.776  0.9233  1.3346 -1.5551
 8793SOL    HW237842   2.962   1.512  13.850 -0.9200  0.1678  1.5334
 8794SOL     OW37843   1.657   1.401   7.982  0.1644  0.1300 -0.1349
 8794SOL    HW137844   1.711   1.424   7.906 -0.5480  1.4245 -0.2626
 8794SOL    HW237845   1.629   1.490   8.004  1.4450  0.4119  0.3997
 8795SOL     OW37846   3.232   4.015  15.777 -0.0852 -0.4005  0.0179
 8795SOL    HW137847   3.233   3.960  15.699 -0.9951  0.8017 -0.8524
 8795SOL    HW237848   3.298   3.963  15.822  0.8810  0.4440 -0.4047
 8796SOL     OW37849   1.598   3.507   6.192  0.1404 -0.3677 -0.4111
 8796SOL    HW137850   1.534   3.576   6.203 -2.3438 -2.8881  0.9667
 8796SOL    HW237851   1.546   3.452   6.134 -0.6319 -0.3557  0.2705
 8797SOL     OW37852   3.414   1.544   7.761 -0.1965  0.0421 -0.1559
 8797SOL    HW137853   3.358   1.473   7.729 -0.5067  0.2327 -0.0397
 8797SOL    HW237854   3.377   1.545   7.850 -1.3447 -1.6609 -0.6071
 8798SOL     OW37855   3.260   1.467   8.649 -1.2577 -0.1046  0.0005
 8798SOL    HW137856   3.176   1.505   8.675 -0.1421  1.5557  1.1876
 8798SOL    HW237857   3.243   1.448   8.557 -0.6263 -1.4306  0.1626
 8799SOL     OW37858   2.228   1.874   7.613 -0.3841  0.0382 -0.2495
 8799SOL    HW137859   2.187   1.924   7.542 -2.7650 -2.9716 -1.0178
 8799SOL    HW237860   2.239   1.955   7.662 -2.4465  1.5637 -2.3384
 8800SOL     OW37861   0.737   3.014  10.755  0.0460 -0.2591  0.9001
 8800SOL    HW137862   0.714   3.001  10.847  1.3467  1.8193  1.5009
 8800SOL    HW237863   0.676   2.953  10.713 -1.4309  1.1147  1.0528
 8801SOL     OW37864   3.455   4.242   4.117  0.0165  0.4781  0.2816
 8801SOL    HW137865   3.385   4.178   4.104  0.7053  0.0534 -1.4145
 8801SOL    HW237866   3.461   4.268   4.025  1.0140  2.1540  0.8158
 8802SOL     OW37867   0.613   1.702   2.482  0.5268  0.2489  0.3135
 8802SOL    HW137868   0.525   1.686   2.518  1.1401  0.3473  1.8417
 8802SOL    HW237869   0.602   1.781   2.429  1.7663 -0.2909 -0.7299
 8803SOL     OW37870   2.592   2.571   2.776 -0.5149 -0.1603  0.1867
 8803SOL    HW137871   2.626   2.482   2.772  4.0639  1.5271  2.2384
 8803SOL    HW237872   2.548   2.578   2.691  2.3235  2.0839 -1.0660
 8804SOL     OW37873   2.490   1.213   2.028  0.3241 -0.1034 -0.0114
 8804SOL    HW137874   2.408   1.164   2.033 -0.6461  1.7214  2.0266
 8804SOL    HW237875   2.537   1.169   1.958  1.4219  0.2132  0.5179
 8805SOL     OW37876   1.342   3.700   5.053  0.2050 -0.1683  0.1539
 8805SOL    HW137877   1.315   3.788   5.078  1.4138  0.4534 -0.6666
 8805SOL    HW237878   1.436   3.710   5.033  0.3432 -1.9980 -0.1657
 8806SOL     OW37879   1.587   1.787   3.736  0.0631 -0.0732  0.0439
 8806SOL    HW137880   1.628   1.705   3.763 -0.6546  0.4813  2.8576
 8806SOL    HW237881   1.595   1.782   3.641 -1.0940  2.5067 -0.1854
 8807SOL     OW37882   1.653   4.587  13.181 -0.1789  0.3914  0.3429
 8807SOL    HW137883   1.627   4.592  13.089 -0.9475  1.7792  0.6231
 8807SOL    HW237884   1.651   4.493  13.194  0.4486  0.2820 -0.3466
 8808SOL     OW37885   0.557   1.970  15.606  0.1726 -0.1615  0.2791
 8808SOL    HW137886   0.508   2.047  15.576 -0.3610 -0.7128 -0.2567
 8808SOL    HW237887   0.625   2.009  15.661  0.4936 -0.9950  0.4693
 8809SOL     OW37888   3.281   1.691   7.979  0.1616 -0.0922  0.1573
 8809SOL    HW137889   3.331   1.765   7.942 -2.0154  1.5649  0.5621
 8809SOL    HW237890   3.225   1.680   7.902 -2.0495  1.5754  1.5296
 8810SOL     OW37891   4.456   2.265   3.579 -0.0737 -0.0407  1.0193
 8810SOL    HW137892   4.518   2.327   3.541  0.7699 -0.7605  1.2474
 8810SOL    HW237893   4.376   2.304   3.543 -0.2129 -1.2808  0.0119
 8811SOL     OW37894   1.479   0.056   8.533 -0.3593  0.4975 -0.5760
 8811SOL    HW137895   1.487   4.703   8.475 -2.4280  1.5150 -2.1974
 8811SOL    HW237896   1.446   0.124   8.475 -1.6316  0.5583  0.2160
 8812SOL     OW37897   3.548   0.524   6.099 -0.2469 -0.5431 -0.1868
 8812SOL    HW137898   3.521   0.565   6.181  0.9433 -0.3296  0.0950
 8812SOL    HW237899   3.639   0.552   6.097 -0.5166  0.2571 -1.1053
 8813SOL     OW37900   1.017   4.324  10.193  0.0592 -0.3806 -0.0448
 8813SOL    HW137901   0.955   4.296  10.261  0.2934 -0.9035 -0.0475
 8813SOL    HW237902   1.099   4.303  10.237  1.0961  0.2737 -1.6864
 8814SOL     OW37903   2.226   3.586   2.189 -1.0282 -0.3745  0.0900
 8814SOL    HW137904   2.197   3.508   2.140  1.0362  0.1707 -2.0018
 8814SOL    HW237905   2.147   3.639   2.180 -0.6076 -0.0176 -1.5640
 8815SOL     OW37906   3.008   3.099  16.722  0.2383 -0.3361  0.2795
 8815SOL    HW137907   2.955   3.125  16.648  0.9033  0.0891 -0.0433
 8815SOL    HW237908   3.094   3.090  16.681  0.2399  0.6506  0.0673
 8816SOL     OW37909   3.502   0.911  14.996  0.7619  0.3992  0.1102
 8816SOL    HW137910   3.502   0.817  14.983 -0.1664  0.0992  2.1784
 8816SOL    HW237911   3.407   0.924  14.994  0.5330 -1.2241  0.4545
 8817SOL     OW37912   2.614   3.041   0.380  0.4056 -0.2488 -0.0206
 8817SOL    HW137913   2.584   3.037   0.471 -0.1391  1.3425 -0.1430
 8817SOL    HW237914   2.685   3.102   0.401 -0.2147  0.3834  0.2000
 8818SOL     OW37915   2.555   1.793   8.921 -0.1155 -0.5689 -0.3072
 8818SOL    HW137916   2.616   1.797   8.847  0.3146  0.5441  0.1127
 8818SOL    HW237917   2.566   1.700   8.943 -0.2371 -0.1580  1.4994
 8819SOL     OW37918   2.596   1.391   8.456  0.4549 -0.0847 -0.3934
 8819SOL    HW137919   2.684   1.426   8.469 -1.2786  3.6402  1.3024
 8819SOL    HW237920   2.547   1.467   8.426  0.7722  1.0198  1.8469
 8820SOL     OW37921   2.165   2.503   9.949 -0.1424 -0.4323  0.3195
 8820SOL    HW137922   2.229   2.480   9.881  0.3442 -0.7115  0.8752
 8820SOL    HW237923   2.207   2.584   9.978  0.5416 -0.2001 -1.3022
 8821SOL     OW37924   2.945   3.432   5.465  0.1150 -0.0776  0.3288
 8821SOL    HW137925   2.984   3.464   5.546  1.4883 -0.8689 -0.0247
 8821SOL    HW237926   2.852   3.439   5.487  0.1575  0.4788  0.3252
 8822SOL     OW37927   4.328   0.652  14.063  0.0142 -0.0537 -0.3539
 8822SOL    HW137928   4.337   0.739  14.025  3.0563 -0.2698 -0.1251
 8822SOL    HW237929   4.385   0.660  14.140  0.0392 -2.0594 -0.1625
 8823SOL     OW37930   0.787   4.270  15.044  0.0385  0.4687 -0.0177
 8823SOL    HW137931   0.815   4.361  15.056 -0.9213  0.9800 -1.7329
 8823SOL    HW237932   0.753   4.262  14.955  0.3344 -1.7688  0.0783
 8824SOL     OW37933   2.054   2.869  16.846 -0.1815  0.6129 -0.3496
 8824SOL    HW137934   2.016   2.818  16.775 -0.8263  0.5106  0.0668
 8824SOL    HW237935   2.140   2.893  16.812  0.3596 -0.7568  0.0656
 8825SOL     OW37936   4.477   4.159   4.565 -0.4680  0.1827 -0.1605
 8825SOL    HW137937   4.473   4.115   4.650  0.7185 -0.5980 -0.5117
 8825SOL    HW237938   4.416   4.234   4.570  0.8718  1.1184  2.4916
 8826SOL     OW37939   2.143   3.304   1.754 -0.2792 -0.5873  0.3342
 8826SOL    HW137940   2.195   3.230   1.724 -1.0604 -0.5871 -1.0317
 8826SOL    HW237941   2.079   3.311   1.682 -0.0684 -2.8582 -0.0817
 8827SOL     OW37942   2.974   3.265   2.113 -0.2796  0.5874 -0.4375
 8827SOL    HW137943   2.952   3.335   2.174 -0.1873  0.2881 -0.0558
 8827SOL    HW237944   2.901   3.276   2.052  0.9756 -0.0653 -2.0678
 8828SOL     OW37945   0.130   2.373  16.371 -0.4256 -0.0587  0.5955
 8828SOL    HW137946   0.122   2.278  16.380 -1.0724 -0.2526 -1.9184
 8828SOL    HW237947   0.047   2.397  16.331  0.8182  2.9015 -0.2058
 8829SOL     OW37948   1.180   0.050   7.505  0.5803 -0.0627 -0.3187
 8829SOL    HW137949   1.112   4.707   7.499 -0.9178  1.5167 -0.8977
 8829SOL    HW237950   1.258   4.721   7.522  0.8432  1.0982  2.0491
 8830SOL     OW37951   1.081   0.070   4.948 -0.4565 -0.3604  0.9328
 8830SOL    HW137952   1.072   0.079   5.043 -1.6946 -1.3779  0.9178
 8830SOL    HW237953   1.001   0.109   4.913  0.0210 -0.3561 -0.1355
 8831SOL     OW37954   0.053   1.532   0.534 -0.1610 -0.7313 -0.3892
 8831SOL    HW137955   0.039   1.472   0.461  4.2369 -2.5852  0.2682
 8831SOL    HW237956   0.037   1.483   0.614 -1.5922  0.6878  0.1999
 8832SOL     OW37957   1.057   1.011   6.588  0.3214 -0.0682 -0.1275
 8832SOL    HW137958   1.081   0.919   6.575 -0.1929 -0.4952  2.0132
 8832SOL    HW237959   0.962   1.003   6.578  0.2512 -0.3819  0.8093
 8833SOL     OW37960   2.321   1.846   3.535  0.1166 -0.4857 -0.3333
 8833SOL    HW137961   2.348   1.769   3.485 -1.8816 -1.1035 -0.4651
 8833SOL    HW237962   2.302   1.906   3.463  1.5684  1.7468  1.1320
 8834SOL     OW37963   2.995   0.221   3.079 -0.7028 -0.2648  0.0421
 8834SOL    HW137964   3.035   0.284   3.018 -1.3336 -0.7496 -0.8824
 8834SOL    HW237965   3.021   0.256   3.164 -2.3151 -1.8050  1.1617
 8835SOL     OW37966   1.677   3.002  10.916 -0.0106 -0.5020  0.1505
 8835SOL    HW137967   1.608   2.951  10.957  0.0887 -0.3742  0.4753
 8835SOL    HW237968   1.646   3.091  10.930  0.8594 -0.4356  1.6259
 8836SOL     OW37969   1.560   1.649   8.105 -0.0213 -0.3563 -0.5795
 8836SOL    HW137970   1.479   1.674   8.149  0.4942 -1.4397  1.0211
 8836SOL    HW237971   1.607   1.624   8.185 -1.0898 -0.2130  0.0897
 8837SOL     OW37972   4.585   2.384  16.304  0.1792 -0.0121 -0.2418
 8837SOL    HW137973   4.585   2.304  16.252  0.0582  0.0793 -0.3833
 8837SOL    HW237974   4.519   2.373  16.373 -0.9471 -0.2933 -1.3715
 8838SOL     OW37975   0.221   3.088   8.309  0.2663 -0.7794 -0.5895
 8838SOL    HW137976   0.157   3.025   8.277  0.7322 -3.1050  3.0197
 8838SOL    HW237977   0.206   3.069   8.402 -0.0693  0.7252 -0.3406
 8839SOL     OW37978   1.575   3.505  10.363  0.6429  0.1039  0.2223
 8839SOL    HW137979   1.489   3.548  10.357 -0.5428 -2.9500 -4.3507
 8839SOL    HW237980   1.635   3.574  10.337  0.4884 -0.0839 -0.6237
 8840SOL     OW37981   1.304   1.525   8.683  0.0585  0.1391  0.2826
 8840SOL    HW137982   1.302   1.618   8.662  2.8033 -0.0644 -0.9039
 8840SOL    HW237983   1.324   1.519   8.777 -1.3550  1.9358  0.7042
 8841SOL     OW37984   1.760   2.308   3.321  1.2756 -0.1763  0.4168
 8841SOL    HW137985   1.729   2.383   3.372  0.1391 -0.2360 -0.1956
 8841SOL    HW237986   1.821   2.350   3.260  2.1253 -0.0780  1.3467
 8842SOL     OW37987   3.323   1.005   8.374 -0.6037  0.2233 -0.0122
 8842SOL    HW137988   3.289   1.006   8.464 -0.8561 -0.8655 -0.0913
 8842SOL    HW237989   3.292   1.090   8.345  0.0546  1.1050  1.8638
 8843SOL     OW37990   2.657   1.510   9.453  0.0077  0.3712  0.0688
 8843SOL    HW137991   2.612   1.594   9.466  0.3423  1.1090 -3.5437
 8843SOL    HW237992   2.630   1.476   9.538  1.1139  0.3653  0.4258
 8844SOL     OW37993   1.541   3.249   1.420 -0.4066  0.4261  0.1120
 8844SOL    HW137994   1.478   3.286   1.482 -0.2226  1.1951 -0.1614
 8844SOL    HW237995   1.540   3.310   1.347 -1.3238  1.0260  0.6314
 8845SOL     OW37996   1.984   4.153  13.809 -0.2417 -0.1829 -0.2395
 8845SOL    HW137997   2.054   4.133  13.747  1.1063 -1.4568  1.6800
 8845SOL    HW237998   2.026   4.145  13.895  0.3300 -2.1922 -0.7210
 8846SOL     OW37999   3.861   3.096  15.836 -0.8793  0.0232 -0.2653
 8846SOL    HW138000   3.862   3.032  15.764 -0.0453 -0.1082 -0.1413
 8846SOL    HW238001   3.809   3.045  15.897  1.0551  0.3686  1.6675
 8847SOL     OW38002   2.592   0.526  10.543 -0.0056 -0.6964  0.2284
 8847SOL    HW138003   2.537   0.520  10.621  0.4233  2.8514  0.7968
 8847SOL    HW238004   2.661   0.586  10.574  1.9864 -1.9765 -1.6947
 8848SOL     OW38005   4.065   3.155   2.664  0.6551 -0.2216 -0.1372
 8848SOL    HW138006   4.133   3.128   2.602 -0.1581 -1.0881 -0.6572
 8848SOL    HW238007   4.055   3.245   2.633 -1.5455  0.0749  1.4931
 8849SOL     OW38008   2.409   0.186   7.734  0.3837 -0.3072  0.4118
 8849SOL    HW138009   2.340   0.158   7.674  0.6340  0.5113 -0.2452
 8849SOL    HW238010   2.381   0.273   7.763 -1.2933 -0.0722 -1.9575
 8850SOL     OW38011   3.931   0.769  14.997 -0.1768  0.1840 -0.4487
 8850SOL    HW138012   4.027   0.766  15.000 -0.3742 -3.8399  2.6358
 8850SOL    HW238013   3.899   0.818  14.922 -0.4578 -1.3226 -1.3178
 8851SOL     OW38014   0.653   1.138  14.611 -0.4412 -0.1227  0.1246
 8851SOL    HW138015   0.724   1.098  14.562  0.2940 -1.1241  2.0172
 8851SOL    HW238016   0.706   1.148  14.691  1.4734 -1.4162 -0.9802
 8852SOL     OW38017   0.508   1.672   2.922 -0.1905 -0.1836 -0.4644
 8852SOL    HW138018   0.556   1.629   2.993  0.6170 -0.4664 -1.1805
 8852SOL    HW238019   0.511   1.611   2.847 -2.5423  1.2825 -1.7607
 8853SOL     OW38020   0.395   0.039   1.995 -0.5640 -0.4836 -0.0863
 8853SOL    HW138021   0.452   0.026   2.071  1.4942  0.1160 -1.5290
 8853SOL    HW238022   0.379   0.133   1.986 -0.2343 -0.5362 -1.1690
 8854SOL     OW38023   2.689   2.838   5.599 -0.3391 -0.1006 -0.2762
 8854SOL    HW138024   2.598   2.864   5.588 -0.2689  0.2251 -0.1101
 8854SOL    HW238025   2.711   2.907   5.662  1.1507 -0.5410 -0.3117
 8855SOL     OW38026   1.815   4.235   1.559  0.3361 -0.1363  0.1455
 8855SOL    HW138027   1.734   4.254   1.512  0.7223  1.7476  0.2288
 8855SOL    HW238028   1.792   4.159   1.612  1.6118 -1.4021 -1.1266
 8856SOL     OW38029   2.708   3.774   6.686 -0.2107 -0.4096  0.0541
 8856SOL    HW138030   2.657   3.841   6.732 -0.3809  0.9378 -2.1207
 8856SOL    HW238031   2.798   3.800   6.704  0.0415 -1.5477  0.4592
 8857SOL     OW38032   0.880   0.925   2.625 -0.0326 -0.2065 -0.3245
 8857SOL    HW138033   0.796   0.905   2.582  0.8856 -2.7423 -0.9711
 8857SOL    HW238034   0.880   0.844   2.676  0.6574  1.2181  1.9029
 8858SOL     OW38035   1.016   2.611  12.235 -0.2054  0.3823  0.2857
 8858SOL    HW138036   1.019   2.676  12.164  2.7618  0.7783  0.7728
 8858SOL    HW238037   0.930   2.637  12.267 -0.6334  1.9789 -2.1634
 8859SOL     OW38038   1.382   3.708  11.284 -0.2155  0.7535  0.1402
 8859SOL    HW138039   1.440   3.771  11.326  0.8527  0.9596 -1.6514
 8859SOL    HW238040   1.430   3.653  11.222 -2.6899 -1.1545 -0.0750
 8860SOL     OW38041   0.569   4.379   7.189  0.2746  0.4233  0.6015
 8860SOL    HW138042   0.575   4.418   7.276 -0.1662  0.9120  0.4082
 8860SOL    HW238043   0.583   4.456   7.134 -0.3991  1.6859  2.2070
 8861SOL     OW38044   0.399   1.614   3.950  0.4456  0.1141  0.0928
 8861SOL    HW138045   0.405   1.521   3.970 -1.5070  0.1465  0.8084
 8861SOL    HW238046   0.380   1.589   3.859 -1.5371  2.4815 -0.1564
 8862SOL     OW38047   3.908   1.758   5.415  0.0147 -0.3898 -0.5362
 8862SOL    HW138048   3.846   1.735   5.346 -3.0711 -0.0560  2.1612
 8862SOL    HW238049   3.947   1.835   5.372 -0.2838 -0.3471 -0.7322
 8863SOL     OW38050   1.584   3.102  17.535  0.6339 -0.7793  0.2794
 8863SOL    HW138051   1.493   3.078  17.518 -0.1639  1.7030  1.1027
 8863SOL    HW238052   1.621   3.016  17.553 -1.2433 -1.5193  0.5973
 8864SOL     OW38053   1.003   2.893   8.687 -0.5163  0.2757  0.2195
 8864SOL    HW138054   0.915   2.904   8.722 -0.5563 -1.1857  0.5678
 8864SOL    HW238055   1.042   2.952   8.750 -0.8711 -0.2147  0.8963
 8865SOL     OW38056   0.901   1.086   7.422 -0.6911  0.3593 -0.4392
 8865SOL    HW138057   0.994   1.105   7.415  0.0254 -2.8703 -0.0721
 8865SOL    HW238058   0.890   1.026   7.497  1.3598  0.1250 -0.3365
 8866SOL     OW38059   3.084   2.913  15.040  0.0736 -0.6117 -0.5105
 8866SOL    HW138060   3.017   2.981  15.047 -1.2958 -2.0097 -0.1073
 8866SOL    HW238061   3.031   2.844  15.000 -0.0369 -0.0197 -1.3780
 8867SOL     OW38062   0.730   1.754   4.828  0.3533  0.2890 -0.0894
 8867SOL    HW138063   0.707   1.678   4.881  0.0988  1.3151  1.2836
 8867SOL    HW238064   0.657   1.812   4.849  2.0300  2.0777  0.7769
 8868SOL     OW38065   4.319   2.901   0.604  0.3020 -0.3523  0.0751
 8868SOL    HW138066   4.411   2.879   0.619  0.3208  1.3446  2.5042
 8868SOL    HW238067   4.275   2.824   0.638 -0.7475  0.2150  0.0048
 8869SOL     OW38068   1.402   0.055   7.737 -0.1051  0.1386 -0.1373
 8869SOL    HW138069   1.400   0.149   7.722  2.5735  0.2417  0.1735
 8869SOL    HW238070   1.480   0.030   7.688  1.5262 -0.3271  2.7537
 8870SOL     OW38071   1.332   0.304   5.482  0.4707 -0.2706 -0.2567
 8870SOL    HW138072   1.389   0.318   5.407 -1.7357  0.3390 -1.8282
 8870SOL    HW238073   1.358   0.381   5.533 -1.4017 -0.1138  0.4659
 8871SOL     OW38074   1.697   3.222  10.391 -0.2540 -0.3927  0.0090
 8871SOL    HW138075   1.623   3.227  10.331 -0.9671  0.6286  0.9915
 8871SOL    HW238076   1.704   3.314  10.415  2.9914 -0.6345 -0.0018
 8872SOL     OW38077   3.546   0.733   9.706  0.2954  0.1856  0.1163
 8872SOL    HW138078   3.617   0.794   9.685 -1.0616  2.4615  2.1672
 8872SOL    HW238079   3.527   0.765   9.795  0.3521 -1.3789  0.6986
 8873SOL     OW38080   3.725   2.871  17.152  0.3806  0.1320  0.3382
 8873SOL    HW138081   3.744   2.933  17.222  0.6893  0.7839 -0.3243
 8873SOL    HW238082   3.669   2.818  17.209 -2.4730  1.4607 -1.2615
 8874SOL     OW38083   4.612   0.361   0.583 -0.2303  0.1576 -0.3505
 8874SOL    HW138084   4.654   0.411   0.513  1.5327 -0.4750  0.2625
 8874SOL    HW238085   4.627   0.417   0.659  0.5828  1.2698 -1.3275
 8875SOL     OW38086   3.586   0.797   4.316 -0.1752  0.1409 -0.1703
 8875SOL    HW138087   3.650   0.780   4.247  0.4613  2.2991 -0.1095
 8875SOL    HW238088   3.653   0.840   4.369  0.1237  0.9836 -1.2448
 8876SOL     OW38089   1.379   1.542   0.319  0.0363  0.6713  0.2804
 8876SOL    HW138090   1.363   1.637   0.319 -0.1666  0.6404 -2.5752
 8876SOL    HW238091   1.298   1.499   0.291  0.3207  1.7545 -2.2526
 8877SOL     OW38092   2.075   3.593   3.663 -0.3039 -0.3673  0.0507
 8877SOL    HW138093   2.140   3.524   3.648 -0.3303 -0.9012  2.3695
 8877SOL    HW238094   2.128   3.666   3.631 -2.3497  1.0470 -0.0754
 8878SOL     OW38095   3.556   3.153   3.537 -0.1399  0.1157 -0.6273
 8878SOL    HW138096   3.518   3.083   3.484  1.8672  0.2697 -2.2766
 8878SOL    HW238097   3.479   3.199   3.570  0.7775  0.8420  0.4823
 8879SOL     OW38098   2.732   4.261  15.092 -0.3392  0.4270  0.1533
 8879SOL    HW138099   2.663   4.201  15.064 -0.4548  0.3613  0.5867
 8879SOL    HW238100   2.715   4.281  15.184  0.2705 -0.1501  0.3889
 8880SOL     OW38101   1.128   3.180  11.641  0.5613  0.1793 -0.5694
 8880SOL    HW138102   1.150   3.230  11.563 -1.9684  0.6138 -1.0111
 8880SOL    HW238103   1.210   3.161  11.687  0.2943 -1.8819 -0.9177
 8881SOL     OW38104   1.374   0.646   0.777  0.0595 -0.6690  0.0869
 8881SOL    HW138105   1.443   0.581   0.780 -0.1891 -1.0268 -2.2315
 8881SOL    HW238106   1.413   0.715   0.723 -0.2771 -0.9693 -0.5353
 8882SOL     OW38107   0.011   0.874   7.975 -0.6120  0.0381  0.5867
 8882SOL    HW138108   4.682   0.914   7.907 -1.6149 -1.2408  0.5980
 8882SOL    HW238109   0.070   0.816   7.926  0.3773  1.4928  0.0639
 8883SOL     OW38110   1.993   0.342   7.727 -0.2830  0.2284  0.2320
 8883SOL    HW138111   2.022   0.374   7.641 -0.8147 -0.1812 -0.0944
 8883SOL    HW238112   1.915   0.395   7.742 -0.1627  0.4314  0.1404
 8884SOL     OW38113   1.168   0.744  17.031  0.0261 -0.1159 -0.0307
 8884SOL    HW138114   1.203   0.785  17.111 -1.3003 -0.0397  0.5071
 8884SOL    HW238115   1.073   0.738  17.041 -0.0725  0.9682 -0.2586
 8885SOL     OW38116   1.447   4.712   9.974  0.4432 -0.7981 -0.1381
 8885SOL    HW138117   1.501   0.054  10.019 -0.2656 -0.0158 -0.4309
 8885SOL    HW238118   1.466   4.722   9.880  2.6948  0.2787  0.4214
 8886SOL     OW38119   3.656   4.246   1.797  0.0228 -0.4103  0.1017
 8886SOL    HW138120   3.724   4.187   1.765 -0.8339 -0.7216 -1.1189
 8886SOL    HW238121   3.575   4.196   1.789  0.1604 -0.3909 -1.3888
 8887SOL     OW38122   3.126   0.111   6.245  0.2750  0.6550 -0.0064
 8887SOL    HW138123   3.197   0.111   6.181  0.4747 -0.7104  0.2235
 8887SOL    HW238124   3.095   0.199   6.223 -0.6303  0.1897 -0.6099
 8888SOL     OW38125   1.569   4.097  14.573  0.4470 -0.1053 -0.2854
 8888SOL    HW138126   1.502   4.053  14.625 -0.5036  0.3556 -1.1174
 8888SOL    HW238127   1.524   4.156  14.512  0.6287 -1.0267 -1.2959
 8889SOL     OW38128   1.656   3.654   7.559  0.3283 -0.0020  0.1429
 8889SOL    HW138129   1.568   3.626   7.583  1.3312 -2.9797  0.4177
 8889SOL    HW238130   1.687   3.595   7.490 -1.0750  0.5808 -0.9907
 8890SOL     OW38131   0.892   2.733  12.516  0.2101  0.1808  0.1108
 8890SOL    HW138132   0.961   2.667  12.517 -1.2222 -1.3002  0.6337
 8890SOL    HW238133   0.918   2.784  12.439 -1.3269 -0.4365 -0.8078
 8891SOL     OW38134   4.268   0.163   3.927  0.7906  1.2197  0.3723
 8891SOL    HW138135   4.268   0.119   3.842 -2.1700  1.5761  0.1851
 8891SOL    HW238136   4.311   0.246   3.908 -0.6592  1.8307 -0.2714
 8892SOL     OW38137   4.561   0.205   5.490  0.9560  0.0751 -0.3238
 8892SOL    HW138138   4.554   0.221   5.584 -0.5118 -0.3354 -0.3750
 8892SOL    HW238139   4.497   0.136   5.478  1.3604 -0.4340  0.4435
 8893SOL     OW38140   3.294   3.470   9.648 -0.1177 -0.4362  0.0111
 8893SOL    HW138141   3.261   3.381   9.661  2.8460 -1.7516 -1.5398
 8893SOL    HW238142   3.291   3.481   9.553  0.6692 -2.2588 -0.2105
 8894SOL     OW38143   1.231   4.195   4.153 -0.2739 -0.8185 -0.7059
 8894SOL    HW138144   1.161   4.206   4.089 -0.6570  0.0152 -0.1470
 8894SOL    HW238145   1.200   4.247   4.228 -2.2253 -1.0282 -1.3699
 8895SOL     OW38146   2.713   1.129   4.617 -0.3939 -0.6701 -0.3881
 8895SOL    HW138147   2.795   1.149   4.571 -1.7400  2.1354 -1.5553
 8895SOL    HW238148   2.741   1.093   4.702  0.7991  0.5429 -0.2762
 8896SOL     OW38149   3.924   1.049   4.965 -0.2982 -0.1229  0.1085
 8896SOL    HW138150   3.941   1.143   4.952  0.9928 -0.3516  0.1715
 8896SOL    HW238151   4.011   1.008   4.970 -1.0800 -2.0359 -1.9591
 8897SOL     OW38152   3.958   1.852   4.827  0.1854 -0.6426  0.1670
 8897SOL    HW138153   3.875   1.898   4.814  0.8701  0.2429 -1.1005
 8897SOL    HW238154   3.933   1.804   4.906 -1.7012 -1.1800 -0.7565
 8898SOL     OW38155   1.727   1.791   4.983  0.4147  0.1353 -0.4863
 8898SOL    HW138156   1.814   1.827   4.966  0.7524 -0.0351  0.8315
 8898SOL    HW238157   1.735   1.749   5.069 -3.2026  2.4899  1.0523
 8899SOL     OW38158   3.561   1.197   1.668 -0.3583 -0.4431  0.1749
 8899SOL    HW138159   3.504   1.212   1.743 -2.3587 -2.2976 -0.9974
 8899SOL    HW238160   3.607   1.281   1.668 -2.5335  0.7411 -0.6701
 8900SOL     OW38161   4.276   1.081   1.078  0.2056  0.0811 -0.4691
 8900SOL    HW138162   4.252   1.043   1.163  0.8091 -0.8519 -0.7134
 8900SOL    HW238163   4.330   1.009   1.046  0.4160  0.1306 -0.2173
 8901SOL     OW38164   1.131   0.930   1.004  0.1312  0.1527  0.2656
 8901SOL    HW138165   1.199   0.987   1.041  0.7522  0.2712 -1.0687
 8901SOL    HW238166   1.090   0.995   0.947  3.5357  2.0075 -0.0854
 8902SOL     OW38167   0.646   3.977   5.263 -0.1797 -0.5089  0.0600
 8902SOL    HW138168   0.644   3.917   5.188 -0.5382 -0.6715  0.1991
 8902SOL    HW238169   0.607   4.054   5.223  1.6349  0.8549  0.9325
 8903SOL     OW38170   3.639   1.385   4.519  0.1401 -1.0684 -0.3665
 8903SOL    HW138171   3.712   1.422   4.468  2.0008 -2.7316  1.0846
 8903SOL    HW238172   3.680   1.338   4.592  1.4875  1.2352  0.3737
 8904SOL     OW38173   0.083   3.776   5.431 -0.3829  0.3434  0.3700
 8904SOL    HW138174   0.130   3.755   5.512 -0.8215 -0.6048  0.3825
 8904SOL    HW238175   0.148   3.775   5.361  0.5120 -3.9185  1.2344
 8905SOL     OW38176   0.109   2.885  16.376  0.3042 -0.4163 -0.0926
 8905SOL    HW138177   0.073   2.796  16.371  1.1454 -0.8268  1.0948
 8905SOL    HW238178   0.038   2.932  16.420  2.0560  0.1480  2.1485
 8906SOL     OW38179   1.289   1.410   8.158  0.3571  0.0993  0.1289
 8906SOL    HW138180   1.236   1.489   8.170 -1.9581 -1.4820  0.4292
 8906SOL    HW238181   1.350   1.400   8.231  0.9404 -1.4179 -0.5664
 8907SOL     OW38182   3.460   3.010   5.239 -0.0393  0.4596  0.2230
 8907SOL    HW138183   3.393   2.952   5.204 -1.2642  2.5827 -0.9209
 8907SOL    HW238184   3.400   3.081   5.259  1.0099  1.5027 -0.3165
 8908SOL     OW38185   2.273   1.464   9.043  0.7831  0.5315 -0.3133
 8908SOL    HW138186   2.185   1.441   9.011  0.6622  0.3043  0.1950
 8908SOL    HW238187   2.285   1.404   9.116  0.4867  2.1936  1.1022
 8909SOL     OW38188   2.603   0.758  14.464  0.3447 -0.5133  0.5773
 8909SOL    HW138189   2.512   0.785  14.468  0.4688 -0.0132  0.0773
 8909SOL    HW238190   2.596   0.662  14.458  0.1059 -0.4983  0.6453
 8910SOL     OW38191   0.565   1.737   4.287 -0.1797  0.6338  0.2271
 8910SOL    HW138192   0.473   1.719   4.304 -0.4424 -0.6947 -2.5039
 8910SOL    HW238193   0.558   1.781   4.202 -1.9552 -1.7263 -0.8329
 8911SOL     OW38194   1.865   3.774   8.734 -0.6893 -0.2523 -0.5013
 8911SOL    HW138195   1.881   3.726   8.653  0.1534 -0.4209 -0.2319
 8911SOL    HW238196   1.781   3.739   8.762 -0.7898 -2.2850 -3.2856
 8912SOL     OW38197   3.433   1.244   4.077  0.1229  0.5040 -0.1844
 8912SOL    HW138198   3.362   1.308   4.075 -2.6326 -2.6103 -1.3233
 8912SOL    HW238199   3.465   1.238   4.167  1.0943  3.6061 -0.3101
 8913SOL     OW38200   4.001   1.701  13.193 -0.8420  0.2766 -0.1201
 8913SOL    HW138201   3.913   1.739  13.190 -0.1609  1.9771  1.4388
 8913SOL    HW238202   4.013   1.703  13.098  1.2700 -0.5179  0.1368
 8914SOL     OW38203   4.065   2.982   4.844 -0.7269  0.2100 -0.3584
 8914SOL    HW138204   4.128   3.015   4.781 -1.0122  2.8275  0.7578
 8914SOL    HW238205   4.051   2.899   4.798 -1.6737  0.3016 -0.2410
 8915SOL     OW38206   2.712   1.147   9.503  0.7052  0.1340  0.0334
 8915SOL    HW138207   2.704   1.070   9.447 -2.0340  2.6825 -3.0622
 8915SOL    HW238208   2.679   1.105   9.583  1.5117 -0.1483  0.2181
 8916SOL     OW38209   3.446   3.217  15.335 -0.2510 -0.1184 -0.1630
 8916SOL    HW138210   3.465   3.146  15.396 -0.2798 -0.3310 -0.3999
 8916SOL    HW238211   3.414   3.168  15.259  0.9901  0.6972 -1.2276
 8917SOL     OW38212   0.197   4.498  17.600 -0.2149  0.4871 -0.8218
 8917SOL    HW138213   0.289   4.525  17.601 -0.1696  0.3967 -2.1620
 8917SOL    HW238214   0.207   4.408  17.569 -0.2984 -0.3020  1.4682
 8918SOL     OW38215   1.348   3.262   5.205  0.4726  0.3923  0.3864
 8918SOL    HW138216   1.420   3.326   5.200 -0.5477  1.3216 -2.2048
 8918SOL    HW238217   1.300   3.272   5.123  0.4012  0.3340  0.4218
 8919SOL     OW38218   4.713   0.228   6.896  0.1975  0.0830 -0.6912
 8919SOL    HW138219   4.618   0.230   6.907  0.3546 -1.2853  0.8288
 8919SOL    HW238220   4.722   0.170   6.821 -1.1473 -0.2709 -0.5767
 8920SOL     OW38221   3.774   2.621   7.295  0.1665  0.0086 -0.9291
 8920SOL    HW138222   3.749   2.601   7.385  2.2661  2.7177  0.2657
 8920SOL    HW238223   3.870   2.623   7.304  0.4110 -5.5675 -2.6452
 8921SOL     OW38224   4.233   2.988   2.539 -0.0482 -0.0682  0.2704
 8921SOL    HW138225   4.323   2.980   2.571  0.6962  1.9013 -1.3680
 8921SOL    HW238226   4.220   2.911   2.483 -2.0436 -0.3401  1.1025
 8922SOL     OW38227   1.452   0.590  10.026 -0.3786 -0.0893  0.3573
 8922SOL    HW138228   1.380   0.638   9.984  0.3304  0.7293  0.0815
 8922SOL    HW238229   1.508   0.664  10.049 -0.4508  0.2493 -0.5614
 8923SOL     OW38230   2.688   3.373   3.207  0.3272 -0.6268  0.3396
 8923SOL    HW138231   2.625   3.379   3.135  1.0562 -1.4884 -0.3720
 8923SOL    HW238232   2.769   3.398   3.162 -0.3401  0.0839 -0.4596
 8924SOL     OW38233   2.117   0.449   6.976  0.6587 -0.2798 -0.0645
 8924SOL    HW138234   2.094   0.364   7.012  1.7696  0.0328  1.3981
 8924SOL    HW238235   2.032   0.494   6.980  0.9344  0.1915  0.4868
 8925SOL     OW38236   2.582   2.795   0.036  0.0700 -0.1163  0.1724
 8925SOL    HW138237   2.609   2.711  17.695 -0.6559 -0.5829  0.6976
 8925SOL    HW238238   2.516   2.808  17.663  0.9197  0.7099 -0.4879
 8926SOL     OW38239   2.884   3.527   1.302  0.3464  0.4765 -0.6796
 8926SOL    HW138240   2.856   3.510   1.211 -2.7045  0.7778  0.1792
 8926SOL    HW238241   2.871   3.437   1.332 -0.4521  0.7603 -0.1669
 8927SOL     OW38242   2.208   2.101   7.434 -0.3041 -0.0444  0.0554
 8927SOL    HW138243   2.218   2.122   7.341 -1.0000 -1.5741 -0.3609
 8927SOL    HW238244   2.132   2.154   7.458 -0.3041  1.2035 -2.6632
 8928SOL     OW38245   4.315   2.383   0.164  0.0251  0.1340 -0.3193
 8928SOL    HW138246   4.315   2.462   0.217  2.3103  0.7963 -1.2902
 8928SOL    HW238247   4.407   2.356   0.157  0.1221  0.3395  0.2163
 8929SOL     OW38248   0.720   0.328   6.645 -0.0351  0.0623  0.3984
 8929SOL    HW138249   0.781   0.398   6.620  0.7249 -0.2325  1.4246
 8929SOL    HW238250   0.755   0.250   6.603  2.2620  0.5402  1.4206
 8930SOL     OW38251   1.201   1.910  15.594  0.1735 -0.1735 -0.6047
 8930SOL    HW138252   1.198   1.987  15.538 -0.7055 -0.6894 -1.2573
 8930SOL    HW238253   1.227   1.839  15.535 -0.3015 -0.3559 -0.5946
 8931SOL     OW38254   0.253   4.211   3.186 -0.2713 -0.3303  0.2120
 8931SOL    HW138255   0.266   4.262   3.266  2.3693  0.9576 -1.0298
 8931SOL    HW238256   0.346   4.201   3.164 -0.3226 -0.3660  0.0147
 8932SOL     OW38257   0.716   1.219   4.733 -0.5044  0.2068 -0.2617
 8932SOL    HW138258   0.740   1.287   4.797 -0.0023 -0.3923  0.1889
 8932SOL    HW238259   0.797   1.205   4.683 -0.1508 -0.7966  0.5869
 8933SOL     OW38260   1.181   2.806  11.793  0.4558 -0.5616 -0.7141
 8933SOL    HW138261   1.273   2.806  11.818  0.2016 -0.9715  0.2164
 8933SOL    HW238262   1.189   2.821  11.699 -0.9115  0.0142 -0.7475
 8934SOL     OW38263   1.803   0.162   7.057  0.4002  0.3561  0.1232
 8934SOL    HW138264   1.714   0.172   7.090 -0.1706 -0.9173 -1.0083
 8934SOL    HW238265   1.794   0.226   6.987 -0.3724 -0.9784 -1.0076
 8935SOL     OW38266   2.612   0.603   1.988 -0.0756 -0.0282  0.3545
 8935SOL    HW138267   2.583   0.693   1.972  0.9295  0.5222  1.6267
 8935SOL    HW238268   2.670   0.595   1.912 -0.9160 -0.6130 -0.2248
 8936SOL     OW38269   0.609   1.895   5.363 -0.3118  0.0491 -0.3945
 8936SOL    HW138270   0.645   1.984   5.365 -0.9124  0.3079 -1.0662
 8936SOL    HW238271   0.542   1.908   5.429 -1.1331 -1.0917 -1.0002
 8937SOL     OW38272   2.043   2.504   6.774  0.1563 -0.5498  0.3562
 8937SOL    HW138273   2.029   2.598   6.788  0.2677 -0.7939  2.1464
 8937SOL    HW238274   2.097   2.502   6.695  0.3850  2.4604  0.4202
 8938SOL     OW38275   3.157   0.525   9.170 -0.1669  0.2249 -0.0619
 8938SOL    HW138276   3.181   0.471   9.246  0.2644 -0.4857 -0.7048
 8938SOL    HW238277   3.193   0.611   9.188  1.6810 -0.2450 -1.5736
 8939SOL     OW38278   4.371   1.477   8.023 -0.0838  0.7821 -0.3134
 8939SOL    HW138279   4.454   1.480   8.071 -0.2404  0.7330 -0.0392
 8939SOL    HW238280   4.402   1.438   7.942 -0.4961  0.4755 -0.3241
 8940SOL     OW38281   3.027   1.850  10.404 -0.0667  0.3969  0.2949
 8940SOL    HW138282   3.112   1.889  10.425 -0.8893  1.1976  2.1590
 8940SOL    HW238283   3.038   1.880  10.314  0.9350 -1.8911 -0.3381
 8941SOL     OW38284   2.269   2.033   3.346 -0.4108  0.2868  0.2170
 8941SOL    HW138285   2.325   2.107   3.371 -1.5967  1.5781 -0.9301
 8941SOL    HW238286   2.185   2.071   3.322 -0.6046  0.1067  0.6059
 8942SOL     OW38287   1.857   4.011  10.477 -0.2216  0.1409 -0.3357
 8942SOL    HW138288   1.807   3.979  10.552  0.2109  0.6728  0.1806
 8942SOL    HW238289   1.935   3.958  10.492 -1.3512 -0.9733  1.6086
 8943SOL     OW38290   2.169   1.917   6.217  0.3823  0.1101  0.0676
 8943SOL    HW138291   2.112   1.865   6.273 -1.0104  2.1163  0.5233
 8943SOL    HW238292   2.098   1.961   6.169  0.2792  0.3287  0.4168
 8944SOL     OW38293   1.857   1.565   1.752  0.8491 -0.9283 -0.4645
 8944SOL    HW138294   1.785   1.625   1.771  1.5829 -0.3686  0.5238
 8944SOL    HW238295   1.858   1.500   1.823  1.2272  0.6152  0.9381
 8945SOL     OW38296   2.746   3.668  14.856  0.1002  0.7343 -0.0574
 8945SOL    HW138297   2.754   3.662  14.760 -2.4656  1.6591 -0.3401
 8945SOL    HW238298   2.803   3.592  14.866  0.6130  0.9923 -1.0334
 8946SOL     OW38299   3.519   3.693  10.412 -0.1757 -0.7484 -0.0043
 8946SOL    HW138300   3.515   3.788  10.396  0.9703 -0.4247  1.6672
 8946SOL    HW238301   3.462   3.660  10.342 -0.2144 -2.4257  0.8255
 8947SOL     OW38302   0.436   0.803  15.750  0.2258  0.1040  0.1932
 8947SOL    HW138303   0.510   0.786  15.808  1.7646 -2.7640 -2.5902
 8947SOL    HW238304   0.410   0.884  15.793 -1.2156 -0.5814  0.6341
 8948SOL     OW38305   0.181   4.298   9.456 -0.4518  0.1639 -0.5543
 8948SOL    HW138306   0.182   4.356   9.532  0.5808 -1.9149  0.9957
 8948SOL    HW238307   0.269   4.262   9.464  0.0865  2.1881  2.8107
 8949SOL     OW38308   3.813   0.292   3.204 -0.4554  0.6381 -0.2786
 8949SOL    HW138309   3.812   0.205   3.165 -1.6550  2.2426 -3.8111
 8949SOL    HW238310   3.873   0.337   3.144  0.3603  0.8458  0.6937
 8950SOL     OW38311   1.743   4.063  13.734  0.4719  0.0563  0.0393
 8950SOL    HW138312   1.695   4.143  13.758 -1.1443 -0.8793 -0.0925
 8950SOL    HW238313   1.833   4.086  13.759  0.5850  0.4002 -0.6857
 8951SOL     OW38314   0.981   4.099  15.731 -0.1268  0.7770 -0.1858
 8951SOL    HW138315   1.052   4.163  15.725 -0.8171  1.7338  1.8171
 8951SOL    HW238316   0.942   4.126  15.814 -1.0298 -0.2247 -0.2831
 8952SOL     OW38317   2.708   1.715  17.484  0.1222  0.3486  0.2869
 8952SOL    HW138318   2.763   1.656  17.535  1.4931  1.1323 -0.3120
 8952SOL    HW238319   2.711   1.795  17.536 -1.3479 -0.6965  1.9976
 8953SOL     OW38320   1.403   1.367   7.022  0.0440 -0.2795  0.6366
 8953SOL    HW138321   1.443   1.296   7.072 -0.3301 -0.2291  1.0107
 8953SOL    HW238322   1.477   1.426   7.010  0.7215 -1.1449  0.6119
 8954SOL     OW38323   2.959   2.432  17.203  0.1070 -0.2641  0.1181
 8954SOL    HW138324   2.908   2.502  17.162  0.6076 -0.8500 -1.5208
 8954SOL    HW238325   3.049   2.445  17.175 -0.2793  1.5397 -0.2661
 8955SOL     OW38326   1.531   3.318   9.044  0.1855 -0.1487  0.2698
 8955SOL    HW138327   1.522   3.397   9.097  2.8721 -0.1352  0.7003
 8955SOL    HW238328   1.609   3.279   9.085  1.3380 -0.4130 -2.2126
 8956SOL     OW38329   1.625   1.406  16.598  0.0899  0.6360  0.0351
 8956SOL    HW138330   1.575   1.407  16.516  2.3237 -1.7155 -1.3430
 8956SOL    HW238331   1.567   1.455  16.657  0.5093  3.5107 -1.9226
 8957SOL     OW38332   0.729   3.009  11.659  0.2538  0.8355  0.1118
 8957SOL    HW138333   0.662   3.001  11.727 -0.6368  2.1462 -0.5998
 8957SOL    HW238334   0.775   3.091  11.675 -2.0084  2.1392 -0.0189
 8958SOL     OW38335   4.241   2.268   4.037 -0.3458  0.1783 -0.0246
 8958SOL    HW138336   4.314   2.259   3.976  1.6425 -1.9543  2.6492
 8958SOL    HW238337   4.272   2.199   4.096 -1.7185 -0.7222 -0.3345
 8959SOL     OW38338   2.428   3.135   7.718 -0.4077 -0.1603  0.0936
 8959SOL    HW138339   2.395   3.107   7.633  0.1168 -0.1368 -0.1128
 8959SOL    HW238340   2.437   3.046   7.752 -1.4673  0.2504  1.4843
 8960SOL     OW38341   1.369   3.648  10.847  0.0242  0.2822 -0.0855
 8960SOL    HW138342   1.408   3.562  10.829 -1.0035 -0.3243  0.6145
 8960SOL    HW238343   1.289   3.615  10.887  0.6064 -2.4647 -1.2207
 8961SOL     OW38344   2.361   1.953   6.431  0.0970 -0.1449 -0.1361
 8961SOL    HW138345   2.277   1.965   6.474 -0.0118  1.2552 -0.7414
 8961SOL    HW238346   2.337   1.920   6.344  0.7638 -1.5685  0.2091
 8962SOL     OW38347   4.181   4.584   9.628  0.4254  0.2831 -0.7168
 8962SOL    HW138348   4.276   4.569   9.629 -0.0046 -2.5546 -1.1620
 8962SOL    HW238349   4.166   4.661   9.574  0.8015  0.4684 -0.5573
 8963SOL     OW38350   2.881   1.708   3.743 -0.3568  0.0593  0.0373
 8963SOL    HW138351   2.958   1.684   3.794  1.2751 -0.3317 -2.6332
 8963SOL    HW238352   2.922   1.778   3.692 -1.7098  0.9202  0.1282
 8964SOL     OW38353   2.270   1.936   2.105  0.3043  0.5120  0.1553
 8964SOL    HW138354   2.283   2.020   2.149  1.5165 -0.0041  0.7849
 8964SOL    HW238355   2.352   1.921   2.057  1.3121  1.4538  1.5817
 8965SOL     OW38356   3.619   1.856   9.102  0.2631  0.3798 -0.0450
 8965SOL    HW138357   3.541   1.897   9.138 -0.4440 -1.7251  0.8567
 8965SOL    HW238358   3.587   1.773   9.066 -2.0153  0.4685  1.7892
 8966SOL     OW38359   1.288   2.398  15.406 -0.3210  0.3546 -0.1331
 8966SOL    HW138360   1.205   2.407  15.360 -1.4498 -0.0452  1.8076
 8966SOL    HW238361   1.335   2.353  15.336 -1.6621  1.0150 -1.4424
 8967SOL     OW38362   3.705   2.093   7.383 -0.2134 -0.0718  0.4407
 8967SOL    HW138363   3.757   2.052   7.452  1.4743 -1.2061 -1.4903
 8967SOL    HW238364   3.703   2.027   7.313 -3.8780  1.0608 -0.4973
 8968SOL     OW38365   0.153   4.469   4.072  0.3481 -0.5402 -0.1525
 8968SOL    HW138366   0.077   4.526   4.057  1.4537  1.2767  1.1294
 8968SOL    HW238367   0.216   4.520   4.020  0.1284  0.9654  1.0530
 8969SOL     OW38368   3.792   4.647  10.261  0.1029 -0.5500  0.2593
 8969SOL    HW138369   3.836   4.624  10.179  1.0762 -2.6459  1.3780
 8969SOL    HW238370   3.706   4.669  10.225  0.3753  1.7958  1.0932
 8970SOL     OW38371   0.265   4.353  13.161 -0.1495  0.0830  0.5966
 8970SOL    HW138372   0.290   4.345  13.068 -3.6062 -0.0277 -0.3271
 8970SOL    HW238373   0.330   4.416  13.193 -2.4579  1.5906  2.3352
 8971SOL     OW38374   1.150   1.645   7.160 -0.1918  0.0436 -0.2981
 8971SOL    HW138375   1.094   1.698   7.216 -0.1666 -0.6169  0.3462
 8971SOL    HW238376   1.236   1.680   7.185 -0.6668  0.0781  1.2934
 8972SOL     OW38377   0.452   3.961  11.089 -0.1982 -0.2327 -0.0078
 8972SOL    HW138378   0.359   3.970  11.109 -0.1667 -0.2623  0.1509
 8972SOL    HW238379   0.493   3.929  11.170  0.1472 -1.0018 -0.4897
 8973SOL     OW38380   3.506   0.970   8.100 -0.5150  0.3558 -0.1350
 8973SOL    HW138381   3.454   0.930   8.170 -0.3454  0.8151  0.2496
 8973SOL    HW238382   3.592   0.971   8.141 -0.6431  3.2326  0.0421
 8974SOL     OW38383   4.614   3.352   8.046 -0.4319 -0.5315 -0.8698
 8974SOL    HW138384   4.532   3.329   8.003 -0.1964 -0.9640 -1.0919
 8974SOL    HW238385   4.674   3.279   8.027 -0.1716 -0.5950  0.1812
 8975SOL     OW38386   3.738   4.615   8.065  0.2363 -0.1048  0.5664
 8975SOL    HW138387   3.717   4.595   8.156  0.3052  1.1589  0.8583
 8975SOL    HW238388   3.726   4.710   8.070 -0.0392 -0.1538  0.7689
 8976SOL     OW38389   3.211   0.352  17.282 -0.2610  0.3021 -0.1837
 8976SOL    HW138390   3.171   0.355  17.369  0.7191  0.1190  0.2620
 8976SOL    HW238391   3.300   0.349  17.315  0.1102  1.6738 -1.0285
 8977SOL     OW38392   4.589   2.160   8.829  0.2567 -0.1364 -0.6074
 8977SOL    HW138393   4.544   2.127   8.907 -0.4369 -0.5220 -1.1735
 8977SOL    HW238394   4.668   2.204   8.860 -0.1300  0.0824  0.0673
 8978SOL     OW38395   3.604   2.442   4.796 -0.4581 -0.0571  0.6258
 8978SOL    HW138396   3.587   2.535   4.783 -0.8816 -0.3198 -0.7518
 8978SOL    HW238397   3.686   2.434   4.746 -1.1200  2.6084 -0.8806
 8979SOL     OW38398   3.124   3.877   7.362  0.2885  0.2798 -0.3347
 8979SOL    HW138399   3.110   3.889   7.456  0.0568 -2.5934 -0.0028
 8979SOL    HW238400   3.039   3.839   7.339  1.0854 -0.5689 -1.8783
 8980SOL     OW38401   4.392   3.245   6.136 -0.4921  0.0833 -0.0624
 8980SOL    HW138402   4.329   3.239   6.064 -1.3184  1.4440  0.5552
 8980SOL    HW238403   4.342   3.304   6.191 -1.4172  0.8829 -1.7686
 8981SOL     OW38404   4.073   0.917  15.352  0.2243 -0.2308  0.0409
 8981SOL    HW138405   4.076   0.976  15.276  1.7093  0.3122  0.5059
 8981SOL    HW238406   4.015   0.958  15.416  0.9776 -0.8540  1.1132
 8982SOL     OW38407   3.743   2.156   6.557  0.4709  0.0495 -0.8875
 8982SOL    HW138408   3.762   2.195   6.643  2.9552 -0.1576 -1.3217
 8982SOL    HW238409   3.831   2.120   6.543  0.6174 -0.1241  0.4779
 8983SOL     OW38410   4.315   0.138   8.019  0.1330  0.4264  0.3851
 8983SOL    HW138411   4.269   0.057   8.042 -1.2448  1.0038 -0.3838
 8983SOL    HW238412   4.262   0.182   7.952 -1.6772  0.7415  2.0378
 8984SOL     OW38413   2.391   1.268   6.051 -0.9898  0.4796  0.8412
 8984SOL    HW138414   2.296   1.277   6.048 -1.0015 -0.1327 -1.1514
 8984SOL    HW238415   2.416   1.360   6.066 -1.8425  1.3200 -2.8916
 8985SOL     OW38416   3.595   0.603   0.618  0.5311  0.5326 -0.0576
 8985SOL    HW138417   3.513   0.605   0.570 -1.2138 -1.4041  2.7902
 8985SOL    HW238418   3.658   0.595   0.547  2.8299 -2.1934  2.2610
 8986SOL     OW38419   0.073   3.088  13.184  0.2615  0.1920  0.2007
 8986SOL    HW138420   0.057   3.062  13.274 -3.1847  1.3298 -0.0878
 8986SOL    HW238421   0.116   3.013  13.142 -1.5463 -0.7424  0.0180
 8987SOL     OW38422   4.516   0.316   1.985 -0.2353  0.4086  0.6500
 8987SOL    HW138423   4.449   0.382   2.003  0.4462  1.0889  0.7237
 8987SOL    HW238424   4.556   0.314   2.072  1.2599  0.4059 -0.0343
 8988SOL     OW38425   1.935   1.759   6.571  0.1794 -0.1080 -0.0748
 8988SOL    HW138426   2.027   1.746   6.593  0.7802  0.4018 -2.3028
 8988SOL    HW238427   1.899   1.711   6.645  2.2786 -1.6282 -0.0528
 8989SOL     OW38428   2.842   1.991   3.889 -0.0517  0.1987  0.4248
 8989SOL    HW138429   2.931   1.999   3.855 -1.4764 -0.6730 -3.5611
 8989SOL    HW238430   2.852   1.933   3.964  1.0356 -0.1234  0.0244
 8990SOL     OW38431   3.505   2.748   1.574  0.0014 -0.4136 -0.2478
 8990SOL    HW138432   3.494   2.797   1.656 -2.2074  2.0431 -2.0025
 8990SOL    HW238433   3.430   2.778   1.522  1.3456  3.4884  0.0677
 8991SOL     OW38434   3.496   1.906   7.012 -1.0736  0.5734 -0.9320
 8991SOL    HW138435   3.402   1.921   7.007 -1.0971 -0.4138 -3.9524
 8991SOL    HW238436   3.515   1.832   6.954  0.5746 -0.6184  1.1440
 8992SOL     OW38437   2.100   3.348  16.658 -0.2789  0.0915  0.0008
 8992SOL    HW138438   2.177   3.398  16.631 -0.6158 -0.3526 -1.7962
 8992SOL    HW238439   2.064   3.425  16.702  0.3610  0.1761  0.3793
 8993SOL     OW38440   3.675   4.435   7.818 -0.3321  0.2321  0.6781
 8993SOL    HW138441   3.767   4.424   7.844 -0.1114  0.9480  0.1993
 8993SOL    HW238442   3.623   4.457   7.896 -0.4230 -1.8268  1.2044
 8994SOL     OW38443   3.176   3.814   9.795 -0.5568 -0.3490 -0.3864
 8994SOL    HW138444   3.255   3.839   9.843  0.8127 -1.4082 -2.0456
 8994SOL    HW238445   3.214   3.817   9.707  1.3591  0.5020  0.4667
 8995SOL     OW38446   1.519   3.797   3.673 -0.2993 -0.4818 -0.5618
 8995SOL    HW138447   1.580   3.736   3.716 -1.3222 -1.4226 -0.4408
 8995SOL    HW238448   1.573   3.876   3.682 -0.8011 -0.2565  0.5009
 8996SOL     OW38449   2.484   1.983   9.121  0.2568  0.4097  0.0898
 8996SOL    HW138450   2.468   1.916   9.188  0.2835  1.9392  1.6063
 8996SOL    HW238451   2.534   1.936   9.054  1.2822 -1.9427  2.4781
 8997SOL     OW38452   1.426   3.718   8.942  0.1382 -0.2254 -0.2221
 8997SOL    HW138453   1.351   3.696   8.886 -0.6164  1.4184  0.1330
 8997SOL    HW238454   1.500   3.679   8.896 -0.6912 -1.2334 -0.6773
 8998SOL     OW38455   2.072   4.542   3.270 -0.2589 -0.0414  0.4037
 8998SOL    HW138456   2.057   4.570   3.360  0.3455 -0.7556  0.7252
 8998SOL    HW238457   2.120   4.618   3.238  2.0886 -0.8078  2.1371
 8999SOL     OW38458   0.630   0.947   3.406  0.5491 -0.4061 -0.0012
 8999SOL    HW138459   0.554   0.926   3.352 -0.8306  0.1870  1.7142
 8999SOL    HW238460   0.652   0.860   3.441 -1.7465 -0.2144  1.9379
 9000SOL     OW38461   2.384   1.378  12.563  0.3304  0.4057  0.1629
 9000SOL    HW138462   2.292   1.374  12.538  0.2358 -1.2028  0.7958
 9000SOL    HW238463   2.379   1.469  12.595  2.4172  0.6703 -0.3041
 9001SOL     OW38464   1.635   2.805   3.690  0.0137 -0.0352  0.1701
 9001SOL    HW138465   1.581   2.755   3.751  1.9161  1.0170  2.7450
 9001SOL    HW238466   1.590   2.806   3.606  0.9331  1.5088 -0.3142
 9002SOL     OW38467   1.568   2.370   7.272 -0.3337 -0.4507  0.2797
 9002SOL    HW138468   1.576   2.278   7.296 -2.8266 -0.9935 -0.9724
 9002SOL    HW238469   1.579   2.373   7.177  1.5047  0.8470  0.5221
 9003SOL     OW38470   0.112   0.946   4.357  0.2167 -0.6678 -0.2542
 9003SOL    HW138471   0.186   0.975   4.411 -0.7918 -0.0162  0.7647
 9003SOL    HW238472   0.078   0.877   4.413 -0.7173  0.9348  1.1426
 9004SOL     OW38473   0.528   3.966   3.269 -0.2766  0.0278  0.3379
 9004SOL    HW138474   0.504   4.015   3.191 -0.0316 -0.2547  0.0853
 9004SOL    HW238475   0.484   4.013   3.339  0.5761  0.8911  0.2919
 9005SOL     OW38476   3.006   2.331  11.818  0.5549 -0.2484 -0.0816
 9005SOL    HW138477   3.002   2.327  11.722 -0.0890 -1.6325  0.0030
 9005SOL    HW238478   2.917   2.311  11.848  1.7750 -1.3465  2.7667
 9006SOL     OW38479   3.141   3.108  11.596  0.5690  0.0902 -0.1280
 9006SOL    HW138480   3.047   3.101  11.613  0.4032  1.1105 -0.6192
 9006SOL    HW238481   3.162   3.019  11.569  1.3642  0.9503 -2.3275
 9007SOL     OW38482   1.963   3.465   7.372 -0.2317 -0.3670  0.0365
 9007SOL    HW138483   2.009   3.460   7.456 -1.4039 -0.8718  0.6450
 9007SOL    HW238484   1.953   3.372   7.353  1.3606 -0.8430  1.5511
 9008SOL     OW38485   0.495   1.501   1.588 -0.1183  0.0318 -0.1952
 9008SOL    HW138486   0.472   1.588   1.621  0.0900 -0.2479  0.6806
 9008SOL    HW238487   0.457   1.504   1.500  0.5402 -1.0378 -0.5155
 9009SOL     OW38488   0.548   3.281  14.724  0.1259 -0.5763  0.1059
 9009SOL    HW138489   0.474   3.236  14.763 -0.0536  2.0167  2.7177
 9009SOL    HW238490   0.516   3.282  14.634  1.0948 -1.4097 -0.2558
 9010SOL     OW38491   3.003   2.455   0.702  0.1207  0.1428 -0.0612
 9010SOL    HW138492   3.081   2.437   0.756 -1.8536  1.0035  3.1020
 9010SOL    HW238493   2.946   2.386   0.736  1.2303 -1.2643 -1.0263
 9011SOL     OW38494   3.927   4.224   2.836  0.2326 -0.2460  0.3925
 9011SOL    HW138495   3.844   4.227   2.885 -0.9427 -3.5157 -1.4069
 9011SOL    HW238496   3.898   4.248   2.748 -2.7781 -1.7800  0.9371
 9012SOL     OW38497   3.933   0.682   0.502  0.3765  0.0241  0.0705
 9012SOL    HW138498   3.898   0.593   0.502  1.3261 -0.3476  0.8562
 9012SOL    HW238499   3.977   0.679   0.417  0.4658  1.4500  0.0712
 9013SOL     OW38500   1.581   2.785   1.530 -0.2500 -0.4580 -0.4786
 9013SOL    HW138501   1.562   2.701   1.489 -1.3155 -1.0615  1.2958
 9013SOL    HW238502   1.567   2.846   1.457 -2.7360 -1.4279 -0.8044
 9014SOL     OW38503   3.440   1.055   5.550  0.8065 -0.4579 -0.4232
 9014SOL    HW138504   3.518   1.054   5.606  1.7011  3.7856 -1.5381
 9014SOL    HW238505   3.454   0.973   5.503  1.3465 -1.8720  2.2574
 9015SOL     OW38506   1.456   0.855   5.636  0.6071  0.0600  0.6757
 9015SOL    HW138507   1.520   0.788   5.612 -0.5910 -1.6889  2.3697
 9015SOL    HW238508   1.401   0.798   5.689  0.7177  0.4434  1.1925
 9016SOL     OW38509   1.570   3.454   1.236  0.1903 -0.0585 -0.2238
 9016SOL    HW138510   1.579   3.445   1.141 -1.6324 -0.5503 -0.3416
 9016SOL    HW238511   1.502   3.520   1.246  1.3940  0.6954  2.8694
 9017SOL     OW38512   0.909   1.401   4.452  0.1924 -0.4956 -0.0636
 9017SOL    HW138513   0.827   1.438   4.484 -0.5455 -1.5597 -0.7153
 9017SOL    HW238514   0.971   1.474   4.448 -0.6289  0.2872  1.6238
 9018SOL     OW38515   2.051   3.872   1.775  0.1738 -0.2093 -0.2444
 9018SOL    HW138516   2.032   3.779   1.762 -1.0702 -0.1775  1.2873
 9018SOL    HW238517   2.003   3.889   1.856 -1.3849 -1.6268 -0.8597
 9019SOL     OW38518   3.340   2.255   6.223  0.2124 -0.3461  0.3655
 9019SOL    HW138519   3.431   2.226   6.212  0.4202  0.8212 -0.9987
 9019SOL    HW238520   3.316   2.203   6.299  0.6014  1.4931  1.7508
 9020SOL     OW38521   1.022   3.355  13.935 -0.0246 -0.1621 -0.1975
 9020SOL    HW138522   1.000   3.394  13.851  0.2174 -0.0122 -0.1923
 9020SOL    HW238523   0.942   3.377  13.983  0.0416 -1.4128  0.4920
 9021SOL     OW38524   0.059   1.261  17.404  0.0718 -0.1008 -0.1023
 9021SOL    HW138525   0.028   1.338  17.453 -0.0684 -0.7653  0.8521
 9021SOL    HW238526   0.007   1.190  17.441  1.2694 -0.2020  1.3902
 9022SOL     OW38527   3.454   1.684  16.592  0.3852  0.1637  0.7839
 9022SOL    HW138528   3.550   1.688  16.596  0.4032  0.0210  0.5211
 9022SOL    HW238529   3.446   1.667  16.498 -0.3907 -1.3338  1.1197
 9023SOL     OW38530   2.333   0.163  12.340 -0.1177 -0.2619 -0.6430
 9023SOL    HW138531   2.354   0.181  12.431 -2.4923 -0.0567 -0.1295
 9023SOL    HW238532   2.303   0.245  12.299  0.6757 -0.5319 -1.7512
 9024SOL     OW38533   4.508   0.038   0.650 -0.2742 -0.0441  0.2201
 9024SOL    HW138534   4.565   0.107   0.617 -0.6011 -0.6794 -1.7067
 9024SOL    HW238535   4.569   4.703   0.693 -1.5211 -1.5665 -0.0762
 9025SOL     OW38536   0.959   0.318   8.926 -0.5869 -0.2812 -0.8289
 9025SOL    HW138537   0.903   0.365   8.864  3.3713 -0.9440 -4.8347
 9025SOL    HW238538   0.915   0.321   9.011 -2.4266 -0.4233 -1.7727
 9026SOL     OW38539   3.936   1.531  14.121  0.2036 -0.2437  0.2701
 9026SOL    HW138540   3.879   1.608  14.118 -0.5795 -0.8322  0.0936
 9026SOL    HW238541   3.954   1.512  14.029  3.0579  2.2041  0.3300
 9027SOL     OW38542   3.568   2.311   5.512 -0.3355 -0.2243  0.4796
 9027SOL    HW138543   3.504   2.249   5.478 -0.9569  0.2879  0.7358
 9027SOL    HW238544   3.598   2.369   5.441  1.1658 -0.0863  1.2199
 9028SOL     OW38545   2.591   1.193   6.981 -0.3741 -0.6878  0.2231
 9028SOL    HW138546   2.650   1.265   6.958 -0.2188 -0.7422  0.4474
 9028SOL    HW238547   2.587   1.203   7.077  1.9657  0.2894  0.2221
 9029SOL     OW38548   1.772   4.112   3.104  0.0418  0.1051 -0.2462
 9029SOL    HW138549   1.776   4.017   3.116  0.0614 -0.1633 -2.2935
 9029SOL    HW238550   1.789   4.148   3.191  0.1212  0.3894 -0.3786
 9030SOL     OW38551   3.353   2.954   4.032 -0.5329 -0.1711 -0.0520
 9030SOL    HW138552   3.420   3.022   4.023  2.0381 -2.6936 -0.0469
 9030SOL    HW238553   3.366   2.901   3.953  2.0392  0.7064 -0.2173
 9031SOL     OW38554   2.466   1.108   7.773  0.0270  0.0641 -0.0416
 9031SOL    HW138555   2.552   1.084   7.807  0.6830 -0.2375 -1.9188
 9031SOL    HW238556   2.429   1.151   7.850  3.1407  0.5532  1.1780
 9032SOL     OW38557   3.203   0.119   5.513  0.4147  0.3101  0.5629
 9032SOL    HW138558   3.209   0.110   5.608 -1.0115 -0.7656  0.5552
 9032SOL    HW238559   3.287   0.161   5.494 -0.1623  0.2593 -2.0785
 9033SOL     OW38560   1.036   1.214   7.997 -0.4447  0.0650 -0.2595
 9033SOL    HW138561   1.071   1.129   8.024 -0.9985 -1.0247 -2.9672
 9033SOL    HW238562   1.067   1.261   8.074 -2.7682  0.0406  0.6735
 9034SOL     OW38563   2.025   3.577   4.022 -0.0427 -0.5861 -0.3041
 9034SOL    HW138564   2.008   3.569   3.928  4.5040 -2.1894 -0.9984
 9034SOL    HW238565   1.935   3.567   4.052  0.6223 -0.1331  1.8969
 9035SOL     OW38566   1.148   4.298   2.414  0.3945  0.2027  0.2573
 9035SOL    HW138567   1.178   4.379   2.455  1.6045  0.3331 -0.8755
 9035SOL    HW238568   1.057   4.320   2.392  0.2244  1.1808  1.9496
 9036SOL     OW38569   0.557   3.943   7.499  0.1271 -0.2907  0.6675
 9036SOL    HW138570   0.605   4.008   7.446  0.4060 -1.0987 -0.0712
 9036SOL    HW238571   0.600   3.860   7.479 -0.2353 -0.3263  0.0390
 9037SOL     OW38572   0.142   4.003  11.111 -0.4123  0.0918  0.3624
 9037SOL    HW138573   0.132   4.097  11.099  1.4131  0.3631  0.8840
 9037SOL    HW238574   0.069   3.968  11.060 -0.4073  0.9760 -0.2333
 9038SOL     OW38575   0.602   3.619  10.323  0.2868  0.2506  0.3625
 9038SOL    HW138576   0.627   3.561  10.250 -0.1272 -1.0921  1.2877
 9038SOL    HW238577   0.540   3.560  10.366 -1.1086  1.9685  0.7029
 9039SOL     OW38578   3.473   0.504   1.774  0.5813  0.7600  0.0280
 9039SOL    HW138579   3.410   0.568   1.740 -1.9581 -1.0272  1.3723
 9039SOL    HW238580   3.461   0.503   1.869 -0.5744 -2.1898 -0.1481
 9040SOL     OW38581   2.508   3.713   0.928 -0.0364  0.1522 -0.3738
 9040SOL    HW138582   2.596   3.692   0.897 -0.0990  1.1959 -1.2563
 9040SOL    HW238583   2.520   3.798   0.970  0.5110 -0.9843  1.7908
 9041SOL     OW38584   2.886   4.303   8.271 -0.4580  0.3217  0.1158
 9041SOL    HW138585   2.937   4.252   8.334  1.7012  1.9707 -0.2678
 9041SOL    HW238586   2.799   4.278   8.302 -0.5977  0.4566 -0.1702
 9042SOL     OW38587   0.111   3.648  14.732 -0.1004  1.0340 -0.6015
 9042SOL    HW138588   0.066   3.727  14.763 -0.1849  0.7199  0.0738
 9042SOL    HW238589   0.179   3.637  14.799 -1.0803  2.4058  0.6246
 9043SOL     OW38590   2.284   0.313  10.935  0.8887  0.4023  0.2359
 9043SOL    HW138591   2.292   0.221  10.909 -1.2348  0.5049 -0.8002
 9043SOL    HW238592   2.371   0.328  10.972  0.4221 -1.1458  1.9624
 9044SOL     OW38593   4.718   1.849   2.591  0.3115  0.1952 -0.4435
 9044SOL    HW138594   0.076   1.821   2.632 -0.0455  2.4635  1.8263
 9044SOL    HW238595   4.683   1.902   2.662  1.2266  1.5888 -1.0192
 9045SOL     OW38596   3.662   1.030   7.792 -0.6672  0.0169 -0.3017
 9045SOL    HW138597   3.575   1.066   7.812 -0.2435  1.0346 -0.3069
 9045SOL    HW238598   3.656   1.017   7.697  0.0605  1.1517 -0.5016
 9046SOL     OW38599   1.484   3.964   7.425  0.2402 -0.4551 -0.3844
 9046SOL    HW138600   1.526   3.897   7.372 -0.1306 -1.1883  0.2536
 9046SOL    HW238601   1.535   3.958   7.506 -0.3170 -0.5520 -0.0486
 9047SOL     OW38602   1.091   2.130   9.235  0.6684  0.7413  0.1280
 9047SOL    HW138603   1.067   2.093   9.319 -0.0733  0.7215 -0.0925
 9047SOL    HW238604   1.107   2.051   9.184 -0.5655  1.0028 -0.6559
 9048SOL     OW38605   0.513   0.587   0.522 -0.3078  0.4498  0.1429
 9048SOL    HW138606   0.438   0.531   0.543 -1.0934  0.4104 -2.7656
 9048SOL    HW238607   0.565   0.582   0.602 -1.6368  0.5424  1.0186
 9049SOL     OW38608   0.011   0.911   6.087 -0.7037  0.1407  0.3381
 9049SOL    HW138609   4.673   0.843   6.057  1.2771 -0.4436 -2.4716
 9049SOL    HW238610   4.677   0.968   6.138 -1.5014  0.8888 -1.4039
 9050SOL     OW38611   4.468   2.371  11.788 -0.1065  0.5005 -0.2409
 9050SOL    HW138612   4.394   2.332  11.834  0.3979 -1.0821 -0.7561
 9050SOL    HW238613   4.540   2.336  11.841 -0.5542 -0.8290 -0.5080
 9051SOL     OW38614   3.518   4.192   7.082  0.1376 -0.1276 -0.6314
 9051SOL    HW138615   3.589   4.236   7.128 -1.3558 -0.9078  2.3727
 9051SOL    HW238616   3.460   4.163   7.152  0.8204  1.3373  0.5432
 9052SOL     OW38617   0.739   1.731   3.969  0.4229  0.0943 -0.5092
 9052SOL    HW138618   0.711   1.675   3.896  0.0268 -0.6846  0.2433
 9052SOL    HW238619   0.655   1.774   3.982 -0.5934 -2.2610  0.7292
 9053SOL     OW38620   4.054   0.173   2.415 -0.6709 -0.0965  0.4898
 9053SOL    HW138621   4.087   0.235   2.479  0.7515  0.6709 -0.9735
 9053SOL    HW238622   4.001   0.225   2.354  2.5722  0.0017 -2.2594
 9054SOL     OW38623   3.254   1.085  15.092 -0.2099 -0.0301 -0.1826
 9054SOL    HW138624   3.253   1.027  15.168  0.7674  0.5335  0.2676
 9054SOL    HW238625   3.166   1.121  15.097  0.6225  1.8288  0.8440
 9055SOL     OW38626   4.340   0.399   0.085 -0.3023  1.0488  0.7065
 9055SOL    HW138627   4.390   0.330   0.041  3.8307  3.1707  2.0813
 9055SOL    HW238628   4.404   0.428   0.150  0.9956  1.0044 -0.5596
 9056SOL     OW38629   1.682   4.162   6.804  0.2378  0.2060  0.0249
 9056SOL    HW138630   1.630   4.082   6.800  0.6046 -0.0655  0.7357
 9056SOL    HW238631   1.694   4.170   6.899  1.6979  1.5841 -0.2813
 9057SOL     OW38632   0.630   2.954   6.431  0.1654  0.5589 -0.1687
 9057SOL    HW138633   0.659   3.028   6.484 -0.5090  0.6854  0.0220
 9057SOL    HW238634   0.611   3.009   6.355  0.8458 -0.0419 -0.7723
 9058SOL     OW38635   3.009   3.640   4.523 -0.1741  0.0070 -0.9923
 9058SOL    HW138636   3.006   3.731   4.552  2.0570  0.3709 -1.9164
 9058SOL    HW238637   3.090   3.619   4.569  0.7849  3.0398 -1.3219
 9059SOL     OW38638   1.205   3.194   5.919  0.1508  0.2971 -0.4581
 9059SOL    HW138639   1.246   3.275   5.949  1.6146 -1.1503  1.4396
 9059SOL    HW238640   1.200   3.133   5.993  3.1495  2.2839  1.3679
 9060SOL     OW38641   4.495   2.227   7.450  0.4586  0.4631  0.1153
 9060SOL    HW138642   4.567   2.285   7.427  1.2919 -1.5306 -2.3235
 9060SOL    HW238643   4.548   2.162   7.495  0.2779  0.2826  0.0649
 9061SOL     OW38644   4.710   4.517  14.207 -0.3367  0.0374  0.2472
 9061SOL    HW138645   4.629   4.473  14.180 -0.4498 -0.8677  2.1108
 9061SOL    HW238646   0.001   4.571  14.129 -0.7319  0.8002  0.6992
 9062SOL     OW38647   1.195   0.833   5.432 -0.5912 -0.4990 -0.2368
 9062SOL    HW138648   1.274   0.806   5.385 -1.2792 -0.8151 -1.2257
 9062SOL    HW238649   1.129   0.807   5.367 -1.0543  0.7376 -0.2622
 9063SOL     OW38650   0.356   4.507   2.805  0.0649 -0.2078 -0.8720
 9063SOL    HW138651   0.324   4.483   2.718 -2.2163  2.4312 -0.7751
 9063SOL    HW238652   0.313   4.451   2.869  0.0856 -0.4474 -1.0681
 9064SOL     OW38653   0.415   2.802  13.043 -0.0882  0.0063  0.2555
 9064SOL    HW138654   0.500   2.837  13.072 -0.6194  0.0520  1.7631
 9064SOL    HW238655   0.424   2.802  12.948 -0.8647 -0.8634  0.1791
 9065SOL     OW38656   1.502   2.378   6.968 -0.3004 -0.9862 -0.3774
 9065SOL    HW138657   1.590   2.362   6.935  1.0077 -1.3043  3.2464
 9065SOL    HW238658   1.463   2.304   6.921 -2.5404  0.3152 -0.5520
 9066SOL     OW38659   4.347   3.471  14.714  0.3554 -0.1450 -0.1755
 9066SOL    HW138660   4.357   3.376  14.715  2.1583  0.0322 -1.9665
 9066SOL    HW238661   4.435   3.502  14.731  0.3341 -0.3179  0.2393
 9067SOL     OW38662   0.856   3.886   2.507  0.0909  0.5177  0.7496
 9067SOL    HW138663   0.863   3.981   2.499 -3.1629  0.6784 -0.1372
 9067SOL    HW238664   0.838   3.857   2.417  0.9745  0.8824  0.4486
 9068SOL     OW38665   2.256   3.741   3.334  0.3629  0.3278  0.5580
 9068SOL    HW138666   2.220   3.829   3.337 -0.6109 -0.0145 -0.7421
 9068SOL    HW238667   2.204   3.698   3.266 -0.7405 -0.2710  1.7862
 9069SOL     OW38668   2.757   1.804   2.411 -0.8853 -0.3059 -0.1176
 9069SOL    HW138669   2.824   1.811   2.343 -0.8584 -1.7437 -0.2355
 9069SOL    HW238670   2.765   1.710   2.424  5.2565  0.0055 -1.6657
 9070SOL     OW38671   4.589   1.590   3.252  0.3814 -0.3498  0.0825
 9070SOL    HW138672   4.630   1.598   3.339 -1.0957 -2.2867  0.9618
 9070SOL    HW238673   4.505   1.548   3.268  0.6881  0.1279  2.9964
 9071SOL     OW38674   3.873   1.551   1.726 -0.2408  0.9489  0.1803
 9071SOL    HW138675   3.869   1.494   1.803 -1.7161 -1.2311 -1.5077
 9071SOL    HW238676   3.957   1.594   1.743 -0.4395  0.8471  1.4281
 9072SOL     OW38677   3.426   3.051   6.674  0.6789  0.5121 -0.1621
 9072SOL    HW138678   3.406   3.114   6.605  0.5894  1.3566  0.6350
 9072SOL    HW238679   3.516   3.071   6.698  0.5903 -0.6464  1.1776
 9073SOL     OW38680   0.436   2.373   4.050 -0.6102 -0.2494 -0.3938
 9073SOL    HW138681   0.450   2.434   4.123  1.2303 -0.1221 -0.8632
 9073SOL    HW238682   0.371   2.314   4.088 -0.2455 -1.6300 -1.9206
 9074SOL     OW38683   0.486   2.604   0.676  0.2036 -0.2796 -0.3390
 9074SOL    HW138684   0.508   2.661   0.750  2.5397 -0.3372 -0.9913
 9074SOL    HW238685   0.428   2.669   0.635  1.8859  0.2591 -1.8367
 9075SOL     OW38686   2.997   2.853  16.877 -0.1739 -0.0202 -0.2011
 9075SOL    HW138687   2.978   2.939  16.839  0.3864  0.5983  0.9216
 9075SOL    HW238688   3.066   2.879  16.938 -0.6768  1.9297 -0.4725
 9076SOL     OW38689   3.443   1.958   8.231 -0.5227 -0.2865 -0.3040
 9076SOL    HW138690   3.530   1.975   8.267 -0.4393  0.7207 -0.9651
 9076SOL    HW238691   3.439   1.864   8.244  0.0980 -0.2282  0.3299
 9077SOL     OW38692   1.303   1.753  12.562  0.3462  0.9906  0.0828
 9077SOL    HW138693   1.255   1.759  12.644  0.9692  2.4738  0.3414
 9077SOL    HW238694   1.377   1.697  12.585  0.1915  0.4241 -0.7889
 9078SOL     OW38695   3.973   3.706   4.594  0.2521 -0.0845 -0.2143
 9078SOL    HW138696   3.923   3.779   4.632 -0.1270  0.3686 -1.6007
 9078SOL    HW238697   4.008   3.681   4.680  0.6579  2.5801  0.3812
 9079SOL     OW38698   4.192   3.577  10.179  0.2146 -0.2237 -0.1537
 9079SOL    HW138699   4.281   3.612  10.176  0.2778 -0.3794 -0.0720
 9079SOL    HW238700   4.152   3.663  10.186  0.8101  0.1716 -1.5081
 9080SOL     OW38701   4.528   1.443   6.741 -0.4270  1.2297 -0.3851
 9080SOL    HW138702   4.543   1.366   6.795 -0.1511  1.1206 -0.6159
 9080SOL    HW238703   4.611   1.452   6.693 -1.1037  0.8115 -1.6303
 9081SOL     OW38704   1.791   4.287  10.960  0.3883 -0.3679  0.2806
 9081SOL    HW138705   1.872   4.337  10.974 -1.0457  1.7341  1.0219
 9081SOL    HW238706   1.793   4.272  10.865 -1.0365 -2.8566  0.6745
 9082SOL     OW38707   4.077   0.573   0.279 -0.6977 -0.2282 -0.1567
 9082SOL    HW138708   4.069   0.553   0.186 -0.9745 -0.8904  0.0105
 9082SOL    HW238709   4.133   0.499   0.301  0.2306  0.7350  0.6995
 9083SOL     OW38710   0.764   2.521   3.790 -0.5595  0.3177  0.5800
 9083SOL    HW138711   0.854   2.489   3.787 -0.1779  1.7196 -2.4911
 9083SOL    HW238712   0.715   2.447   3.826 -2.5405  0.9209 -0.9190
 9084SOL     OW38713   2.087   0.107  10.598  0.2180 -0.2289  0.2368
 9084SOL    HW138714   2.107   0.066  10.683  1.1002 -2.0047 -0.8291
 9084SOL    HW238715   2.007   0.147  10.632 -0.3538 -0.0031 -1.4117
 9085SOL     OW38716   2.676   1.820   9.329 -0.4348 -0.0668  0.5893
 9085SOL    HW138717   2.730   1.899   9.336  1.2943 -1.1948  0.1003
 9085SOL    HW238718   2.642   1.815   9.419  0.1088  0.1815  0.8140
 9086SOL     OW38719   3.900   3.406   7.341 -0.3887 -0.5002 -0.6973
 9086SOL    HW138720   3.958   3.479   7.361  0.0231 -0.9260 -0.3338
 9086SOL    HW238721   3.817   3.446   7.365  0.0557  0.4267 -0.6926
 9087SOL     OW38722   2.123   4.314  15.896 -0.1463 -0.1762 -0.1450
 9087SOL    HW138723   2.153   4.253  15.963  0.2832  0.9916  0.7225
 9087SOL    HW238724   2.029   4.327  15.908 -0.3298 -1.9717  0.4564
 9088SOL     OW38725   1.911   2.383   2.511  0.2444  0.1526  0.4376
 9088SOL    HW138726   1.899   2.288   2.518  1.5579 -0.1720 -1.9273
 9088SOL    HW238727   1.861   2.392   2.430  0.9535  0.9962  0.1005
 9089SOL     OW38728   3.956   4.294  11.320 -0.2718  0.5124 -0.3455
 9089SOL    HW138729   3.915   4.342  11.392 -0.3471  2.9946 -2.0490
 9089SOL    HW238730   3.984   4.218  11.371 -0.8090 -1.1481 -2.5659
 9090SOL     OW38731   4.042   3.504  13.600  0.1146 -0.4053  0.7004
 9090SOL    HW138732   4.007   3.414  13.603 -0.3862 -0.0939  4.1273
 9090SOL    HW238733   3.960   3.553  13.606  1.1798  1.3805  0.4731
 9091SOL     OW38734   0.698   1.182   8.995 -0.5333  0.3052  0.0858
 9091SOL    HW138735   0.611   1.146   9.011 -0.6389  0.0735 -1.0582
 9091SOL    HW238736   0.722   1.115   8.930 -0.4201  2.3921 -2.0010
 9092SOL     OW38737   1.251   2.397   5.389 -0.2894 -0.0875  0.3769
 9092SOL    HW138738   1.291   2.316   5.420  1.4846  1.5179  2.3314
 9092SOL    HW238739   1.233   2.437   5.474 -2.4039  0.3467 -0.2961
 9093SOL     OW38740   2.144   1.286   8.370  0.1431 -0.6702 -0.3719
 9093SOL    HW138741   2.210   1.273   8.438  0.9143 -1.8102 -1.3370
 9093SOL    HW238742   2.091   1.207   8.376 -2.7325  1.5463  3.4117
 9094SOL     OW38743   4.439   0.149   4.644  0.6177 -0.2135 -0.3810
 9094SOL    HW138744   4.479   0.235   4.654 -1.2313  0.5395  0.4580
 9094SOL    HW238745   4.347   0.168   4.660  1.0331  1.2668  0.2118
 9095SOL     OW38746   1.736   1.768   2.890  0.8699 -0.5389 -0.0388
 9095SOL    HW138747   1.729   1.835   2.822 -0.5237 -0.4580  0.1726
 9095SOL    HW238748   1.676   1.704   2.851 -1.6676  1.0895  1.1590
 9096SOL     OW38749   3.219   1.980   8.888  0.1694 -0.4962  0.3627
 9096SOL    HW138750   3.270   1.972   8.969 -1.8505  2.3767  1.9047
 9096SOL    HW238751   3.164   2.054   8.910  3.1749  1.1073  2.5167
 9097SOL     OW38752   2.427   3.118   2.497 -0.2313  0.1905  0.4503
 9097SOL    HW138753   2.410   3.099   2.589 -0.8568  2.1612  0.7494
 9097SOL    HW238754   2.339   3.121   2.459  1.0215 -1.5937 -2.6317
 9098SOL     OW38755   3.840   4.304   3.171  0.4108  0.0864  0.1532
 9098SOL    HW138756   3.916   4.251   3.148  1.2467  1.4116 -0.0836
 9098SOL    HW238757   3.769   4.250   3.207  1.4110 -0.5240  1.2014
 9099SOL     OW38758   3.879   2.587   0.565  0.0038  0.3252 -0.0471
 9099SOL    HW138759   3.857   2.544   0.647 -1.3884 -1.7431 -1.5029
 9099SOL    HW238760   3.882   2.511   0.506 -1.0914  0.7932 -0.6895
 9100SOL     OW38761   2.103   1.295   5.997  0.3025  0.3850  0.1226
 9100SOL    HW138762   2.085   1.238   5.922 -2.3368  0.7218  0.4988
 9100SOL    HW238763   2.051   1.370   5.968 -1.5602 -1.1737 -0.6071
 9101SOL     OW38764   4.198   1.968   8.459  0.3193  0.2369  0.1889
 9101SOL    HW138765   4.147   2.049   8.449  2.9525  1.7607 -1.0086
 9101SOL    HW238766   4.155   1.915   8.392  1.2264  0.4099 -0.5331
 9102SOL     OW38767   2.589   2.128   8.545 -0.3912  0.2355 -0.3355
 9102SOL    HW138768   2.585   2.172   8.459 -0.6162 -0.0924 -0.4909
 9102SOL    HW238769   2.516   2.178   8.582 -0.4670 -0.5983  0.6283
 9103SOL     OW38770   3.468   2.594   3.613  0.6585 -0.5822  0.2984
 9103SOL    HW138771   3.513   2.545   3.544  0.0534  1.5866 -1.6282
 9103SOL    HW238772   3.543   2.619   3.667  0.0451 -1.3485  1.4994
 9104SOL     OW38773   0.038   0.712   3.840  0.2617  0.2391  0.3562
 9104SOL    HW138774   0.071   0.637   3.890  0.9874  1.1133  1.1923
 9104SOL    HW238775   0.010   0.673   3.758 -1.2538  0.1788  0.8994
 9105SOL     OW38776   4.173   0.964  12.706  0.5714  0.3666  0.2434
 9105SOL    HW138777   4.167   0.902  12.633  0.0770 -1.3126  1.7067
 9105SOL    HW238778   4.166   1.045  12.655 -3.1970  0.2095  0.5361
 9106SOL     OW38779   3.814   2.867   6.621 -0.1742  0.7601 -0.4658
 9106SOL    HW138780   3.868   2.803   6.666 -0.8360  0.1244 -0.5786
 9106SOL    HW238781   3.734   2.870   6.674  0.5017 -3.4613  0.7845
 9107SOL     OW38782   4.335   2.195   1.851 -0.4607 -0.4667  0.4438
 9107SOL    HW138783   4.395   2.212   1.924 -0.5662  0.9843  0.1946
 9107SOL    HW238784   4.275   2.268   1.863 -1.3611 -1.1132 -0.1555
 9108SOL     OW38785   0.900   0.826   1.409 -0.1534 -0.4806  0.3033
 9108SOL    HW138786   0.852   0.743   1.415  1.2884 -1.2261  1.5813
 9108SOL    HW238787   0.904   0.840   1.315 -0.6614  1.1644  0.5285
 9109SOL     OW38788   3.779   1.134  11.025 -0.6155 -0.0290  0.3571
 9109SOL    HW138789   3.800   1.046  10.993  0.4001  0.1178  0.6189
 9109SOL    HW238790   3.785   1.123  11.119 -2.5567  0.6739  0.5691
 9110SOL     OW38791   0.213   1.156   2.525 -0.4154  0.4621 -0.0168
 9110SOL    HW138792   0.233   1.070   2.489 -0.4320  0.4536 -0.0053
 9110SOL    HW238793   0.250   1.219   2.464  1.9728  0.1638  1.0923
 9111SOL     OW38794   0.822   2.048   8.651 -0.2768  0.8059 -0.4583
 9111SOL    HW138795   0.880   2.014   8.719 -0.3278  3.0210  0.6848
 9111SOL    HW238796   0.884   2.114   8.622 -1.2351  2.7289  1.8462
 9112SOL     OW38797   2.647   4.291   1.848  0.4867 -0.4238 -0.0857
 9112SOL    HW138798   2.613   4.312   1.936 -0.9311 -2.4133 -0.1705
 9112SOL    HW238799   2.602   4.210   1.829  3.7706 -2.0486 -0.9172
 9113SOL     OW38800   3.317   4.691   7.241 -0.8154  0.4747  0.0557
 9113SOL    HW138801   3.252   0.034   7.220 -0.6994  0.6899  0.3732
 9113SOL    HW238802   3.294   4.659   7.329  1.5529 -2.6647 -0.4617
 9114SOL     OW38803   2.997   3.198  14.214 -0.0960  0.0602 -0.3171
 9114SOL    HW138804   3.006   3.261  14.286 -1.7897  1.7103 -1.5729
 9114SOL    HW238805   2.946   3.130  14.259 -0.3264  1.5404  1.6784
 9115SOL     OW38806   4.361   4.092   6.392 -0.2840  0.6994  0.0207
 9115SOL    HW138807   4.406   4.157   6.447 -1.5281 -0.1891  2.0651
 9115SOL    HW238808   4.270   4.119   6.403 -0.9758 -1.7848  0.2917
 9116SOL     OW38809   1.490   0.343   5.235  0.0112 -0.3535  0.7113
 9116SOL    HW138810   1.551   0.304   5.172  2.7752 -0.8200  3.6938
 9116SOL    HW238811   1.459   0.414   5.178  0.0938 -1.4112 -0.6460
 9117SOL     OW38812   2.827   4.002   3.488  0.1348  0.6440 -0.5212
 9117SOL    HW138813   2.805   3.940   3.419  0.0935 -0.7499  0.7423
 9117SOL    HW238814   2.918   4.025   3.470  0.1967  1.3002  0.6478
 9118SOL     OW38815   3.074   3.189   6.228  0.4248 -0.0857 -0.7144
 9118SOL    HW138816   3.010   3.219   6.164  0.0304 -0.8502 -0.6801
 9118SOL    HW238817   3.021   3.187   6.308  0.5921 -4.5568 -0.7068
 9119SOL     OW38818   1.036   3.670  10.066  0.4034 -0.9471 -0.2450
 9119SOL    HW138819   1.011   3.735  10.132  0.1410  1.5335 -2.8153
 9119SOL    HW238820   1.029   3.588  10.115  1.9432 -0.6329  0.4956
 9120SOL     OW38821   1.760   2.282   5.271  0.6039 -0.3556  0.9198
 9120SOL    HW138822   1.680   2.234   5.253  0.7513 -0.2028 -0.1003
 9120SOL    HW238823   1.739   2.306   5.362 -1.6893  0.8170  0.0763
 9121SOL     OW38824   0.194   0.420   0.141 -0.1230 -0.1024 -0.1338
 9121SOL    HW138825   0.171   0.466   0.221  0.1303 -0.4755  0.1519
 9121SOL    HW238826   0.272   0.474   0.127 -0.0450 -0.8208 -2.5821
 9122SOL     OW38827   3.301   2.832   0.152 -0.0952  0.3942 -0.3448
 9122SOL    HW138828   3.331   2.869   0.235 -4.5441  1.8360  0.6425
 9122SOL    HW238829   3.207   2.818   0.166  0.0059  0.9527  0.8950
 9123SOL     OW38830   2.348   2.940  13.020 -0.1539  0.5997  0.3619
 9123SOL    HW138831   2.255   2.946  13.039 -0.1685  0.3728  0.3710
 9123SOL    HW238832   2.350   2.844  13.027 -0.0979  0.5364 -0.5049
 9124SOL     OW38833   0.923   2.324  12.485 -0.2926  0.0690  0.8101
 9124SOL    HW138834   0.973   2.406  12.490 -1.6272  0.9177  0.2589
 9124SOL    HW238835   0.984   2.253  12.505 -2.9445 -2.2034  0.9257
 9125SOL     OW38836   4.410   4.122   3.088 -0.1966  0.2720  0.5328
 9125SOL    HW138837   4.468   4.047   3.090 -0.2632  0.2149  0.3408
 9125SOL    HW238838   4.333   4.072   3.115 -0.2975 -0.7776 -1.7022
 9126SOL     OW38839   1.459   3.213   0.201  0.2738 -0.6596  0.0767
 9126SOL    HW138840   1.528   3.260   0.248 -0.8320  1.5874 -0.5595
 9126SOL    HW238841   1.385   3.237   0.258  1.3395  2.7287  0.0080
 9127SOL     OW38842   0.242   0.875   8.965 -0.3049  0.1268  0.1776
 9127SOL    HW138843   0.231   0.865   8.871 -1.7678 -0.7543  0.4483
 9127SOL    HW238844   0.155   0.853   8.999 -0.1086  1.7596  1.7612
 9128SOL     OW38845   4.326   2.329   2.265  0.4325 -0.0289  0.0745
 9128SOL    HW138846   4.314   2.238   2.237  0.1045 -0.4557  1.5824
 9128SOL    HW238847   4.416   2.330   2.295  0.9237 -1.8226 -1.3355
 9129SOL     OW38848   1.811   1.593   1.479  0.6661 -0.0528 -0.0590
 9129SOL    HW138849   1.819   1.501   1.458  1.3479  0.3668 -1.5899
 9129SOL    HW238850   1.831   1.589   1.573 -1.0820 -0.9831  0.2772
 9130SOL     OW38851   0.674   3.071   0.080  0.9989  0.1337 -0.1197
 9130SOL    HW138852   0.655   3.101   0.169 -0.5505  1.1906 -0.8011
 9130SOL    HW238853   0.693   3.152   0.034  2.2090  0.5402  1.1065
 9131SOL     OW38854   3.855   3.139   4.052 -0.1463  0.5512  0.2161
 9131SOL    HW138855   3.892   3.195   4.120 -0.5835 -1.8444  2.4401
 9131SOL    HW238856   3.762   3.161   4.043 -0.3579  0.5151  2.3549
 9132SOL     OW38857   3.421   3.807  12.130 -0.1376 -0.1462 -0.4272
 9132SOL    HW138858   3.338   3.774  12.166 -0.6594  0.5986 -0.9411
 9132SOL    HW238859   3.441   3.873  12.196  0.1421  0.4949 -1.1560
 9133SOL     OW38860   1.805   1.606   9.681  0.1662 -0.5163  0.3124
 9133SOL    HW138861   1.761   1.521   9.686  0.7578 -0.9693 -2.2336
 9133SOL    HW238862   1.877   1.600   9.743 -1.0557 -0.1681  1.7661
 9134SOL     OW38863   0.932   1.395   6.725 -0.8176  0.6436  0.7542
 9134SOL    HW138864   0.962   1.482   6.698  3.0691 -0.8397  0.3519
 9134SOL    HW238865   1.007   1.374   6.780 -2.1036  0.0682  2.3050
 9135SOL     OW38866   2.788   4.156   5.498 -0.1848 -0.5168 -0.2789
 9135SOL    HW138867   2.778   4.242   5.458 -1.0700 -1.4029 -1.9944
 9135SOL    HW238868   2.761   4.167   5.588  1.4956  0.0442  0.1625
 9136SOL     OW38869   4.326   3.828   7.508 -0.3618  0.6237 -0.3908
 9136SOL    HW138870   4.362   3.756   7.456  0.2463  0.4545  0.2602
 9136SOL    HW238871   4.383   3.899   7.478  0.7449  0.0280  0.2731
 9137SOL     OW38872   2.370   2.965   4.843 -0.0729 -0.4885  0.2638
 9137SOL    HW138873   2.325   2.880   4.846  0.4526 -0.8398 -1.9243
 9137SOL    HW238874   2.300   3.029   4.854 -0.2399 -0.4543 -0.9578
 9138SOL     OW38875   2.355   0.458   7.827  0.3621 -0.6743 -0.4930
 9138SOL    HW138876   2.280   0.484   7.882  1.2666  2.8300 -0.9287
 9138SOL    HW238877   2.357   0.532   7.766  0.8001  0.4492  0.8718
 9139SOL     OW38878   0.425   2.876  11.500 -0.2245 -0.2748  0.0352
 9139SOL    HW138879   0.417   2.816  11.574  2.6701 -0.6852  0.0077
 9139SOL    HW238880   0.473   2.951  11.535  0.5591 -0.9383  0.3797
 9140SOL     OW38881   1.272   3.759   0.374 -0.3264 -0.0864 -0.5822
 9140SOL    HW138882   1.364   3.753   0.398 -0.8595 -0.7537  1.3209
 9140SOL    HW238883   1.248   3.669   0.352 -0.8741 -0.0144 -0.3031
 9141SOL     OW38884   0.865   2.820   6.478 -0.3720  0.0406 -0.1817
 9141SOL    HW138885   0.779   2.851   6.448 -1.0954 -2.3931 -0.6264
 9141SOL    HW238886   0.871   2.875   6.556 -2.0194 -2.3147  1.6021
 9142SOL     OW38887   2.562   3.819   9.920  0.0551 -0.1060  0.5332
 9142SOL    HW138888   2.547   3.736   9.876  0.5065 -0.9761  2.0072
 9142SOL    HW238889   2.471   3.841   9.940  0.3732  0.4113  1.4377
 9143SOL     OW38890   0.995   1.663   9.683 -0.1509  0.1197 -0.4952
 9143SOL    HW138891   1.042   1.687   9.604  0.5886 -0.2406 -0.1725
 9143SOL    HW238892   0.933   1.601   9.645  0.6092 -0.9979  0.0797
 9144SOL     OW38893   0.012   1.161  11.703 -0.1616  0.1606 -0.0922
 9144SOL    HW138894   0.031   1.158  11.797  0.3120  0.7911 -0.1664
 9144SOL    HW238895   4.663   1.223  11.698 -1.3182 -1.2458 -0.9028
 9145SOL     OW38896   1.809   2.964   3.976  0.4935  0.1827  0.1274
 9145SOL    HW138897   1.781   3.011   4.054  0.0959 -3.0880  1.9488
 9145SOL    HW238898   1.821   2.875   4.009  1.0033  0.8661  1.7494
 9146SOL     OW38899   0.889   3.062  15.966 -0.4635 -0.0472  0.1797
 9146SOL    HW138900   0.959   3.119  15.999 -1.5597  0.4330  1.6624
 9146SOL    HW238901   0.866   3.017  16.047 -1.6084 -0.8407 -0.5847
 9147SOL     OW38902   3.197   4.415  16.224 -0.2597  0.2544  0.2324
 9147SOL    HW138903   3.157   4.472  16.290  2.2961  0.0975  1.9015
 9147SOL    HW238904   3.193   4.332  16.272  1.3957  0.3237  0.4987
 9148SOL     OW38905   0.209   0.151   8.642  0.4733 -0.3478  0.1849
 9148SOL    HW138906   0.219   0.196   8.558 -0.7348  1.7789  1.2093
 9148SOL    HW238907   0.265   0.206   8.697  0.6450  1.6340 -1.9810
 9149SOL     OW38908   0.362   0.318   2.022  0.4937  0.1200  0.9418
 9149SOL    HW138909   0.280   0.363   2.005 -0.6449 -1.9029  1.0505
 9149SOL    HW238910   0.354   0.327   2.117  0.7851  1.1120  0.8767
 9150SOL     OW38911   4.525   3.836   0.262 -0.0016  0.1346  0.9821
 9150SOL    HW138912   4.475   3.906   0.304 -1.0440  0.1802 -0.3462
 9150SOL    HW238913   4.618   3.854   0.279  0.0463 -0.1129  0.9896
 9151SOL     OW38914   0.708   3.317   2.085  0.8023  0.4529 -0.1131
 9151SOL    HW138915   0.695   3.390   2.146  1.2735  1.0657 -0.7432
 9151SOL    HW238916   0.635   3.261   2.110  0.8198 -0.0976 -1.3037
 9152SOL     OW38917   4.404   1.758   8.137  0.0037  0.1322  0.0553
 9152SOL    HW138918   4.369   1.754   8.226  3.1472 -2.7988  1.1379
 9152SOL    HW238919   4.402   1.850   8.111 -0.7177 -0.0496 -0.5105
 9153SOL     OW38920   2.150   0.120   6.673  0.5159 -0.0226 -0.2071
 9153SOL    HW138921   2.092   0.190   6.643 -1.0604 -0.9112  0.7986
 9153SOL    HW238922   2.232   0.169   6.664  1.1650 -1.0670  0.0147
 9154SOL     OW38923   3.164   2.197   1.379  0.0025 -0.4491  0.7230
 9154SOL    HW138924   3.127   2.285   1.392 -0.9117 -0.6925 -0.2729
 9154SOL    HW238925   3.103   2.156   1.318 -0.8460  2.4694 -0.3866
 9155SOL     OW38926   2.971   0.353   1.654 -0.5098 -0.5444 -0.0863
 9155SOL    HW138927   3.042   0.290   1.639  0.7779  1.0333 -0.6511
 9155SOL    HW238928   2.897   0.299   1.625  0.2203 -1.2000 -0.7436
 9156SOL     OW38929   1.028   1.328   5.424 -0.1033 -0.4080  0.5276
 9156SOL    HW138930   1.040   1.244   5.468 -0.6481 -0.6137  0.2888
 9156SOL    HW238931   0.954   1.294   5.374  0.2210 -1.1342  0.5343
 9157SOL     OW38932   1.732   3.387   5.699  0.1217 -0.5886 -0.3688
 9157SOL    HW138933   1.712   3.349   5.613 -0.5306  0.0396 -0.4963
 9157SOL    HW238934   1.781   3.466   5.678 -2.9796  0.9693 -1.6957
 9158SOL     OW38935   4.416   2.868   3.731 -0.2211 -0.0453  0.1725
 9158SOL    HW138936   4.359   2.845   3.804 -0.2647 -0.6824 -0.0582
 9158SOL    HW238937   4.358   2.917   3.672  0.4769 -0.9229 -1.2536
 9159SOL     OW38938   1.429   2.366   4.594 -0.3937  0.7229 -0.2877
 9159SOL    HW138939   1.482   2.406   4.525  1.8116 -1.0778  0.3580
 9159SOL    HW238940   1.419   2.283   4.548  2.2130 -0.6021  1.4948
 9160SOL     OW38941   2.237   3.249   8.587  0.0011  0.1695  0.0998
 9160SOL    HW138942   2.234   3.287   8.675  1.9714  1.0953 -0.2420
 9160SOL    HW238943   2.267   3.329   8.543  0.9327 -0.1760  0.1183
 9161SOL     OW38944   3.660   4.090   7.548 -0.5679  0.1321  0.3941
 9161SOL    HW138945   3.578   4.106   7.595  0.1034 -0.8362  1.8995
 9161SOL    HW238946   3.686   4.005   7.585  1.7090  0.7372  0.2241
 9162SOL     OW38947   2.164   1.893   8.636 -0.2974 -0.4197  0.0782
 9162SOL    HW138948   2.176   1.818   8.578 -0.7000  0.7723 -1.5345
 9162SOL    HW238949   2.220   1.872   8.711 -0.8665  0.3230  0.7190
 9163SOL     OW38950   1.049   4.181   3.610 -0.1491 -0.2174 -0.0172
 9163SOL    HW138951   0.996   4.129   3.671 -1.6798  0.4460 -0.7712
 9163SOL    HW238952   1.033   4.272   3.635 -2.6424 -0.6419 -0.0736
 9164SOL     OW38953   2.456   4.251   4.577 -0.0501 -0.2790  0.3494
 9164SOL    HW138954   2.409   4.245   4.660  0.0850 -2.6422  0.2577
 9164SOL    HW238955   2.400   4.226   4.503  1.4827  1.0728 -1.2933
 9165SOL     OW38956   4.133   2.621   6.732 -0.2674  0.6078  0.8031
 9165SOL    HW138957   4.048   2.635   6.775  1.2815  0.7481  3.7447
 9165SOL    HW238958   4.190   2.686   6.772 -0.6165  1.2367  0.2916
 9166SOL     OW38959   2.600   0.186   8.805 -0.4239  0.0781  0.1500
 9166SOL    HW138960   2.513   0.199   8.766 -1.2368  2.1386  2.5956
 9166SOL    HW238961   2.639   0.273   8.795 -1.5753  0.9593  3.0245
 9167SOL     OW38962   0.807   2.567   3.111 -0.1692  0.4327  0.4319
 9167SOL    HW138963   0.734   2.608   3.064  0.9149  0.7386 -0.9915
 9167SOL    HW238964   0.789   2.583   3.204 -3.0661 -0.0514 -0.0257
 9168SOL     OW38965   2.142   2.063  17.326 -0.5276  0.1546 -0.0049
 9168SOL    HW138966   2.113   1.995  17.266  0.3927 -1.0057  0.8553
 9168SOL    HW238967   2.204   2.009  17.376  0.1212 -0.8429 -1.9107
 9169SOL     OW38968   0.225   3.138  16.267  0.5446  0.2440 -0.4184
 9169SOL    HW138969   0.174   3.062  16.295  0.4347  0.2303 -0.6588
 9169SOL    HW238970   0.223   3.116  16.174 -1.3035  0.9571 -0.5411
 9170SOL     OW38971   4.247   1.644  10.534 -0.1807  0.6367  0.1234
 9170SOL    HW138972   4.271   1.555  10.506 -1.5759  0.3476 -0.1809
 9170SOL    HW238973   4.173   1.619  10.590  0.6427  0.1286  0.9748
 9171SOL     OW38974   2.297   3.433   6.264  0.6858 -0.2613 -0.3840
 9171SOL    HW138975   2.258   3.481   6.337 -0.5672 -0.9230 -0.6264
 9171SOL    HW238976   2.336   3.498   6.206  1.7976 -1.1649 -0.6479
 9172SOL     OW38977   2.663   2.845   8.555  0.0589 -0.5153 -0.1084
 9172SOL    HW138978   2.719   2.822   8.629 -2.5794 -1.6306  1.5678
 9172SOL    HW238979   2.631   2.762   8.519  0.6062 -0.6535 -0.2698
 9173SOL     OW38980   0.692   4.141  17.500  0.0230  0.0898 -0.4199
 9173SOL    HW138981   0.744   4.123  17.422  0.1640 -2.4734  0.2656
 9173SOL    HW238982   0.601   4.121  17.477 -0.2235 -0.1674  0.7324
 9174SOL     OW38983   0.482   2.785  10.677 -0.3551 -0.2223  0.3461
 9174SOL    HW138984   0.445   2.741  10.601  0.3416 -1.8313  0.9351
 9174SOL    HW238985   0.522   2.708  10.716 -0.5090 -1.1488 -1.3657
 9175SOL     OW38986   4.262   3.214   3.700  0.0345 -1.0163  0.6948
 9175SOL    HW138987   4.297   3.253   3.620 -2.7160 -1.2270 -0.6063
 9175SOL    HW238988   4.191   3.165   3.661 -0.1996 -0.6854  0.7041
 9176SOL     OW38989   1.795   2.089   7.907  1.1770  0.2218 -0.0139
 9176SOL    HW138990   1.885   2.057   7.902 -0.1064 -3.3282 -0.2279
 9176SOL    HW238991   1.813   2.155   7.973 -0.5223  1.3056 -0.6246
 9177SOL     OW38992   2.926   3.057  13.926 -0.2968  0.6115 -0.3273
 9177SOL    HW138993   2.976   3.019  13.855  0.0897  0.3546  0.0831
 9177SOL    HW238994   2.841   3.042  13.884 -0.7295 -1.0452  1.1350
 9178SOL     OW38995   3.952   0.225   8.298 -0.0685  0.3385  0.0734
 9178SOL    HW138996   3.948   0.310   8.341  1.6941 -0.2691  1.4707
 9178SOL    HW238997   3.860   0.215   8.277  0.0435 -1.5858  0.5057
 9179SOL     OW38998   1.898   1.072   5.435 -0.5317  0.2570 -0.6376
 9179SOL    HW138999   1.838   1.140   5.466  1.0882  0.9023  1.1092
 9179SOL    HW239000   1.932   1.029   5.514 -1.0768  0.1574 -0.4617
 9180SOL     OW39001   4.097   3.855   4.375  0.6521  0.2533 -0.1280
 9180SOL    HW139002   4.090   3.792   4.304  0.9463 -0.1461  0.1929
 9180SOL    HW239003   4.064   3.807   4.452  2.6880  0.1066  0.6625
 9181SOL     OW39004   4.052   3.843   9.210 -0.0545 -0.0247  0.0597
 9181SOL    HW139005   4.057   3.761   9.259 -0.0624  0.9898  1.7478
 9181SOL    HW239006   3.971   3.882   9.242 -0.5172 -1.7426  0.9875
 9182SOL     OW39007   2.346   2.400  16.721  0.2240 -0.0349  0.1711
 9182SOL    HW139008   2.439   2.412  16.703  0.2107  0.4433  0.4148
 9182SOL    HW239009   2.308   2.346  16.653  1.2002 -0.4860 -0.0108
 9183SOL     OW39010   0.162   0.352   9.481 -0.0478 -0.5600  0.4811
 9183SOL    HW139011   0.213   0.311   9.411  1.1704 -0.2758  1.2099
 9183SOL    HW239012   0.214   0.321   9.555  0.1262 -0.2962  0.4680
 9184SOL     OW39013   1.501   0.543   2.845 -0.4443  0.0738  0.0071
 9184SOL    HW139014   1.459   0.580   2.922 -2.1657  0.7761 -1.2603
 9184SOL    HW239015   1.562   0.486   2.893 -1.6702 -0.6105  0.7616
 9185SOL     OW39016   1.877   2.999   9.284 -0.9137  0.3128  0.3992
 9185SOL    HW139017   1.936   3.074   9.287 -0.9517  0.5569 -4.5735
 9185SOL    HW239018   1.926   2.946   9.221 -0.5338  0.4410  0.5865
 9186SOL     OW39019   2.562   3.186   5.961 -0.0186  0.6488  0.0535
 9186SOL    HW139020   2.491   3.162   6.020  0.4076  0.3243  0.4353
 9186SOL    HW239021   2.615   3.253   6.006 -1.1781 -0.0846  2.5027
 9187SOL     OW39022   3.025   1.768   6.895 -0.5793  0.1374 -0.6289
 9187SOL    HW139023   2.968   1.843   6.879  1.8243  2.2847  0.8814
 9187SOL    HW239024   3.008   1.704   6.826 -1.9823  0.6773 -0.7901
 9188SOL     OW39025   1.075   1.347  12.724  0.1374  0.3840 -0.0438
 9188SOL    HW139026   1.090   1.441  12.735 -1.9492  0.5067  1.8743
 9188SOL    HW239027   1.158   1.308  12.697  0.6942  1.4621  0.1181
 9189SOL     OW39028   0.589   1.221   2.002  0.0494  0.2628 -0.0659
 9189SOL    HW139029   0.582   1.317   2.000 -1.1389  0.1358 -1.5768
 9189SOL    HW239030   0.499   1.194   1.984  0.2900  0.6194 -1.8226
 9190SOL     OW39031   2.655   1.340   6.436  0.3210  0.7696  0.5324
 9190SOL    HW139032   2.654   1.246   6.450  0.5512  0.7357  0.3073
 9190SOL    HW239033   2.562   1.362   6.433  0.1418  0.1593  1.7258
 9191SOL     OW39034   4.639   1.019   7.770 -0.1699  0.2707 -0.0920
 9191SOL    HW139035   4.665   0.961   7.698 -2.1782  0.2621 -0.8000
 9191SOL    HW239036   4.683   1.101   7.749 -0.1689  0.7281  1.6737
 9192SOL     OW39037   0.129   1.654   5.844  0.2197  0.6567  0.1961
 9192SOL    HW139038   0.155   1.588   5.781 -1.1693 -0.0410  0.3652
 9192SOL    HW239039   0.185   1.633   5.919  0.5579 -1.3913 -0.6609
 9193SOL     OW39040   3.181   3.140   5.620  0.0376 -0.6501 -0.0296
 9193SOL    HW139041   3.118   3.153   5.549 -0.9103 -0.9851  0.7503
 9193SOL    HW239042   3.189   3.045   5.615 -0.6897 -0.7993  1.7624
 9194SOL     OW39043   4.614   1.935   2.828 -0.3439 -0.2874 -0.7740
 9194SOL    HW139044   4.563   2.017   2.832 -0.5982 -0.5229  1.0751
 9194SOL    HW239045   4.636   1.919   2.920 -1.7232 -1.2596 -0.6136
 9195SOL     OW39046   0.173   3.875  12.684 -0.0222  0.0611 -0.1575
 9195SOL    HW139047   0.258   3.916  12.703 -0.8623  1.0923  1.4162
 9195SOL    HW239048   0.195   3.783  12.666 -1.4888 -0.0016 -1.6482
 9196SOL     OW39049   3.572   1.371   2.784  0.6725 -0.7439  0.7520
 9196SOL    HW139050   3.551   1.281   2.809 -0.7526 -0.0013  2.2232
 9196SOL    HW239051   3.546   1.419   2.863 -0.2453  0.2516 -0.1609
 9197SOL     OW39052   4.683   4.204   2.574  0.1443 -1.0193 -0.0143
 9197SOL    HW139053   4.719   4.236   2.492  0.1629  0.2829  0.4960
 9197SOL    HW239054   4.669   4.281   2.630  0.4367 -0.8364 -0.1937
 9198SOL     OW39055   3.686   2.417  16.760  0.3704  0.0211  0.5286
 9198SOL    HW139056   3.779   2.418  16.785  0.1241  0.0644  1.4719
 9198SOL    HW239057   3.660   2.329  16.786  0.4373 -1.0484 -3.1667
 9199SOL     OW39058   1.308   3.436   6.680  0.2393 -0.4136  0.3839
 9199SOL    HW139059   1.332   3.351   6.644  2.9269  0.4209  0.2313
 9199SOL    HW239060   1.305   3.488   6.600  2.6887 -0.4236  0.2879
 9200SOL     OW39061   4.626   2.159   7.057  0.5600  0.3367  0.0358
 9200SOL    HW139062   4.556   2.185   7.117 -1.0458 -1.8827 -0.8716
 9200SOL    HW239063   4.581   2.168   6.972 -0.0484  1.8857  0.5113
 9201SOL     OW39064   4.431   4.119  17.277  0.6230  0.3933 -0.0509
 9201SOL    HW139065   4.457   4.032  17.245  2.5197 -0.1834  3.1710
 9201SOL    HW239066   4.336   4.105  17.268  0.2843  1.4269  1.9608
 9202SOL     OW39067   0.494   0.313   3.461  0.8632 -0.0951  0.3558
 9202SOL    HW139068   0.479   0.353   3.375 -0.1520  0.2469  0.6874
 9202SOL    HW239069   0.462   0.387   3.513 -0.8912 -0.7254  0.1653
 9203SOL     OW39070   0.512   1.236   4.284  0.6455  0.4552  0.3932
 9203SOL    HW139071   0.481   1.313   4.332  1.0077  0.9536 -0.1736
 9203SOL    HW239072   0.559   1.287   4.218 -1.6943  1.3038 -0.6102
 9204SOL     OW39073   0.639   2.355  11.007  0.1101  0.0688  0.5224
 9204SOL    HW139074   0.650   2.260  10.999 -2.4006 -0.1583 -0.2622
 9204SOL    HW239075   0.710   2.383  11.063  0.4213  0.6030 -0.1409
 9205SOL     OW39076   1.577   2.833   9.476  0.0521  1.0392 -0.2019
 9205SOL    HW139077   1.601   2.845   9.384 -0.1063  0.6380 -0.2960
 9205SOL    HW239078   1.482   2.831   9.466  0.1223  0.6714 -0.7760
 9206SOL     OW39079   4.541   1.926   4.847 -0.5461  0.3871 -0.2411
 9206SOL    HW139080   4.522   1.941   4.940  0.2410  0.9396 -0.1632
 9206SOL    HW239081   4.620   1.979   4.831 -0.2605  0.2348  0.6582
 9207SOL     OW39082   0.224   3.284   2.400  0.3405 -0.5670  0.2039
 9207SOL    HW139083   0.256   3.272   2.489  1.8430 -4.5743 -0.8766
 9207SOL    HW239084   0.298   3.330   2.360 -1.1575 -0.6379 -2.6492
 9208SOL     OW39085   0.521   2.215   6.535 -0.2771 -0.2472  0.2053
 9208SOL    HW139086   0.602   2.190   6.581 -1.4389 -0.3283  2.2128
 9208SOL    HW239087   0.566   2.286   6.489 -1.7938 -0.5227 -1.6894
 9209SOL     OW39088   0.871   2.865   8.414  0.0327 -0.3043 -0.3656
 9209SOL    HW139089   0.930   2.814   8.357 -0.5920 -0.1350 -1.1707
 9209SOL    HW239090   0.930   2.862   8.489 -0.5253 -0.0984  0.0827
 9210SOL     OW39091   3.515   0.969   4.625  0.2680 -0.0619  0.2216
 9210SOL    HW139092   3.564   0.892   4.654 -1.1010 -1.5013 -1.2915
 9210SOL    HW239093   3.568   0.994   4.550 -0.3603  0.8112  0.0676
 9211SOL     OW39094   4.210   2.675   5.287 -0.0771  0.3153  0.5550
 9211SOL    HW139095   4.150   2.654   5.216  0.5390 -0.2921  0.2088
 9211SOL    HW239096   4.265   2.599   5.271  0.6631  0.9019  0.3072
 9212SOL     OW39097   2.199   0.077   8.150  0.4349 -0.1340 -0.1223
 9212SOL    HW139098   2.128   0.122   8.105  0.0841  0.0804  0.6332
 9212SOL    HW239099   2.141   0.029   8.210 -0.2012  0.1029 -0.5459
 9213SOL     OW39100   1.581   0.287   3.985  0.1389  0.8770 -0.1139
 9213SOL    HW139101   1.599   0.359   4.045 -2.3755  0.6793  0.9025
 9213SOL    HW239102   1.668   0.258   3.959  0.4923 -1.5034  3.7425
 9214SOL     OW39103   0.410   4.264  16.326 -0.0157  0.2237 -0.5710
 9214SOL    HW139104   0.477   4.198  16.345 -2.3793 -1.7001  1.0628
 9214SOL    HW239105   0.333   4.210  16.312  0.9413 -0.7415 -2.1769
 9215SOL     OW39106   2.227   4.013   3.240  0.3137 -0.7715  0.1909
 9215SOL    HW139107   2.317   4.032   3.268  0.7809 -0.2725 -1.6685
 9215SOL    HW239108   2.173   4.090   3.257 -1.0010 -1.6739  0.0606
 9216SOL     OW39109   2.747   0.293   0.583  0.2436 -0.3313  0.4018
 9216SOL    HW139110   2.824   0.239   0.568  0.0125 -0.2834 -0.9366
 9216SOL    HW239111   2.691   0.228   0.541  0.4130 -0.0904 -0.1990
 9217SOL     OW39112   0.603   3.445   1.686  0.6305  0.3641  0.2581
 9217SOL    HW139113   0.557   3.373   1.731  0.6389  0.5480  0.5598
 9217SOL    HW239114   0.692   3.434   1.719  2.0795  1.6271 -3.2111
 9218SOL     OW39115   2.784   3.889   6.114  0.8701 -0.1143  0.5830
 9218SOL    HW139116   2.782   3.905   6.209  0.0783 -3.4163  1.1244
 9218SOL    HW239117   2.747   3.970   6.078 -1.1215 -1.4155 -0.2181
 9219SOL     OW39118   3.346   0.439  13.938 -0.3635  0.3187  0.2383
 9219SOL    HW139119   3.313   0.510  13.993 -0.0817  1.8954 -1.6544
 9219SOL    HW239120   3.390   0.381  14.000  0.1746  0.1658 -0.2834
 9220SOL     OW39121   0.713   0.462   7.613 -0.2674 -0.3078  0.1531
 9220SOL    HW139122   0.643   0.414   7.569 -1.1661  1.1992 -0.0270
 9220SOL    HW239123   0.672   0.508   7.686  0.1635  0.1911  0.0777
 9221SOL     OW39124   4.088   0.130   4.995  0.2348  0.0660 -0.3187
 9221SOL    HW139125   4.141   0.132   4.916 -1.0512 -0.7973 -1.2125
 9221SOL    HW239126   4.084   0.218   5.031 -1.4684 -0.0183 -0.2883
 9222SOL     OW39127   1.320   0.068   8.207  0.1371 -0.1090  0.3787
 9222SOL    HW139128   1.359   4.707   8.232  0.0713  0.0496  1.0230
 9222SOL    HW239129   1.290   0.048   8.119 -0.7179  1.2439  0.3677
 9223SOL     OW39130   0.124   4.411  14.718  0.4933  0.3466 -0.5632
 9223SOL    HW139131   0.105   4.445  14.630 -0.2015 -0.8557 -0.8681
 9223SOL    HW239132   0.140   4.319  14.698 -0.6341 -0.2631  1.3050
 9224SOL     OW39133   3.991   1.287  12.843 -0.2743  0.5592 -0.1204
 9224SOL    HW139134   3.970   1.283  12.750  0.0512  0.4440 -0.1886
 9224SOL    HW239135   3.936   1.360  12.871  0.0243 -0.2070  2.4205
 9225SOL     OW39136   4.591   2.338  14.648  0.4407  0.4996 -0.0461
 9225SOL    HW139137   4.617   2.412  14.702 -0.4753  0.6884  0.1409
 9225SOL    HW239138   4.504   2.364  14.615  1.1879  1.6609 -1.0857
 9226SOL     OW39139   3.659   3.839   7.670 -0.2524  0.4105 -0.3264
 9226SOL    HW139140   3.677   3.879   7.756 -0.6927 -1.0729  0.4572
 9226SOL    HW239141   3.701   3.755   7.689 -0.4945  0.2710 -0.4034
 9227SOL     OW39142   0.413   1.026   2.376  0.0873  0.8699 -0.2319
 9227SOL    HW139143   0.392   0.993   2.288  0.4287 -0.6367  0.2587
 9227SOL    HW239144   0.452   0.945   2.409  0.0406  2.3002  3.3251
 9228SOL     OW39145   1.099   2.104  12.100 -0.8342  0.6116  0.0058
 9228SOL    HW139146   1.112   2.199  12.105 -0.6988  0.4617  2.3301
 9228SOL    HW239147   1.166   2.072  12.161  1.7701  1.4651 -2.4234
 9229SOL     OW39148   0.305   2.060   6.269 -0.0701  0.2013  0.1522
 9229SOL    HW139149   0.364   2.000   6.223 -0.9186  1.5396 -2.7204
 9229SOL    HW239150   0.325   2.032   6.358  0.0573  2.0651  0.7115
 9230SOL     OW39151   4.379   2.435   6.770  0.1754 -0.8886 -0.1595
 9230SOL    HW139152   4.356   2.520   6.732  2.7154  0.2638  0.8731
 9230SOL    HW239153   4.473   2.451   6.768  0.2358 -0.7320  3.1556
 9231SOL     OW39154   0.720   1.021   1.606  0.2684  0.9062  0.0415
 9231SOL    HW139155   0.704   1.094   1.666  0.7570  1.3954 -0.4167
 9231SOL    HW239156   0.654   0.957   1.632  2.0366 -0.2941  1.5669
 9232SOL     OW39157   4.677   1.173   7.297  0.3069  0.0603  0.2581
 9232SOL    HW139158   0.027   1.202   7.350 -0.3231  0.6721  0.7987
 9232SOL    HW239159   4.701   1.090   7.257  3.0779  0.7303  0.5364
 9233SOL     OW39160   2.184   1.348   7.125  0.9377  0.3558  0.3174
 9233SOL    HW139161   2.113   1.410   7.145 -0.1835 -1.0581  0.6598
 9233SOL    HW239162   2.264   1.400   7.119  1.3896 -0.4296 -0.3350
 9234SOL     OW39163   1.125   4.063   9.198 -0.1067  0.5524  0.0856
 9234SOL    HW139164   1.074   4.011   9.136 -0.3624  1.9655 -0.9035
 9234SOL    HW239165   1.206   4.036   9.154  0.0649  0.3285  0.5424
 9235SOL     OW39166   0.711   0.322   6.210 -0.5970  0.0300 -0.5310
 9235SOL    HW139167   0.738   0.243   6.164 -0.1807 -0.7611  1.0833
 9235SOL    HW239168   0.617   0.302   6.214 -0.1654 -2.0811 -1.0830
 9236SOL     OW39169   2.568   0.218  16.422 -0.2063  0.6868 -0.0590
 9236SOL    HW139170   2.526   0.162  16.357  2.6206  0.3085 -1.5892
 9236SOL    HW239171   2.639   0.259  16.372  0.8090 -0.0142  0.8069
 9237SOL     OW39172   2.832   4.467   6.861 -0.3979 -0.1807  0.3377
 9237SOL    HW139173   2.847   4.387   6.910 -0.0445 -0.1999  0.1941
 9237SOL    HW239174   2.755   4.508   6.903  0.5811  0.5425  1.4364
 9238SOL     OW39175   0.603   3.969   4.760 -0.2987 -0.0666 -0.4775
 9238SOL    HW139176   0.689   3.930   4.776 -0.2482 -0.1159 -0.8767
 9238SOL    HW239177   0.553   3.887   4.757 -1.1235  0.5104 -2.3505
 9239SOL     OW39178   0.766   2.810   3.573  0.4286  0.4941  0.4027
 9239SOL    HW139179   0.849   2.806   3.621  0.7199 -3.6576 -0.4883
 9239SOL    HW239180   0.769   2.896   3.532  3.2212  0.3751  0.2975
 9240SOL     OW39181   2.214   4.087   7.716 -0.2962  0.4240 -0.4999
 9240SOL    HW139182   2.232   4.005   7.670 -0.8524  0.3148 -0.5290
 9240SOL    HW239183   2.119   4.078   7.724 -0.3603  0.2463 -1.4458
 9241SOL     OW39184   0.004   2.415   4.509  0.4695 -0.0046  0.0060
 9241SOL    HW139185   4.721   2.337   4.454 -0.5122 -0.0961  0.2630
 9241SOL    HW239186   4.647   2.454   4.476  1.8759 -0.0553 -3.5424
 9242SOL     OW39187   2.301   0.924   7.615 -0.8318 -0.0521  0.2944
 9242SOL    HW139188   2.346   0.999   7.655 -1.5540  0.4982  0.0839
 9242SOL    HW239189   2.225   0.919   7.673 -0.6373  0.2934  0.5796
 9243SOL     OW39190   0.838   2.172   0.428  0.3774  0.2497 -0.1524
 9243SOL    HW139191   0.824   2.211   0.341  2.0418  0.7151 -0.2103
 9243SOL    HW239192   0.791   2.233   0.484 -2.6306 -0.2995 -2.0686
 9244SOL     OW39193   3.486   3.401  12.952 -0.4347 -0.2024 -0.0207
 9244SOL    HW139194   3.511   3.361  12.868 -1.8086  0.2904 -0.6673
 9244SOL    HW239195   3.562   3.456  12.971  0.9103 -1.7154 -0.9938
 9245SOL     OW39196   0.933   2.430   2.435 -0.0157 -0.0920 -0.8016
 9245SOL    HW139197   0.982   2.504   2.401 -1.1198  0.0979 -1.9354
 9245SOL    HW239198   0.860   2.471   2.481 -0.6196 -1.0710 -0.8756
 9246SOL     OW39199   1.270   3.032   5.326  0.0446  0.9304 -0.6662
 9246SOL    HW139200   1.254   3.101   5.262  1.6997  1.7701 -0.1462
 9246SOL    HW239201   1.330   3.076   5.385 -0.9493  1.9272 -0.3911
 9247SOL     OW39202   2.694   3.231  13.546 -0.2599  0.3020  0.2215
 9247SOL    HW139203   2.630   3.239  13.474 -0.8292 -0.0673  0.6856
 9247SOL    HW239204   2.644   3.178  13.608 -0.9058  0.1762 -0.3981
 9248SOL     OW39205   2.083   2.321   5.712  0.4188 -0.1821 -0.5542
 9248SOL    HW139206   2.144   2.395   5.712 -1.8697  1.6891  0.9919
 9248SOL    HW239207   2.092   2.271   5.793  2.0263  1.2820  0.1871
 9249SOL     OW39208   2.406   2.890  17.560 -0.9584 -0.5113 -0.7550
 9249SOL    HW139209   2.447   2.831  17.496 -0.8648 -2.5775  1.2261
 9249SOL    HW239210   2.321   2.907  17.519 -2.3049  3.2056  3.6148
 9250SOL     OW39211   1.757   3.234   5.139  0.8718  0.0829 -0.6325
 9250SOL    HW139212   1.711   3.151   5.130  2.1068 -0.5448 -1.1052
 9250SOL    HW239213   1.712   3.305   5.092 -0.1531 -0.5239 -0.5540
 9251SOL     OW39214   2.874   2.746  17.593 -0.0040  0.0983 -0.3640
 9251SOL    HW139215   2.811   2.675  17.585 -0.0592  0.1142 -0.0677
 9251SOL    HW239216   2.895   2.727  17.684 -1.3994 -1.0619 -0.2797
 9252SOL     OW39217   3.390   1.168  12.606 -0.0339  0.5138  0.1040
 9252SOL    HW139218   3.435   1.239  12.652 -0.1581  0.3356  0.5043
 9252SOL    HW239219   3.361   1.209  12.525 -0.9640  0.8845  0.6139
 9253SOL     OW39220   1.204   0.323   8.810  0.1358  0.1585  0.7193
 9253SOL    HW139221   1.272   0.261   8.837  0.4377  1.3114  2.6110
 9253SOL    HW239222   1.121   0.286   8.842 -0.2275  0.6466  0.3302
 9254SOL     OW39223   1.403   0.871   2.161 -0.0545 -0.0482 -0.3584
 9254SOL    HW139224   1.482   0.825   2.132 -0.0928 -0.3331 -0.0168
 9254SOL    HW239225   1.335   0.818   2.119 -0.9962  1.5687 -0.8645
 9255SOL     OW39226   3.164   2.640  10.600 -0.1880 -0.2518 -0.1521
 9255SOL    HW139227   3.223   2.595  10.660 -1.9683 -2.0242  0.2810
 9255SOL    HW239228   3.212   2.722  10.587  0.3855 -0.1682  2.4936
 9256SOL     OW39229   4.152   1.383  14.872 -0.1988 -0.2264  0.3070
 9256SOL    HW139230   4.211   1.311  14.850 -0.9338 -0.7619  0.1082
 9256SOL    HW239231   4.116   1.354  14.956 -0.3372  0.3328  0.4389
 9257SOL     OW39232   2.746   0.636   3.628 -0.2520  0.2592  0.0639
 9257SOL    HW139233   2.690   0.582   3.683  0.0422 -2.4506 -2.2872
 9257SOL    HW239234   2.691   0.711   3.605  1.1352  1.6142  1.1835
 9258SOL     OW39235   0.720   3.562   3.997  0.0235 -0.1571  0.4702
 9258SOL    HW139236   0.707   3.467   4.001 -0.0323 -0.1409  0.6748
 9258SOL    HW239237   0.629   3.587   4.014 -0.5371 -0.6296 -1.9178
 9259SOL     OW39238   1.109   4.408   7.403 -0.5627  0.0672  0.1616
 9259SOL    HW139239   1.171   4.391   7.331 -0.2850  0.9883  0.1790
 9259SOL    HW239240   1.023   4.423   7.366 -0.5673 -2.4144 -0.8316
 9260SOL     OW39241   0.680   3.169  15.829 -0.5152  0.0217 -0.5844
 9260SOL    HW139242   0.615   3.186  15.897 -1.3513 -0.1214 -1.3593
 9260SOL    HW239243   0.757   3.134  15.874 -0.0633 -0.8670 -2.0391
 9261SOL     OW39244   2.032   0.652  13.383 -0.5115 -0.1320  0.0615
 9261SOL    HW139245   2.084   0.582  13.344 -1.3259 -1.9563  2.2782
 9261SOL    HW239246   1.989   0.597  13.448  0.8835 -0.5318  0.6213
 9262SOL     OW39247   3.549   1.079   2.786 -0.3270  0.7629 -0.6177
 9262SOL    HW139248   3.491   1.100   2.860  0.7695  2.5207 -0.2786
 9262SOL    HW239249   3.578   0.993   2.816  0.4765  0.4606 -2.2869
 9263SOL     OW39250   4.060   4.198   0.592 -0.0218 -0.3132 -0.0626
 9263SOL    HW139251   4.119   4.235   0.657 -0.8925 -0.3475  0.7589
 9263SOL    HW239252   3.980   4.244   0.619 -0.1925 -0.2744 -0.6149
 9264SOL     OW39253   1.631   1.151   0.480 -0.5689 -0.0341 -0.0428
 9264SOL    HW139254   1.675   1.066   0.482 -1.1914 -0.4373 -2.2609
 9264SOL    HW239255   1.551   1.130   0.431 -1.7334 -1.4755  2.4666
 9265SOL     OW39256   0.363   1.862   4.843 -0.4272  0.8097 -0.6270
 9265SOL    HW139257   0.291   1.829   4.897 -0.5005  1.8952 -0.0570
 9265SOL    HW239258   0.435   1.854   4.905 -1.0370 -4.8946 -0.7200
 9266SOL     OW39259   4.368   3.759   2.486 -0.1001  0.1627 -0.6145
 9266SOL    HW139260   4.353   3.837   2.432  0.0881 -0.7634 -1.9988
 9266SOL    HW239261   4.421   3.808   2.549  0.6777 -1.4860  0.0044
 9267SOL     OW39262   0.660   1.960   5.959  0.4227 -0.4416  0.2975
 9267SOL    HW139263   0.743   1.935   5.920  1.4324  1.2338  1.3670
 9267SOL    HW239264   0.668   2.055   5.969  2.3524 -0.3547 -2.2286
 9268SOL     OW39265   1.856   4.669   1.358 -0.3179 -0.5873  0.5214
 9268SOL    HW139266   1.932   4.709   1.400 -1.7236  3.7863 -1.1461
 9268SOL    HW239267   1.860   4.702   1.269  1.0433 -2.3807 -0.0851
 9269SOL     OW39268   1.729   2.164   0.701 -0.3158  0.3685  0.4017
 9269SOL    HW139269   1.674   2.098   0.659  0.9581 -0.8992  0.7228
 9269SOL    HW239270   1.808   2.155   0.648 -1.4896 -1.5452 -1.0275
 9270SOL     OW39271   1.899   0.489   4.159  0.0425  0.0819 -0.0015
 9270SOL    HW139272   1.901   0.494   4.255 -1.1694 -1.0528  0.0892
 9270SOL    HW239273   1.806   0.501   4.138  0.7618  0.4220 -2.8686
 9271SOL     OW39274   2.197   4.089   4.174  0.4251 -0.0981  0.2929
 9271SOL    HW139275   2.215   4.038   4.252 -1.6155 -0.4283  0.5471
 9271SOL    HW239276   2.276   4.071   4.123  0.4521 -0.2760  0.3999
 9272SOL     OW39277   4.531   0.924   4.693  0.4504 -0.1464 -0.0165
 9272SOL    HW139278   4.493   0.963   4.614 -1.3306  1.4886  1.6412
 9272SOL    HW239279   4.522   0.831   4.672  0.9021  0.2460 -1.9270
 9273SOL     OW39280   2.019   2.729   5.451  0.5246 -0.0088 -0.1104
 9273SOL    HW139281   2.110   2.698   5.446  0.0408 -1.3135 -0.9500
 9273SOL    HW239282   2.020   2.802   5.513 -1.0286 -0.3611  0.3173
 9274SOL     OW39283   3.055   2.609   3.123  0.1690  0.1316 -0.2204
 9274SOL    HW139284   3.143   2.641   3.102  0.8544 -0.1764  2.2439
 9274SOL    HW239285   3.013   2.690   3.095  1.8690  1.1318  0.0933
 9275SOL     OW39286   3.950   3.993   6.840  0.1690  0.3783  0.5060
 9275SOL    HW139287   3.882   4.016   6.903  0.7620  1.7565  0.6388
 9275SOL    HW239288   4.022   4.007   6.902  2.2195 -2.9165 -1.1173
 9276SOL     OW39289   4.073   3.014   3.602 -0.0995 -0.2289 -0.3563
 9276SOL    HW139290   4.037   2.991   3.688  1.2094 -0.1434  0.2178
 9276SOL    HW239291   3.993   3.021   3.551 -0.9815  2.4332  1.3540
 9277SOL     OW39292   3.907   2.622  17.378 -0.0372 -0.2422 -0.1243
 9277SOL    HW139293   3.944   2.699  17.421  1.3908 -1.2868  0.4784
 9277SOL    HW239294   3.891   2.556  17.446  0.8699  0.1850  0.4999
 9278SOL     OW39295   4.499   0.233   4.347 -0.4257 -0.1299  0.0537
 9278SOL    HW139296   4.405   0.218   4.347 -0.1882 -1.6031 -0.2200
 9278SOL    HW239297   4.543   0.151   4.369  1.1426  0.7531  0.2335
 9279SOL     OW39298   0.329   0.329   8.834  0.0432 -0.4601 -0.5754
 9279SOL    HW139299   0.264   0.399   8.843  0.1324 -0.5371  0.6756
 9279SOL    HW239300   0.376   0.350   8.915 -0.9278 -3.3931  0.7429
 9280SOL     OW39301   2.241   4.576  14.592 -0.6000 -0.3526 -0.5112
 9280SOL    HW139302   2.161   4.541  14.553  0.0680  0.6133 -2.7110
 9280SOL    HW239303   2.307   4.551  14.528 -1.2096 -2.1006 -0.4589
 9281SOL     OW39304   4.538   3.339   1.291  1.0298 -0.3961 -0.1602
 9281SOL    HW139305   4.549   3.335   1.196 -0.0419  0.6630 -0.3219
 9281SOL    HW239306   4.538   3.432   1.311  1.7385 -0.0562 -1.7352
 9282SOL     OW39307   2.478   1.371  15.790  0.0347 -0.2310 -0.4305
 9282SOL    HW139308   2.483   1.462  15.759  1.6892 -0.6354 -1.3505
 9282SOL    HW239309   2.428   1.382  15.871  0.7971 -1.0731  0.1495
 9283SOL     OW39310   2.320   4.451   6.989  0.0380 -0.1344 -0.3387
 9283SOL    HW139311   2.368   4.484   6.913 -0.1192  1.2205  0.1468
 9283SOL    HW239312   2.392   4.442   7.051 -1.3222 -2.5012  0.9129
 9284SOL     OW39313   0.152   1.107   8.044  0.5326 -0.8687  0.7370
 9284SOL    HW139314   0.127   1.150   8.126  2.3842  0.0912  0.7979
 9284SOL    HW239315   0.099   1.028   8.048  1.9508 -2.0054 -3.1960
 9285SOL     OW39316   0.452   2.431   8.754 -0.2915 -0.0777  0.2878
 9285SOL    HW139317   0.492   2.348   8.726 -2.2711 -0.0106 -2.7757
 9285SOL    HW239318   0.524   2.479   8.796 -0.4744  0.7727 -0.3767
 9286SOL     OW39319   0.709   3.739   7.374  0.4124 -1.1047 -0.0095
 9286SOL    HW139320   0.750   3.672   7.319  0.6990 -1.2224  0.3471
 9286SOL    HW239321   0.790   3.767   7.416 -0.7660  1.7544  0.3450
 9287SOL     OW39322   3.798   4.329   5.622 -0.7016  0.2951 -0.1291
 9287SOL    HW139323   3.845   4.411   5.633  0.1727 -0.3432  0.8849
 9287SOL    HW239324   3.756   4.320   5.708 -1.6234 -0.0997 -0.6193
 9288SOL     OW39325   4.001   4.415   4.737 -0.3957  0.3743 -0.4763
 9288SOL    HW139326   3.971   4.345   4.679 -0.6640 -0.8997  1.1990
 9288SOL    HW239327   4.028   4.365   4.814 -1.7406 -0.2471 -0.4078
 9289SOL     OW39328   2.428   1.193   8.833 -0.4850  0.1422  0.2259
 9289SOL    HW139329   2.391   1.149   8.909 -1.6418  2.5481  1.0757
 9289SOL    HW239330   2.497   1.254   8.860  1.0277 -1.6767  0.4535
 9290SOL     OW39331   2.519   1.001   4.018  0.2311  0.5166  0.2870
 9290SOL    HW139332   2.551   1.091   4.009  1.8136 -0.0291  0.4156
 9290SOL    HW239333   2.514   0.973   3.926  3.3817  1.4869 -0.2159
 9291SOL     OW39334   3.057   3.821   3.000 -0.0304 -0.1857  0.1551
 9291SOL    HW139335   3.037   3.858   2.914  0.9240  0.6027  0.2802
 9291SOL    HW239336   3.073   3.730   2.974  0.4131  0.4637 -1.7964
 9292SOL     OW39337   0.097   3.960   3.681 -0.6253  0.6355  0.1321
 9292SOL    HW139338   0.009   3.938   3.652  1.3679 -1.2922 -4.5231
 9292SOL    HW239339   0.073   3.990   3.769  0.3510  0.1991  0.5532
 9293SOL     OW39340   1.825   2.304   0.953 -0.3061  1.1287 -0.2292
 9293SOL    HW139341   1.871   2.231   0.994  0.7156  3.3624  2.6277
 9293SOL    HW239342   1.823   2.280   0.860 -1.0457  1.8443 -0.4046
 9294SOL     OW39343   0.885   2.622  10.027  0.1327  1.1369  0.3926
 9294SOL    HW139344   0.791   2.629  10.013 -0.1756 -0.1754  1.7995
 9294SOL    HW239345   0.886   2.543  10.082  2.7441  0.3230 -0.8351
 9295SOL     OW39346   3.867   1.527  13.875 -0.4015 -0.5039  0.4929
 9295SOL    HW139347   3.772   1.513  13.880 -0.6292  1.0061  0.3071
 9295SOL    HW239348   3.890   1.453  13.818  0.3328 -0.1948  0.3911
 9296SOL     OW39349   4.243   3.675  15.030 -0.1060  0.1582  0.2037
 9296SOL    HW139350   4.210   3.764  15.018 -0.8538  0.0015  1.1014
 9296SOL    HW239351   4.165   3.622  15.013 -0.8756  0.4635  2.7636
 9297SOL     OW39352   1.399   2.182   6.763  0.3889 -0.1357  0.2670
 9297SOL    HW139353   1.332   2.237   6.723  0.3802 -0.4487 -0.1367
 9297SOL    HW239354   1.388   2.101   6.714 -1.1302  0.3043 -0.1235
 9298SOL     OW39355   3.513   3.997   3.622  0.5861 -0.3708  0.1342
 9298SOL    HW139356   3.535   3.908   3.597 -1.0399 -0.4027 -1.1423
 9298SOL    HW239357   3.578   4.049   3.576 -0.5245  0.3839 -0.5884
 9299SOL     OW39358   4.542   0.970  17.009  0.0227  0.1501  0.2117
 9299SOL    HW139359   4.452   0.941  17.024  0.5393 -0.9225  1.2898
 9299SOL    HW239360   4.561   0.989  17.101 -3.9175  0.7151  0.8996
 9300SOL     OW39361   2.312   4.281   5.272 -0.1940  0.1101 -0.0763
 9300SOL    HW139362   2.312   4.188   5.249 -1.6804 -0.0302  0.5043
 9300SOL    HW239363   2.402   4.293   5.302 -0.1759 -0.3676  0.0744
 9301SOL     OW39364   1.124   2.231   7.077  0.0103 -0.3416 -0.0249
 9301SOL    HW139365   1.210   2.189   7.091  0.4988  0.3463 -0.9619
 9301SOL    HW239366   1.115   2.288   7.153 -2.8790  0.3380 -0.9039
 9302SOL     OW39367   1.583   1.705  10.418 -0.5683 -0.0874  0.0994
 9302SOL    HW139368   1.541   1.672  10.497 -1.8008  2.6847  0.5693
 9302SOL    HW239369   1.577   1.620  10.373 -1.5331  0.1860 -0.2823
 9303SOL     OW39370   3.063   0.677   2.077  0.5978 -0.3816 -0.1857
 9303SOL    HW139371   3.144   0.663   2.127  1.8461  2.0486 -1.5161
 9303SOL    HW239372   3.078   0.613   2.008 -0.9505  0.6799 -1.5010
 9304SOL     OW39373   3.691   0.310   7.266  0.1046  0.5723  0.2070
 9304SOL    HW139374   3.659   0.322   7.356  2.2720  0.0414  1.0493
 9304SOL    HW239375   3.610   0.279   7.225  1.0433 -1.9736  0.2316
 9305SOL     OW39376   0.474   2.140  15.975  0.2255 -0.1515  0.1308
 9305SOL    HW139377   0.394   2.088  15.978  0.4708 -0.5426 -0.0259
 9305SOL    HW239378   0.540   2.071  15.977  0.3951 -0.0074 -0.5936
 9306SOL     OW39379   0.762   2.433   1.278  0.4815 -0.4395  0.0190
 9306SOL    HW139380   0.687   2.469   1.326  1.7263 -0.4660  1.9664
 9306SOL    HW239381   0.774   2.351   1.326  1.9179 -0.8197 -0.9971
 9307SOL     OW39382   3.137   2.159   0.623 -0.4632  0.2622 -0.5057
 9307SOL    HW139383   3.121   2.145   0.716  3.1839 -1.2586 -0.0961
 9307SOL    HW239384   3.169   2.072   0.600  1.7014  1.1061 -0.6530
 9308SOL     OW39385   1.698   2.256   8.152 -0.2497  0.4157  0.2163
 9308SOL    HW139386   1.623   2.201   8.174 -0.0134 -0.0109 -0.0564
 9308SOL    HW239387   1.761   2.232   8.219  1.3851  0.9017 -1.1587
 9309SOL     OW39388   4.660   0.405   0.869  0.0012 -0.1938 -0.0512
 9309SOL    HW139389   4.603   0.331   0.846 -0.8625 -0.2052  2.1225
 9309SOL    HW239390   4.614   0.473   0.918 -0.0819 -0.6902  0.5599
 9310SOL     OW39391   3.581   0.734  16.633 -0.6440 -0.1484  0.1384
 9310SOL    HW139392   3.547   0.789  16.563  0.9101  1.1834  0.4307
 9310SOL    HW239393   3.645   0.686  16.580 -0.8428 -0.5584  0.2648
 9311SOL     OW39394   2.326   2.416  13.677  0.5673  0.0642  0.0904
 9311SOL    HW139395   2.362   2.496  13.717 -0.3547 -0.5363  2.1642
 9311SOL    HW239396   2.311   2.369  13.760  1.5621  1.3533  1.0074
 9312SOL     OW39397   1.516   2.171   8.532  0.0597 -0.5057 -0.5460
 9312SOL    HW139398   1.525   2.114   8.455  1.2184 -1.8697  0.6128
 9312SOL    HW239399   1.600   2.216   8.534  0.1395 -0.6318 -0.8990
 9313SOL     OW39400   4.372   1.744  16.591  0.3124  0.1518  0.2682
 9313SOL    HW139401   4.349   1.651  16.581  0.3379 -0.2552  3.8350
 9313SOL    HW239402   4.308   1.761  16.660  1.3944 -0.4897  1.4399
 9314SOL     OW39403   3.408   1.735   8.528 -0.1644  0.6524 -0.5474
 9314SOL    HW139404   3.416   1.703   8.438  1.0977  1.5632 -0.7555
 9314SOL    HW239405   3.373   1.657   8.571  1.6843  0.0982 -0.0370
 9315SOL     OW39406   0.679   4.418   6.560 -0.2432  0.1710 -0.2092
 9315SOL    HW139407   0.622   4.481   6.603  0.4445  0.2272  0.6149
 9315SOL    HW239408   0.637   4.413   6.474  1.0383 -0.4658 -0.7881
 9316SOL     OW39409   1.362   3.275   4.629  0.3914 -0.6208 -0.1432
 9316SOL    HW139410   1.395   3.197   4.584  1.8004  0.2212 -0.5313
 9316SOL    HW239411   1.269   3.263   4.611  0.2075  0.5519  0.0260
 9317SOL     OW39412   4.441   3.154   3.344 -0.7104  0.5930  0.2383
 9317SOL    HW139413   4.489   3.121   3.269  0.6083  0.6638  1.0534
 9317SOL    HW239414   4.473   3.099   3.416  0.2918  0.3310 -0.4127
 9318SOL     OW39415   0.245   0.177   0.252  0.4275  0.3849  0.1600
 9318SOL    HW139416   0.236   0.251   0.192  1.2679  0.4730  0.1317
 9318SOL    HW239417   0.293   0.222   0.322  2.4201  1.1456 -1.6719
 9319SOL     OW39418   1.289   0.287  15.621  0.2622 -0.0596 -0.0807
 9319SOL    HW139419   1.312   0.341  15.546 -1.2964  0.2549 -0.3491
 9319SOL    HW239420   1.232   0.227  15.572 -3.5927  1.0870  2.9268
 9320SOL     OW39421   1.216   1.886   3.983  0.3624 -0.5037 -0.0254
 9320SOL    HW139422   1.275   1.953   3.948  1.4823 -0.7305  1.4484
 9320SOL    HW239423   1.264   1.807   3.956  1.6505  0.7373 -1.4399
 9321SOL     OW39424   4.464   4.005   4.815 -0.1343 -0.0952  0.3551
 9321SOL    HW139425   4.500   3.934   4.762  3.0805  2.3033 -0.6166
 9321SOL    HW239426   4.416   3.950   4.878 -0.2387 -1.9547 -1.3248
 9322SOL     OW39427   1.121   3.893   7.731 -0.0529  0.3240  0.2448
 9322SOL    HW139428   1.183   3.966   7.730  0.0067  0.2420 -1.9994
 9322SOL    HW239429   1.180   3.822   7.756  1.8297  1.2093 -1.7721
 9323SOL     OW39430   0.966   0.205   5.897 -0.1681  0.1229  0.1228
 9323SOL    HW139431   1.011   0.245   5.823 -0.9995  0.4211 -0.2219
 9323SOL    HW239432   1.007   0.260   5.965 -0.4295  0.3658  0.0853
 9324SOL     OW39433   3.911   0.382   5.450  0.4083 -0.0494  0.3250
 9324SOL    HW139434   3.851   0.456   5.452 -0.0046 -0.3731 -0.0307
 9324SOL    HW239435   3.896   0.355   5.359  0.8859 -1.5595  0.6881
 9325SOL     OW39436   1.920   1.429  17.639  0.5307 -0.4456  0.1161
 9325SOL    HW139437   1.993   1.375  17.609 -1.5318 -1.2807 -3.4152
 9325SOL    HW239438   1.944   1.441   0.035 -1.0689  1.8416  0.2341
 9326SOL     OW39439   3.094   0.692   3.372  0.0399 -0.3606  0.4374
 9326SOL    HW139440   3.077   0.621   3.434  1.5987  0.1398  1.4414
 9326SOL    HW239441   3.007   0.685   3.333 -0.0718 -1.3483  0.8776
 9327SOL     OW39442   2.979   4.499   8.515  0.0432 -0.2541  0.0984
 9327SOL    HW139443   2.922   4.576   8.515 -0.2534 -0.5087  3.1383
 9327SOL    HW239444   2.933   4.437   8.571  1.0756 -0.3849  0.8040
 9328SOL     OW39445   4.581   0.354   4.054 -0.3918  0.2947  0.3186
 9328SOL    HW139446   4.533   0.381   3.975 -2.5745  0.3923  1.6697
 9328SOL    HW239447   4.506   0.338   4.111  1.0907 -1.1268  1.8638
 9329SOL     OW39448   3.792   0.599   5.694  0.3370  0.3543 -0.1468
 9329SOL    HW139449   3.739   0.527   5.728 -0.3340  0.5266 -0.8120
 9329SOL    HW239450   3.876   0.564   5.723 -0.3798 -1.0589  0.2699
 9330SOL     OW39451   2.955   0.643   4.996 -0.9558 -0.0581  0.5583
 9330SOL    HW139452   2.973   0.630   5.089 -0.5930  1.2802  0.6828
 9330SOL    HW239453   2.904   0.564   4.980  0.5064 -0.3369 -2.7501
 9331SOL     OW39454   1.982   1.303   0.676 -0.4877  0.4124 -0.3697
 9331SOL    HW139455   2.053   1.364   0.655  0.1647 -0.8252 -1.7079
 9331SOL    HW239456   1.925   1.323   0.602  0.8801 -0.3739 -1.6342
 9332SOL     OW39457   3.819   3.542   4.416  0.3394 -0.7715 -0.0641
 9332SOL    HW139458   3.907   3.553   4.451 -0.2360  1.0362  0.8461
 9332SOL    HW239459   3.789   3.633   4.406  0.2347 -0.9276 -1.2066
 9333SOL     OW39460   4.165   2.822   8.870  0.2266 -0.4069 -0.8764
 9333SOL    HW139461   4.212   2.748   8.908 -1.4269 -0.2592  1.4563
 9333SOL    HW239462   4.208   2.892   8.919  0.0306  0.3739 -1.8298
 9334SOL     OW39463   0.874   0.620   3.324 -0.7807  0.4721 -0.8568
 9334SOL    HW139464   0.949   0.596   3.379 -0.4589 -0.1539 -1.5761
 9334SOL    HW239465   0.799   0.592   3.377  0.7473  0.2567  1.2301
 9335SOL     OW39466   3.071   1.355   5.888  0.1717 -0.4545 -0.5522
 9335SOL    HW139467   3.047   1.263   5.874  0.4732 -0.7743  1.0498
 9335SOL    HW239468   3.012   1.371   5.961 -0.1783  0.0966 -0.9574
 9336SOL     OW39469   1.493   2.417   5.718 -0.0001  0.3270  0.6177
 9336SOL    HW139470   1.463   2.500   5.754 -0.3715  0.4058  0.1361
 9336SOL    HW239471   1.457   2.351   5.777  1.1372  0.9650  2.0273
 9337SOL     OW39472   1.626   3.155  16.578 -0.1675 -0.3245 -0.1571
 9337SOL    HW139473   1.722   3.155  16.572 -0.0519 -0.2415  1.8993
 9337SOL    HW239474   1.621   3.144  16.672 -0.0402  2.2909  0.1668
 9338SOL     OW39475   2.139   2.398   7.743  0.7373  0.2274  0.3111
 9338SOL    HW139476   2.078   2.338   7.701 -0.6248  2.0280 -0.2830
 9338SOL    HW239477   2.082   2.463   7.785 -1.7782 -1.1041 -1.0405
 9339SOL     OW39478   1.614   1.131   9.608  0.3712  0.1439  0.3671
 9339SOL    HW139479   1.549   1.087   9.663 -1.2355  2.6612  0.4748
 9339SOL    HW239480   1.645   1.057   9.556  2.6090  1.6131 -0.4182
 9340SOL     OW39481   3.816   2.741   1.163  0.3914  0.1253  0.3638
 9340SOL    HW139482   3.746   2.685   1.195  0.0568  0.5303  0.3403
 9340SOL    HW239483   3.775   2.780   1.086  0.2673  3.1013  1.9223
 9341SOL     OW39484   1.351   0.641   5.317  0.3568 -0.8200  0.2430
 9341SOL    HW139485   1.442   0.611   5.324  0.8090  0.7735  1.1895
 9341SOL    HW239486   1.310   0.598   5.242 -0.0687 -0.3582  0.2088
 9342SOL     OW39487   2.604   4.100  13.126  0.2436  0.2915 -0.2881
 9342SOL    HW139488   2.695   4.128  13.122 -0.6021  2.5481 -3.5998
 9342SOL    HW239489   2.608   4.014  13.084  1.9462  0.0079  0.4624
 9343SOL     OW39490   4.361   2.880   5.375 -0.5267  0.2532 -0.2575
 9343SOL    HW139491   4.324   2.804   5.331  2.0710 -0.5084 -1.1313
 9343SOL    HW239492   4.286   2.929   5.411 -0.8281 -0.8039  0.5441
 9344SOL     OW39493   3.491   3.037   4.945  0.0568  0.2852  0.2169
 9344SOL    HW139494   3.501   3.132   4.951 -0.1965  0.5880 -4.2320
 9344SOL    HW239495   3.521   3.020   5.035 -0.2647  0.5093  0.3667
 9345SOL     OW39496   4.314   0.742  10.322 -0.2748 -0.6643 -0.0543
 9345SOL    HW139497   4.244   0.722  10.260 -0.3317 -1.7624  0.3627
 9345SOL    HW239498   4.298   0.675  10.389  0.6232  1.7095  2.5365
 9346SOL     OW39499   1.835   2.547  10.631 -0.1541 -0.4861 -0.1375
 9346SOL    HW139500   1.824   2.563  10.537 -0.8381 -2.2303 -0.3620
 9346SOL    HW239501   1.774   2.612  10.664  0.4960  0.2263 -0.3497
 9347SOL     OW39502   1.475   3.664   4.386  0.3016 -0.5002  0.3175
 9347SOL    HW139503   1.446   3.618   4.465 -0.9414  1.4741  1.0115
 9347SOL    HW239504   1.559   3.699   4.415  0.6328 -0.0411 -1.1671
 9348SOL     OW39505   4.407   0.459   1.046 -0.2654 -0.2647  0.1133
 9348SOL    HW139506   4.413   0.408   1.127 -3.3193  0.3952  0.7440
 9348SOL    HW239507   4.318   0.425   1.038 -0.5085  0.6971 -1.1508
 9349SOL     OW39508   0.309   2.489   2.540 -0.5398 -0.4507 -0.2476
 9349SOL    HW139509   0.268   2.559   2.489  0.9092  1.6273  1.3859
 9349SOL    HW239510   0.382   2.468   2.481 -1.2404 -2.2367 -0.4685
 9350SOL     OW39511   2.934   0.660  14.897  0.4057  0.0116 -0.1802
 9350SOL    HW139512   2.928   0.733  14.834 -1.7371  1.8941  2.2137
 9350SOL    HW239513   2.992   0.608  14.841 -0.9596 -0.2520 -1.3424
 9351SOL     OW39514   1.764   4.058   5.895  0.4390  0.6961 -0.0136
 9351SOL    HW139515   1.708   4.115   5.842  0.3942  0.3410 -0.3527
 9351SOL    HW239516   1.701   4.004   5.942  0.3677  0.1510 -0.7395
 9352SOL     OW39517   4.712   4.101   6.056  0.3403 -0.0133  0.1405
 9352SOL    HW139518   4.704   4.103   6.151  0.8479  2.2086  0.1184
 9352SOL    HW239519   4.651   4.172   6.035  0.2493  0.9959  3.8326
 9353SOL     OW39520   3.948   3.115   3.131  0.7225 -0.0675 -0.6544
 9353SOL    HW139521   3.987   3.183   3.076  1.1604  1.0398  1.0343
 9353SOL    HW239522   3.873   3.088   3.077 -1.3259 -0.6553  2.5071
 9354SOL     OW39523   1.256   2.207   8.466  0.8424 -0.0381 -0.1078
 9354SOL    HW139524   1.333   2.196   8.521  0.9302  0.9471 -0.0328
 9354SOL    HW239525   1.280   2.156   8.389  0.5969 -1.0147  0.4721
 9355SOL     OW39526   1.141   0.916   5.073  0.0909  0.0205  0.8024
 9355SOL    HW139527   1.169   0.872   4.993 -0.1923  3.3264 -1.1030
 9355SOL    HW239528   1.188   0.999   5.071  0.8173 -0.3844  0.8743
 9356SOL     OW39529   3.710   3.669   8.013 -0.0710  0.5866 -0.0426
 9356SOL    HW139530   3.762   3.729   7.959  1.1150 -0.2320  0.2049
 9356SOL    HW239531   3.622   3.707   8.015 -0.9695 -1.5183  0.5506
 9357SOL     OW39532   1.865   3.982  14.057 -0.1351  0.1558  0.2752
 9357SOL    HW139533   1.856   3.969  13.963  0.5346 -2.7309  0.6048
 9357SOL    HW239534   1.940   3.928  14.083 -0.5011  0.7738  2.6432
 9358SOL     OW39535   1.845   0.182   3.434  0.7698 -0.0164 -1.3345
 9358SOL    HW139536   1.774   0.134   3.391 -0.9907 -0.2951  1.8245
 9358SOL    HW239537   1.847   0.265   3.387 -1.3445 -0.4681 -2.2165
 9359SOL     OW39538   1.337   3.109   9.375  0.2998  0.0131 -0.0648
 9359SOL    HW139539   1.430   3.092   9.359  0.1613  1.0027 -1.8684
 9359SOL    HW239540   1.342   3.191   9.424  1.8828 -0.0562 -0.0945
 9360SOL     OW39541   3.349   3.698   3.639 -0.3409  0.2895  0.4200
 9360SOL    HW139542   3.293   3.764   3.598 -2.4863 -1.3561  0.6924
 9360SOL    HW239543   3.300   3.699   3.720 -0.9311  0.0781  0.0649
 9361SOL     OW39544   2.700   2.423   8.116 -0.0200  0.1010  0.6113
 9361SOL    HW139545   2.782   2.466   8.092 -0.7614  2.6393  2.6157
 9361SOL    HW239546   2.728   2.333   8.100  0.4312  0.4101 -0.3733
 9362SOL     OW39547   2.959   1.403   4.205  0.1959 -0.3775  0.4557
 9362SOL    HW139548   3.013   1.326   4.190  0.4933 -0.0635 -0.0859
 9362SOL    HW239549   2.873   1.365   4.220  0.2588 -0.8254 -0.3604
 9363SOL     OW39550   4.322   2.122   6.564 -0.1643 -0.7856  0.3572
 9363SOL    HW139551   4.397   2.180   6.555  0.0284 -0.2808  4.9290
 9363SOL    HW239552   4.268   2.180   6.618 -1.4006 -0.2169 -1.5237
 9364SOL     OW39553   2.597   3.303   8.390  0.4377  0.3154  0.1979
 9364SOL    HW139554   2.606   3.237   8.322 -1.7561 -1.2160  1.3775
 9364SOL    HW239555   2.580   3.251   8.468  0.8634  1.0665  0.7922
 9365SOL     OW39556   4.559   0.050   1.926  0.0989  0.3282 -0.0938
 9365SOL    HW139557   4.554   0.146   1.920 -4.0328  0.2160  1.6742
 9365SOL    HW239558   4.475   0.017   1.898 -0.0929  0.6617  0.0829
 9366SOL     OW39559   4.509   0.413   6.303  0.1817  0.0566 -0.1488
 9366SOL    HW139560   4.593   0.377   6.333  0.3903  0.9115  0.3197
 9366SOL    HW239561   4.535   0.505   6.300 -0.8041  0.2958 -1.1097
 9367SOL     OW39562   3.765   0.292   0.328  1.1238  0.0792  0.1851
 9367SOL    HW139563   3.716   0.266   0.250 -2.5470 -0.3465  2.6607
 9367SOL    HW239564   3.734   0.381   0.342 -0.5249 -0.3657 -0.7277
 9368SOL     OW39565   2.271   2.876   0.965 -0.5515 -0.0737  0.3427
 9368SOL    HW139566   2.224   2.959   0.958  1.9621  1.1450 -1.8200
 9368SOL    HW239567   2.283   2.883   1.060 -1.3848 -2.0293  0.6054
 9369SOL     OW39568   3.688   3.084   7.097 -0.4655 -0.2079 -0.5699
 9369SOL    HW139569   3.673   3.012   7.159 -0.1071 -0.4070 -0.7141
 9369SOL    HW239570   3.638   3.156   7.136  1.2164 -0.0846  1.3785
 9370SOL     OW39571   1.448   3.399   7.830 -0.0221  0.4379 -0.0484
 9370SOL    HW139572   1.520   3.339   7.812 -1.7046 -0.6263 -3.3776
 9370SOL    HW239573   1.477   3.438   7.913 -1.0657 -2.8455  1.8608
 9371SOL     OW39574   0.568   2.458   4.285 -0.7828  0.4504 -0.4428
 9371SOL    HW139575   0.560   2.395   4.356 -1.1010  0.2071 -0.6920
 9371SOL    HW239576   0.548   2.541   4.328  4.1302  1.4835 -0.2404
 9372SOL     OW39577   1.911   3.493   5.461  0.4558 -0.5012 -0.1369
 9372SOL    HW139578   1.846   3.560   5.439  3.1011  1.6037 -1.4984
 9372SOL    HW239579   1.863   3.416   5.429  1.6976 -1.4776  0.3354
 9373SOL     OW39580   4.032   0.906   6.128 -0.3106 -0.4598  0.9716
 9373SOL    HW139581   4.054   0.925   6.037 -1.9789 -2.1020  0.2214
 9373SOL    HW239582   3.970   0.976   6.149  1.0443  1.0809 -0.1701
 9374SOL     OW39583   0.829   4.334   2.354  0.0632  0.1773  0.5061
 9374SOL    HW139584   0.801   4.247   2.326  0.7053  0.3340 -0.6025
 9374SOL    HW239585   0.744   4.364   2.388 -0.0020  0.1031  0.4079
 9375SOL     OW39586   1.156   2.193   4.037 -0.2458  0.4583  0.4763
 9375SOL    HW139587   1.189   2.207   3.948 -0.8326  2.0410  0.5050
 9375SOL    HW239588   1.070   2.158   4.015 -0.3411  0.7296  0.4109
 9376SOL     OW39589   3.421   4.502  10.307  0.2709  0.2634 -0.3518
 9376SOL    HW139590   3.494   4.445  10.329  0.4138  0.7827  0.5506
 9376SOL    HW239591   3.393   4.539  10.391 -0.5704  0.6127 -0.7867
 9377SOL     OW39592   1.458   0.761   4.010 -0.1625  0.1815 -0.5385
 9377SOL    HW139593   1.480   0.753   3.917  1.3384 -1.2954 -0.0539
 9377SOL    HW239594   1.365   0.785   4.001 -1.0490 -2.2938  2.0538
 9378SOL     OW39595   0.774   2.397   2.075 -0.1213  0.1612  0.2679
 9378SOL    HW139596   0.799   2.338   2.147  0.2192  0.5389  0.4609
 9378SOL    HW239597   0.679   2.387   2.079  0.0719 -0.9561  2.1583
 9379SOL     OW39598   3.595   3.961  15.658 -0.0193 -0.6237 -0.3018
 9379SOL    HW139599   3.645   3.959  15.577  2.9920 -0.1632  1.5291
 9379SOL    HW239600   3.615   4.037  15.712  0.6430 -1.0291  0.0251
 9380SOL     OW39601   1.657   0.667   9.146 -0.2422 -0.3259 -0.0233
 9380SOL    HW139602   1.581   0.643   9.199 -1.9319  1.5322 -1.6435
 9380SOL    HW239603   1.685   0.751   9.181 -0.2766 -0.9984  1.6187
 9381SOL     OW39604   3.478   1.884   6.234  0.3073  0.3838 -0.1098
 9381SOL    HW139605   3.537   1.950   6.199 -0.0447  1.1571  0.7533
 9381SOL    HW239606   3.508   1.805   6.188 -0.2266 -0.2470  0.6134
 9382SOL     OW39607   1.549   4.334   5.782 -0.8457 -0.1867  0.2664
 9382SOL    HW139608   1.557   4.242   5.757  0.9930 -0.4417  1.7428
 9382SOL    HW239609   1.556   4.374   5.695  1.2168  0.8284  0.8937
 9383SOL     OW39610   0.629   2.212   3.063  0.0758 -0.0504  0.2941
 9383SOL    HW139611   0.613   2.230   2.970 -0.9993 -0.7885  0.3344
 9383SOL    HW239612   0.675   2.129   3.049 -1.1742 -1.0505  1.9646
 9384SOL     OW39613   3.518   3.430  17.538  0.6144  0.2273  0.1477
 9384SOL    HW139614   3.446   3.454  17.597  1.2353  0.0538  0.9833
 9384SOL    HW239615   3.583   3.493  17.568  2.0219  0.2174 -2.8972
 9385SOL     OW39616   0.853   2.531   5.208  0.0254  0.0892  0.1493
 9385SOL    HW139617   0.875   2.596   5.275 -0.2374 -1.4311  1.6879
 9385SOL    HW239618   0.922   2.466   5.216  0.0936  0.1695  0.2139
 9386SOL     OW39619   3.029   1.743  13.426  0.0668  0.3766  0.3525
 9386SOL    HW139620   3.097   1.755  13.492 -0.3179 -1.0023  1.0001
 9386SOL    HW239621   3.010   1.836  13.412 -0.4956 -0.0010 -1.3554
 9387SOL     OW39622   3.245   4.477   8.599  0.1016 -0.6036  0.1164
 9387SOL    HW139623   3.156   4.480   8.564 -0.6963  0.7032  2.2677
 9387SOL    HW239624   3.237   4.497   8.692 -0.2885  1.6403 -0.4006
 9388SOL     OW39625   3.533   2.287  10.628 -0.5162 -0.0640 -0.3952
 9388SOL    HW139626   3.553   2.381  10.636  0.5837 -0.3700  0.3921
 9388SOL    HW239627   3.582   2.254  10.703  1.7373  2.2307 -0.8503
 9389SOL     OW39628   3.416   0.263   7.399 -0.3162 -0.3253 -0.2915
 9389SOL    HW139629   3.402   0.280   7.306  2.9326  2.5272 -0.2659
 9389SOL    HW239630   3.333   0.292   7.437 -0.5819  0.4007 -1.4275
 9390SOL     OW39631   1.630   1.343  11.544 -0.4006  0.2177  0.3855
 9390SOL    HW139632   1.719   1.361  11.515 -0.5152  0.8162  0.4008
 9390SOL    HW239633   1.617   1.249  11.534 -2.1843  0.3934  1.0649
 9391SOL     OW39634   0.875   1.036   5.101 -0.3692 -0.1564  0.1544
 9391SOL    HW139635   0.850   1.064   5.012  2.1541 -1.4176 -0.9560
 9391SOL    HW239636   0.959   0.993   5.084 -0.2787  1.1716 -2.9228
 9392SOL     OW39637   1.017   0.437   8.470 -0.0885  0.6674 -0.0909
 9392SOL    HW139638   1.010   0.362   8.412 -2.2947  0.5054  0.4022
 9392SOL    HW239639   1.108   0.443   8.501  0.1079  0.5711 -0.6623
 9393SOL     OW39640   0.639   3.624   0.642  0.0915 -0.5342 -0.0146
 9393SOL    HW139641   0.710   3.575   0.684 -1.1246 -3.8549 -1.8663
 9393SOL    HW239642   0.665   3.713   0.667 -1.8853 -0.0079  0.1844
 9394SOL     OW39643   1.627   3.513   0.965 -0.3801 -0.3420  0.0097
 9394SOL    HW139644   1.671   3.462   0.897  1.0806 -1.1481  1.5309
 9394SOL    HW239645   1.693   3.564   1.013 -1.5800  1.5477 -0.3600
 9395SOL     OW39646   3.409   4.339   5.099  0.1178 -0.9134 -0.0634
 9395SOL    HW139647   3.422   4.249   5.071  1.8475 -0.9398  0.8341
 9395SOL    HW239648   3.481   4.343   5.162  0.2298  1.1671 -0.3261
 9396SOL     OW39649   0.919   2.326   8.819 -0.7347  0.4410 -0.3886
 9396SOL    HW139650   0.831   2.291   8.829 -0.2393 -0.6676  0.1288
 9396SOL    HW239651   0.946   2.351   8.907 -0.6808  0.3876 -0.3899
 9397SOL     OW39652   2.854   3.944   5.753 -0.3542  0.9077 -0.1273
 9397SOL    HW139653   2.812   4.027   5.775 -1.3002  0.3780  0.0507
 9397SOL    HW239654   2.934   3.982   5.716  0.4274  0.1588  0.8018
 9398SOL     OW39655   2.724   1.885   5.011  0.3517  0.1779 -0.1720
 9398SOL    HW139656   2.805   1.908   5.057 -0.9640  2.5666  0.9864
 9398SOL    HW239657   2.721   1.790   5.018  1.8259  0.1646  0.3570
 9399SOL     OW39658   3.971   0.081   0.329  0.2416  0.3464  0.1972
 9399SOL    HW139659   3.892   0.129   0.353 -0.4655 -0.8091  0.1788
 9399SOL    HW239660   3.978   0.096   0.235 -0.3419  0.1849  0.1267
 9400SOL     OW39661   0.769   4.526  16.826 -0.1833 -0.1375  0.2886
 9400SOL    HW139662   0.808   4.598  16.876 -0.3060  0.3634 -0.3285
 9400SOL    HW239663   0.809   4.451  16.869 -1.1252 -0.4278  0.6422
 9401SOL     OW39664   1.990   3.954  11.721  0.7179 -0.6609 -0.0911
 9401SOL    HW139665   2.078   3.981  11.748  0.0567 -0.2810  1.6998
 9401SOL    HW239666   1.952   4.038  11.695 -0.4857 -1.1596  0.0398
 9402SOL     OW39667   4.179   2.642  14.056  0.3814  0.2844  0.5626
 9402SOL    HW139668   4.242   2.668  14.122  1.8657 -0.9523 -0.3572
 9402SOL    HW239669   4.138   2.573  14.108 -0.5029  0.3563 -0.0319
 9403SOL     OW39670   0.017   4.291   7.005  0.1235  0.2016  0.1661
 9403SOL    HW139671   4.666   4.269   7.060 -1.5818  0.5416 -1.9765
 9403SOL    HW239672   4.706   4.347   6.935  0.3921  0.5849  0.3372
 9404SOL     OW39673   4.294   0.312   9.666  0.2973 -0.0425  0.0819
 9404SOL    HW139674   4.345   0.242   9.625  1.1844  1.0233 -0.6358
 9404SOL    HW239675   4.342   0.326   9.748 -1.5212  0.4397  1.0781
 9405SOL     OW39676   4.555   3.787   9.319  0.0007 -0.2384 -0.0573
 9405SOL    HW139677   4.510   3.867   9.345 -0.6853 -0.7361  0.2817
 9405SOL    HW239678   4.532   3.790   9.226 -0.1410 -1.4497 -0.0614
 9406SOL     OW39679   4.481   2.223   1.616 -0.2638  0.4740  0.2627
 9406SOL    HW139680   4.465   2.131   1.596 -2.8165  0.9656  0.0662
 9406SOL    HW239681   4.435   2.228   1.700 -1.5548 -0.3988 -0.3960
 9407SOL     OW39682   2.520   0.343   2.079  0.0407 -0.0995  0.0301
 9407SOL    HW139683   2.609   0.333   2.114 -0.5056 -1.4682  1.0522
 9407SOL    HW239684   2.535   0.425   2.033  1.3576 -0.5939 -0.4164
 9408SOL     OW39685   2.944   3.414   3.090  0.1791 -0.1479 -0.3130
 9408SOL    HW139686   2.993   3.477   3.037  0.0364 -0.9582 -1.4246
 9408SOL    HW239687   3.009   3.344   3.098 -0.9251 -1.2750 -1.1428
 9409SOL     OW39688   2.871   2.482   7.791 -0.5918  0.1075  0.6884
 9409SOL    HW139689   2.880   2.500   7.884 -2.2573  2.0117  0.4550
 9409SOL    HW239690   2.935   2.410   7.787 -0.4802  0.3919 -2.7306
 9410SOL     OW39691   1.950   4.580   5.315  0.2542  0.4380  0.3744
 9410SOL    HW139692   1.956   4.644   5.385  1.0421  1.5482 -0.7112
 9410SOL    HW239693   1.867   4.606   5.275 -1.0580 -3.4969  0.5319
 9411SOL     OW39694   4.242   2.133   0.262 -0.8534  0.2398  0.1009
 9411SOL    HW139695   4.267   2.225   0.269 -1.8054  0.4311  0.9248
 9411SOL    HW239696   4.314   2.095   0.314 -1.1878 -0.1376  0.2860
 9412SOL     OW39697   0.560   4.560   8.864  0.1667 -0.0442  0.2716
 9412SOL    HW139698   0.589   4.489   8.922 -1.6828 -0.1675  1.0450
 9412SOL    HW239699   0.583   4.638   8.915  1.1026 -1.4125  1.9196
 9413SOL     OW39700   0.359   0.486   5.067  0.1984 -0.2188  0.5897
 9413SOL    HW139701   0.309   0.472   4.986  1.4881 -1.0524 -0.0657
 9413SOL    HW239702   0.287   0.467   5.127  0.2148 -1.4048  0.2480
 9414SOL     OW39703   0.432   2.065   8.062  0.4546  0.1435 -0.3429
 9414SOL    HW139704   0.407   2.151   8.095  1.7972 -0.3448  1.9279
 9414SOL    HW239705   0.436   2.017   8.145  0.4335  0.8571  0.0725
 9415SOL     OW39706   1.554   0.305   7.150 -0.2319  0.0462 -0.5671
 9415SOL    HW139707   1.494   0.261   7.091  0.7833 -1.0214 -0.8065
 9415SOL    HW239708   1.555   0.397   7.123  0.2941  0.0394 -0.5864
 9416SOL     OW39709   1.341   3.965   4.639 -0.1801 -0.2182 -1.0037
 9416SOL    HW139710   1.288   3.929   4.568  0.0499  0.5178 -1.5446
 9416SOL    HW239711   1.276   3.932   4.701  0.4227 -0.8257 -0.7050
 9417SOL     OW39712   4.172   1.206   7.536  0.0678  0.6420 -0.1328
 9417SOL    HW139713   4.227   1.257   7.476 -1.6761  1.2048 -1.2452
 9417SOL    HW239714   4.236   1.210   7.608 -0.9885  1.0597  0.7922
 9418SOL     OW39715   2.171   2.984  16.091 -0.2563 -0.9594 -0.9646
 9418SOL    HW139716   2.179   3.079  16.086 -2.5431 -0.6677  1.0980
 9418SOL    HW239717   2.209   2.966  16.177 -1.5231  1.1542  0.0222
 9419SOL     OW39718   2.565   4.302   2.125  0.4421  0.2720 -0.4467
 9419SOL    HW139719   2.565   4.392   2.156  0.6105 -0.4943  1.7582
 9419SOL    HW239720   2.559   4.242   2.199 -0.8292  1.2184  0.2055
 9420SOL     OW39721   2.110   4.003   2.472  0.7757  0.6543 -0.6024
 9420SOL    HW139722   2.179   3.938   2.457 -0.9758 -1.5771  0.9095
 9420SOL    HW239723   2.085   3.976   2.560  0.0768  0.6181 -0.8140
 9421SOL     OW39724   1.295   2.645   2.470 -0.5102 -0.3845  0.0552
 9421SOL    HW139725   1.229   2.610   2.530 -1.7802  0.5157 -0.8245
 9421SOL    HW239726   1.264   2.609   2.386 -0.4103 -2.0099  0.7059
 9422SOL     OW39727   1.865   3.954   3.500 -0.4812 -0.4986  0.1671
 9422SOL    HW139728   1.783   3.904   3.502 -1.1625  0.5800 -0.6135
 9422SOL    HW239729   1.915   3.925   3.577 -0.7055 -1.0806  0.0923
 9423SOL     OW39730   4.273   0.933  10.685 -0.0569 -0.2907  0.0474
 9423SOL    HW139731   4.241   0.847  10.715  0.0920 -0.8541 -1.4427
 9423SOL    HW239732   4.239   0.939  10.596  0.9110  0.0988 -0.2946
 9424SOL     OW39733   0.455   0.707   6.533 -0.6256 -0.0629 -0.5009
 9424SOL    HW139734   0.545   0.732   6.512 -0.5502  0.2560  0.1637
 9424SOL    HW239735   0.423   0.791   6.567  0.6774  0.4855 -0.6340
 9425SOL     OW39736   4.677   0.054   3.751 -0.0647  0.6517 -0.2218
 9425SOL    HW139737   4.617   4.708   3.779  0.2340 -0.6971 -2.9509
 9425SOL    HW239738   0.031   0.056   3.807  0.9364 -1.7965 -1.5135
 9426SOL     OW39739   3.504   0.118  10.997 -0.3121 -0.2463 -0.3096
 9426SOL    HW139740   3.432   0.067  11.034  0.5011 -2.4030 -1.6849
 9426SOL    HW239741   3.553   0.137  11.077 -2.9833  1.3217  0.9115
 9427SOL     OW39742   0.654   1.491   3.768 -0.2137 -0.0585  0.0885
 9427SOL    HW139743   0.608   1.458   3.691  0.1169  1.0499 -0.5926
 9427SOL    HW239744   0.643   1.421   3.832  0.2855  0.5891  0.8949
 9428SOL     OW39745   0.507   1.133   4.572  0.0375 -0.0318  0.3622
 9428SOL    HW139746   0.581   1.102   4.521 -0.6652  1.5507 -1.5886
 9428SOL    HW239747   0.553   1.154   4.654  2.1413  2.7233 -1.5255
 9429SOL     OW39748   4.370   1.295   8.429  0.3563  0.0987 -0.0346
 9429SOL    HW139749   4.291   1.303   8.375  0.6938 -1.6563 -0.7913
 9429SOL    HW239750   4.427   1.370   8.411 -0.1733  0.6482  0.5949
 9430SOL     OW39751   4.239   3.093   1.816 -0.2573  0.3944 -0.2621
 9430SOL    HW139752   4.310   3.048   1.771 -0.6499  0.0447 -0.5400
 9430SOL    HW239753   4.183   3.024   1.854 -0.1590 -0.5500 -1.8268
 9431SOL     OW39754   1.966   0.048  12.934 -0.4352  0.3513  0.1711
 9431SOL    HW139755   1.894   0.032  12.873 -1.1979 -0.4903  1.2889
 9431SOL    HW239756   2.031   4.722  12.885 -2.7680  1.1179 -3.7294
 9432SOL     OW39757   4.432   2.282   3.859 -0.4169  0.6642 -0.1760
 9432SOL    HW139758   4.434   2.280   3.763  2.3109 -1.0255 -0.0934
 9432SOL    HW239759   4.527   2.275   3.871 -0.6025  1.8051  1.9974
 9433SOL     OW39760   0.000   2.528   2.237 -0.1413 -0.4945  0.0171
 9433SOL    HW139761   4.677   2.465   2.292  0.4788 -0.7817  0.2076
 9433SOL    HW239762   4.677   2.607   2.265  1.5907  0.7110 -0.4552
 9434SOL     OW39763   0.376   3.505  14.838  0.3332 -0.1296  0.2066
 9434SOL    HW139764   0.423   3.505  14.755 -0.4388  1.8790 -0.2356
 9434SOL    HW239765   0.371   3.599  14.852 -1.2734  0.0581 -1.6256
 9435SOL     OW39766   1.384   1.820   9.424  0.3849 -0.2039  0.5864
 9435SOL    HW139767   1.305   1.867   9.451 -0.3041 -0.7967 -0.3845
 9435SOL    HW239768   1.382   1.740   9.475 -2.9446  0.8357  2.1113
 9436SOL     OW39769   2.857   1.807   4.098  0.7470 -0.5588  0.9380
 9436SOL    HW139770   2.885   1.721   4.068 -0.8467 -1.7851  2.9761
 9436SOL    HW239771   2.783   1.775   4.149 -1.2524  0.6127 -1.2059
 9437SOL     OW39772   4.676   0.175  14.888 -0.1126 -0.6434  0.1140
 9437SOL    HW139773   4.710   0.086  14.874  1.5386 -0.1190  0.8724
 9437SOL    HW239774   4.635   0.186  14.802  1.4129 -0.1616 -0.5460
 9438SOL     OW39775   2.891   0.895   1.807 -0.1511 -0.3627  0.2125
 9438SOL    HW139776   2.950   0.939   1.745 -0.5774 -2.0116 -1.3585
 9438SOL    HW239777   2.814   0.873   1.755 -0.9392  1.6904  0.5126
 9439SOL     OW39778   0.167   0.113   7.997  0.2460  0.5846  0.4734
 9439SOL    HW139779   0.081   0.087   7.965  0.1534  0.1083  1.1038
 9439SOL    HW239780   0.203   0.042   8.050 -1.1555  0.2286  0.9398
 9440SOL     OW39781   2.583   0.691  11.279  0.4822  0.6740  0.2175
 9440SOL    HW139782   2.489   0.708  11.283  0.6141  1.4295  0.2568
 9440SOL    HW239783   2.609   0.751  11.208  0.2791  1.0748  0.4821
 9441SOL     OW39784   4.694   0.096   2.503  0.5348 -0.4597  0.0852
 9441SOL    HW139785   0.020   0.082   2.422  2.0362 -2.1502  1.2710
 9441SOL    HW239786   4.689   0.191   2.507  3.0632 -0.3101  0.0859
 9442SOL     OW39787   0.510   1.004   5.997 -0.0636 -0.0486 -0.3301
 9442SOL    HW139788   0.555   0.919   6.004  1.0670  0.7469  2.2622
 9442SOL    HW239789   0.562   1.057   5.937  3.0370 -0.5489  1.9105
 9443SOL     OW39790   1.525   0.535   5.003 -0.5116 -0.6585 -0.2440
 9443SOL    HW139791   1.548   0.550   5.095 -0.8843 -0.2379 -0.2167
 9443SOL    HW239792   1.609   0.513   4.963 -1.1318  1.0818 -2.4775
 9444SOL     OW39793   2.901   2.066   0.097 -0.3686 -0.2622 -1.1647
 9444SOL    HW139794   2.967   1.997   0.089 -1.0923 -1.0920  0.1460
 9444SOL    HW239795   2.872   2.051   0.187  0.7629 -1.2093 -0.9545
 9445SOL     OW39796   4.537   0.823  10.664 -0.3527 -0.1259  0.0663
 9445SOL    HW139797   4.456   0.870  10.686  0.4281  1.1792  0.1707
 9445SOL    HW239798   4.576   0.806  10.749  0.3825  0.0347 -0.2380
 9446SOL     OW39799   2.245   1.971   3.036 -0.1817 -0.2149  0.2844
 9446SOL    HW139800   2.282   1.886   3.060  1.3185  0.2255 -0.4868
 9446SOL    HW239801   2.184   1.939   2.969 -0.6484  1.0288  0.1210
 9447SOL     OW39802   0.675   1.040  12.891  0.3802  0.0570 -0.6911
 9447SOL    HW139803   0.708   1.119  12.848 -1.4753 -0.2357 -2.6705
 9447SOL    HW239804   0.582   1.062  12.900  0.3141 -0.2100 -0.7325
 9448SOL     OW39805   2.922   1.124   4.405  0.2595  0.0305 -0.1043
 9448SOL    HW139806   2.849   1.096   4.350 -0.9019  0.2538  1.3098
 9448SOL    HW239807   2.984   1.143   4.335  0.5521  0.6648  0.3301
 9449SOL     OW39808   3.284   3.181   5.296 -0.1254  0.0143 -0.0167
 9449SOL    HW139809   3.311   3.244   5.363 -1.8914 -1.0387  1.6835
 9449SOL    HW239810   3.201   3.153   5.333 -0.6608  0.5239 -0.8375
 9450SOL     OW39811   3.879   2.712  14.593  0.6795  0.6304  0.7086
 9450SOL    HW139812   3.925   2.755  14.665 -0.4280  3.2981 -0.1859
 9450SOL    HW239813   3.947   2.648  14.572 -0.0616 -0.8707  2.9118
 9451SOL     OW39814   1.965   1.649   2.981  0.0066  0.4795 -0.1243
 9451SOL    HW139815   1.878   1.681   2.956  0.5503  1.4246 -0.8201
 9451SOL    HW239816   2.019   1.694   2.916  1.9531 -0.3494  0.9195
 9452SOL     OW39817   1.385   0.799   1.389 -0.0267  0.1430  0.0720
 9452SOL    HW139818   1.299   0.758   1.404  0.2696  0.2233  2.0426
 9452SOL    HW239819   1.428   0.763   1.466  1.4959  1.3427 -0.2128
 9453SOL     OW39820   4.648   3.653   7.761  0.5336  0.3956  0.2346
 9453SOL    HW139821   0.016   3.624   7.755  0.2000 -1.1185  2.1523
 9453SOL    HW239822   4.651   3.733   7.709  0.5327  2.1134  2.8898
 9454SOL     OW39823   0.421   0.894   3.252 -0.7676  0.2751  0.0528
 9454SOL    HW139824   0.382   0.891   3.165 -2.7396 -1.9242  0.9928
 9454SOL    HW239825   0.350   0.876   3.315  2.3219 -0.1924  3.4036
 9455SOL     OW39826   3.021   0.104  12.618  0.1745  0.5054  0.0878
 9455SOL    HW139827   3.022   0.192  12.654 -3.2094  0.6562 -0.1991
 9455SOL    HW239828   2.931   0.099  12.585 -0.0833  2.2185  0.5275
 9456SOL     OW39829   3.254   0.588   2.270 -0.0711  0.3246  1.2946
 9456SOL    HW139830   3.299   0.506   2.291  0.0067  0.5348  1.9442
 9456SOL    HW239831   3.216   0.608   2.355  1.3474  2.4406  1.4341
 9457SOL     OW39832   0.287   1.544   8.586 -0.0271  0.1688 -0.1841
 9457SOL    HW139833   0.341   1.507   8.657  0.5579  0.1733 -0.6277
 9457SOL    HW239834   0.324   1.493   8.514  0.6922 -0.0925  0.3678
 9458SOL     OW39835   3.665   3.373   7.883  0.3319  0.5848  0.4333
 9458SOL    HW139836   3.664   3.446   7.946 -0.9177  2.1432 -1.3846
 9458SOL    HW239837   3.570   3.380   7.867 -0.0567  0.2074  2.5667
 9459SOL     OW39838   3.764   4.354  16.270 -0.4045 -0.1029  0.4570
 9459SOL    HW139839   3.786   4.446  16.253 -3.2269  0.6498  0.8982
 9459SOL    HW239840   3.762   4.316  16.182  2.0584  2.7655 -0.8370
 9460SOL     OW39841   3.816   0.014   2.390  0.0498 -0.0562 -0.1518
 9460SOL    HW139842   3.730   4.712   2.359 -0.9265  1.9821  0.9130
 9460SOL    HW239843   3.856   0.024   2.304  1.6096 -0.2964  0.5379
 9461SOL     OW39844   3.248   0.110   4.396 -0.3093 -0.0357  0.1146
 9461SOL    HW139845   3.185   0.136   4.329 -1.3868  0.7481  1.4354
 9461SOL    HW239846   3.256   0.187   4.453  0.1787  1.1388 -1.5232
 9462SOL     OW39847   0.924   2.074   2.770  0.0300 -0.4523 -0.2565
 9462SOL    HW139848   0.972   2.138   2.718 -0.5474  1.5812  1.6830
 9462SOL    HW239849   0.982   2.040   2.839  0.9703  0.9074 -0.3616
 9463SOL     OW39850   4.487   0.286  17.552 -0.0178  0.2510  0.4553
 9463SOL    HW139851   4.540   0.309  17.476  0.4140  2.0051  1.2949
 9463SOL    HW239852   4.503   0.192  17.542  2.3159  0.6027  0.8784
 9464SOL     OW39853   1.636   1.974   3.910 -0.2977  0.1691 -0.2834
 9464SOL    HW139854   1.693   2.047   3.888  0.0928  0.4371  1.6233
 9464SOL    HW239855   1.637   1.928   3.826  1.3697  1.8110 -1.1540
 9465SOL     OW39856   4.183   3.045   7.718  0.5437  0.7632 -0.3741
 9465SOL    HW139857   4.270   3.039   7.758  1.0553  0.9750 -1.4301
 9465SOL    HW239858   4.171   2.951   7.720 -2.3705  1.1476 -0.1311
 9466SOL     OW39859   0.875   4.111   5.067 -0.1791 -0.0784 -0.4455
 9466SOL    HW139860   0.951   4.119   5.125 -1.4797  0.0151  1.2410
 9466SOL    HW239861   0.808   4.115   5.135 -2.2876  1.4561 -2.6176
 9467SOL     OW39862   2.178   2.945   2.859  0.0867  0.7164  0.4077
 9467SOL    HW139863   2.265   2.909   2.842  0.0023 -0.0112  1.5290
 9467SOL    HW239864   2.167   2.901   2.944  0.6356 -0.4242 -0.1105
 9468SOL     OW39865   0.071   4.571   4.975  0.3196 -0.7732 -1.1887
 9468SOL    HW139866   0.160   4.539   4.990  0.3465 -0.5064 -0.7739
 9468SOL    HW239867   0.040   4.580   5.065  1.7616  0.1992 -0.7881
 9469SOL     OW39868   3.751   1.178   4.144  0.0592  0.3538  0.7240
 9469SOL    HW139869   3.783   1.227   4.220  4.6410 -0.0951 -0.9139
 9469SOL    HW239870   3.784   1.245   4.085  2.4311  0.9954  2.7646
 9470SOL     OW39871   0.079   0.898   2.323 -0.2517  0.8863 -0.1976
 9470SOL    HW139872   0.058   0.842   2.248  1.2186 -0.4989  0.4245
 9470SOL    HW239873   0.055   0.851   2.403  1.1922 -0.7370 -0.7248
 9471SOL     OW39874   0.222   1.571   6.073 -0.6261 -0.3527 -0.2459
 9471SOL    HW139875   0.194   1.480   6.063 -2.5206  0.3267 -1.0431
 9471SOL    HW239876   0.311   1.558   6.040 -0.0882  2.0734  0.2584
 9472SOL     OW39877   3.544   2.753   5.786  0.4638  0.1549 -0.0130
 9472SOL    HW139878   3.578   2.819   5.725 -1.3300  0.1467 -1.0002
 9472SOL    HW239879   3.462   2.798   5.803  0.6175 -0.7236  3.0287
 9473SOL     OW39880   4.198   0.389   5.575 -0.2290 -0.6002 -0.2186
 9473SOL    HW139881   4.123   0.405   5.518  0.1461  1.8480 -0.0276
 9473SOL    HW239882   4.172   0.436   5.654 -0.8299 -0.6282 -0.3928
 9474SOL     OW39883   0.218   2.776   7.817 -0.4741 -0.1985  0.2261
 9474SOL    HW139884   0.166   2.754   7.895  0.7761  1.7918  1.6301
 9474SOL    HW239885   0.256   2.860   7.843 -1.3152  0.1093  0.4896
 9475SOL     OW39886   4.571   2.667   3.918  0.4078  0.1101 -0.2107
 9475SOL    HW139887   4.572   2.739   3.855 -0.6124 -0.6599 -1.1084
 9475SOL    HW239888   4.529   2.710   3.993  0.3444 -0.6895  0.2112
 9476SOL     OW39889   2.288   4.593   4.101 -0.4044 -0.9566 -0.0265
 9476SOL    HW139890   2.229   4.520   4.121 -1.1785 -0.6201 -1.1042
 9476SOL    HW239891   2.348   4.553   4.039  1.4209  0.6262  0.7455
 9477SOL     OW39892   1.101   3.350   9.418  0.0689 -0.1495  0.5019
 9477SOL    HW139893   1.099   3.444   9.400 -4.3472  0.5182  4.3124
 9477SOL    HW239894   1.191   3.318   9.409  0.5528  0.9536  1.5141
 9478SOL     OW39895   3.054   1.881   9.380 -0.3459  0.2015  0.0787
 9478SOL    HW139896   3.097   1.797   9.366  0.7994  0.8315 -0.2653
 9478SOL    HW239897   2.982   1.846   9.432 -0.2534 -0.6080 -0.3392
 9479SOL     OW39898   3.083   3.116   6.608  0.3084 -0.5088  0.1259
 9479SOL    HW139899   3.150   3.080   6.549 -0.9589  0.0534 -1.6742
 9479SOL    HW239900   3.004   3.101   6.556  1.3261  2.0493 -2.1985
 9480SOL     OW39901   0.458   4.345   6.103  0.1584 -0.2863  0.0586
 9480SOL    HW139902   0.488   4.278   6.042 -1.6245  1.1660 -2.4161
 9480SOL    HW239903   0.515   4.420   6.083 -0.2721  0.3391  1.1467
 9481SOL     OW39904   2.915   3.196  10.708 -0.3140 -0.3029 -0.9168
 9481SOL    HW139905   2.963   3.116  10.686 -0.2133  0.0563 -2.0272
 9481SOL    HW239906   2.860   3.156  10.775  1.0962  0.7154  0.8398
 9482SOL     OW39907   1.527   2.253   3.165  0.2590  0.4264  0.5013
 9482SOL    HW139908   1.543   2.332   3.215 -0.7537  1.3848 -0.6668
 9482SOL    HW239909   1.438   2.266   3.131  0.3294 -1.0622 -0.2548
 9483SOL     OW39910   3.797   3.106   6.485  0.2072 -0.0864 -0.0841
 9483SOL    HW139911   3.749   3.180   6.523  2.8757  0.2623  2.5736
 9483SOL    HW239912   3.766   3.036   6.543 -0.7885 -0.5362 -1.1526
 9484SOL     OW39913   2.434   1.249  16.494 -0.2210 -0.6405 -0.0874
 9484SOL    HW139914   2.518   1.208  16.512 -1.0662 -2.9484 -1.5012
 9484SOL    HW239915   2.371   1.178  16.499  1.6684 -2.2458  0.8482
 9485SOL     OW39916   2.940   1.148   6.804  0.0429 -0.6087 -0.5563
 9485SOL    HW139917   2.853   1.108   6.804  0.7811 -2.1999 -2.1540
 9485SOL    HW239918   2.946   1.161   6.710  1.9269 -1.3635 -0.5422
 9486SOL     OW39919   4.155   0.596   4.903  0.2719  0.3327  0.2688
 9486SOL    HW139920   4.104   0.645   4.967  2.8946  2.7331  0.5747
 9486SOL    HW239921   4.124   0.636   4.821 -1.8593 -1.1279  0.3892
 9487SOL     OW39922   3.097   2.995   7.765  0.4508 -0.4064  0.1111
 9487SOL    HW139923   3.033   3.032   7.826 -1.1674 -1.3429 -0.9874
 9487SOL    HW239924   3.056   2.911   7.742  2.2357 -0.9409 -1.1374
 9488SOL     OW39925   3.634   0.153   4.237  0.2218 -0.4856  0.1353
 9488SOL    HW139926   3.571   0.224   4.250  0.4255  0.0571 -1.7630
 9488SOL    HW239927   3.707   0.215   4.233 -0.6167  0.4877 -0.1052
 9489SOL     OW39928   3.771   0.465   6.781 -0.6099  0.0131  0.3609
 9489SOL    HW139929   3.826   0.541   6.797  0.3568 -0.2619 -1.6205
 9489SOL    HW239930   3.703   0.482   6.846 -0.2436  0.3254  0.6571
 9490SOL     OW39931   2.930   3.408  14.431  0.0067  0.0892 -0.6370
 9490SOL    HW139932   2.945   3.323  14.472  0.3145 -0.0148 -0.9668
 9490SOL    HW239933   2.946   3.468  14.503  3.2717  0.2306 -1.4846
 9491SOL     OW39934   2.423   2.378   5.090 -0.2346 -0.1864  0.4279
 9491SOL    HW139935   2.424   2.474   5.097  2.0347 -0.0322 -1.9037
 9491SOL    HW239936   2.413   2.373   4.995  1.5477  0.6422  0.1897
 9492SOL     OW39937   2.439   2.298   5.886  0.0943 -0.2544  0.0835
 9492SOL    HW139938   2.344   2.286   5.888 -0.1780  1.6505 -1.1944
 9492SOL    HW239939   2.464   2.265   5.800 -2.3740 -1.6119 -0.1108
 9493SOL     OW39940   0.353   3.755   3.294 -0.3714 -0.3559 -0.6565
 9493SOL    HW139941   0.281   3.806   3.256 -2.1329 -2.4655 -0.1382
 9493SOL    HW239942   0.432   3.808   3.286 -0.3238 -0.1673  1.2079
 9494SOL     OW39943   3.044   1.121   7.221  0.4774  0.3672 -0.0553
 9494SOL    HW139944   2.963   1.070   7.213  0.6155 -0.2568  2.2580
 9494SOL    HW239945   3.070   1.141   7.131  1.6735 -0.5896  0.0774
 9495SOL     OW39946   1.663   4.477   8.830  0.2473 -0.4775  0.5643
 9495SOL    HW139947   1.709   4.494   8.747 -0.6308  0.3452  0.2450
 9495SOL    HW239948   1.622   4.564   8.832 -0.2255 -0.6977  0.2948
 9496SOL     OW39949   3.170   2.841   1.681 -0.3483 -0.4995 -0.4298
 9496SOL    HW139950   3.153   2.751   1.708 -0.5771  0.1849  1.6575
 9496SOL    HW239951   3.198   2.833   1.589 -1.2706 -2.9806 -0.4899
 9497SOL     OW39952   3.370   3.607   1.988 -0.4820  0.1646 -0.5101
 9497SOL    HW139953   3.307   3.538   2.011 -0.7971  0.7623  0.4098
 9497SOL    HW239954   3.311   3.674   1.954  0.1323  0.7317 -0.4453
 9498SOL     OW39955   3.344   3.336   5.498  0.6971 -0.1572  1.0198
 9498SOL    HW139956   3.285   3.412   5.500 -0.0557 -0.7022 -0.3995
 9498SOL    HW239957   3.293   3.277   5.554 -0.7928  0.3303  0.1833
 9499SOL     OW39958   1.894   0.092   1.892 -0.6957  0.0475 -0.2780
 9499SOL    HW139959   1.951   0.027   1.851 -0.7711 -0.4658  0.4208
 9499SOL    HW239960   1.805   0.059   1.887 -0.1979 -1.3602  0.2984
 9500SOL     OW39961   1.509   4.365   1.811  0.2252 -0.0761 -0.0490
 9500SOL    HW139962   1.530   4.456   1.790  0.8280 -0.0945  0.4714
 9500SOL    HW239963   1.445   4.343   1.743 -2.1460  2.9015  1.2084
 9501SOL     OW39964   1.887   0.075   1.132 -0.0810  0.1722  0.2919
 9501SOL    HW139965   1.960   0.129   1.104 -0.0289  0.1185  0.3230
 9501SOL    HW239966   1.895   0.007   1.064 -1.1317  1.3884 -1.0400
 9502SOL     OW39967   3.633   1.119   3.677  0.9547 -0.0321  0.0805
 9502SOL    HW139968   3.603   1.201   3.716 -2.1501 -0.8388 -0.5949
 9502SOL    HW239969   3.630   1.069   3.758  1.7409 -1.9139 -1.0390
 9503SOL     OW39970   4.397   1.852   9.688 -0.0043  0.1497 -0.0078
 9503SOL    HW139971   4.456   1.928   9.685 -0.1168  0.2358 -0.0204
 9503SOL    HW239972   4.322   1.875   9.634 -0.2221 -1.9886 -0.6309
 9504SOL     OW39973   3.989   4.630   6.131  0.0347 -0.2865 -0.0364
 9504SOL    HW139974   4.050   4.681   6.184  3.1764 -2.3756 -1.5993
 9504SOL    HW239975   3.950   4.698   6.077 -0.7328 -0.9141 -0.2791
 9505SOL     OW39976   4.636   3.175   2.037 -0.0923  0.0153 -0.0794
 9505SOL    HW139977   4.562   3.123   2.068  0.1162  0.9587  1.9660
 9505SOL    HW239978   4.639   3.245   2.102 -0.7234  0.5819 -0.6643
 9506SOL     OW39979   0.124   0.417   1.981  0.1008 -0.3796 -0.6838
 9506SOL    HW139980   0.062   0.377   2.042  0.7916 -1.6803 -0.8330
 9506SOL    HW239981   0.113   0.512   1.980  0.8714 -0.2990 -0.9748
 9507SOL     OW39982   1.938   2.546   5.223 -0.4447  0.4569  0.2374
 9507SOL    HW139983   1.922   2.451   5.224  0.8140  0.1988 -3.0627
 9507SOL    HW239984   1.976   2.557   5.310  0.6798 -0.0794 -0.1790
 9508SOL     OW39985   2.870   3.499   7.420 -0.1555 -0.0024 -0.4117
 9508SOL    HW139986   2.814   3.476   7.494  1.8776 -0.0605  1.0745
 9508SOL    HW239987   2.877   3.594   7.414 -1.4117  0.0443 -1.4221
 9509SOL     OW39988   4.215   3.184   5.937  0.5047 -0.7507  0.2376
 9509SOL    HW139989   4.204   3.114   5.872  0.3693 -1.4074  0.9646
 9509SOL    HW239990   4.126   3.221   5.943  0.8659 -0.1814  1.9611
 9510SOL     OW39991   3.127   2.210   6.717  0.3652 -0.8099 -0.1875
 9510SOL    HW139992   3.214   2.243   6.742  0.2283 -0.1469 -0.5995
 9510SOL    HW239993   3.087   2.288   6.679 -1.1918 -0.8002  1.4645
 9511SOL     OW39994   2.963   3.179   4.612  0.0759 -0.2421 -0.6040
 9511SOL    HW139995   3.029   3.247   4.598  0.9699 -1.1365 -0.7734
 9511SOL    HW239996   2.933   3.189   4.702  1.8761  1.8916 -0.2439
 9512SOL     OW39997   3.620   0.450  17.580 -0.4964 -0.1268  0.0495
 9512SOL    HW139998   3.701   0.474  17.626 -1.2987 -0.6712  1.7350
 9512SOL    HW239999   3.565   0.516  17.622 -0.6151  0.2909 -0.7734
 9513SOL     OW40000   2.087   1.255   2.171 -0.2743  0.4952 -0.2681
 9513SOL    HW140001   2.081   1.339   2.126  2.0185  1.7786  1.8166
 9513SOL    HW240002   2.117   1.208   2.094 -0.1481  2.0296 -1.1533
 9514SOL     OW40003   1.779   1.895   6.949  0.8128  0.3734  0.5090
 9514SOL    HW140004   1.870   1.868   6.960  0.6002 -1.1970 -1.4647
 9514SOL    HW240005   1.749   1.874   7.037 -1.2465 -0.5239 -0.4111
 9515SOL     OW40006   3.856   0.850   5.890  0.2478  0.2364  0.1245
 9515SOL    HW140007   3.930   0.789   5.893  1.5282  1.9045  1.5304
 9515SOL    HW240008   3.794   0.818   5.955 -1.6774  2.4429 -0.6504
 9516SOL     OW40009   0.718   2.428   4.681 -0.0487 -0.0354 -0.1849
 9516SOL    HW140010   0.683   2.389   4.600 -1.9295  0.7931  0.2372
 9516SOL    HW240011   0.777   2.359   4.711 -3.8706 -2.3775  1.9748
 9517SOL     OW40012   0.340   0.995   4.983  0.2796 -0.3357 -0.7961
 9517SOL    HW140013   0.363   1.071   4.928 -1.5880  0.9955  0.2658
 9517SOL    HW240014   0.420   0.987   5.035  0.8235 -0.4011 -1.6395
 9518SOL     OW40015   4.525   0.048   1.003 -0.9031 -0.0316 -0.2181
 9518SOL    HW140016   4.510   0.109   1.075 -3.9566 -3.2417  1.8828
 9518SOL    HW240017   4.440   0.004   1.010 -0.9369 -0.1071 -1.1388
 9519SOL     OW40018   1.158   4.112   9.456 -0.3857  0.0796 -0.0825
 9519SOL    HW140019   1.193   4.024   9.470 -1.8327 -0.5366 -0.3201
 9519SOL    HW240020   1.146   4.093   9.363  2.7272 -0.2199 -0.4036
 9520SOL     OW40021   1.962   3.229   7.977 -0.7320  0.1179 -0.0875
 9520SOL    HW140022   1.938   3.265   8.062  1.3982 -2.3115  1.5423
 9520SOL    HW240023   1.926   3.141   7.989 -3.1913  1.0892 -0.2299
 9521SOL     OW40024   1.682   1.035   6.683 -0.4671  0.0525  0.2502
 9521SOL    HW140025   1.658   1.127   6.689  0.2296  0.3116 -0.9750
 9521SOL    HW240026   1.595   1.010   6.652  0.6185 -0.2450 -2.6161
 9522SOL     OW40027   1.483   1.699   6.889  0.3150  0.2129 -0.3911
 9522SOL    HW140028   1.523   1.779   6.854 -1.6926  1.6440  0.5545
 9522SOL    HW240029   1.469   1.724   6.981 -1.8773  0.2495 -0.7317
 9523SOL     OW40030   1.763   3.998  14.419  0.5376  0.1779  0.0472
 9523SOL    HW140031   1.687   4.040  14.459 -1.0151 -1.2938 -1.3489
 9523SOL    HW240032   1.808   3.950  14.488 -1.6264 -1.4267  0.3524
 9524SOL     OW40033   4.009   4.621  16.249 -0.0788 -0.4665  0.2202
 9524SOL    HW140034   3.919   4.619  16.220 -0.9875  1.5251  2.8539
 9524SOL    HW240035   4.046   4.657  16.169 -0.8427  1.1726  0.6163
 9525SOL     OW40036   2.152   2.645  17.670  0.3590  0.4652 -0.4400
 9525SOL    HW140037   2.158   2.657   0.069  2.0407  2.0784 -0.7504
 9525SOL    HW240038   2.119   2.732  17.650 -2.2651  0.0609  2.1745
 9526SOL     OW40039   2.574   1.199   2.577  0.0591 -0.1387  0.0284
 9526SOL    HW140040   2.623   1.130   2.532  2.9581  0.4722  2.2033
 9526SOL    HW240041   2.583   1.268   2.512 -2.1628  1.1730  1.1398
 9527SOL     OW40042   4.171   0.351   7.431 -0.7901 -0.1630  0.3968
 9527SOL    HW140043   4.122   0.269   7.435 -0.7405 -0.2441 -0.5798
 9527SOL    HW240044   4.147   0.375   7.342  1.5771  2.5360  0.4818
 9528SOL     OW40045   4.036   3.213   5.636 -0.0155 -0.0152  0.1998
 9528SOL    HW140046   4.010   3.272   5.706  1.3754 -0.7927  1.3639
 9528SOL    HW240047   4.015   3.129   5.676  1.2732 -0.3579  0.1321
 9529SOL     OW40048   0.529   3.130   7.251  0.2179 -0.1624 -1.1804
 9529SOL    HW140049   0.502   3.189   7.321 -0.5764 -0.6293 -1.0952
 9529SOL    HW240050   0.454   3.080   7.220 -1.5725  0.8951  1.4140
 9530SOL     OW40051   2.776   2.209   4.376 -0.6071  0.0782 -0.0673
 9530SOL    HW140052   2.745   2.290   4.335  0.8608  0.9713  0.5924
 9530SOL    HW240053   2.712   2.146   4.343 -0.6954  0.0031  0.2462
 9531SOL     OW40054   3.084   2.970   0.906  0.4604 -0.0251 -0.0355
 9531SOL    HW140055   3.039   3.049   0.936  1.5326 -0.0564  1.6868
 9531SOL    HW240056   3.008   2.922   0.874 -0.2033 -1.1140  3.1519
 9532SOL     OW40057   2.611   2.659   7.344 -0.2755 -0.3842 -0.3552
 9532SOL    HW140058   2.643   2.630   7.429 -0.5132  1.2363  0.2913
 9532SOL    HW240059   2.686   2.709   7.313 -0.3639  0.0077  0.0621
 9533SOL     OW40060   4.426   3.470  10.496 -0.3500  0.4841 -0.4081
 9533SOL    HW140061   4.355   3.407  10.491 -1.3300  1.5693 -0.3361
 9533SOL    HW240062   4.499   3.416  10.466 -0.0558  0.3682  0.5167
 9534SOL     OW40063   3.496   0.533   2.856 -0.0241  0.5332 -0.2178
 9534SOL    HW140064   3.532   0.448   2.831  0.4767 -0.3296  3.4454
 9534SOL    HW240065   3.514   0.578   2.773  1.6976  1.0361  0.4334
 9535SOL     OW40066   1.211   4.297  16.809  0.4005  0.5998 -0.0649
 9535SOL    HW140067   1.223   4.236  16.736 -0.2715  1.4529 -0.8859
 9535SOL    HW240068   1.258   4.375  16.780  3.0224 -1.8424 -2.4048
 9536SOL     OW40069   2.902   1.578   7.443  0.3117  0.2362 -0.0115
 9536SOL    HW140070   2.918   1.652   7.501  0.4160  0.4663 -0.3330
 9536SOL    HW240071   2.813   1.561   7.472 -0.3513  0.7315 -1.7818
 9537SOL     OW40072   3.390   0.989   6.244 -0.6679 -0.4101  0.2834
 9537SOL    HW140073   3.336   0.952   6.175 -1.6317 -0.7022  1.1855
 9537SOL    HW240074   3.327   1.059   6.263  2.5744  2.9822 -1.4360
 9538SOL     OW40075   3.035   2.745  16.283  0.1856  0.8369 -0.1496
 9538SOL    HW140076   3.056   2.766  16.192 -1.3103  0.5375 -0.5612
 9538SOL    HW240077   3.092   2.672  16.305  0.6465  1.3255  0.2798
 9539SOL     OW40078   3.016   4.565   6.466  0.4638 -0.0050 -0.3383
 9539SOL    HW140079   3.025   4.624   6.541 -0.9868 -0.7837  0.4427
 9539SOL    HW240080   3.102   4.584   6.427  1.1843 -2.8735 -0.1729
 9540SOL     OW40081   4.499   0.624   6.966 -0.0753 -1.1563 -0.9941
 9540SOL    HW140082   4.477   0.538   7.001  0.7687 -0.4941  1.1399
 9540SOL    HW240083   4.428   0.677   7.004  1.2343  0.9339 -1.4646
 9541SOL     OW40084   0.360   0.916  14.161 -0.6069 -0.0640 -0.0324
 9541SOL    HW140085   0.362   0.822  14.177  0.1373 -0.2512 -1.2073
 9541SOL    HW240086   0.336   0.943  14.249  1.4343 -1.5830  0.9783
 9542SOL     OW40087   3.562   3.945   6.045 -0.5257 -0.0684 -0.2016
 9542SOL    HW140088   3.526   3.857   6.058  0.0365 -0.2160  0.3111
 9542SOL    HW240089   3.558   3.972   6.136 -0.3722 -0.1052 -0.1837
 9543SOL     OW40090   4.403   0.384  11.989 -0.3342  0.3817  0.1417
 9543SOL    HW140091   4.368   0.384  12.078  0.0843  0.4712  0.3084
 9543SOL    HW240092   4.480   0.328  12.001  0.0294  1.5534  3.2526
 9544SOL     OW40093   1.547   4.521   3.203 -0.7967 -0.1148 -0.6397
 9544SOL    HW140094   1.639   4.497   3.188 -0.6809  0.0610 -0.1891
 9544SOL    HW240095   1.555   4.612   3.229  0.3092 -0.4040  0.0189
 9545SOL     OW40096   0.074   0.456  13.548 -0.4194  0.5505  0.0145
 9545SOL    HW140097   0.038   0.482  13.632  1.5426 -0.9442  1.2993
 9545SOL    HW240098   0.030   0.372  13.543 -1.5242  1.1490 -0.3223
 9546SOL     OW40099   1.466   0.479   2.008 -0.3352 -0.1108 -0.4785
 9546SOL    HW140100   1.552   0.467   1.968  0.5716 -1.3380  1.8424
 9546SOL    HW240101   1.459   0.414   2.078  1.9179  0.1815 -0.0012
 9547SOL     OW40102   3.418   1.519   5.013  0.6276 -0.1119  0.8160
 9547SOL    HW140103   3.354   1.556   5.074 -0.1181  0.5291 -0.3657
 9547SOL    HW240104   3.404   1.569   4.933 -0.9881  0.5301  1.4974
 9548SOL     OW40105   4.687   3.191  14.383 -0.4029  0.4477  0.7934
 9548SOL    HW140106   4.663   3.282  14.400 -2.7454 -0.1230  0.5592
 9548SOL    HW240107   4.617   3.165  14.323 -0.6196  1.8946  0.4199
 9549SOL     OW40108   2.385   2.525  17.616  0.1127  0.0678 -0.1445
 9549SOL    HW140109   2.396   2.478   0.004  0.9939 -0.2013 -0.4121
 9549SOL    HW240110   2.301   2.570  17.616 -0.3884 -0.8446  1.3614
 9550SOL     OW40111   4.549   2.625   6.398  0.3865  0.0526 -0.3517
 9550SOL    HW140112   4.559   2.653   6.307  2.7206 -1.1600 -0.4762
 9550SOL    HW240113   4.625   2.656   6.448  2.4606  0.5197 -3.7843
 9551SOL     OW40114   2.517   0.794   3.519 -0.0578 -0.0252 -0.3521
 9551SOL    HW140115   2.522   0.880   3.479 -0.4928  0.9086  1.5784
 9551SOL    HW240116   2.444   0.753   3.473 -2.2509  2.3897  1.0242
 9552SOL     OW40117   0.826   2.147  12.159  0.1654  1.0475 -0.2096
 9552SOL    HW140118   0.842   2.232  12.117 -1.3655  0.7846 -1.3336
 9552SOL    HW240119   0.909   2.127  12.203  0.0723  0.5835 -0.2405
 9553SOL     OW40120   4.111   4.460  17.669 -0.1225 -0.2219 -0.0984
 9553SOL    HW140121   4.108   4.425   0.063  1.6162  1.7304  0.7139
 9553SOL    HW240122   4.027   4.429  17.634  1.6497 -2.5391 -2.3231
 9554SOL     OW40123   0.635   3.160   1.755  0.3178  0.4364 -0.2026
 9554SOL    HW140124   0.684   3.082   1.731 -2.0248 -0.7859 -0.9510
 9554SOL    HW240125   0.710   3.216   1.732  1.3292 -1.6222 -1.8974
 9555SOL     OW40126   3.769   1.255  15.161  0.1349  0.0457  0.2755
 9555SOL    HW140127   3.774   1.274  15.255 -1.0540  1.5559  0.0201
 9555SOL    HW240128   3.741   1.340  15.129  0.6414  0.8301  1.9323
 9556SOL     OW40129   2.927   3.237   9.591  0.0552 -0.0092  0.1900
 9556SOL    HW140130   2.918   3.221   9.497 -0.7076  2.2597 -0.1176
 9556SOL    HW240131   2.850   3.292   9.605 -0.1314 -0.3205  0.4192
 9557SOL     OW40132   0.796   0.089   6.056 -0.3082  0.3856 -0.1479
 9557SOL    HW140133   0.853   0.133   5.993  1.0082 -0.3998  0.4931
 9557SOL    HW240134   0.731   0.045   6.000  1.0949 -0.9517 -0.7269
 9558SOL     OW40135   1.205   2.649   3.725 -0.1860 -0.3080 -0.5481
 9558SOL    HW140136   1.293   2.650   3.763  0.1049 -0.6386 -1.2117
 9558SOL    HW240137   1.232   2.672   3.636 -0.1433  1.1612 -0.1537
 9559SOL     OW40138   2.166   0.501   8.032  0.7074  0.2161  0.3646
 9559SOL    HW140139   2.074   0.528   8.029  0.5655 -0.2299  0.6490
 9559SOL    HW240140   2.161   0.405   8.037  1.5619  0.2208  1.4666
 9560SOL     OW40141   1.947   2.113   4.844 -0.2765 -0.2139 -0.3559
 9560SOL    HW140142   1.970   2.020   4.845 -1.5658 -0.5432 -1.1439
 9560SOL    HW240143   1.924   2.134   4.934 -0.3262  0.4119 -0.5105
 9561SOL     OW40144   1.321   1.464   5.498 -0.1057  0.6628  0.5443
 9561SOL    HW140145   1.243   1.519   5.499  0.4154  1.3784  2.1529
 9561SOL    HW240146   1.322   1.425   5.411  1.0214  0.7699  0.5072
 9562SOL     OW40147   0.348   0.723  11.743 -0.9366 -0.1414  0.2574
 9562SOL    HW140148   0.379   0.796  11.690 -0.7317 -0.6549 -0.3334
 9562SOL    HW240149   0.254   0.739  11.753 -0.4815  1.7141  1.3612
 9563SOL     OW40150   1.001   3.682   4.658 -0.3208 -0.6552  0.1044
 9563SOL    HW140151   1.073   3.646   4.606 -0.1963  0.4354 -0.4679
 9563SOL    HW240152   1.040   3.740   4.723  0.7204  1.3955 -2.3535
 9564SOL     OW40153   1.293   0.969   6.775  0.3199 -0.1096  0.1193
 9564SOL    HW140154   1.339   1.008   6.850 -2.4815  2.6279  0.4378
 9564SOL    HW240155   1.234   1.037   6.741 -0.3235  0.3761  2.2215
 9565SOL     OW40156   2.628   0.313   5.279  0.5236 -0.2880  0.1819
 9565SOL    HW140157   2.564   0.246   5.301  1.5966 -1.2816  0.2883
 9565SOL    HW240158   2.710   0.265   5.293  0.8379 -0.2665 -1.5636
 9566SOL     OW40159   3.205   3.944  16.112  0.6286 -0.0305  0.2638
 9566SOL    HW140160   3.146   3.897  16.053 -0.9374 -1.4891  2.9720
 9566SOL    HW240161   3.222   3.874  16.176 -3.6063 -2.2220 -1.0344
 9567SOL     OW40162   3.537   1.935   2.647  0.6428 -0.3298 -0.0076
 9567SOL    HW140163   3.451   1.928   2.606  0.4397  0.4783  0.2999
 9567SOL    HW240164   3.595   1.944   2.572 -0.7169 -2.1618 -1.2796
 9568SOL     OW40165   3.996   1.124   0.992 -0.4514  0.3591 -0.6362
 9568SOL    HW140166   3.977   1.158   1.080 -1.4026 -0.4797 -0.5245
 9568SOL    HW240167   4.090   1.133   0.976 -0.1195 -2.0001 -0.0034
   4.72344   4.72344  17.69557
