Membrane in water
40167
    1TCq1    O1    1   4.527   4.621  11.228 -0.2530 -0.1982  0.0286
    1TCq1    C1    2   4.663   4.625  11.243 -0.1049  0.1468  0.0286
    1TCq1    O2    3   0.019   4.599  11.150 -0.1519  0.8782  0.2382
    1TCq1    C2    4   4.691   4.585  11.383  0.6591 -0.1664 -0.4315
    1TCq1    C3    5   0.074   4.499  11.379 -0.7385  0.5202  0.1571
    1TCq1    C4    6   0.104   4.421  11.485 -0.9326  0.2578  0.5330
    1TCq1    C5    7   0.019   4.425  11.587  0.0845 -0.6075  0.7848
    1TCq1    C6    8   4.619   4.492  11.575  0.2322  0.6701 -0.5104
    1TCq1    C7    9   4.596   4.580  11.475  0.1110 -0.5912  0.0949
    1TCq1    C8   10   4.534   4.493  11.691 -0.0093  0.7845 -0.6226
    1TCq1    O4   11   4.465   4.591  11.706  1.0597 -0.1542  0.5991
    1TCq1    C9   12   0.234   4.348  11.481 -0.3841 -0.5522 -0.6097
    1TCq1    O5   13   0.285   4.333  11.368 -0.3133  0.0409  0.0520
    1TCq1    O6   14   0.277   4.298  11.590 -0.6100  0.2504 -0.2989
    1TCq1    H1   15   4.487   4.646  11.314 -1.1723  1.2790 -0.8357
    1TCq1    H2   16   0.154   4.515  11.308  0.5836  0.0544  1.5231
    1TCq1    H3   17   0.048   4.369  11.675  1.6099 -0.3938  0.4143
    1TCq1    H4   18   4.514   4.651  11.478 -1.0510 -1.9221 -0.2355
    2MPD2     C   19   4.527   4.400  12.201 -0.3098 -0.3179 -0.4209
    2MPD2    C1   20   4.480   4.508  12.129 -1.4433 -0.1067  0.6502
    2MPD2    C2   21   4.477   4.493  11.991  0.3332  0.0582  0.1701
    2MPD2    C3   22   4.532   4.384  11.916 -0.5863  0.3156 -0.5313
    2MPD2    C4   23   4.578   4.281  11.991 -0.0334  0.0850  0.2615
    2MPD2    C5   24   4.570   4.289  12.131 -0.0902 -0.5338  0.6054
    2MPD2     H   25   4.452   4.584  11.938 -0.3778 -0.1080  0.2252
    2MPD2    H1   26   4.620   4.194  11.943  1.1108  1.6348 -1.5249
    2MPD2    H2   27   4.525   4.390  12.309 -0.3015 -2.0376 -0.5797
    2MPD2    H3   28   4.606   4.199  12.179  0.0386  1.6586  4.6436
    2MPD2     N   29   4.555   4.385  11.776  0.6370 -0.0892  0.0580
    2MPD2    H5   30   4.609   4.309  11.735  0.1547 -0.8177  0.8031
    2MPD2    N1   31   4.414   4.614  12.198 -0.2330  0.0810 -0.6442
    2MPD2    H7   32   4.370   4.682  12.137  2.5702  1.5766 -1.0176
    3TCq1    O1   33   0.377   1.323   9.994 -0.0478 -0.1265 -0.9706
    3TCq1    C1   34   0.389   1.285  10.123 -0.3840 -0.6877 -0.2809
    3TCq1    O2   35   0.461   1.193  10.166 -0.8961  0.1522  0.0030
    3TCq1    C2   36   0.258   1.298  10.182 -0.3622  0.0086  0.0094
    3TCq1    C3   37   0.188   1.416  10.155  0.5099  0.1109 -0.6647
    3TCq1    C4   38   0.073   1.432  10.232 -0.2726  0.4502  0.2404
    3TCq1    C5   39   0.028   1.326  10.303 -0.9581  0.0992  0.3711
    3TCq1    C6   40   0.093   1.206  10.316  0.0628 -0.0940 -0.2121
    3TCq1    C7   41   0.217   1.192  10.259  0.2447 -0.2416 -0.0193
    3TCq1    C8   42   0.039   1.088  10.375 -0.0389  0.6534 -0.0789
    3TCq1    O4   43   0.105   0.987  10.388 -0.2344 -0.3230  0.0490
    3TCq1    C9   44   0.008   1.563  10.245 -0.3422  0.3615  0.4032
    3TCq1    O5   45   0.045   1.646  10.158 -0.2513  0.2046 -0.4115
    3TCq1    O6   46   4.672   1.592  10.355  0.1867 -0.3734  0.1630
    3TCq1    H1   47   0.344   1.415   9.982  0.3399 -0.1068 -1.8353
    3TCq1    H2   48   0.230   1.508  10.116 -2.1269  1.9981  0.9534
    3TCq1    H3   49   4.652   1.342  10.349 -1.1125  1.6368 -0.4707
    3TCq1    H4   50   0.278   1.102  10.262  0.3717 -0.0630  3.6920
    4MPD2     C   51   4.358   0.872  10.609  0.1002  0.1599 -0.3549
    4MPD2    C1   52   4.319   1.000  10.568 -0.4863 -0.1372 -0.0410
    4MPD2    C2   53   4.411   1.080  10.510 -0.3325 -0.1291  0.6155
    4MPD2    C3   54   4.537   1.029  10.484 -0.5320  0.3108  0.1331
    4MPD2    C4   55   4.570   0.905  10.533  0.0527  0.3238  0.2026
    4MPD2    C5   56   4.480   0.830  10.595 -0.1003  0.1125  0.4278
    4MPD2     H   57   4.380   1.179  10.475  0.9574 -0.4834 -1.5550
    4MPD2    H1   58   4.671   0.866  10.540  0.5639  1.5921  0.0253
    4MPD2    H2   59   4.284   0.805  10.651 -0.8850  1.1846 -0.4731
    4MPD2    H3   60   4.505   0.733  10.636  0.0073  0.7078  1.7842
    4MPD2     N   61   4.633   1.112  10.425  0.0710 -0.1732 -0.3408
    4MPD2    H5   62   4.607   1.209  10.413 -0.6258 -0.3407 -0.1606
    4MPD2    N1   63   4.195   1.054  10.608  0.3371 -0.4837  0.6319
    4MPD2    H7   64   4.184   1.155  10.597 -0.1892 -0.8295 -2.0501
    5TCq1    O1   65   0.896   1.798  11.912 -0.5021 -0.1987 -0.0096
    5TCq1    C1   66   0.867   1.720  12.018 -0.5221  0.3712  0.0814
    5TCq1    O2   67   0.948   1.705  12.109 -0.2716  0.1193 -0.1890
    5TCq1    C2   68   0.722   1.730  12.030 -0.3682 -0.1782 -0.0647
    5TCq1    C3   69   0.684   1.762  12.153 -0.2244 -0.0892  0.2599
    5TCq1    C4   70   0.549   1.756  12.181  0.4483  0.2836 -0.5259
    5TCq1    C5   71   0.466   1.703  12.089 -0.1640 -0.4235  0.0621
    5TCq1    C6   72   0.528   1.649  11.973  0.8958 -0.0889 -1.3809
    5TCq1    C7   73   0.655   1.666  11.940  0.5367 -0.3011  0.3548
    5TCq1    C8   74   0.447   1.612  11.858 -0.5835 -0.8404  0.4070
    5TCq1    O4   75   0.499   1.569  11.752 -0.5300  0.0737  0.2067
    5TCq1    C9   76   0.496   1.792  12.313  0.5494  0.9680 -0.0745
    5TCq1    O5   77   0.373   1.824  12.307 -0.4237 -0.2280  0.0037
    5TCq1    O6   78   0.579   1.829  12.406  0.0556  0.0298 -0.2082
    5TCq1    H1   79   0.828   1.825  11.846 -0.8057 -0.7077  0.0979
    5TCq1    H2   80   0.752   1.806  12.224  0.0822 -1.0562  0.5577
    5TCq1    H3   81   0.366   1.682  12.123 -0.4107  3.9566  2.1060
    5TCq1    H4   82   0.694   1.619  11.850  1.3173  0.6401  0.1972
    6MPD2     C   83   0.084   1.709  11.834 -0.5567  0.3690  0.1994
    6MPD2    C1   84   0.201   1.639  11.802 -0.5785 -0.9314 -0.4773
    6MPD2    C2   85   0.206   1.573  11.680  0.0857 -0.8445 -0.4998
    6MPD2    C3   86   0.093   1.562  11.606  0.4137  0.6370 -0.1864
    6MPD2    C4   87   4.702   1.636  11.638 -0.0550  0.6314 -0.3954
    6MPD2    C5   88   4.700   1.707  11.756 -0.1550  0.1632  0.0722
    6MPD2     H   89   0.297   1.528  11.643 -0.2531 -1.9766  0.0648
    6MPD2    H1   90   4.609   1.626  11.582  0.1400  0.5217 -0.6962
    6MPD2    H2   91   0.076   1.778  11.917 -3.2201  1.9268 -1.3610
    6MPD2    H3   92   4.614   1.768  11.784  1.7735  2.4418  0.9830
    6MPD2     N   93   0.105   1.489  11.486 -0.9864 -0.4907  0.3156
    6MPD2    H5   94   0.197   1.455  11.463 -1.0136 -0.1916 -0.2243
    6MPD2    N1   95   0.317   1.660  11.878  0.1114 -0.1052 -0.3745
    6MPD2    H7   96   0.304   1.694  11.973 -2.0658 -1.2961 -0.2581
    7TCq1    O1   97   1.667   0.937  14.263  0.0767 -0.0082 -0.4186
    7TCq1    C1   98   1.738   0.855  14.179 -0.1664 -0.2907  0.9467
    7TCq1    O2   99   1.793   0.751  14.204  0.4983 -0.3971 -0.0709
    7TCq1    C2  100   1.721   0.891  14.038 -0.3589  0.0855  0.2399
    7TCq1    C3  101   1.593   0.910  13.991  0.5755 -0.9058 -0.4474
    7TCq1    C4  102   1.570   0.886  13.865 -0.0654 -0.3939  0.0562
    7TCq1    C5  103   1.657   0.835  13.771 -0.2659  0.2731 -0.0520
    7TCq1    C6  104   1.780   0.796  13.830 -0.3836 -0.5904  0.3789
    7TCq1    C7  105   1.816   0.827  13.958 -0.0361 -0.3624  0.3977
    7TCq1    C8  106   1.878   0.714  13.756 -0.7212  0.3594 -0.5459
    7TCq1    O4  107   1.986   0.692  13.808 -0.4913  0.0275 -0.1604
    7TCq1    C9  108   1.439   0.929  13.819  0.1706 -0.1780  0.1299
    7TCq1    O5  109   1.411   0.912  13.699 -0.6131  0.2211 -0.5114
    7TCq1    O6  110   1.351   0.942  13.906 -0.0778  0.1434 -0.2635
    7TCq1    H1  111   1.633   1.021  14.224 -1.0001  0.0298  0.5748
    7TCq1    H2  112   1.516   0.940  14.061  1.6293  1.4547 -0.3200
    7TCq1    H3  113   1.630   0.810  13.669 -0.5758  2.7659 -0.5925
    7TCq1    H4  114   1.911   0.798  14.001 -0.4613 -2.5451 -0.1350
    8MPD2     C  115   2.065   0.527  13.308  0.3565 -0.0322 -0.1373
    8MPD2    C1  116   2.132   0.548  13.433  0.1345  0.5679 -0.5841
    8MPD2    C2  117   2.069   0.623  13.535  0.1095 -0.5216 -0.3037
    8MPD2    C3  118   1.931   0.650  13.523  0.7195  0.0738  0.2311
    8MPD2    C4  119   1.871   0.637  13.399 -0.2010  0.5420 -0.3997
    8MPD2    C5  120   1.939   0.575  13.294 -0.1363 -1.0993 -0.1260
    8MPD2     H  121   2.117   0.639  13.631  0.8550  1.3240 -0.9934
    8MPD2    H1  122   1.767   0.666  13.393 -0.6822 -1.3411 -0.9693
    8MPD2    H2  123   2.101   0.465  13.227  0.6897  1.4278 -1.1138
    8MPD2    H3  124   1.886   0.564  13.200 -1.2245  0.1892  0.3286
    8MPD2     N  125   1.851   0.715  13.618 -0.1785 -0.1103 -0.0635
    8MPD2    H5  126   1.762   0.752  13.586  1.0609  1.0655 -2.1674
    8MPD2    N1  127   2.262   0.497  13.439 -0.0896  0.5774  0.3744
    8MPD2    H7  128   2.283   0.428  13.367  0.1527 -0.3202  1.3021
    9TCq1    O1  129   3.988   4.468  10.654 -0.3027  0.0143  0.5683
    9TCq1    C1  130   4.102   4.423  10.709  0.2102  0.6161  0.1356
    9TCq1    O2  131   4.129   4.443  10.827  0.1327  0.3532 -0.0902
    9TCq1    C2  132   4.200   4.443  10.600 -0.6197  0.4703  0.2038
    9TCq1    C3  133   4.172   4.401  10.467  0.9037  0.4057 -0.3063
    9TCq1    C4  134   4.269   4.426  10.372 -0.5251  0.4439 -0.3266
    9TCq1    C5  135   4.395   4.459  10.406  0.0320  0.1128 -0.1149
    9TCq1    C6  136   4.418   4.493  10.542  0.2392 -0.3563  0.4455
    9TCq1    C7  137   4.321   4.477  10.637  0.2535  0.1029 -0.9680
    9TCq1    C8  138   4.550   4.540  10.584 -0.1102 -0.2879  0.1242
    9TCq1    O4  139   4.657   4.499  10.543 -0.4164 -0.6490 -0.0189
    9TCq1    C9  140   4.248   4.384  10.241 -0.2340 -0.4204  0.6485
    9TCq1    O5  141   4.297   4.453  10.142 -0.4971 -0.0666 -0.2770
    9TCq1    O6  142   4.182   4.278  10.218  0.0522  0.3567 -0.4091
    9TCq1    H1  143   3.982   4.477  10.557  1.3313 -0.8729  0.3758
    9TCq1    H2  144   4.077   4.356  10.439  0.4128  0.8106  0.6957
    9TCq1    H3  145   4.472   4.485  10.334 -0.2443 -2.9609 -1.5214
    9TCq1    H4  146   4.344   4.482  10.742 -0.7349  0.7016 -0.7791
   10MPD2     C  147   0.043   4.694  10.721  0.1652 -0.5868 -0.0992
   10MPD2    C1  148   4.631   4.704  10.758 -0.6297 -0.4279 -0.2181
   10MPD2    C2  149   4.591   0.062  10.867  0.3316  0.3993  0.0553
   10MPD2    C3  150   4.689   0.144  10.932  0.0950 -0.4333  0.2503
   10MPD2    C4  151   0.101   0.138  10.900 -0.3468  0.1480 -0.1561
   10MPD2    C5  152   0.132   0.057  10.792  0.8183  0.1461  0.3333
   10MPD2     H  153   4.489   0.062  10.903  0.4437 -0.7253  0.3676
   10MPD2    H1  154   0.175   0.203  10.943  1.7966 -1.2710 -1.6724
   10MPD2    H2  155   0.073   4.622  10.645  0.1503  0.0329 -0.6867
   10MPD2    H3  156   0.237   0.051  10.766  0.7194  2.6863 -0.6520
   10MPD2     N  157   4.655   0.218  11.050 -0.0732 -0.5931 -1.0445
   10MPD2    H5  158   0.008   0.262  11.103 -1.5505 -0.9900  1.3410
   10MPD2    N1  159   4.532   4.632  10.690  0.1889 -0.7157 -0.3685
   10MPD2    H7  160   4.434   4.647  10.712  0.4557 -1.9023  1.7033
   11TCq1    O1  161   1.375   4.216  14.140 -0.4008 -0.2016 -0.3751
   11TCq1    C1  162   1.273   4.153  14.196  0.0136  0.0182 -1.1743
   11TCq1    O2  163   1.281   4.055  14.272 -0.0427 -0.0197  0.1190
   11TCq1    C2  164   1.151   4.238  14.188 -0.2424 -0.2273  0.1196
   11TCq1    C3  165   1.165   4.373  14.172 -0.4094 -0.0837 -0.9042
   11TCq1    C4  166   1.049   4.447  14.180 -0.4639  0.1635  0.2668
   11TCq1    C5  167   0.928   4.396  14.207  0.6223 -0.2027  0.0065
   11TCq1    C6  168   0.925   4.259  14.234  1.0456  0.1419 -0.1960
   11TCq1    C7  169   1.036   4.176  14.220  0.4792  0.4176  0.1214
   11TCq1    C8  170   0.793   4.198  14.270 -0.4221 -0.4654  0.3452
   11TCq1    O4  171   0.696   4.272  14.248 -0.1651  0.0767  0.3852
   11TCq1    C9  172   1.053   4.587  14.152 -0.4100 -0.0905  0.8391
   11TCq1    O5  173   0.959   4.655  14.201 -0.2185  0.1659  0.3697
   11TCq1    O6  174   1.143   4.630  14.078  0.3958 -0.3814  0.1515
   11TCq1    H1  175   1.340   4.262  14.061  0.2594  1.4281  0.2795
   11TCq1    H2  176   1.255   4.429  14.152 -0.2190 -0.3175 -0.7013
   11TCq1    H3  177   0.843   4.460  14.227 -2.0408 -3.3868 -1.2776
   11TCq1    H4  178   1.044   4.069  14.230 -0.3517  0.4018  0.6510
   12MPD2     C  179   0.574   4.048  14.364  0.3406  0.3506  0.7488
   12MPD2    C1  180   0.695   3.990  14.348  0.2434  0.2140 -0.1950
   12MPD2    C2  181   0.716   3.855  14.370 -0.5851 -0.4569 -0.4068
   12MPD2    C3  182   0.613   3.780  14.419 -0.1196  0.1359 -0.2107
   12MPD2    C4  183   0.497   3.840  14.439  0.6631  0.0761 -0.0248
   12MPD2    C5  184   0.474   3.971  14.414 -0.2381 -0.3540  0.6631
   12MPD2     H  185   0.814   3.812  14.349  0.2937 -0.0998  2.9092
   12MPD2    H1  186   0.414   3.780  14.477 -1.4505  1.5568 -2.3572
   12MPD2    H2  187   0.542   4.151  14.351 -1.3745 -0.2237  0.3700
   12MPD2    H3  188   0.375   4.011  14.434 -0.3974  0.3518 -1.5934
   12MPD2     N  189   0.644   3.644  14.435  0.1359  0.6615 -0.1614
   12MPD2    H5  190   0.737   3.603  14.437 -1.9254 -4.0701  0.2490
   12MPD2    N1  191   0.804   4.070  14.311 -0.0935 -0.0984 -0.1046
   12MPD2    H7  192   0.899   4.034  14.316 -0.2160 -0.5903 -1.3753
   13TCq1    O1  193   3.959   4.701   9.878  0.4098  0.1336  0.3379
   13TCq1    C1  194   3.998   4.589   9.934  0.2807 -0.1556  0.5758
   13TCq1    O2  195   4.110   4.578   9.990  0.2417 -0.5862  0.3568
   13TCq1    C2  196   3.875   4.538   9.989  0.5213 -0.5883  0.0393
   13TCq1    C3  197   3.759   4.512   9.915  0.0167 -0.2100  0.0782
   13TCq1    C4  198   3.656   4.438   9.969  0.3351  0.1452  0.7330
   13TCq1    C5  199   3.662   4.390  10.092  0.0111 -0.4600  1.1157
   13TCq1    C6  200   3.775   4.428  10.165 -0.0263 -0.4094  0.2239
   13TCq1    C7  201   3.884   4.491  10.114  0.4935 -0.0503 -0.6630
   13TCq1    C8  202   3.785   4.391  10.303  0.6292 -0.8475  0.2398
   13TCq1    O4  203   3.858   4.458  10.378 -0.3024  0.1620  0.0107
   13TCq1    C9  204   3.538   4.428   9.884  0.1839 -0.0804  0.4235
   13TCq1    O5  205   3.462   4.330   9.909 -0.1130  0.2437  0.1704
   13TCq1    O6  206   3.535   4.509   9.788 -0.5452 -0.4967 -0.3274
   13TCq1    H1  207   3.861   4.708   9.877  0.5075  1.6757  1.2854
   13TCq1    H2  208   3.750   4.551   9.814 -1.6755 -1.0065 -0.0790
   13TCq1    H3  209   3.574   4.342  10.134 -0.3244 -0.3402  0.5452
   13TCq1    H4  210   3.970   4.522  10.171 -0.0138  0.5050 -0.2080
   14MPD2     C  211   3.633   4.090  10.427  0.5436  0.2130  0.3765
   14MPD2    C1  212   3.701   4.204  10.440  0.1519 -0.4128  0.5122
   14MPD2    C2  213   3.742   4.239  10.565 -0.4931  0.0914  0.5690
   14MPD2    C3  214   3.715   4.167  10.678 -0.2498 -0.0269  0.0208
   14MPD2    C4  215   3.644   4.047  10.661  0.0248 -0.0519 -0.5852
   14MPD2    C5  216   3.600   4.013  10.536 -0.6374 -0.1113  0.0428
   14MPD2     H  217   3.794   4.331  10.587  0.4518 -0.2003 -0.4181
   14MPD2    H1  218   3.608   3.989  10.745 -0.9508 -2.0466 -2.4087
   14MPD2    H2  219   3.606   4.062  10.325 -1.1631 -0.8969  1.1229
   14MPD2    H3  220   3.533   3.929  10.526 -1.0958  0.1243  1.1400
   14MPD2     N  221   3.765   4.216  10.799  0.0458  0.0646 -0.2197
   14MPD2    H5  222   3.806   4.309  10.801 -0.4244  0.2356  1.0093
   14MPD2    N1  223   3.706   4.281  10.328 -0.1193  0.6544 -0.0653
   14MPD2    H7  224   3.677   4.230  10.246  0.8075  2.0780 -1.2789
   15TCq1    O1  225   0.963   3.410   1.915  0.1219  0.2864 -0.5895
   15TCq1    C1  226   1.010   3.376   2.035  0.5318  0.1234 -0.2477
   15TCq1    O2  227   0.940   3.363   2.138 -0.1444 -0.1279  0.0932
   15TCq1    C2  228   1.140   3.427   2.049 -0.4675  0.0412  0.5485
   15TCq1    C3  229   1.181   3.470   2.170  1.1878 -0.3759  0.0158
   15TCq1    C4  230   1.313   3.489   2.190  0.3548 -0.0196  0.0955
   15TCq1    C5  231   1.403   3.486   2.086 -0.2352  0.2409 -0.0955
   15TCq1    C6  232   1.351   3.442   1.963  0.5065 -0.5628 -0.6767
   15TCq1    C7  233   1.222   3.406   1.942  0.5943  0.2489  0.1365
   15TCq1    C8  234   1.439   3.425   1.852 -0.4194  0.3276  0.0559
   15TCq1    O4  235   1.559   3.398   1.882 -0.3414  0.4864  0.0659
   15TCq1    C9  236   1.362   3.508   2.319 -0.0522  0.1081 -1.0178
   15TCq1    O5  237   1.475   3.454   2.338  0.0089 -0.2276  0.2936
   15TCq1    O6  238   1.285   3.540   2.419  0.0493  0.0626 -0.5554
   15TCq1    H1  239   1.027   3.465   1.864  1.7124 -2.2619 -1.3176
   15TCq1    H2  240   1.107   3.485   2.248  0.9650 -0.4800 -0.1765
   15TCq1    H3  241   1.512   3.488   2.085 -0.2391  0.2966 -1.8714
   15TCq1    H4  242   1.186   3.352   1.854 -1.4212 -1.2889  1.8915
   16MPD2     C  243   1.349   3.462   1.504 -0.5551 -0.1250  0.0612
   16MPD2    C1  244   1.427   3.418   1.606  0.0178 -0.3859  0.1286
   16MPD2    C2  245   1.540   3.346   1.584 -0.2680  0.2250  0.4266
   16MPD2    C3  246   1.573   3.303   1.457  0.2053  0.3271 -0.2819
   16MPD2    C4  247   1.499   3.354   1.352 -0.1304 -0.3905  0.0694
   16MPD2    C5  248   1.385   3.430   1.380  0.1312  0.5645  0.3542
   16MPD2     H  249   1.600   3.325   1.672  1.5026  0.3444 -0.7584
   16MPD2    H1  250   1.525   3.330   1.250 -0.4403  2.5080 -0.6850
   16MPD2    H2  251   1.258   3.519   1.521  0.6365  2.6650 -2.9609
   16MPD2    H3  252   1.332   3.476   1.298  0.8259  0.0263 -0.3981
   16MPD2     N  253   1.691   3.231   1.440 -0.3499  0.0832 -0.4586
   16MPD2    H5  254   1.757   3.237   1.517  1.0268 -0.7040 -1.5757
   16MPD2    N1  255   1.378   3.446   1.734 -0.0344 -0.3497 -0.5450
   16MPD2    H7  256   1.285   3.486   1.741  0.2312  0.0010  0.9276
   17TCq1    O1  257   0.504   4.461  11.389 -0.5569 -0.0095 -0.2711
   17TCq1    C1  258   0.621   4.428  11.331 -0.9290 -0.2376 -0.0020
   17TCq1    O2  259   0.728   4.490  11.343 -0.1703 -0.3123  0.4720
   17TCq1    C2  260   0.600   4.343  11.215  0.4701 -0.1397  0.2693
   17TCq1    C3  261   0.486   4.333  11.151 -0.6901  0.1404  0.2571
   17TCq1    C4  262   0.468   4.223  11.073  0.1582 -0.7385 -0.6784
   17TCq1    C5  263   0.573   4.138  11.050  0.4438  0.0825  0.2506
   17TCq1    C6  264   0.690   4.159  11.109  0.0272  0.7659  0.4981
   17TCq1    C7  265   0.705   4.254  11.202  0.1235 -0.9688 -0.1890
   17TCq1    C8  266   0.808   4.088  11.062  0.1837 -0.1969  0.3809
   17TCq1    O4  267   0.888   4.048  11.144 -0.4033 -0.4046 -0.1666
   17TCq1    C9  268   0.342   4.195  11.007 -0.5578 -0.3912 -0.0111
   17TCq1    O5  269   0.337   4.123  10.900  0.0411 -0.0787  0.3807
   17TCq1    O6  270   0.241   4.256  11.053  0.1295 -0.4468 -0.4872
   17TCq1    H1  271   0.435   4.401  11.354 -0.0916 -0.8187  0.1715
   17TCq1    H2  272   0.404   4.400  11.172  0.0594  0.4443  2.2768
   17TCq1    H3  273   0.542   4.047  10.999  2.0871  1.1170 -2.5699
   17TCq1    H4  274   0.804   4.256  11.246 -0.4331  0.9215  1.0078
   18MPD2     C  275   0.989   3.901  10.928  0.0737 -0.0885  0.4414
   18MPD2    C1  276   0.891   3.975  10.864 -0.5699  0.2837 -1.1345
   18MPD2    C2  277   0.871   3.959  10.730 -0.0992  0.6348 -0.4681
   18MPD2    C3  278   0.946   3.868  10.658  0.6784 -0.1462  0.0269
   18MPD2    C4  279   1.038   3.797  10.726 -0.7650 -0.1521 -0.7625
   18MPD2    C5  280   1.069   3.811  10.860 -0.8385  0.6247 -0.2267
   18MPD2     H  281   0.800   4.024  10.679  0.8918  2.2719  0.2258
   18MPD2    H1  282   1.115   3.740  10.676 -0.5410 -0.4442 -0.0777
   18MPD2    H2  283   1.026   3.919  11.028 -0.7186 -1.0425  0.8968
   18MPD2    H3  284   1.143   3.749  10.909 -1.7673 -1.3960 -1.3916
   18MPD2     N  285   0.928   3.838  10.524  0.3374 -0.0055  0.1975
   18MPD2    H5  286   0.978   3.761  10.482  0.8040  0.6520 -0.4627
   18MPD2    N1  287   0.803   4.060  10.931 -0.0157 -0.7467  0.2674
   18MPD2    H7  288   0.736   4.106  10.870  1.2287 -0.7229 -1.0826
   19TMC2    C1  289   1.958   4.367  14.436 -0.4317  0.4034  0.3576
   19TMC2    C2  290   1.919   4.436  14.330  0.4248 -0.2883 -0.3008
   19TMC2    C3  291   1.826   4.382  14.253 -0.5921  0.0929  0.0635
   19TMC2    C4  292   1.898   4.248  14.468 -0.0081  0.4826 -0.0160
   19TMC2    C5  293   1.809   4.196  14.378  0.4872  0.5151  0.8899
   19TMC2    C6  294   1.773   4.257  14.268 -0.2509 -0.5930  0.1436
   19TMC2     C  295   2.048   4.430  14.525  1.3673 -1.0453 -0.8678
   19TMC2     O  296   2.078   4.546  14.520 -0.4929  0.2126  0.1350
   19TMC2     H  297   1.968   4.531  14.312 -0.7868  0.5014  0.6057
   19TMC2    H1  298   1.894   4.205  14.567 -0.1750  1.1428  0.2618
   19TMC2    H2  299   1.707   4.232  14.186 -0.0425  1.4086 -0.6444
   19TMC2    C7  300   1.789   4.048  14.395  0.2612  0.1916  0.2257
   19TMC2    C8  301   1.797   4.458  14.143  0.7898 -0.0260 -0.1975
   19TMC2    O1  302   1.849   3.987  14.483 -0.3577  0.1251  0.4928
   19TMC2    O2  303   1.782   4.405  14.035 -0.4106  0.7000  0.6571
   19TMC2    O5  304   1.689   4.515  14.195 -0.5301 -0.5466 -0.3319
   19TMC2    H5  305   1.705   4.537  14.290  0.9626  1.6849 -1.1109
   20MPD2     C  306   2.210   4.482  14.778  0.2375  0.7498  0.3700
   20MPD2    C1  307   2.179   4.357  14.729 -0.4579  0.9021  0.2523
   20MPD2    C2  308   2.228   4.248  14.798  0.4597 -0.1149  0.0711
   20MPD2    C3  309   2.313   4.254  14.905  0.4827 -0.1273  0.0669
   20MPD2    C4  310   2.341   4.375  14.955  0.4731  0.0192 -0.1509
   20MPD2    C5  311   2.288   4.489  14.892  0.0727  0.5194  0.3376
   20MPD2     H  312   2.202   4.152  14.754  0.5956 -0.3058  0.4085
   20MPD2    H1  313   2.396   4.385  15.048 -2.4747  0.6875  1.5259
   20MPD2    H2  314   2.169   4.569  14.728  1.3003  2.3034  2.2115
   20MPD2    H3  315   2.299   4.589  14.932  0.9235  0.7159 -0.3717
   20MPD2     N  316   2.375   4.148  14.979 -0.4072  0.2051 -0.6917
   20MPD2    H5  317   2.434   4.177  15.057 -1.1394 -0.0976 -0.0302
   20MPD2    N1  318   2.096   4.338  14.615 -0.2843  0.0290 -0.5272
   20MPD2    H7  319   2.083   4.241  14.591  0.5805 -0.3982  0.6675
   21MPD2     C  320   0.135   4.430  14.654  0.0279 -1.0622 -0.2343
   21MPD2    C1  321   0.024   4.350  14.635  0.0406  0.3838 -0.5762
   21MPD2    C2  322   4.627   4.403  14.678 -0.5343 -0.5659  0.2333
   21MPD2    C3  323   4.615   4.519  14.752  0.1339  0.4858  0.0307
   21MPD2    C4  324   0.006   4.600  14.771 -0.0577  0.1709  0.3727
   21MPD2    C5  325   0.124   4.550  14.719 -0.0794 -0.5730  0.6153
   21MPD2     H  326   4.540   4.339  14.672 -1.4353  0.6033  0.9533
   21MPD2    H1  327   0.001   4.695  14.822  0.3807 -0.1023  0.9325
   21MPD2    H2  328   0.229   4.405  14.607  1.0172 -2.6455  2.5910
   21MPD2    H3  329   0.213   4.611  14.720  1.5974 -3.0019  0.5593
   21MPD2     N  330   4.491   4.568  14.795 -0.0983 -0.3114 -0.7323
   21MPD2    H5  331   4.494   4.638  14.869 -0.9723 -0.6441 -0.3732
   21MPD2    N1  332   0.028   4.228  14.571  0.0999 -0.2385 -0.0707
   21MPD2    H7  333   4.664   4.175  14.560 -0.0046 -0.6031  2.4956
   22TCq2    C1  334   4.365   4.529  14.757  0.6993 -0.0463 -0.6210
   22TCq2    O2  335   4.339   4.461  14.662  0.2572 -0.0504  0.1115
   22TCq2    C2  336   4.253   4.581  14.846 -0.7419 -0.1369 -0.2959
   22TCq2    C3  337   4.279   4.633  14.963  0.2514 -0.0129 -0.0411
   22TCq2    C4  338   4.173   4.670  15.040 -0.4318 -0.2114  0.6759
   22TCq2    C5  339   4.045   4.648  14.999  0.0219 -0.1287 -0.0861
   22TCq2    C6  340   4.018   4.577  14.884 -0.2778  0.7388 -0.4170
   22TCq2    C7  341   4.129   4.550  14.800  0.0029  0.3066 -0.1983
   22TCq2    C8  342   3.885   4.588  14.837  0.5761 -0.2397 -0.3125
   22TCq2    O4  343   3.804   4.632  14.923 -0.0838  0.3663  0.2014
   22TCq2    C9  344   4.199   4.716  15.171  0.0795 -0.1717  1.4024
   22TCq2    O5  345   4.318   4.712  15.212  0.1456  0.4537  0.0448
   22TCq2    O6  346   4.098   0.023  15.235  0.2704 -0.3193 -0.0543
   22TCq2    H2  347   4.378   4.641  15.007  0.0839  1.0672  0.1389
   22TCq2    H3  348   3.964   4.688  15.060  1.3636 -2.1547  3.0262
   22TCq2    H4  349   4.110   4.506  14.702 -0.0396 -0.9542  0.3776
   23MPD2     C  350   1.170   1.019  15.702  0.3621  0.1560 -0.3875
   23MPD2    C1  351   1.123   0.896  15.672  0.7164 -0.0775 -0.4751
   23MPD2    C2  352   1.083   0.860  15.537 -0.4944  0.0952  0.0735
   23MPD2    C3  353   1.106   0.951  15.434  0.5635 -1.2401 -0.2018
   23MPD2    C4  354   1.160   1.071  15.473  0.0834 -0.4114 -0.1495
   23MPD2    C5  355   1.183   1.111  15.603  0.3625 -0.7068 -1.0149
   23MPD2     H  356   1.044   0.760  15.519  1.4863 -0.0080 -3.4917
   23MPD2    H1  357   1.177   1.142  15.393  0.4772 -1.5869 -1.0975
   23MPD2    H2  358   1.205   1.043  15.802 -0.1733  2.6193 -0.8018
   23MPD2    H3  359   1.230   1.207  15.619  3.1276 -2.3508  0.7037
   23MPD2     N  360   1.057   0.940  15.300 -0.3848 -0.0855 -0.0811
   23MPD2    H5  361   1.067   1.025  15.246 -1.3637  0.2601  0.2764
   23MPD2    N1  362   1.122   0.803  15.783  0.0279  0.5973  0.4603
   23MPD2    H7  363   1.144   0.838  15.876  2.5132  0.7040 -0.1574
   24TCq2    C1  364   0.987   0.835  15.246 -0.0433  0.5731  0.3300
   24TCq2    O2  365   0.948   0.734  15.302 -0.2225  0.2352  0.4510
   24TCq2    C2  366   0.975   0.844  15.099 -0.3033  0.3313 -0.2824
   24TCq2    C3  367   1.042   0.938  15.023  0.2894 -0.3447 -0.5649
   24TCq2    C4  368   1.002   0.949  14.895 -0.5799 -0.1336 -0.4230
   24TCq2    C5  369   0.916   0.870  14.840  0.0049  0.2410 -0.1724
   24TCq2    C6  370   0.859   0.775  14.915 -0.5909 -0.1439  0.2410
   24TCq2    C7  371   0.884   0.758  15.049  0.1839 -0.1399 -0.3398
   24TCq2    C8  372   0.764   0.686  14.855 -0.3940  0.5590 -0.0897
   24TCq2    O4  373   0.769   0.572  14.895  0.2932 -0.1827 -0.4559
   24TCq2    C9  374   1.056   1.064  14.805  0.2310 -0.6333 -0.3042
   24TCq2    O5  375   0.974   1.114  14.725 -0.4433  0.1180  0.4936
   24TCq2    O6  376   1.154   1.128  14.860  0.0631 -0.4642  0.3131
   24TCq2    H2  377   1.127   1.000  15.050 -1.4627  0.7393  2.5225
   24TCq2    H3  378   0.869   0.892  14.745 -2.8052  0.2726  1.2163
   24TCq2    H4  379   0.825   0.685  15.104  0.1730 -0.7715 -1.1826
   25TMC2    C1  380   4.179   3.616  11.469  0.0773 -0.0954 -0.5912
   25TMC2    C2  381   4.192   3.749  11.459  0.5629 -0.0595  0.1112
   25TMC2    C3  382   4.133   3.819  11.549 -0.3138  0.8971  0.5141
   25TMC2    C4  383   4.094   3.555  11.555  0.4638  0.3526 -0.4072
   25TMC2    C5  384   4.023   3.637  11.644 -0.3177  0.0631 -0.0750
   25TMC2    C6  385   4.040   3.768  11.638 -0.8356  0.8216  0.4529
   25TMC2     C  386   4.240   3.547  11.358  0.1559  0.3588  0.5817
   25TMC2     O  387   4.318   3.616  11.295  0.4263 -0.9183  0.1993
   25TMC2     H  388   4.272   3.803  11.410  1.0347 -0.0999  0.8236
   25TMC2    H1  389   4.079   3.448  11.561 -0.8518  0.5624  0.1291
   25TMC2    H2  390   4.027   3.836  11.722  1.7633 -0.2888  1.7500
   25TMC2    C7  391   3.983   3.587  11.776 -0.2862 -0.4384 -0.4817
   25TMC2    C8  392   4.145   3.960  11.545 -0.2526 -0.4341  0.1919
   25TMC2    O1  393   4.047   3.491  11.819 -0.2938 -0.4888  0.3247
   25TMC2    O2  394   4.130   4.034  11.640 -0.1762  0.8597  0.1306
   25TMC2    O5  395   4.132   3.995  11.417  0.0446  0.2751  0.6801
   25TMC2    H5  396   4.121   3.922  11.352  1.7603 -1.4252  2.3169
   26MPD2     C  397   4.363   3.168  11.057  0.3717  0.1652  0.3623
   26MPD2    C1  398   4.305   3.102  11.168  0.1994  0.5199  0.4455
   26MPD2    C2  399   4.266   3.183  11.278  0.3247  0.4522 -0.1019
   26MPD2    C3  400   4.265   3.323  11.251 -1.2095  0.0047 -0.4274
   26MPD2    C4  401   4.312   3.383  11.140  0.3744 -0.0957  0.3687
   26MPD2    C5  402   4.361   3.303  11.044 -0.5730  0.5298  0.0475
   26MPD2     H  403   4.211   3.154  11.366  1.1448 -0.2741  0.1737
   26MPD2    H1  404   4.306   3.490  11.120 -1.5351 -0.3089 -0.2888
   26MPD2    H2  405   4.395   3.101  10.978 -1.1693  0.9670 -0.9558
   26MPD2    H3  406   4.380   3.343  10.945 -1.3844 -0.6406 -0.5808
   26MPD2     N  407   4.216   3.411  11.355  0.0387  0.0050  0.5916
   26MPD2    H5  408   4.156   3.366  11.423  0.7216 -1.3519  0.2921
   26MPD2    N1  409   4.273   2.967  11.149 -0.2372  0.4777 -0.1058
   26MPD2    H7  410   4.299   2.921  11.063  1.2741  0.0061  0.6078
   27TMC2    C1  411   3.366   0.687  11.949  0.5331 -0.3554 -0.4614
   27TMC2    C2  412   3.398   0.789  11.862  0.0935 -0.0212  0.8578
   27TMC2    C3  413   3.520   0.846  11.888 -0.1581  0.0949 -0.4573
   27TMC2    C4  414   3.434   0.664  12.065  0.2757  0.8282  0.2453
   27TMC2    C5  415   3.552   0.726  12.096 -0.1200  0.1903  0.5786
   27TMC2    C6  416   3.595   0.819  12.000  0.3182  0.2213 -0.8891
   27TMC2     C  417   3.239   0.620  11.918 -0.7380  0.7208  0.5131
   27TMC2     O  418   3.196   0.628  11.805  0.1755 -0.4753  0.2269
   27TMC2     H  419   3.340   0.813  11.774  0.0208  0.2685  0.9832
   27TMC2    H1  420   3.412   0.583  12.135 -0.0514  0.8325  0.1457
   27TMC2    H2  421   3.687   0.875  12.014  0.0138  0.6781 -0.7227
   27TMC2    C7  422   3.605   0.714  12.229 -0.2421 -0.5946 -0.7775
   27TMC2    C8  423   3.565   0.954  11.803  0.2363 -0.4771 -0.2495
   27TMC2    O1  424   3.595   0.607  12.288  0.4212  0.1963 -0.1411
   27TMC2    O2  425   3.550   0.939  11.686 -0.2834 -0.1261 -0.3444
   27TMC2    O5  426   3.559   1.073  11.876  0.5606 -0.0368  0.4346
   27TMC2    H5  427   3.556   1.053  11.972  0.5037  0.9949  0.6496
   28MPD2     C  428   2.817   0.358  12.051 -0.2044 -0.3912 -0.1965
   28MPD2    C1  429   2.861   0.428  12.162 -0.1091  0.2561 -0.0967
   28MPD2    C2  430   2.976   0.504  12.153  0.1748  0.3196 -0.0920
   28MPD2    C3  431   3.041   0.517  12.031 -0.6293 -0.1254  0.0545
   28MPD2    C4  432   2.991   0.450  11.918  0.0677 -0.1830  0.1774
   28MPD2    C5  433   2.876   0.374  11.930  0.0940 -0.5956 -0.1167
   28MPD2     H  434   3.028   0.548  12.238 -1.6871 -1.5423  2.0225
   28MPD2    H1  435   3.040   0.458  11.822  1.1750 -3.7395  0.4410
   28MPD2    H2  436   2.721   0.308  12.057  0.7281 -1.9872  1.3152
   28MPD2    H3  437   2.828   0.329  11.843  0.5338  0.6164 -0.9937
   28MPD2     N  438   3.175   0.561  12.029 -0.0541  0.0754  0.0208
   28MPD2    H5  439   3.230   0.570  12.114 -0.8121 -1.0172  0.6271
   28MPD2    N1  440   2.790   0.394  12.282 -0.2605 -0.3474 -0.5950
   28MPD2    H7  441   2.710   0.333  12.271  0.0041 -0.5169 -1.6209
   29MPD2     C  442   2.292   2.741  14.660 -0.0327 -0.1620  1.1790
   29MPD2    C1  443   2.377   2.678  14.746  0.1596 -0.2647  0.4761
   29MPD2    C2  444   2.428   2.752  14.851 -0.7073  0.4500  0.5711
   29MPD2    C3  445   2.374   2.875  14.878 -0.0671  0.6930  0.3483
   29MPD2    C4  446   2.283   2.940  14.798  0.1430 -0.5859  0.5630
   29MPD2    C5  447   2.243   2.865  14.687  0.4398 -0.4577 -0.5222
   29MPD2     H  448   2.491   2.710  14.929  0.2112  0.7544 -0.0157
   29MPD2    H1  449   2.242   3.040  14.809 -0.1798 -0.6070 -0.4772
   29MPD2    H2  450   2.267   2.696  14.564  1.9840  1.8114 -0.2718
   29MPD2    H3  451   2.170   2.913  14.622 -0.9047  0.4353  1.6430
   29MPD2     N  452   2.401   2.948  14.993  0.0589  0.2861  0.2117
   29MPD2    H5  453   2.380   3.047  14.996 -1.9806 -0.1312 -0.0387
   29MPD2    N1  454   2.425   2.545  14.725  0.2015 -0.5216  0.3211
   29MPD2    H7  455   2.475   2.508  14.805 -0.1860 -1.8467 -0.0344
   30TCq2    C1  456   2.467   2.903  15.100 -0.0243 -0.3402 -0.1990
   30TCq2    O2  457   2.464   2.789  15.143  0.1099 -0.4336  0.4338
   30TCq2    C2  458   2.506   3.012  15.180 -0.0006 -0.4264 -0.4162
   30TCq2    C3  459   2.523   2.988  15.310 -0.4229 -0.0029 -0.4463
   30TCq2    C4  460   2.600   3.077  15.379 -0.3783 -0.7378  0.0954
   30TCq2    C5  461   2.657   3.183  15.321 -0.7556 -0.0285  0.5945
   30TCq2    C6  462   2.645   3.192  15.185  0.2014 -0.4745 -0.1732
   30TCq2    C7  463   2.563   3.117  15.111  0.4288 -0.0877 -0.1269
   30TCq2    C8  464   2.691   3.312  15.121  0.8173  0.5360 -0.8825
   30TCq2    O4  465   2.629   3.341  15.020  0.6440  0.4447 -0.2627
   30TCq2    C9  466   2.613   3.059  15.519 -0.2109 -0.6085  0.5308
   30TCq2    O5  467   2.671   3.150  15.582  0.3113 -0.4612  0.5301
   30TCq2    O6  468   2.591   2.940  15.555  0.1177 -0.1384  0.0817
   30TCq2    H2  469   2.474   2.909  15.366 -0.7975 -0.2202 -1.0912
   30TCq2    H3  470   2.726   3.243  15.379  0.8368 -1.6887  0.4458
   30TCq2    H4  471   2.568   3.112  15.003 -0.8177  0.1544 -0.1973
   31MPD2     C  472   0.053   1.354  14.898  0.2564 -0.6696 -0.5116
   31MPD2    C1  473   0.143   1.456  14.887  0.7299  0.6234 -0.4016
   31MPD2    C2  474   0.260   1.454  14.964 -0.3245  0.3729  0.3998
   31MPD2    C3  475   0.274   1.352  15.059 -0.0278 -0.6386  0.3730
   31MPD2    C4  476   0.176   1.252  15.068  0.0398  0.0153 -0.1090
   31MPD2    C5  477   0.067   1.253  14.986  0.1332 -0.2544  0.6778
   31MPD2     H  478   0.348   1.517  14.956 -1.5607  2.2214  1.2791
   31MPD2    H1  479   0.192   1.184  15.151  1.7596  1.0222  0.3862
   31MPD2    H2  480   4.682   1.350  14.841 -0.5494 -0.9428  0.8324
   31MPD2    H3  481   4.720   1.169  14.976  0.6579 -0.7776  1.5454
   31MPD2     N  482   0.395   1.320  15.132 -0.4510  0.4096  0.5425
   31MPD2    H5  483   0.390   1.240  15.194  0.7800 -0.2673 -0.2336
   31MPD2    N1  484   0.113   1.564  14.796  0.0711  0.6503 -0.1396
   31MPD2    H7  485   0.032   1.543  14.738  1.4051  1.9308 -2.4351
   32TCq2    C1  486   0.514   1.389  15.120 -0.0717 -0.4121 -0.0261
   32TCq2    O2  487   0.534   1.488  15.051  0.5028  0.7595 -0.6643
   32TCq2    C2  488   0.627   1.333  15.201  0.1337  0.7052  0.7745
   32TCq2    C3  489   0.750   1.362  15.149 -0.6895  0.2761  0.2244
   32TCq2    C4  490   0.855   1.294  15.201 -0.6692  0.6104 -0.5864
   32TCq2    C5  491   0.838   1.228  15.319  0.3567 -0.7028  0.6345
   32TCq2    C6  492   0.716   1.223  15.381  0.4063  0.7675 -0.4495
   32TCq2    C7  493   0.599   1.264  15.319  0.4783 -0.3337 -0.0598
   32TCq2    C8  494   0.711   1.193  15.523  0.3778 -0.1364 -0.3794
   32TCq2    O4  495   0.794   1.117  15.564 -0.2546 -0.5431  0.5738
   32TCq2    C9  496   0.980   1.293  15.127  0.0830  0.4288  0.1386
   32TCq2    O5  497   1.078   1.232  15.181  0.2805 -0.1747  0.5856
   32TCq2    O6  498   0.994   1.361  15.018  0.5928 -0.3140 -0.7111
   32TCq2    H2  499   0.765   1.418  15.058  0.5149 -1.6765 -0.7681
   32TCq2    H3  500   0.927   1.183  15.359  2.2799  1.5881 -1.0801
   32TCq2    H4  501   0.500   1.267  15.363  0.5904  0.3282  0.1586
   33MPD2     C  502   0.354   3.885   9.942  0.1464 -0.0011  0.1527
   33MPD2    C1  503   0.482   3.911   9.889  0.5223 -0.7449 -0.4164
   33MPD2    C2  504   0.496   3.979   9.772 -0.4436 -0.3287 -0.3442
   33MPD2    C3  505   0.380   4.029   9.707  0.2330  0.0985 -0.0843
   33MPD2    C4  506   0.259   3.989   9.753  0.0058  0.5633  0.4710
   33MPD2    C5  507   0.248   3.923   9.871 -0.7842  0.0603  0.4515
   33MPD2     H  508   0.594   3.980   9.725 -0.9469  0.7480 -1.3798
   33MPD2    H1  509   0.167   3.995   9.695  0.3385 -0.0790 -0.1282
   33MPD2    H2  510   0.325   3.839  10.036 -2.9662 -1.5450 -1.5966
   33MPD2    H3  511   0.149   3.898   9.906 -1.4812  0.9299 -0.8851
   33MPD2     N  512   0.378   4.109   9.592  0.3375  0.8287 -0.8408
   33MPD2    H5  513   0.293   4.129   9.541  0.9760  0.5562 -2.0192
   33MPD2    N1  514   0.590   3.871   9.973  0.3777  0.0248 -0.4326
   33MPD2    H7  515   0.569   3.827  10.062  0.4015 -1.5199 -1.1764
   34TCq2    C1  516   0.485   4.174   9.547  0.1383  0.2848  0.0123
   34TCq2    O2  517   0.598   4.165   9.587 -0.2941  0.4067  0.5525
   34TCq2    C2  518   0.470   4.244   9.422 -0.2250 -0.7348  0.7359
   34TCq2    C3  519   0.346   4.276   9.389 -0.5978  0.6301 -0.2447
   34TCq2    C4  520   0.329   4.391   9.302  0.4179 -0.3186  0.2952
   34TCq2    C5  521   0.439   4.468   9.255  0.1806 -0.0956  0.3498
   34TCq2    C6  522   0.562   4.430   9.301  0.0445  0.3017  0.2832
   34TCq2    C7  523   0.581   4.315   9.378  0.1902 -0.3092  0.4866
   34TCq2    C8  524   0.677   4.511   9.272 -0.0425 -0.9655 -0.1990
   34TCq2    O4  525   0.777   4.492   9.340 -0.2594  0.2622  0.0184
   34TCq2    C9  526   0.197   4.427   9.252  0.3371 -0.3195 -0.6706
   34TCq2    O5  527   0.095   4.409   9.324  0.1169  0.0341 -0.5217
   34TCq2    O6  528   0.202   4.502   9.150 -0.3038 -1.2092  0.3659
   34TCq2    H2  529   0.256   4.223   9.418 -0.5091 -0.1142 -1.3028
   34TCq2    H3  530   0.437   4.554   9.189 -1.0971 -0.1183  0.3703
   34TCq2    H4  531   0.681   4.293   9.413  1.8358  0.4775 -3.6440
   35MPD2     C  532   2.186   0.627  11.853 -0.0936  0.3680 -0.3777
   35MPD2    C1  533   2.097   0.524  11.839  0.4855 -0.7616  0.3941
   35MPD2    C2  534   2.037   0.514  11.716 -1.1154 -0.1987  0.2603
   35MPD2    C3  535   2.066   0.597  11.612 -0.0403 -0.3134 -0.2118
   35MPD2    C4  536   2.160   0.694  11.630 -0.2525 -0.1495 -0.0135
   35MPD2    C5  537   2.221   0.713  11.751 -0.8115  0.4105 -0.1967
   35MPD2     H  538   1.962   0.438  11.698  0.0086 -0.7728 -2.0744
   35MPD2    H1  539   2.186   0.766  11.553  0.2863 -1.4867 -1.0784
   35MPD2    H2  540   2.244   0.648  11.942  0.1966 -1.0026 -0.2478
   35MPD2    H3  541   2.287   0.792  11.784  1.0959 -1.3369  0.1961
   35MPD2     N  542   2.008   0.567  11.486  0.3855  0.0545 -0.2972
   35MPD2    H5  543   1.945   0.487  11.483 -2.9791  2.5573  3.5998
   35MPD2    N1  544   2.081   0.427  11.937 -0.4008 -0.2837 -0.0361
   35MPD2    H7  545   2.156   0.414  12.003  0.2804  0.8005 -0.5908
   36TCq2    C1  546   1.992   0.653  11.381  0.5285 -0.0713 -0.7527
   36TCq2    O2  547   2.013   0.773  11.380 -0.4426 -0.2126  0.1951
   36TCq2    C2  548   1.905   0.589  11.279  0.2512  0.1479  0.1921
   36TCq2    C3  549   1.825   0.679  11.208 -0.8066 -0.0221  0.2402
   36TCq2    C4  550   1.750   0.622  11.109 -0.1623  0.3480  0.0000
   36TCq2    C5  551   1.764   0.487  11.085 -0.1919 -0.4350 -0.2127
   36TCq2    C6  552   1.835   0.402  11.160  0.6448  1.0846  0.0989
   36TCq2    C7  553   1.917   0.452  11.260 -0.0642 -1.0520 -0.4963
   36TCq2    C8  554   1.830   0.259  11.132  0.0956 -0.0274 -0.0874
   36TCq2    O4  555   1.745   0.226  11.048  0.2842  0.4671  0.5867
   36TCq2    C9  556   1.677   0.705  11.014 -0.6230 -0.2912 -0.1724
   36TCq2    O5  557   1.637   0.635  10.920 -0.3757  1.0983 -0.0071
   36TCq2    O6  558   1.698   0.827  11.008  0.5978  0.2782  0.5174
   36TCq2    H2  559   1.818   0.786  11.225 -1.0451  0.0485 -0.3109
   36TCq2    H3  560   1.711   0.449  10.998 -0.3158 -2.5498  0.7983
   36TCq2    H4  561   1.992   0.388  11.306  0.9419 -1.7746 -3.1181
   37TMC2    C1  562   4.279   0.875  11.932  0.5858 -0.6286 -0.2686
   37TMC2    C2  563   4.201   0.801  11.842  0.2369 -0.3327 -0.3978
   37TMC2    C3  564   4.236   0.797  11.709 -0.0992 -0.7836 -0.1275
   37TMC2    C4  565   4.391   0.939  11.894 -0.2253 -0.1475 -0.0653
   37TMC2    C5  566   4.425   0.925  11.759 -0.0002  0.0564  0.1195
   37TMC2    C6  567   4.351   0.854  11.666  1.1705  0.0050  0.8073
   37TMC2     C  568   4.242   0.859  12.066  0.1774 -0.1709 -0.1772
   37TMC2     O  569   4.123   0.846  12.084 -0.3003 -0.6082  0.1227
   37TMC2     H  570   4.108   0.757  11.875  1.4420 -1.3199  1.7241
   37TMC2    H1  571   4.446   1.007  11.958 -0.6834  1.0601 -0.9551
   37TMC2    H2  572   4.375   0.869  11.561  1.4122  1.1186  1.0203
   37TMC2    C7  573   4.560   0.947  11.738  0.5650 -0.4031 -0.5454
   37TMC2    C8  574   4.156   0.725  11.613  0.0932 -0.7125  0.5042
   37TMC2    O1  575   4.630   0.960  11.838  0.3623 -0.7941  0.3686
   37TMC2    O2  576   4.032   0.731  11.620 -0.0367  0.2693  0.4124
   37TMC2    O5  577   4.231   0.677  11.513  0.5289 -0.1954  0.1727
   37TMC2    H5  578   4.328   0.678  11.527  0.2936  0.8601  1.6583
   38MPD2     C  579   4.331   0.949  12.566 -0.4207  0.8000 -0.0642
   38MPD2    C1  580   4.445   0.906  12.506  0.0444 -0.5584  0.0478
   38MPD2    C2  581   4.443   0.891  12.370  0.1468  0.1876  0.0643
   38MPD2    C3  582   4.334   0.904  12.287 -0.4115  0.9721  0.4988
   38MPD2    C4  583   4.216   0.946  12.349 -0.4589 -0.1517  0.9980
   38MPD2    C5  584   4.217   0.972  12.488 -0.1608  0.2780  0.3177
   38MPD2     H  585   4.539   0.870  12.324  0.3654  0.3365  0.4545
   38MPD2    H1  586   4.119   0.957  12.303 -0.0429 -0.7243 -0.0053
   38MPD2    H2  587   4.321   0.963  12.673 -1.1044 -1.2876  0.1475
   38MPD2    H3  588   4.127   0.996  12.543 -1.5296  1.0328 -2.2376
   38MPD2     N  589   4.345   0.876  12.149  0.3543 -0.4765  0.6943
   38MPD2    H5  590   4.439   0.869  12.110 -0.7204 -0.8291 -1.8000
   38MPD2    N1  591   4.573   0.895  12.568 -0.1289 -0.5978  0.4405
   38MPD2    H7  592   4.651   0.878  12.505  0.8798  1.3690  1.1649
   39MPD2     C  593   2.514   2.429   1.422  0.0451 -0.6849 -0.4859
   39MPD2    C1  594   2.420   2.456   1.522 -0.6547  0.1748  0.5154
   39MPD2    C2  595   2.294   2.504   1.489  0.1038 -0.5994 -0.5682
   39MPD2    C3  596   2.250   2.521   1.362  0.1776 -0.7554  1.0763
   39MPD2    C4  597   2.343   2.496   1.262  0.6323 -0.0634 -0.0794
   39MPD2    C5  598   2.470   2.451   1.297 -0.0390 -0.6301 -0.2517
   39MPD2     H  599   2.237   2.523   1.580  1.6715 -0.8130  0.4638
   39MPD2    H1  600   2.320   2.508   1.157 -0.4381 -0.7675  0.0670
   39MPD2    H2  601   2.612   2.392   1.449  1.2898  1.4095 -2.1262
   39MPD2    H3  602   2.536   2.432   1.213 -2.0338 -0.6997 -1.8117
   39MPD2     N  603   2.121   2.566   1.317  0.2290  0.3903  0.6192
   39MPD2    H5  604   2.104   2.554   1.218 -0.2489 -1.7097  0.9638
   39MPD2    N1  605   2.466   2.428   1.655  0.3444  0.3003 -0.0174
   39MPD2    H7  606   2.564   2.420   1.677  0.0112 -2.9427  0.2174
   40TCq2    C1  607   2.383   2.401   1.761 -0.2179 -0.2428  0.9139
   40TCq2    O2  608   2.259   2.397   1.773  0.8196 -0.5373 -0.0445
   40TCq2    C2  609   2.453   2.383   1.886  0.1580 -0.3776  0.2278
   40TCq2    C3  610   2.366   2.382   1.997  0.3573 -0.7265 -1.4714
   40TCq2    C4  611   2.425   2.352   2.118  0.3565 -0.2261 -0.2285
   40TCq2    C5  612   2.566   2.337   2.128  0.4080  0.3114  1.4569
   40TCq2    C6  613   2.646   2.355   2.018  0.2338 -0.1652  0.4839
   40TCq2    C7  614   2.590   2.378   1.892  0.0317  0.4943  0.4458
   40TCq2    C8  615   2.786   2.353   2.033 -0.2855 -0.3956 -0.1623
   40TCq2    O4  616   2.838   2.295   2.125 -0.1356 -0.2807 -0.5644
   40TCq2    C9  617   2.346   2.320   2.237 -0.6479 -0.5516  0.0621
   40TCq2    O5  618   2.225   2.343   2.226  0.0899 -0.8463  0.2246
   40TCq2    O6  619   2.406   2.270   2.338  0.2290  0.6721 -0.0602
   40TCq2    H2  620   2.259   2.372   1.994  0.2392 -0.4878  1.1915
   40TCq2    H3  621   2.611   2.320   2.225  0.1145  0.2315  1.5810
   40TCq2    H4  622   2.644   2.371   1.799  1.1711 -0.7681  1.2040
   41TMC2    C1  623   1.308   0.739  13.418  0.2501  0.5699  0.4142
   41TMC2    C2  624   1.231   0.810  13.506 -0.2546 -0.0789  0.0200
   41TMC2    C3  625   1.186   0.932  13.456 -0.6505 -0.5861  0.4174
   41TMC2    C4  626   1.344   0.771  13.289  0.2296 -0.7582 -0.0146
   41TMC2    C5  627   1.272   0.885  13.244  0.3876  0.3281 -0.1799
   41TMC2    C6  628   1.205   0.972  13.326  0.3774  0.0492  0.4672
   41TMC2     C  629   1.405   0.640  13.465 -0.3701  0.0345 -0.0929
   41TMC2     O  630   1.454   0.557  13.383  0.4811  0.4316 -0.4741
   41TMC2     H  631   1.225   0.785  13.611  0.3756 -3.3812 -0.7509
   41TMC2    H1  632   1.399   0.702  13.227 -2.4390 -0.2043 -3.0061
   41TMC2    H2  633   1.175   1.065  13.281  1.7183  0.1005 -0.3153
   41TMC2    C7  634   1.278   0.922  13.097 -0.3757 -0.2615  0.6499
   41TMC2    C8  635   1.113   1.014  13.542 -0.1627  0.4442 -0.4272
   41TMC2    O1  636   1.182   0.984  13.054 -0.0297  0.0924 -0.1740
   41TMC2    O2  637   1.034   1.099  13.506 -0.4947  0.3707  0.2017
   41TMC2    O5  638   1.189   1.039  13.650  0.7929 -0.0868 -0.6908
   41TMC2    H5  639   1.270   0.983  13.653  1.3902  0.6571 -2.6827
   42MPD2     C  640   1.517   0.426  13.628  0.5755 -0.4728 -0.4455
   42MPD2    C1  641   1.479   0.545  13.680  1.1018 -1.1030  0.1836
   42MPD2    C2  642   1.450   0.552  13.819 -0.5086  0.1842 -0.1338
   42MPD2    C3  643   1.469   0.444  13.907 -0.2259  0.2181 -0.1333
   42MPD2    C4  644   1.524   0.334  13.845  0.6425 -0.1014  0.1430
   42MPD2    C5  645   1.545   0.326  13.711 -0.2209  0.7239 -0.2993
   42MPD2     H  646   1.411   0.643  13.862 -4.0651 -0.8253 -1.2095
   42MPD2    H1  647   1.541   0.240  13.895 -1.3976 -0.3006  0.4445
   42MPD2    H2  648   1.521   0.394  13.525 -1.1543 -2.5603  0.1373
   42MPD2    H3  649   1.581   0.238  13.661  0.4412 -0.4524  2.2436
   42MPD2     N  650   1.432   0.442  14.042 -0.2917 -0.3337  0.2920
   42MPD2    H5  651   1.436   0.352  14.088  0.6241 -1.4641 -1.9520
   42MPD2    N1  652   1.429   0.655  13.597  0.5476  0.7234  0.3485
   42MPD2    H7  653   1.408   0.745  13.639 -1.3700 -0.9229  2.9131
   43MPD2     C  654   2.402   3.581   1.044  0.0795 -0.2265  0.1409
   43MPD2    C1  655   2.523   3.608   1.097 -0.0166 -0.1650 -0.2330
   43MPD2    C2  656   2.535   3.683   1.212  0.6455 -0.1646  0.2074
   43MPD2    C3  657   2.419   3.735   1.274  0.2628 -0.0168 -0.0612
   43MPD2    C4  658   2.302   3.721   1.204  0.5878  0.1725  0.4829
   43MPD2    C5  659   2.287   3.638   1.097 -0.3476 -0.6913 -0.2885
   43MPD2     H  660   2.638   3.701   1.242  0.0990  1.0800  1.3247
   43MPD2    H1  661   2.218   3.784   1.231 -1.0014 -1.2466 -1.1324
   43MPD2    H2  662   2.384   3.526   0.952  0.8093  2.3444 -1.5604
   43MPD2    H3  663   2.191   3.643   1.046  1.0046  1.7757 -2.5652
   43MPD2     N  664   2.420   3.824   1.382  0.2924 -0.3138 -0.1212
   43MPD2    H5  665   2.333   3.868   1.409  2.0433  2.7850  0.4142
   43MPD2    N1  666   2.650   3.563   1.047  0.2485  0.2023 -0.1306
   43MPD2    H7  667   2.729   3.597   1.100  0.7127 -0.8268 -0.1451
   44TCq2    C1  668   2.654   4.107   1.838 -0.1915 -0.5541  0.4381
   44TCq2    O2  669   2.747   4.034   1.812  0.0261  0.6417  0.2695
   44TCq2    C2  670   2.542   4.080   1.756 -0.7598 -0.4496  0.5912
   44TCq2    C3  671   2.462   4.183   1.719 -0.1947  0.0785  0.2265
   44TCq2    C4  672   2.388   4.165   1.603  0.3296  0.1011 -0.6119
   44TCq2    C5  673   2.390   4.057   1.520 -0.0050  0.7912 -0.8055
   44TCq2    C6  674   2.487   3.962   1.553  0.3203 -0.3464  0.6600
   44TCq2    C7  675   2.557   3.970   1.667 -0.5806 -0.0660 -0.7471
   44TCq2    C8  676   2.524   3.856   1.459 -0.6723 -0.4043  0.2735
   44TCq2    O4  677   2.620   3.790   1.486  0.1857  0.2305 -0.5165
   44TCq2    C9  678   2.315   4.277   1.557  0.4298 -0.2756  1.1590
   44TCq2    O5  679   2.267   4.270   1.442  0.6465  0.0633 -0.3949
   44TCq2    O6  680   2.323   4.386   1.618  0.4298 -0.5602 -0.4341
   44TCq2    H2  681   2.436   4.263   1.788 -0.8692 -0.2542  0.3614
   44TCq2    H3  682   2.326   4.050   1.433 -2.7093 -0.8583  1.2979
   44TCq2    H4  683   2.626   3.888   1.687 -0.4965  0.6052  1.7125
   45TMC2    C1  684   4.107   0.847   9.691  0.3857  0.2159  0.8490
   45TMC2    C2  685   4.242   0.817   9.672  0.4095 -0.2031 -0.3544
   45TMC2    C3  686   4.327   0.906   9.726  0.6077 -0.2036 -0.8667
   45TMC2    C4  687   4.056   0.955   9.751 -0.0808 -0.1325 -0.1748
   45TMC2    C5  688   4.149   1.035   9.810  0.2041  0.0831  0.1843
   45TMC2    C6  689   4.281   1.013   9.801  0.4645 -0.2499  0.4025
   45TMC2     C  690   4.027   0.771   9.596 -0.3661 -0.3384 -0.0695
   45TMC2     O  691   4.079   0.671   9.551  0.0327 -0.1912  0.4524
   45TMC2     H  692   4.276   0.720   9.635  0.0270 -0.3069 -0.4379
   45TMC2    H1  693   3.953   0.987   9.750 -0.0275  0.0831  1.0340
   45TMC2    H2  694   4.355   1.079   9.845  0.5389  0.1055 -0.2576
   45TMC2    C7  695   4.124   1.169   9.850  0.2007 -0.4179  0.1322
   45TMC2    C8  696   4.463   0.877   9.695  0.4990  0.3307 -0.3173
   45TMC2    O1  697   4.218   1.234   9.899 -0.0861  0.2473  0.3023
   45TMC2    O2  698   4.495   0.757   9.681 -0.1900  0.3491 -0.0466
   45TMC2    O5  699   4.531   0.992   9.733  0.8668 -0.4129 -0.3555
   45TMC2    H5  700   4.488   1.075   9.704 -1.9690 -1.9067 -0.5177
   46MPD2     C  701   3.806   0.640   9.452 -0.6878 -0.4568  0.8755
   46MPD2    C1  702   3.795   0.765   9.518 -0.2982  0.0740  0.4160
   46MPD2    C2  703   3.682   0.843   9.500  0.1666  0.2532 -0.5724
   46MPD2    C3  704   3.570   0.790   9.449 -0.9335 -0.1418  0.4504
   46MPD2    C4  705   3.581   0.664   9.386  0.8423 -0.0410  0.4645
   46MPD2    C5  706   3.698   0.589   9.392 -0.0010 -0.1741 -0.3917
   46MPD2     H  707   3.681   0.945   9.536  0.5644  0.5196 -1.3237
   46MPD2    H1  708   3.496   0.616   9.339  0.5754  0.3632  0.5298
   46MPD2    H2  709   3.898   0.583   9.449 -0.8557 -0.8316  2.3929
   46MPD2    H3  710   3.716   0.500   9.333 -0.5355 -1.8278  1.9495
   46MPD2     N  711   3.446   0.862   9.459 -0.0560 -0.2265 -0.0974
   46MPD2    H5  712   3.451   0.954   9.501  1.0799  0.0627 -0.8689
   46MPD2    N1  713   3.907   0.833   9.566 -0.2098  0.2096 -0.0128
   46MPD2    H7  714   3.899   0.932   9.588  0.6501  0.6045 -1.4676
   47TMC2    C1  715   0.494   1.803   9.356  0.6419  0.5063  0.8866
   47TMC2    C2  716   0.364   1.828   9.385 -0.0172  0.0577  0.2039
   47TMC2    C3  717   0.273   1.828   9.277  0.2909 -0.7491 -0.2000
   47TMC2    C4  718   0.538   1.778   9.230  0.3204 -0.0651 -0.3400
   47TMC2    C5  719   0.450   1.777   9.131  0.0971 -0.1990  0.3518
   47TMC2    C6  720   0.313   1.809   9.149 -0.2507 -0.2552 -0.3725
   47TMC2     C  721   0.595   1.841   9.453  0.0282  0.1804  0.2873
   47TMC2     O  722   0.562   1.930   9.528  0.5543  0.4372  0.2991
   47TMC2     H  723   0.334   1.847   9.488 -2.1943  2.4548 -0.8960
   47TMC2    H1  724   0.642   1.770   9.202  0.5207 -0.0090  0.3944
   47TMC2    H2  725   0.241   1.794   9.069 -1.4751 -0.1458  0.6971
   47TMC2    C7  726   0.499   1.729   9.007 -0.4513  0.9541  0.3087
   47TMC2    C8  727   0.131   1.807   9.290 -0.1460  0.7694  0.2106
   47TMC2    O1  728   0.592   1.648   9.012 -0.0503  0.3371  0.0105
   47TMC2    O2  729   0.075   1.734   9.210 -0.3891 -0.0781 -0.0724
   47TMC2    O5  730   0.088   1.835   9.416 -0.0595  0.1953 -0.0028
   47TMC2    H5  731   0.132   1.911   9.460 -1.4623  1.1329 -0.2385
   48MPD2     C  732   0.843   1.908   9.595  0.1044 -0.1567  0.8057
   48MPD2    C1  733   0.829   1.793   9.516  0.6607  0.7356  0.0452
   48MPD2    C2  734   0.939   1.702   9.504  0.1775  0.3997 -0.7944
   48MPD2    C3  735   1.057   1.725   9.576  0.5057  0.2768  0.0671
   48MPD2    C4  736   1.068   1.839   9.653  0.4903  0.7251 -0.1318
   48MPD2    C5  737   0.965   1.938   9.659 -0.8879  0.0859  0.1708
   48MPD2     H  738   0.926   1.611   9.447 -1.5758 -0.0455  0.2908
   48MPD2    H1  739   1.162   1.872   9.697  0.4348  1.4443 -0.5573
   48MPD2    H2  740   0.763   1.976   9.621  0.1122 -0.2245  1.0030
   48MPD2    H3  741   0.971   2.029   9.718  3.7066  0.8743 -1.5155
   48MPD2     N  742   1.155   1.628   9.564  0.5805  0.2536 -0.1542
   48MPD2    H5  743   1.138   1.550   9.502 -0.8140 -0.2008  0.8068
   48MPD2    N1  744   0.709   1.771   9.441 -0.1821  0.7275  0.3483
   48MPD2    H7  745   0.703   1.693   9.377  2.2989  1.3887 -0.7286
   49MPD2     C  746   4.108   3.411  10.206 -0.2813 -0.1235  0.2632
   49MPD2    C1  747   4.093   3.335  10.318 -0.0384  0.0542 -0.3740
   49MPD2    C2  748   4.108   3.389  10.443  0.0098 -0.0326  0.0430
   49MPD2    C3  749   4.145   3.525  10.455 -0.5759  0.4110 -0.1061
   49MPD2    C4  750   4.173   3.598  10.342  0.8451 -0.5007  0.7996
   49MPD2    C5  751   4.136   3.541  10.221  0.1164  0.2328  0.2191
   49MPD2     H  752   4.080   3.334  10.531 -0.2507  0.5470  0.3229
   49MPD2    H1  753   4.210   3.700  10.338  1.7133 -0.6936  3.7291
   49MPD2    H2  754   4.077   3.377  10.108  1.2075 -0.2246 -0.1680
   49MPD2    H3  755   4.147   3.605  10.134 -0.9119 -0.5134 -0.4626
   49MPD2     N  756   4.158   3.589  10.577  0.4849  0.2657 -0.3870
   49MPD2    H5  757   4.173   3.689  10.580 -0.0652  0.3923 -1.5970
   49MPD2    N1  758   4.047   3.202  10.305  0.6581  0.5012  0.0135
   49MPD2    H7  759   4.063   3.134  10.378  1.5862  0.4274 -0.2686
   50TCq2    C1  760   3.978   3.159  10.198  0.3830 -0.0508  0.2211
   50TCq2    O2  761   3.915   3.226  10.116  0.1722  0.0123  0.0760
   50TCq2    C2  762   3.936   3.019  10.204 -0.3631  0.5882  0.0035
   50TCq2    C3  763   3.827   2.979  10.138 -0.4670 -0.5442 -0.1458
   50TCq2    C4  764   3.788   2.848  10.155  0.3487 -0.0336 -0.2592
   50TCq2    C5  765   3.861   2.764  10.241  0.5501 -0.2417 -0.0481
   50TCq2    C6  766   3.980   2.804  10.299  0.2535 -0.2811 -0.4651
   50TCq2    C7  767   4.018   2.936  10.282  0.2799 -0.2844  0.2500
   50TCq2    C8  768   4.075   2.695  10.318 -0.5721 -0.0443 -0.1359
   50TCq2    O4  769   4.050   2.590  10.259 -0.1768  0.7894 -1.1108
   50TCq2    C9  770   3.664   2.807  10.095 -0.6439  0.5367  0.0327
   50TCq2    O5  771   3.634   2.686  10.102  0.5876  0.3225 -0.1225
   50TCq2    O6  772   3.602   2.894  10.025 -0.6447  0.2170  0.5217
   50TCq2    H2  773   3.760   3.040  10.079  1.2419  1.8916  0.4265
   50TCq2    H3  774   3.828   2.661  10.246 -5.3873  1.7758  1.7310
   50TCq2    H4  775   4.121   2.968  10.285 -0.3498  1.6496  1.2165
   51MPD2     C  776   4.638   1.558   1.630 -0.2183 -0.0408  0.2042
   51MPD2    C1  777   4.523   1.539   1.552 -0.3467 -0.2986  0.2316
   51MPD2    C2  778   4.441   1.651   1.522 -0.5824 -0.0831 -0.7426
   51MPD2    C3  779   4.487   1.782   1.536  0.4176 -0.2658 -0.2181
   51MPD2    C4  780   4.609   1.803   1.595  0.2331 -0.0382  0.2803
   51MPD2    C5  781   4.677   1.694   1.643 -0.7043  0.4928  0.0045
   51MPD2     H  782   4.346   1.642   1.470 -0.7385 -1.3534 -0.2333
   51MPD2    H1  783   4.650   1.898   1.628  1.4224 -0.5436  0.2660
   51MPD2    H2  784   4.718   1.487   1.648 -1.6169 -1.2053  1.8229
   51MPD2    H3  785   0.052   1.710   1.691  0.4600 -3.3696 -1.0535
   51MPD2     N  786   4.406   1.894   1.518 -0.0563  0.0842  0.0950
   51MPD2    H5  787   4.460   1.980   1.528 -0.7209  0.6426 -1.0870
   51MPD2    N1  788   4.480   1.409   1.510  0.0144 -0.0484 -0.2519
   51MPD2    H7  789   4.388   1.408   1.467  0.5882  0.4184 -1.4951
   52TCq2    C1  790   4.269   1.894   1.519 -0.0087  0.5118 -0.5805
   52TCq2    O2  791   4.189   1.802   1.537 -0.6228 -0.4326 -0.0170
   52TCq2    C2  792   4.223   2.032   1.499  0.6506 -1.1586 -0.7933
   52TCq2    C3  793   4.109   2.069   1.553 -0.0927 -0.2084 -0.0228
   52TCq2    C4  794   4.041   2.181   1.504  0.4548  0.3580 -0.6513
   52TCq2    C5  795   4.091   2.257   1.404  0.4549  0.0268 -0.1184
   52TCq2    C6  796   4.212   2.219   1.350 -0.2814 -0.4838  0.5959
   52TCq2    C7  797   4.278   2.106   1.397 -0.5780  0.1254  0.3993
   52TCq2    C8  798   4.292   2.329   1.296  0.3144 -0.7647  0.4872
   52TCq2    O4  799   4.233   2.434   1.263 -0.5166 -0.3552  0.2930
   52TCq2    C9  800   3.912   2.216   1.563  0.8236 -0.3668  0.4823
   52TCq2    O5  801   3.875   2.335   1.545 -0.6843 -0.4645 -0.5033
   52TCq2    O6  802   3.879   2.147   1.661 -0.0827 -0.2702 -0.0415
   52TCq2    H2  803   4.061   2.000   1.622  1.3813  0.1739  1.3647
   52TCq2    H3  804   4.031   2.335   1.359  2.9664  0.8368 -2.0358
   52TCq2    H4  805   4.366   2.070   1.345 -1.3872  0.4073 -1.1670
   53TMC2    C1  806   0.566   1.016  11.721 -0.9175  0.1789  0.1197
   53TMC2    C2  807   0.686   0.950  11.735 -0.0179  0.7585  0.1452
   53TMC2    C3  808   0.734   0.930  11.865  0.6735  0.4795  0.9505
   53TMC2    C4  809   0.503   1.053  11.834 -0.4442  0.3239 -0.3262
   53TMC2    C5  810   0.563   1.035  11.953  0.6209  0.1933 -0.3001
   53TMC2    C6  811   0.673   0.976  11.972 -0.7242  0.0108 -0.3614
   53TMC2     C  812   0.482   0.962  11.613 -0.6019  1.1907 -0.4012
   53TMC2     O  813   0.525   0.896  11.523  0.4758 -0.1655  0.1167
   53TMC2     H  814   0.716   0.893  11.647 -1.4651  1.6978 -0.9608
   53TMC2    H1  815   0.420   1.122  11.823  1.2139  2.6645  1.6084
   53TMC2    H2  816   0.720   0.965  12.069 -0.9450 -0.9997 -0.3603
   53TMC2    C7  817   0.470   1.054  12.056 -0.4203 -0.2050 -0.0028
   53TMC2    C8  818   0.861   0.859  11.885  0.9960 -0.5628 -0.5909
   53TMC2    O1  819   0.357   1.040  12.017 -0.3014 -0.3697 -0.3263
   53TMC2    O2  820   0.906   0.876  11.999 -0.2672 -0.1743 -0.1128
   53TMC2    O5  821   0.933   0.877  11.776  0.2275 -0.0100 -0.0152
   53TMC2    H5  822   0.895   0.818  11.708  1.0982  0.6039 -1.0395
   54MPD2     C  823   0.245   0.939  11.418 -0.1656 -0.0004 -0.3723
   54MPD2    C1  824   0.235   0.968  11.552 -0.1562 -0.5577 -0.4921
   54MPD2    C2  825   0.111   0.973  11.611 -0.2334  0.1860  0.0004
   54MPD2    C3  826   4.716   0.946  11.543 -0.6541  0.2331 -0.3788
   54MPD2    C4  827   0.009   0.911  11.414 -0.7553 -0.4349 -0.2953
   54MPD2    C5  828   0.129   0.906  11.350 -0.1985  0.2219  0.0777
   54MPD2     H  829   0.095   1.002  11.714 -2.8297 -0.7959 -0.1234
   54MPD2    H1  830   4.640   0.877  11.363 -1.7674 -0.2227  1.3514
   54MPD2    H2  831   0.337   0.927  11.363  0.2064 -0.7848  0.4220
   54MPD2    H3  832   0.136   0.875  11.247  0.1652 -0.1478  0.2153
   54MPD2     N  833   4.590   0.940  11.605  0.1463  0.0580  0.1166
   54MPD2    H5  834   4.513   0.931  11.539 -0.1579  1.8162  0.2535
   54MPD2    N1  835   0.350   0.990  11.640  0.5801 -0.6623 -0.0548
   54MPD2    H7  836   0.329   1.023  11.734  1.2120  2.8824 -1.1599
   55MPD2     C  837   0.109   0.051   0.820 -0.1679  0.0847 -0.0123
   55MPD2    C1  838   0.152   4.641   0.834 -0.5059 -0.6088  1.0987
   55MPD2    C2  839   0.057   4.551   0.877 -0.1962 -0.1417 -0.0376
   55MPD2    C3  840   4.642   4.582   0.892  0.0173 -0.4851 -0.3030
   55MPD2    C4  841   4.605   4.714   0.880 -0.2204 -0.0596  0.3188
   55MPD2    C5  842   4.700   0.085   0.854  0.1197  0.4302  0.4422
   55MPD2     H  843   0.078   4.447   0.900  3.4957  0.8338  0.8437
   55MPD2    H1  844   4.507   0.021   0.917 -0.5734 -2.7658  1.4867
   55MPD2    H2  845   0.168   0.140   0.803 -0.1623 -0.1627 -1.2823
   55MPD2    H3  846   4.676   0.191   0.862  2.1329  1.1656 -3.1270
   55MPD2     N  847   4.551   4.481   0.938 -0.0189  0.0339 -0.2862
   55MPD2    H5  848   4.589   4.394   0.975 -1.3500 -0.0654  0.8266
   55MPD2    N1  849   0.291   4.607   0.815 -0.4099  0.5023  0.0193
   55MPD2    H7  850   0.343   4.677   0.763 -1.0935  0.6724 -0.4302
   56TCq2    C1  851   0.349   4.488   0.847  0.2251  0.5345  0.4759
   56TCq2    O2  852   0.298   4.392   0.904 -0.5877 -0.1127 -0.0311
   56TCq2    C2  853   0.492   4.477   0.807  0.3246 -0.2048 -0.5884
   56TCq2    C3  854   0.544   4.556   0.714  0.3205 -0.0698 -0.2913
   56TCq2    C4  855   0.678   4.563   0.697 -0.0385 -0.0116  0.4950
   56TCq2    C5  856   0.760   4.498   0.787  0.7538  0.3415  0.1393
   56TCq2    C6  857   0.700   4.419   0.879 -0.1330  0.2007 -0.1596
   56TCq2    C7  858   0.565   4.407   0.896  0.0522  0.1725  0.6649
   56TCq2    C8  859   0.789   4.345   0.968  0.3496  0.1494  0.3161
   56TCq2    O4  860   0.905   4.378   0.979 -0.1234 -0.4001 -0.1766
   56TCq2    C9  861   0.745   4.655   0.601  0.0816 -0.2873 -0.0362
   56TCq2    O5  862   0.865   4.634   0.573  0.1980 -0.3499  0.7149
   56TCq2    O6  863   0.668   0.020   0.544 -0.4119 -0.7761  0.6149
   56TCq2    H2  864   0.479   4.608   0.645 -0.3653 -3.1722 -1.9849
   56TCq2    H3  865   0.866   4.495   0.764  0.7646  0.0771  0.2187
   56TCq2    H4  866   0.524   4.340   0.970  1.9812 -2.6557 -0.8246
   57TMC2    C1  867   0.188   4.043  14.083  0.5197 -0.2584  0.5048
   57TMC2    C2  868   0.293   3.946  14.095 -0.0130  0.5723 -0.5947
   57TMC2    C3  869   0.415   3.982  14.040  0.3711  0.3998 -0.0683
   57TMC2    C4  870   0.222   4.167  14.036 -0.2198  0.1230  0.2162
   57TMC2    C5  871   0.350   4.190  14.001 -0.6202 -0.8223 -0.0036
   57TMC2    C6  872   0.449   4.104  13.987 -0.8753  1.0647 -0.1787
   57TMC2     C  873   0.049   4.011  14.110  0.1767  0.6480  0.4049
   57TMC2     O  874   4.691   4.101  14.089 -0.9376 -0.3795 -0.5008
   57TMC2     H  875   0.264   3.848  14.131  1.3436  0.4925  0.2915
   57TMC2    H1  876   0.141   4.237  14.021 -0.2040  0.3692  1.2663
   57TMC2    H2  877   0.547   4.144  13.963 -0.8945  0.2962 -1.5928
   57TMC2    C7  878   0.364   4.320  13.938  0.2802 -0.2184  0.4436
   57TMC2    C8  879   0.521   3.891  14.038 -0.0991 -0.2472  0.1138
   57TMC2    O1  880   0.295   4.405  13.989 -0.4963  0.1254 -0.6214
   57TMC2    O2  881   0.643   3.901  14.027 -0.2841  0.8727 -0.6335
   57TMC2    O5  882   0.461   3.774  14.048 -0.2373 -0.2279 -0.0167
   57TMC2    H5  883   0.367   3.770  14.020 -0.5895 -0.5494  1.2416
   58MPD2     C  884   4.363   3.701  14.211  0.2674  0.5195 -0.2140
   58MPD2    C1  885   4.383   3.836  14.223 -0.3195  0.2318 -0.3597
   58MPD2    C2  886   4.501   3.899  14.205  0.4564  0.7995  0.3325
   58MPD2    C3  887   4.615   3.821  14.175 -0.4950 -0.6169  0.9969
   58MPD2    C4  888   4.595   3.683  14.162 -0.3889  0.1286 -0.1795
   58MPD2    C5  889   4.474   3.626  14.183  0.1292 -0.6634 -0.6912
   58MPD2     H  890   4.512   4.004  14.227 -2.9207  0.8915  1.5543
   58MPD2    H1  891   4.678   3.623  14.127 -0.0836  0.1949  0.4391
   58MPD2    H2  892   4.269   3.648  14.216  1.0107 -0.8050 -0.1207
   58MPD2    H3  893   4.453   3.521  14.169 -0.6420 -0.9336  2.4062
   58MPD2     N  894   0.021   3.878  14.135  0.3578 -0.2977  0.4796
   58MPD2    H5  895   0.099   3.818  14.113  1.7961  2.5517 -2.1305
   58MPD2    N1  896   4.270   3.918  14.249  0.0697  0.0801 -0.6443
   58MPD2    H7  897   4.296   4.013  14.275  1.0983 -0.6005  0.7776
   59MPD2     C  898   3.098   4.168  13.015 -0.5516 -0.1158 -0.5651
   59MPD2    C1  899   3.113   4.271  12.926  0.4837 -0.2471  0.3600
   59MPD2    C2  900   3.243   4.319  12.907  0.0103 -0.1711  0.7267
   59MPD2    C3  901   3.351   4.265  12.980  0.3431  0.2314 -0.4884
   59MPD2    C4  902   3.321   4.171  13.073 -0.1737 -0.0004  0.1399
   59MPD2    C5  903   3.197   4.129  13.097 -0.6045 -0.1314  0.2676
   59MPD2     H  904   3.270   4.400  12.840 -2.2062  1.7582  2.1521
   59MPD2    H1  905   3.394   4.112  13.128 -0.8500  0.6006  1.6721
   59MPD2    H2  906   3.003   4.122  13.036  0.3782 -1.8786 -0.1918
   59MPD2    H3  907   3.183   4.071  13.187 -3.1392 -1.9766 -1.3391
   59MPD2     N  908   3.483   4.295  12.956  0.1331 -0.4224  0.1891
   59MPD2    H5  909   3.500   4.349  12.871  2.4606 -0.3691  0.6668
   59MPD2    N1  910   3.009   4.339  12.858  0.4714 -0.2819 -0.0379
   59MPD2    H7  911   3.033   4.416  12.797  0.6472  1.0626  1.7152
   60TCq2    C1  912   2.873   4.307  12.874  0.0210 -0.1560 -0.5751
   60TCq2    O2  913   2.820   4.217  12.941 -0.2733 -0.0326  0.0829
   60TCq2    C2  914   2.781   4.408  12.822  0.4045  0.3440 -0.2624
   60TCq2    C3  915   2.661   4.415  12.887  0.4276  0.7154  0.7214
   60TCq2    C4  916   2.561   4.456  12.804  0.0431 -0.0456  0.1137
   60TCq2    C5  917   2.575   4.493  12.674 -1.2352  0.4399 -0.2299
   60TCq2    C6  918   2.699   4.479  12.622  0.1555  0.7974  0.3658
   60TCq2    C7  919   2.808   4.441  12.692  0.0560  0.4466  0.0214
   60TCq2    C8  920   2.724   4.476  12.477  0.1876 -0.0347  0.3083
   60TCq2    O4  921   2.824   4.425  12.431 -0.3335 -0.3102 -0.2329
   60TCq2    C9  922   2.426   4.447  12.859 -0.3550  0.1110 -0.0997
   60TCq2    O5  923   2.405   4.380  12.964 -0.5996 -0.0303  0.1070
   60TCq2    O6  924   2.335   4.505  12.798  0.4782 -0.4405  0.4113
   60TCq2    H2  925   2.640   4.372  12.984  0.0942 -0.0709  0.3060
   60TCq2    H3  926   2.485   4.508  12.614 -2.2000 -0.5222  0.9727
   60TCq2    H4  927   2.910   4.422  12.659  0.0815  1.8389 -0.6913
   61MPD2     C  928   2.070   0.791  14.684 -0.3593  0.2739 -0.3870
   61MPD2    C1  929   2.105   0.923  14.709 -0.2639  0.6995 -0.5378
   61MPD2    C2  930   2.105   1.010  14.606  0.6613 -0.2945 -0.0151
   61MPD2    C3  931   2.085   0.970  14.474  0.5994  0.6371 -0.0240
   61MPD2    C4  932   2.060   0.841  14.448 -0.7446  0.1453  0.2007
   61MPD2    C5  933   2.044   0.755  14.555  0.1163  0.6025  0.4103
   61MPD2     H  934   2.138   1.112  14.621  3.1071 -1.1113  0.2127
   61MPD2    H1  935   2.051   0.802  14.347 -1.2476 -1.9535  1.0476
   61MPD2    H2  936   2.038   0.717  14.756 -0.6299  0.2485 -0.5319
   61MPD2    H3  937   2.018   0.652  14.534  0.5914  0.1589  2.0031
   61MPD2     N  938   2.102   1.064  14.363 -0.2192 -0.4312 -0.0844
   61MPD2    H5  939   2.101   1.020  14.272 -2.6034  1.4794 -0.9896
   61MPD2    N1  940   2.120   0.985  14.842 -0.5403  0.0425 -1.3109
   61MPD2    H7  941   2.100   1.084  14.846 -2.0999 -0.3435  0.6397
   62TCq2    C1  942   2.119   0.910  14.959 -0.5400  0.2791 -0.9180
   62TCq2    O2  943   2.140   0.791  14.973 -0.7413  0.1006  0.5457
   62TCq2    C2  944   2.096   0.994  15.072 -0.4462  0.2624 -0.0454
   62TCq2    C3  945   2.033   0.932  15.182  0.4149  0.0913  0.1379
   62TCq2    C4  946   1.972   1.010  15.278 -0.0983 -0.4831 -0.1685
   62TCq2    C5  947   1.976   1.144  15.275 -0.0078  0.0361  0.4208
   62TCq2    C6  948   2.053   1.207  15.185  0.0959  0.4429 -0.0856
   62TCq2    C7  949   2.105   1.135  15.073 -0.5727 -0.3878  0.4451
   62TCq2    C8  950   2.005   1.341  15.148 -0.8596 -0.4239  0.2484
   62TCq2    O4  951   2.086   1.432  15.139  0.5107  0.3203 -0.3277
   62TCq2    C9  952   1.874   0.945  15.363 -0.3531  0.3531 -0.5170
   62TCq2    O5  953   1.822   1.014  15.454 -0.2251  0.2580 -0.1592
   62TCq2    O6  954   1.837   0.834  15.317  0.3012 -0.1706 -0.7376
   62TCq2    H2  955   2.008   0.827  15.168  3.2474 -0.6526  0.4614
   62TCq2    H3  956   1.932   1.201  15.355  0.7369  1.4593 -0.1989
   62TCq2    H4  957   2.161   1.180  14.992  1.5253  0.4234  2.3585
   63TMC2    C1  958   1.354   1.275  10.829 -0.0143  0.0133  0.3647
   63TMC2    C2  959   1.455   1.288  10.925 -0.1268 -0.3534 -0.5522
   63TMC2    C3  960   1.565   1.357  10.897  0.1974 -0.1307 -0.4745
   63TMC2    C4  961   1.347   1.346  10.713 -0.2725 -0.1139  0.1580
   63TMC2    C5  962   1.451   1.434  10.703 -0.3182  0.4747  0.4942
   63TMC2    C6  963   1.564   1.430  10.784  0.0912 -0.0104 -0.1608
   63TMC2     C  964   1.233   1.203  10.873 -0.6375  0.1590 -0.0864
   63TMC2     O  965   1.207   1.215  10.993 -0.0147 -0.1485 -0.2270
   63TMC2     H  966   1.435   1.261  11.028 -0.6604  1.1954 -0.2589
   63TMC2    H1  967   1.259   1.371  10.655  0.6873  1.2978 -0.6801
   63TMC2    H2  968   1.649   1.492  10.759 -0.6245  1.5340  1.2039
   63TMC2    C7  969   1.438   1.542  10.599  0.3390 -0.1517  0.2701
   63TMC2    C8  970   1.638   1.409  11.014 -0.4966 -0.3870 -0.0083
   63TMC2    O1  971   1.373   1.528  10.492 -0.0328 -0.5889 -0.5632
   63TMC2    O2  972   1.701   1.514  11.009  0.5989  0.1594  0.3383
   63TMC2    O5  973   1.673   1.309  11.096 -0.0069 -0.5676  0.2181
   63TMC2    H5  974   1.624   1.224  11.086  0.4666 -0.9835  1.4222
   64MPD2     C  975   0.846   0.864  10.809 -0.3046  0.5313 -0.5354
   64MPD2    C1  976   0.938   0.849  10.700 -0.3998  0.2734  0.3581
   64MPD2    C2  977   1.050   0.936  10.694 -0.0478  0.5528 -0.6093
   64MPD2    C3  978   1.081   1.027  10.792  0.4151 -0.4305 -0.7289
   64MPD2    C4  979   0.999   1.022  10.906  0.0746  0.5622 -1.1325
   64MPD2    C5  980   0.881   0.947  10.912  0.0901 -0.0006 -0.4603
   64MPD2     H  981   1.108   0.935  10.603  1.0787 -1.0687  0.1381
   64MPD2    H1  982   1.030   1.085  10.988 -1.5431 -0.4937  0.2868
   64MPD2    H2  983   0.756   0.805  10.823 -0.3530  0.1716 -2.3858
   64MPD2    H3  984   0.820   0.954  11.001  1.0514 -2.8478  0.4010
   64MPD2     N  985   1.189   1.118  10.778 -0.5236 -0.8103  0.2442
   64MPD2    H5  986   1.235   1.112  10.688  0.5708  0.9485  0.6938
   64MPD2    N1  987   0.920   0.742  10.611  0.3320 -0.1618 -0.5334
   64MPD2    H7  988   1.000   0.715  10.554  0.7540 -1.6732  0.7784
   65MPD2     C  989   2.214   0.571  15.802 -0.0944 -0.4497 -0.4588
   65MPD2    C1  990   2.251   0.541  15.671 -0.1554  0.0823 -0.1864
   65MPD2    C2  991   2.267   0.405  15.639 -0.4622  0.3726 -0.1093
   65MPD2    C3  992   2.230   0.310  15.729 -0.3462  0.4049 -0.3586
   65MPD2    C4  993   2.177   0.345  15.855  0.0098  0.1430 -0.1294
   65MPD2    C5  994   2.178   0.474  15.889 -0.0288 -0.4597 -1.5211
   65MPD2     H  995   2.300   0.377  15.539  0.3163 -0.9431  0.5236
   65MPD2    H1  996   2.141   0.263  15.917  0.7634 -0.9200 -1.0936
   65MPD2    H2  997   2.204   0.671  15.843 -1.9780 -0.8127 -0.0301
   65MPD2    H3  998   2.155   0.500  15.992 -0.5436 -0.1216 -1.7234
   65MPD2     N  999   2.212   0.175  15.698 -0.2449  0.5725  0.1125
   65MPD2    H5 1000   2.199   0.106  15.771  3.7995  1.9340  2.1105
   65MPD2    N1 1001   2.293   0.631  15.572 -0.6319 -0.2042  0.0577
   65MPD2    H7 1002   2.319   0.592  15.482 -0.9350  2.0756 -1.0302
   66TCq2    C1 1003   2.284   0.767  15.591 -0.0133  0.9738 -0.5334
   66TCq2    O2 1004   2.236   0.838  15.681  0.0706 -0.4944  0.1287
   66TCq2    C2 1005   2.313   0.852  15.473 -0.0059  0.4030 -0.3680
   66TCq2    C3 1006   2.389   0.796  15.375  1.1437  0.1549  0.4116
   66TCq2    C4 1007   2.441   0.880  15.280 -0.0138  0.2393 -0.4546
   66TCq2    C5 1008   2.403   1.006  15.270  0.1113 -0.7178 -0.3369
   66TCq2    C6 1009   2.324   1.055  15.372 -0.2907  0.1901 -0.4722
   66TCq2    C7 1010   2.283   0.983  15.481 -0.2148  0.0048  0.5217
   66TCq2    C8 1011   2.311   1.202  15.390 -0.3727 -0.2643  0.1346
   66TCq2    O4 1012   2.337   1.270  15.291 -0.0575 -0.3652 -0.7211
   66TCq2    C9 1013   2.541   0.835  15.185  0.3146 -0.1373  0.3173
   66TCq2    O5 1014   2.594   0.923  15.112 -0.4074 -0.0122 -0.2321
   66TCq2    O6 1015   2.596   0.721  15.196 -0.4550 -0.2912  0.2711
   66TCq2    H2 1016   2.427   0.694  15.384  1.5901  0.2536 -0.2950
   66TCq2    H3 1017   2.432   1.067  15.185 -2.2133  3.7970  2.1366
   66TCq2    H4 1018   2.210   1.010  15.556 -0.1671  1.0093  0.2119
   67MPD2     C 1019   2.954   0.542  14.026  0.3307  0.8854 -0.5850
   67MPD2    C1 1020   2.817   0.515  14.060  0.8617 -0.4147 -0.0189
   67MPD2    C2 1021   2.753   0.418  13.993 -0.6905 -0.1750  0.1274
   67MPD2    C3 1022   2.811   0.345  13.896  0.1708  0.0037  0.0963
   67MPD2    C4 1023   2.935   0.375  13.856  0.2341  0.1402  0.6598
   67MPD2    C5 1024   3.014   0.471  13.924 -0.2443 -0.3581 -0.9213
   67MPD2     H 1025   2.647   0.404  14.013 -0.8733  2.1986  0.8660
   67MPD2    H1 1026   2.984   0.322  13.775 -0.3616  0.2356  0.2416
   67MPD2    H2 1027   3.009   0.626  14.067 -0.1296  0.7365  0.3315
   67MPD2    H3 1028   3.115   0.485  13.889  0.3251 -0.2636  0.7807
   67MPD2     N 1029   2.745   0.238  13.834  0.2492  0.1057 -0.4009
   67MPD2    H5 1030   2.799   0.187  13.764  0.0410 -0.1405 -0.3828
   67MPD2    N1 1031   2.763   0.575  14.176  0.4721  0.0094 -0.0658
   67MPD2    H7 1032   2.663   0.556  14.185  0.1495  1.7463  0.0023
   68TCq2    C1 1033   2.811   0.672  14.258  0.1969 -0.6109 -1.3103
   68TCq2    O2 1034   2.913   0.740  14.241 -0.0903 -0.5726 -0.1914
   68TCq2    C2 1035   2.738   0.691  14.379 -0.3767  0.7319 -0.4745
   68TCq2    C3 1036   2.764   0.803  14.447 -0.4711  0.2972  0.6728
   68TCq2    C4 1037   2.769   0.796  14.587 -0.8388  0.5528  0.6444
   68TCq2    C5 1038   2.754   0.678  14.654  0.3608  0.0414  0.3347
   68TCq2    C6 1039   2.721   0.565  14.582 -0.3759 -0.3417 -0.5078
   68TCq2    C7 1040   2.715   0.574  14.444 -0.0923  1.0745 -0.7990
   68TCq2    C8 1041   2.765   0.441  14.639 -0.1737  0.3114 -0.1879
   68TCq2    O4 1042   2.791   0.350  14.562  0.1856  0.0492 -0.0411
   68TCq2    C9 1043   2.794   0.913  14.661  0.6828  0.7708  0.3045
   68TCq2    O5 1044   2.795   1.023  14.599  0.4055 -0.0401  0.7530
   68TCq2    O6 1045   2.837   0.896  14.776 -0.8592  0.3923 -0.0810
   68TCq2    H2 1046   2.770   0.903  14.405 -0.4469 -0.4822 -1.1525
   68TCq2    H3 1047   2.765   0.681  14.762 -0.5552  1.7297  0.3766
   68TCq2    H4 1048   2.695   0.482  14.390  2.1946 -0.0269  0.2276
   69TMC2    C1 1049   0.183   1.459  12.737  0.2054 -0.1492  0.2038
   69TMC2    C2 1050   0.068   1.521  12.698 -0.4529 -0.6741  0.3591
   69TMC2    C3 1051   0.067   1.571  12.569 -0.0142  0.3339  0.2237
   69TMC2    C4 1052   0.302   1.454  12.664 -0.0242 -0.3278  0.1309
   69TMC2    C5 1053   0.292   1.500  12.542 -0.3887  0.1588  0.5809
   69TMC2    C6 1054   0.180   1.556  12.488  0.6564 -0.0020  0.4064
   69TMC2     C 1055   0.190   1.418  12.871 -0.9191 -0.5485 -0.5876
   69TMC2     O 1056   0.085   1.375  12.923 -0.0113  0.3881  0.3807
   69TMC2     H 1057   4.717   1.526  12.779 -0.2371 -1.5166  0.6096
   69TMC2    H1 1058   0.391   1.404  12.699 -1.6620 -2.0866  1.7643
   69TMC2    H2 1059   0.182   1.578  12.382  1.0077  1.3792  0.6964
   69TMC2    C7 1060   0.398   1.472  12.453 -0.0392  0.2263 -0.0453
   69TMC2    C8 1061   4.669   1.642  12.530  0.6088 -0.1090 -0.5560
   69TMC2    O1 1062   0.385   1.480  12.333 -0.3718  0.2048  0.3549
   69TMC2    O2 1063   4.552   1.619  12.578  0.1901  0.0717  0.1225
   69TMC2    O5 1064   4.708   1.764  12.483  0.9497  0.1072 -0.1986
   69TMC2    H5 1065   0.084   1.772  12.474  0.6161  0.0067 -3.7398
   70MPD2     C 1066   0.467   1.479  13.104  0.1909  0.3503 -0.2069
   70MPD2    C1 1067   0.347   1.427  13.061  0.0183 -0.0267 -0.3250
   70MPD2    C2 1068   0.282   1.334  13.133 -1.0064  0.3069  0.9269
   70MPD2    C3 1069   0.328   1.307  13.262 -0.2725  0.0912 -0.1243
   70MPD2    C4 1070   0.450   1.363  13.302 -0.5160  0.0389  0.6073
   70MPD2    C5 1071   0.517   1.445  13.218  0.2677  0.4954  0.4379
   70MPD2     H 1072   0.203   1.277  13.086 -0.4592 -0.6610  1.1877
   70MPD2    H1 1073   0.494   1.338  13.398 -0.7118 -1.2534  0.3643
   70MPD2    H2 1074   0.519   1.551  13.041  0.3867  2.5107  2.4766
   70MPD2    H3 1075   0.609   1.493  13.251  0.7091 -0.1677  0.1691
   70MPD2     N 1076   0.263   1.212  13.347 -0.4938 -0.1081  0.7977
   70MPD2    H5 1077   0.316   1.187  13.429  1.4208  1.7981  0.1456
   70MPD2    N1 1078   0.309   1.458  12.930  0.0696  0.0911 -0.5725
   70MPD2    H7 1079   0.382   1.506  12.878  1.4999 -2.5314 -0.9442
   71TMC2    C1 1080   2.689   2.038   1.793 -0.1201  0.2013 -0.1190
   71TMC2    C2 1081   2.770   2.011   1.898 -0.6207 -0.0195 -0.1245
   71TMC2    C3 1082   2.721   1.952   2.014  0.1935 -0.1418  0.2561
   71TMC2    C4 1083   2.552   2.027   1.803  0.1949 -0.0007 -0.4976
   71TMC2    C5 1084   2.505   1.982   1.923 -0.6313 -0.3414 -0.0855
   71TMC2    C6 1085   2.586   1.947   2.028  0.0230  0.2433 -0.0918
   71TMC2     C 1086   2.745   2.108   1.683 -0.1115  0.1022  0.5713
   71TMC2     O 1087   2.825   2.193   1.724  0.3722  0.1500  0.0473
   71TMC2     H 1088   2.878   2.003   1.887 -0.6004  1.5626 -1.1006
   71TMC2    H1 1089   2.486   2.075   1.732 -0.3062 -1.9675 -1.3756
   71TMC2    H2 1090   2.543   1.900   2.116  0.3576 -1.1616 -0.6724
   71TMC2    C7 1091   2.374   2.020   1.968  0.7797 -0.1444  1.1670
   71TMC2    C8 1092   2.815   1.869   2.090  0.5188  0.1134  0.2030
   71TMC2    O1 1093   2.360   2.027   2.090 -0.1964 -0.0519  0.0026
   71TMC2    O2 1094   2.924   1.830   2.053  0.1217 -0.0487 -0.2732
   71TMC2    O5 1095   2.783   1.879   2.217 -0.9178  0.5085 -0.3922
   71TMC2    H5 1096   2.708   1.941   2.225 -0.1026  1.5232 -0.5947
   72MPD2     C 1097   2.847   2.268   1.225 -0.4515 -0.6668 -0.2841
   72MPD2    C1 1098   2.718   2.203   1.217  0.3679 -0.4467 -0.9184
   72MPD2    C2 1099   2.672   2.142   1.328 -0.4448 -0.4987  0.5140
   72MPD2    C3 1100   2.738   2.147   1.448 -0.4449 -0.2477  0.1513
   72MPD2    C4 1101   2.865   2.198   1.449  0.3693  0.4744  0.6388
   72MPD2    C5 1102   2.918   2.253   1.341 -0.0049  0.0597  0.3552
   72MPD2     H 1103   2.576   2.093   1.328  0.9931 -3.3522 -2.9987
   72MPD2    H1 1104   2.935   2.194   1.532 -0.3050  1.7687  1.2699
   72MPD2    H2 1105   2.900   2.318   1.145 -1.2736  4.4091  2.3177
   72MPD2    H3 1106   3.021   2.285   1.344 -0.8906  3.1213 -1.6933
   72MPD2     N 1107   2.681   2.097   1.563 -0.4196  0.1820  0.5667
   72MPD2    H5 1108   2.599   2.040   1.546  1.3561 -2.2799  0.2398
   72MPD2    N1 1109   2.631   2.220   1.111 -0.4362 -0.0849 -0.0221
   72MPD2    H7 1110   2.540   2.178   1.125  0.3497 -1.4196  1.0249
   73TMC2    C1 1111   2.297   3.520  14.489 -0.4717  0.3588  0.7959
   73TMC2    C2 1112   2.352   3.533  14.614  0.5635 -0.9676 -0.0711
   73TMC2    C3 1113   2.440   3.640  14.628  0.0310  0.2493 -0.5114
   73TMC2    C4 1114   2.327   3.607  14.387 -0.0088 -0.3347 -0.0553
   73TMC2    C5 1115   2.406   3.713  14.410 -0.2318  0.6193  1.2866
   73TMC2    C6 1116   2.455   3.732  14.532  0.4523  0.5700 -0.0241
   73TMC2     C 1117   2.197   3.419  14.466  0.4522  0.0961  0.0377
   73TMC2     O 1118   2.213   3.301  14.490  0.2532 -0.4970  0.7355
   73TMC2     H 1119   2.319   3.457  14.684 -0.4463 -0.7901 -0.3493
   73TMC2    H1 1120   2.289   3.579  14.289 -0.9062 -3.7722  1.2729
   73TMC2    H2 1121   2.515   3.820  14.556 -0.1722  0.8593  0.4750
   73TMC2    C7 1122   2.341   3.834  14.364 -0.5334  0.1463 -0.4906
   73TMC2    C8 1123   2.482   3.674  14.762  0.3305  0.0013 -0.0058
   73TMC2    O1 1124   2.350   3.931  14.441  0.4156 -0.0794 -0.0900
   73TMC2    O2 1125   2.536   3.778  14.793  0.6250  0.5459 -0.1022
   73TMC2    O5 1126   2.419   3.591  14.845  0.4416 -0.0409 -0.1886
   73TMC2    H5 1127   2.414   3.499  14.812 -1.6648  0.2835 -0.7747
   74MPD2     C 1128   1.822   3.291  14.146  0.0357  0.8650  0.3906
   74MPD2    C1 1129   1.828   3.424  14.144 -0.1287 -0.0123 -0.1222
   74MPD2    C2 1130   1.904   3.489  14.243 -0.8985 -0.2469 -0.2277
   74MPD2    C3 1131   1.996   3.411  14.317  0.2683  0.4601 -0.0511
   74MPD2    C4 1132   1.999   3.274  14.297  0.1841 -0.1234  0.0391
   74MPD2    C5 1133   1.900   3.211  14.226 -0.4075  0.0964 -0.0223
   74MPD2     H 1134   1.897   3.597  14.253  1.5139 -0.2434  1.4606
   74MPD2    H1 1135   2.068   3.204  14.344 -0.1260  0.4994  1.4206
   74MPD2    H2 1136   1.746   3.237  14.089  1.2835 -0.5378  0.0503
   74MPD2    H3 1137   1.891   3.104  14.237 -1.3027  0.1208 -0.5458
   74MPD2     N 1138   2.096   3.476  14.392 -0.3441  0.1302  0.2890
   74MPD2    H5 1139   2.080   3.575  14.403 -1.3290 -0.1400  1.2012
   74MPD2    N1 1140   1.754   3.497  14.049  0.1557  0.0181  0.2075
   74MPD2    H7 1141   1.740   3.595  14.074 -0.7876  0.2437 -1.2058
   75TCq2    C1 1142   2.610   0.221  13.835  0.2867 -0.6243  0.7916
   75TCq2    O2 1143   2.524   0.273  13.902  0.0607 -0.2717  0.4336
   75TCq2    C2 1144   2.572   0.122  13.732 -0.4854  0.7980  0.5838
   75TCq2    C3 1145   2.657   0.036  13.672 -0.1680 -0.0625  0.3647
   75TCq2    C4 1146   2.616   4.687  13.555 -0.0984 -0.8601 -0.4143
   75TCq2    C5 1147   2.490   4.699  13.497  0.9712 -0.2201 -0.2265
   75TCq2    C6 1148   2.405   0.058  13.568 -0.3375 -0.1127 -0.2449
   75TCq2    C7 1149   2.442   0.122  13.688 -0.0884  0.7039  0.2777
   75TCq2    C8 1150   2.279   0.092  13.495 -0.5887  0.0994  0.6642
   75TCq2    O4 1151   2.277   0.059  13.376 -0.1551  0.5917 -0.1149
   75TCq2    C9 1152   2.702   4.588  13.507 -0.3528 -0.0620 -0.2798
   75TCq2    O5 1153   2.654   4.496  13.436 -0.4979 -0.0811  0.4834
   75TCq2    O6 1154   2.823   4.603  13.538  0.3010  0.3505  1.4185
   75TCq2    H2 1155   2.750   0.013  13.722 -0.5931  0.5414  1.4431
   75TCq2    H3 1156   2.459   4.640  13.412 -0.5246 -0.4817  0.4916
   75TCq2    H4 1157   2.374   0.182  13.747 -1.0271 -0.6554  0.5747
   76MPD2     C 1158   1.412   1.050  11.817  0.5639  0.1582 -0.5386
   76MPD2    C1 1159   1.295   0.981  11.782 -0.1532  0.1229  0.0980
   76MPD2    C2 1160   1.294   0.843  11.766 -0.0800 -0.3802  0.0005
   76MPD2    C3 1161   1.406   0.765  11.786 -0.7509  0.2767  0.0737
   76MPD2    C4 1162   1.512   0.831  11.837  0.1898  0.2410  0.3555
   76MPD2    C5 1163   1.517   0.968  11.845  0.0273 -0.1219 -0.2464
   76MPD2     H 1164   1.196   0.799  11.748 -0.6629  1.1780 -0.7089
   76MPD2    H1 1165   1.607   0.783  11.855 -0.2148 -0.0286  1.7443
   76MPD2    H2 1166   1.419   1.156  11.836 -1.4294  0.6293 -2.3671
   76MPD2    H3 1167   1.611   1.017  11.871 -0.4994  0.4884  0.5287
   76MPD2     N 1168   1.411   0.621  11.779 -0.4393  0.2953 -0.3856
   76MPD2    H5 1169   1.493   0.572  11.812 -0.5288  0.7811  0.5652
   76MPD2    N1 1170   1.170   1.049  11.760  0.3164 -0.2133  0.1323
   76MPD2    H7 1171   1.083   1.005  11.731 -0.2686 -0.1300  1.7865
   77TCq2    C1 1172   1.304   0.549  11.728 -0.4552  0.0310  0.3730
   77TCq2    O2 1173   1.212   0.590  11.658 -0.0360  0.0044  0.4463
   77TCq2    C2 1174   1.339   0.402  11.725  0.2353  0.3481  0.6073
   77TCq2    C3 1175   1.282   0.328  11.622  0.1465  0.4315 -0.0056
   77TCq2    C4 1176   1.300   0.197  11.631  0.0410 -0.0735 -0.6992
   77TCq2    C5 1177   1.369   0.141  11.732  0.3601 -0.1539  0.1229
   77TCq2    C6 1178   1.426   0.222  11.830  0.1498 -0.3326  0.7181
   77TCq2    C7 1179   1.408   0.356  11.835 -0.4048  0.1580 -0.2958
   77TCq2    C8 1180   1.516   0.160  11.924 -0.5601  0.2311  0.3265
   77TCq2    O4 1181   1.494   0.039  11.937 -0.3257  0.1412  0.0361
   77TCq2    C9 1182   1.224   0.115  11.537  0.1712  0.2295 -0.1645
   77TCq2    O5 1183   1.215   4.711  11.556 -0.9437 -0.4686  0.2155
   77TCq2    O6 1184   1.165   0.169  11.438  0.2304 -0.1231  0.0016
   77TCq2    H2 1185   1.203   0.373  11.562 -1.7390 -3.1890 -0.2023
   77TCq2    H3 1186   1.378   0.033  11.735  1.8424 -0.0630 -0.8295
   77TCq2    H4 1187   1.456   0.416  11.912 -1.5342  0.4320  0.1908
   78MPD1     C 1188   1.416   1.529   1.094 -0.3392 -0.3688  0.2462
   78MPD1    C1 1189   1.548   1.575   1.083 -0.3665 -0.2946 -0.7096
   78MPD1    C2 1190   1.625   1.594   1.195  0.0371 -0.3611  0.3747
   78MPD1    C3 1191   1.566   1.581   1.317 -0.1740  0.6475 -0.6075
   78MPD1    C4 1192   1.434   1.546   1.329  0.1970 -0.4082 -0.3795
   78MPD1    C5 1193   1.364   1.515   1.218 -0.0975  0.1463 -0.0639
   78MPD1     H 1194   1.728   1.624   1.180 -0.1585  0.4901  0.6987
   78MPD1    H1 1195   1.388   1.544   1.427  1.2167 -0.7582  0.0917
   78MPD1    H2 1196   1.355   1.505   1.008 -0.1926 -1.4218  0.4362
   78MPD1    H3 1197   1.259   1.488   1.230  0.2736 -0.3379  1.9563
   78MPD1     N 1198   1.636   1.616   1.441  0.4332 -0.4636  0.8603
   78MPD1    H5 1199   1.588   1.615   1.530 -0.0674  0.5175  0.5950
   78MPD1    N1 1200   1.607   1.600   0.955 -0.2357 -0.2416  0.1205
   78MPD1    H6 1201   1.538   1.588   0.881  0.7830 -0.0278 -0.8428
   78MPD1    H7 1202   1.641   1.696   0.950  1.3143 -0.7289  1.5090
   79TCq2    C1 1203   1.761   1.659   1.445  0.3201  0.4825 -0.1863
   79TCq2    O2 1204   1.846   1.648   1.358 -0.5255  0.7377  0.5261
   79TCq2    C2 1205   1.797   1.699   1.583  0.7594 -0.6048 -0.2808
   79TCq2    C3 1206   1.695   1.745   1.661  0.1566  0.5077  0.4190
   79TCq2    C4 1207   1.725   1.770   1.790 -0.3760 -0.2483 -0.0016
   79TCq2    C5 1208   1.848   1.765   1.841 -0.1297  0.3553  0.2238
   79TCq2    C6 1209   1.951   1.725   1.756 -0.0444 -0.7482 -0.4776
   79TCq2    C7 1210   1.930   1.695   1.624  0.0703 -0.6686 -0.6830
   79TCq2    C8 1211   2.087   1.718   1.808  0.0508 -0.1903  0.4685
   79TCq2    O4 1212   2.164   1.702   1.719 -0.1645  0.4850 -0.1046
   79TCq2    C9 1213   1.609   1.798   1.875 -0.4937 -0.2527  0.5824
   79TCq2    O5 1214   1.606   1.756   1.993  0.7145 -0.0149 -0.6307
   79TCq2    O6 1215   1.525   1.878   1.828 -0.3112  0.3224 -0.5006
   79TCq2    H2 1216   1.599   1.775   1.619 -0.7880  0.5109  2.6025
   79TCq2    H3 1217   1.859   1.797   1.944  1.0172  0.0610  0.1976
   79TCq2    H4 1218   2.011   1.669   1.557  0.4279  0.3714 -0.6612
   80MPD2     C 1219   0.632   0.703  12.134  0.5514  0.0569 -0.6832
   80MPD2    C1 1220   0.496   0.706  12.134  0.0731  0.8760  0.6792
   80MPD2    C2 1221   0.424   0.701  12.254  0.2915  0.1492  0.6015
   80MPD2    C3 1222   0.477   0.713  12.375 -0.3492  0.1121  0.7551
   80MPD2    C4 1223   0.614   0.708  12.383  0.4851  0.2320 -0.5550
   80MPD2    C5 1224   0.688   0.694  12.267 -0.4500  0.1590  0.2972
   80MPD2     H 1225   0.318   0.681  12.248  0.1165  0.7484  1.6400
   80MPD2    H1 1226   0.669   0.725  12.475 -2.2660 -1.2834  1.3494
   80MPD2    H2 1227   0.695   0.698  12.045  0.7917  2.0495 -0.6188
   80MPD2    H3 1228   0.796   0.697  12.279 -0.3049 -2.1699 -0.4199
   80MPD2     N 1229   0.404   0.747  12.491 -0.1223 -0.5641 -0.7493
   80MPD2    H5 1230   0.449   0.750  12.582 -1.8583  0.7916  0.0702
   80MPD2    N1 1231   0.410   0.692  12.022 -0.1044 -0.2050  0.0326
   80MPD2    H7 1232   0.311   0.671  12.031 -0.3436  0.3898 -1.2039
   81TCq2    C1 1233   0.452   0.688  11.894  0.3624  0.7312 -0.0458
   81TCq2    O2 1234   0.564   0.684  11.852 -0.3253 -0.1245  0.3015
   81TCq2    C2 1235   0.345   0.660  11.796 -0.3455  0.0775 -0.0777
   81TCq2    C3 1236   0.389   0.631  11.671 -0.3503  0.4372  0.3582
   81TCq2    C4 1237   0.294   0.605  11.574 -0.1145  0.4915  0.2506
   81TCq2    C5 1238   0.165   0.614  11.607  0.1176 -1.0667 -0.0354
   81TCq2    C6 1239   0.126   0.654  11.733  0.1599  0.3512 -0.1865
   81TCq2    C7 1240   0.216   0.674  11.832  0.3594 -0.1435  0.2581
   81TCq2    C8 1241   4.702   0.613  11.764 -0.4506 -0.4275  0.1281
   81TCq2    O4 1242   4.642   0.568  11.667 -0.0996 -0.8077 -0.3104
   81TCq2    C9 1243   0.336   0.569  11.442 -0.1568  0.1295 -0.1849
   81TCq2    O5 1244   0.244   0.542  11.360 -0.0505 -0.0442 -0.8373
   81TCq2    O6 1245   0.454   0.591  11.406  0.6528 -0.1427  0.2633
   81TCq2    H2 1246   0.494   0.632  11.645 -0.3719 -2.2759  0.0890
   81TCq2    H3 1247   0.091   0.587  11.533  0.7683 -1.0007 -0.7113
   81TCq2    H4 1248   0.179   0.711  11.926 -1.0354 -0.7489 -0.0541
   82MPD2     C 1249   3.065   0.107  10.783 -0.5881 -0.7062  0.0512
   82MPD2    C1 1250   2.955   0.031  10.813  0.4048 -0.3285 -0.0423
   82MPD2    C2 1251   2.972   4.641  10.894  0.3932 -0.6639 -0.2702
   82MPD2    C3 1252   3.093   4.612  10.952 -0.8204 -0.5892 -0.1510
   82MPD2    C4 1253   3.198   4.703  10.940  1.3604 -0.2639  0.3529
   82MPD2    C5 1254   3.181   0.077  10.846  0.2498 -1.2185 -0.1843
   82MPD2     H 1255   2.888   4.573  10.900  0.7773 -1.2924 -1.9043
   82MPD2    H1 1256   3.294   4.695  10.990  1.3641 -2.0048  0.0876
   82MPD2    H2 1257   3.064   0.194  10.718  0.4414  1.0724  2.3816
   82MPD2    H3 1258   3.252   0.157  10.828 -1.2428 -0.1765 -1.4724
   82MPD2     N 1259   3.099   4.516  11.061  0.2054  0.1852 -0.0679
   82MPD2    H5 1260   3.190   4.504  11.105  0.5438  0.2774 -0.7347
   82MPD2    N1 1261   2.837   0.073  10.746 -0.1099  0.5948 -0.0896
   82MPD2    H7 1262   2.851   0.159  10.694  0.8197 -0.2800 -1.3008
   83TCq2    C1 1263   3.008   4.417  11.077  0.0867  0.7390 -0.4374
   83TCq2    O2 1264   2.917   4.373  11.006  0.0827 -0.6544  0.1838
   83TCq2    C2 1265   3.016   4.356  11.214 -0.5885 -0.3366 -0.0242
   83TCq2    C3 1266   3.046   4.431  11.326 -0.2831  0.4050 -0.6485
   83TCq2    C4 1267   3.026   4.391  11.453  0.5280  0.6591 -0.0833
   83TCq2    C5 1268   2.946   4.280  11.474 -0.5257 -0.0842  0.3956
   83TCq2    C6 1269   2.922   4.199  11.362 -0.1268 -0.8811 -0.1272
   83TCq2    C7 1270   2.961   4.228  11.234 -0.1528 -0.7602 -0.0516
   83TCq2    C8 1271   2.841   4.082  11.394 -0.0483 -0.3956  0.0935
   83TCq2    O4 1272   2.805   4.066  11.512 -0.0470 -0.3206  0.1144
   83TCq2    C9 1273   3.057   4.482  11.559  0.4291 -0.5037 -0.4349
   83TCq2    O5 1274   3.069   4.439  11.675 -0.2244  0.3196  0.6124
   83TCq2    O6 1275   3.110   4.591  11.521  0.0994 -0.2719 -0.1571
   83TCq2    H2 1276   3.088   4.531  11.313  0.0419  0.4668  0.8423
   83TCq2    H3 1277   2.927   4.245  11.575  1.0968  2.1651  1.4997
   83TCq2    H4 1278   2.950   4.158  11.152 -2.6877  0.6229 -0.8918
   84TCq2    C1 1279   4.158   3.529  10.701  0.5718 -0.6116 -0.4186
   84TCq2    O2 1280   4.122   3.419  10.741 -0.3416 -0.9781 -0.4244
   84TCq2    C2 1281   4.195   3.632  10.800 -0.4350  0.0276  0.3235
   84TCq2    C3 1282   4.321   3.695  10.800  0.1322 -0.0518  0.0252
   84TCq2    C4 1283   4.373   3.756  10.906  0.8264  1.2474  0.1178
   84TCq2    C5 1284   4.295   3.762  11.015  0.2173 -0.1295 -0.8283
   84TCq2    C6 1285   4.162   3.715  11.007 -0.2131  0.1987 -0.4463
   84TCq2    C7 1286   4.119   3.629  10.908 -0.2627  0.8456  0.2443
   84TCq2    C8 1287   4.077   3.742  11.126 -0.3118  0.0276 -0.2092
   84TCq2    O4 1288   4.111   3.830  11.205 -0.2369 -0.0447 -0.4590
   84TCq2    C9 1289   4.504   3.828  10.895 -0.6589  0.0328 -0.2396
   84TCq2    O5 1290   4.552   3.878  11.001  0.3525 -0.3748  0.3426
   84TCq2    O6 1291   4.576   3.797  10.791 -0.8013  0.3594 -0.2328
   84TCq2    H2 1292   4.377   3.693  10.706 -1.3263 -3.0578 -0.7793
   84TCq2    H3 1293   4.329   3.822  11.099 -0.7331 -0.9383  0.1314
   84TCq2    H4 1294   4.020   3.585  10.903  0.4544 -0.7397  0.0270
   85MPD2     C 1295   0.021   1.404  16.731  0.8448  0.1292  0.1941
   85MPD2    C1 1296   4.663   1.432  16.623 -0.9322 -0.0026  0.3465
   85MPD2    C2 1297   4.674   1.546  16.552  0.5214 -0.0252 -0.8531
   85MPD2    C3 1298   0.042   1.645  16.584 -0.7179  0.6714 -0.6703
   85MPD2    C4 1299   0.140   1.609  16.678 -0.4239 -0.7304 -0.5765
   85MPD2    C5 1300   0.123   1.490  16.743 -0.2204  0.4770  0.0364
   85MPD2     H 1301   4.602   1.561  16.472  0.6522  0.0493 -0.9582
   85MPD2    H1 1302   0.231   1.667  16.688  0.5038 -2.3760  0.5661
   85MPD2    H2 1303   0.017   1.307  16.778 -0.1888 -0.4013 -0.9783
   85MPD2    H3 1304   0.199   1.457  16.813  1.8822 -0.2888 -2.6129
   85MPD2     N 1305   0.036   1.766  16.511  0.4177 -0.0973 -0.4042
   85MPD2    H5 1306   4.680   1.773  16.446 -0.0962 -0.5140  0.1560
   85MPD2    N1 1307   4.560   1.336  16.583  0.1511 -0.3282 -0.1250
   85MPD2    H7 1308   4.505   1.361  16.502  0.5861  0.8252 -0.0652
   86TCq2    C1 1309   0.100   1.880  16.548  0.0002 -0.0950 -0.2546
   86TCq2    O2 1310   0.152   1.903  16.657  0.4281  0.0978 -0.4918
   86TCq2    C2 1311   0.091   1.981  16.450 -0.5030 -0.3948 -0.6586
   86TCq2    C3 1312   0.115   2.104  16.498 -0.2639  0.5410  0.0218
   86TCq2    C4 1313   0.151   2.216  16.428  0.8107 -0.1522 -0.1203
   86TCq2    C5 1314   0.167   2.199  16.293 -0.8733  1.1866  0.2565
   86TCq2    C6 1315   0.160   2.075  16.239 -0.2642  0.2081  0.1568
   86TCq2    C7 1316   0.124   1.960  16.314 -0.2436  0.5560 -0.4133
   86TCq2    C8 1317   0.217   2.051  16.115  0.9604 -0.3944  0.4123
   86TCq2    O4 1318   0.223   1.932  16.085 -0.2704 -0.2854  0.3983
   86TCq2    C9 1319   0.161   2.346  16.488  0.8353 -0.0779 -0.0006
   86TCq2    O5 1320   0.229   2.434  16.430  0.9436  0.1255  0.1311
   86TCq2    O6 1321   0.080   2.374  16.582  0.4348  0.3945  0.5992
   86TCq2    H2 1322   0.103   2.120  16.604  2.3149 -1.0662  0.5668
   86TCq2    H3 1323   0.188   2.286  16.232  2.0901  1.6041  1.8543
   86TCq2    H4 1324   0.132   1.862  16.268  1.3086  0.7913 -0.6428
   87MPD2     C 1325   1.698   0.063   1.002 -1.0669 -0.0513  0.2525
   87MPD2    C1 1326   1.722   0.189   1.055  0.6686 -0.1586  0.1788
   87MPD2    C2 1327   1.659   0.298   1.004 -0.0259  0.2113 -0.6185
   87MPD2    C3 1328   1.570   0.286   0.894  0.0956 -0.3707  0.0218
   87MPD2    C4 1329   1.535   0.157   0.857 -0.4975  0.0409  0.1099
   87MPD2    C5 1330   1.600   0.053   0.911 -0.6227 -0.2307  0.4914
   87MPD2     H 1331   1.687   0.398   1.035  1.7614  0.0327 -1.6579
   87MPD2    H1 1332   1.463   0.141   0.778 -0.3195 -0.9020  0.1368
   87MPD2    H2 1333   1.750   4.696   1.035  0.0048  0.6060  0.3141
   87MPD2    H3 1334   1.569   4.672   0.891  0.0899 -0.3849  0.1694
   87MPD2     N 1335   1.531   0.391   0.809  0.5425  1.0059  0.0759
   87MPD2    H5 1336   1.490   0.361   0.721  0.0999  0.4089  0.4892
   87MPD2    N1 1337   1.830   0.203   1.142 -0.1870 -0.8525  0.5736
   87MPD2    H7 1338   1.892   0.125   1.161  0.4080 -0.4006  0.4887
   88TCq2    C1 1339   1.862   0.312   1.215 -0.1834  0.1941 -0.7910
   88TCq2    O2 1340   1.787   0.407   1.237  0.1502  0.4093 -0.6745
   88TCq2    C2 1341   1.989   0.304   1.286  0.4307 -0.0149  0.6333
   88TCq2    C3 1342   2.011   0.389   1.383 -0.3017  1.0034  0.2599
   88TCq2    C4 1343   2.137   0.382   1.436 -0.2512 -0.5307 -0.1308
   88TCq2    C5 1344   2.237   0.301   1.401 -0.3646 -0.5404  0.0974
   88TCq2    C6 1345   2.207   0.215   1.305 -0.9449 -0.3139  0.3264
   88TCq2    C7 1346   2.083   0.218   1.244 -0.1891 -0.6831 -0.9078
   88TCq2    C8 1347   2.321   0.154   1.235 -0.2145 -0.5979 -0.9941
   88TCq2    O4 1348   2.422   0.219   1.253  0.0578 -0.2293 -0.5376
   88TCq2    C9 1349   2.168   0.475   1.539  0.9429 -0.1855 -0.6798
   88TCq2    O5 1350   2.083   0.570   1.554  0.0619 -0.4993 -0.5238
   88TCq2    O6 1351   2.289   0.481   1.578 -0.2359 -0.4416 -0.4776
   88TCq2    H2 1352   1.937   0.461   1.416 -0.4290  1.4648 -1.0418
   88TCq2    H3 1353   2.327   0.303   1.461 -0.5859 -0.5424  0.4283
   88TCq2    H4 1354   2.075   0.146   1.164 -0.4141 -1.0540 -0.5539
   89MPD2     C 1355   3.083   2.379   1.986  0.1526  0.0682 -0.2504
   89MPD2    C1 1356   2.985   2.470   1.945 -0.4625  0.7047 -0.3421
   89MPD2    C2 1357   3.033   2.585   1.888  0.4864  0.8398 -0.9887
   89MPD2    C3 1358   3.169   2.606   1.862 -0.1737  0.1187 -0.1090
   89MPD2    C4 1359   3.254   2.499   1.885 -0.3354  0.0015 -0.7514
   89MPD2    C5 1360   3.210   2.393   1.949  0.2281  0.4476  0.3861
   89MPD2     H 1361   2.972   2.664   1.847  0.0294  0.4078 -1.1469
   89MPD2    H1 1362   3.360   2.503   1.860 -0.9839 -0.2607 -3.5372
   89MPD2    H2 1363   3.061   2.292   2.046 -1.8765  0.6746 -0.1014
   89MPD2    H3 1364   3.275   2.309   1.966  0.3790  0.4138 -0.3552
   89MPD2     N 1365   3.200   2.729   1.800  0.0555  0.3304 -0.0655
   89MPD2    H5 1366   3.126   2.797   1.790  0.1643  0.2214 -1.5741
   89MPD2    N1 1367   2.851   2.447   1.955  0.1956  0.7021 -0.4941
   89MPD2    H7 1368   2.789   2.515   1.914 -0.2729  0.5575 -0.0230
   90TCq2    C1 1369   3.331   2.768   1.762 -0.0604  0.1722  0.5927
   90TCq2    O2 1370   3.440   2.706   1.764 -0.2787 -0.1681 -0.2182
   90TCq2    C2 1371   3.344   2.906   1.698  0.3896 -0.4381 -0.7512
   90TCq2    C3 1372   3.472   2.961   1.691 -0.5455 -0.6303  0.0973
   90TCq2    C4 1373   3.477   3.103   1.675 -0.2774 -0.4295  0.1049
   90TCq2    C5 1374   3.372   3.174   1.635  0.1371 -0.5238  0.2052
   90TCq2    C6 1375   3.247   3.113   1.646  0.5418  0.5977  0.4972
   90TCq2    C7 1376   3.232   2.983   1.688  0.1258  0.2295  0.1836
   90TCq2    C8 1377   3.126   3.203   1.645 -0.0647  0.2183  0.0072
   90TCq2    O4 1378   3.021   3.150   1.676  0.7583 -0.2313  0.5754
   90TCq2    C9 1379   3.608   3.168   1.680 -0.2265  0.1032  0.3889
   90TCq2    O5 1380   3.712   3.094   1.671 -0.5523 -1.1832 -0.4551
   90TCq2    O6 1381   3.606   3.290   1.704  0.1135 -0.0446  0.3251
   90TCq2    H2 1382   3.559   2.908   1.727 -0.2701 -0.5196 -0.4048
   90TCq2    H3 1383   3.389   3.279   1.611  0.5362 -0.2363  1.7275
   90TCq2    H4 1384   3.134   2.937   1.684  0.9172 -1.3483 -0.7976
   91TMC2    C1 1385   4.703   2.452  17.051  0.2682  0.1088 -0.5340
   91TMC2    C2 1386   0.036   2.335  17.007 -0.1406  0.5899  0.3644
   91TMC2    C3 1387   4.684   2.268  16.922 -0.3257  0.2820  0.5031
   91TMC2    C4 1388   4.591   2.508  17.002  0.0649  0.0178  0.3738
   91TMC2    C5 1389   4.528   2.438  16.906  0.8966  0.7502 -0.5795
   91TMC2    C6 1390   4.572   2.315  16.862  0.2677  0.3518 -0.4177
   91TMC2     C 1391   0.064   2.541  17.135 -0.2345 -0.0891 -0.1680
   91TMC2     O 1392   0.022   2.618  17.220  0.0656  0.0896 -0.5680
   91TMC2     H 1393   0.129   2.292  17.041  0.5002 -0.3947 -2.6685
   91TMC2    H1 1394   4.556   2.608  17.026 -2.0803 -0.7543  0.5051
   91TMC2    H2 1395   4.534   2.258  16.778  2.8870  0.1831 -1.4643
   91TMC2    C7 1396   4.401   2.488  16.860  0.1389  0.2248 -0.2132
   91TMC2    C8 1397   0.018   2.152  16.857  0.0067 -0.2067  0.8520
   91TMC2    O1 1398   4.350   2.587  16.913  0.7002 -0.4824  0.2775
   91TMC2    O2 1399   4.673   2.075  16.794 -0.0022  0.1001 -0.2475
   91TMC2    O5 1400   0.145   2.186  16.824  0.5273 -0.0932 -0.0234
   91TMC2    H5 1401   0.168   2.279  16.846  0.2476 -0.4764  1.8927
   92MPD2     C 1402   0.294   2.637  17.285 -0.0485  0.5280  0.5328
   92MPD2    C1 1403   0.305   2.577  17.159  0.4877  0.5055  0.2439
   92MPD2    C2 1404   0.422   2.558  17.096 -0.4520  0.4060  0.3153
   92MPD2    C3 1405   0.536   2.605  17.160  0.1607 -0.7946 -0.1200
   92MPD2    C4 1406   0.530   2.655  17.290  0.2545 -0.3862  0.0810
   92MPD2    C5 1407   0.412   2.675  17.352 -0.0297  0.1091 -0.1825
   92MPD2     H 1408   0.425   2.525  16.993  1.8388  0.3104  0.4111
   92MPD2    H1 1409   0.619   2.691  17.340 -0.4497  0.4590  0.7166
   92MPD2    H2 1410   0.198   2.645  17.335  0.0015  2.4225  0.3254
   92MPD2    H3 1411   0.406   2.714  17.453  1.0853 -0.4485  0.0880
   92MPD2     N 1412   0.662   2.605  17.086  0.7944  0.0923  0.6556
   92MPD2    H5 1413   0.666   2.562  16.995 -3.6425 -0.7839  0.8742
   92MPD2    N1 1414   0.195   2.527  17.092 -0.4206  0.1827  0.8283
   92MPD2    H7 1415   0.214   2.456  17.022 -0.0890  0.3140  0.7810
   93MPD2     C 1416   1.201   2.612  13.977 -0.0143  0.0271 -0.2642
   93MPD2    C1 1417   1.159   2.723  14.038 -0.2787  0.6243  0.7655
   93MPD2    C2 1418   1.034   2.784  14.007  0.4799 -0.3441 -0.4256
   93MPD2    C3 1419   0.946   2.725  13.911 -0.0102 -0.2244  0.6440
   93MPD2    C4 1420   0.991   2.608  13.856 -0.1113  0.3194 -0.2181
   93MPD2    C5 1421   1.111   2.554  13.886 -0.2567 -0.2277 -0.2147
   93MPD2     H 1422   0.999   2.877  14.050  0.9817 -0.7300  0.8026
   93MPD2    H1 1423   0.940   2.555  13.776  0.6522  1.2511 -1.3221
   93MPD2    H2 1424   1.296   2.561  13.990  0.0899  0.0985 -0.7549
   93MPD2    H3 1425   1.151   2.468  13.833 -0.4074  0.9222 -2.2223
   93MPD2     N 1426   0.830   2.781  13.853 -0.8430  0.0219 -0.0479
   93MPD2    H5 1427   0.794   2.738  13.769  0.4959  0.0170 -0.6250
   93MPD2    N1 1428   1.248   2.797  14.118  0.2605  0.9604  0.0891
   93MPD2    H7 1429   1.205   2.872  14.172 -0.6734 -0.8659  1.9165
   94TCq2    C1 1430   1.382   2.763  14.152  0.1905 -0.1005  0.1712
   94TCq2    O2 1431   1.448   2.663  14.124  0.4103 -0.1410 -0.5278
   94TCq2    C2 1432   1.433   2.858  14.242  0.0490  0.2120 -0.5539
   94TCq2    C3 1433   1.404   2.995  14.231 -0.4096  0.1518  0.0524
   94TCq2    C4 1434   1.481   3.081  14.308 -0.0554 -0.2194  0.2762
   94TCq2    C5 1435   1.595   3.041  14.374  0.3078 -0.2185  0.9183
   94TCq2    C6 1436   1.626   2.905  14.372 -0.1990  0.6290  0.2416
   94TCq2    C7 1437   1.542   2.815  14.309  0.3143  0.0026  0.0915
   94TCq2    C8 1438   1.767   2.874  14.373  0.6691 -0.1009  0.3717
   94TCq2    O4 1439   1.842   2.953  14.432  0.2969 -0.0036 -0.5952
   94TCq2    C9 1440   1.445   3.222  14.312 -0.3329 -0.1077 -0.1807
   94TCq2    O5 1441   1.494   3.293  14.405  0.2058 -0.2381  0.3091
   94TCq2    O6 1442   1.351   3.263  14.241 -0.0633  0.1861  0.0827
   94TCq2    H2 1443   1.314   3.035  14.186 -0.1907  0.1821 -0.3581
   94TCq2    H3 1444   1.652   3.127  14.406  2.3250 -1.2673  0.0980
   94TCq2    H4 1445   1.559   2.709  14.318  1.0829  0.2048  1.0290
   95TMC2    C1 1446   1.569   4.161  16.167  0.1430  0.0422  0.3245
   95TMC2    C2 1447   1.586   4.027  16.129 -0.1816 -0.2125 -0.5971
   95TMC2    C3 1448   1.498   3.932  16.173  0.0854 -0.4495  0.7100
   95TMC2    C4 1449   1.451   4.198  16.224 -0.2346 -1.2294 -0.2742
   95TMC2    C5 1450   1.362   4.102  16.261  0.0147  0.7728  0.6218
   95TMC2    C6 1451   1.388   3.963  16.249  0.3587 -0.2471  0.4350
   95TMC2     C 1452   1.660   4.256  16.112 -0.3246 -0.1418 -0.0916
   95TMC2     O 1453   1.718   4.225  16.008 -0.1618  0.3343  0.5802
   95TMC2     H 1454   1.666   4.006  16.059 -0.8676 -1.6636 -0.9610
   95TMC2    H1 1455   1.423   4.301  16.246 -0.7726 -1.6909  1.1497
   95TMC2    H2 1456   1.314   3.888  16.277 -1.0594  1.3276  0.9265
   95TMC2    C7 1457   1.229   4.149  16.290 -0.4302 -0.0650 -0.0225
   95TMC2    C8 1458   1.539   3.788  16.158  0.8271  0.0959 -0.0294
   95TMC2    O1 1459   1.209   4.261  16.245  0.5800 -0.2744  0.1106
   95TMC2    O2 1460   1.465   3.692  16.169 -0.5023  0.2984 -0.7997
   95TMC2    O5 1461   1.674   3.779  16.156  0.0089 -0.4269 -0.1171
   95TMC2    H5 1462   1.714   3.867  16.172 -0.7929 -0.1396  0.2984
   96MPD2     C 1463   1.728   0.034  15.993  0.5721 -0.4503  0.2969
   96MPD2    C1 1464   1.764   4.641  15.921  0.1692  0.2687 -0.0715
   96MPD2    C2 1465   1.740   4.514  15.980  0.1526 -0.4406  0.6462
   96MPD2    C3 1466   1.688   4.503  16.108 -0.6593 -0.2047  0.4921
   96MPD2    C4 1467   1.666   4.619  16.181 -0.3891 -0.3419  0.7346
   96MPD2    C5 1468   1.684   0.021  16.124 -0.1067  0.0357  0.0602
   96MPD2     H 1469   1.755   4.424  15.922  2.0386  0.7489 -0.7195
   96MPD2    H1 1470   1.627   4.612  16.282 -1.6362  1.9519  0.4136
   96MPD2    H2 1471   1.739   0.131  15.945 -0.6896  0.8818  2.6751
   96MPD2    H3 1472   1.667   0.117  16.172  2.7220  0.3117  0.5137
   96MPD2     N 1473   1.648   4.384  16.168 -0.1942 -0.6845 -0.0941
   96MPD2    H5 1474   1.630   4.389  16.268  0.0805 -2.1139  0.0295
   96MPD2    N1 1475   1.814   4.657  15.791 -0.4261  0.2045 -0.2568
   96MPD2    H7 1476   1.838   0.029  15.760  0.7039  0.1012  0.3072
   97MPD2     C 1477   4.199   1.672   1.102  1.1451  0.0560  0.1068
   97MPD2    C1 1478   4.137   1.787   1.129 -0.3977 -0.6542  0.0261
   97MPD2    C2 1479   4.193   1.903   1.082 -0.6601 -0.5279  0.3704
   97MPD2    C3 1480   4.321   1.894   1.021 -0.4556 -0.3438  0.5619
   97MPD2    C4 1481   4.382   1.773   1.000 -0.3376 -0.0753 -0.2960
   97MPD2    C5 1482   4.324   1.659   1.052 -0.2525 -0.2780 -0.4387
   97MPD2     H 1483   4.145   1.996   1.111  0.5039  0.7685 -1.7919
   97MPD2    H1 1484   4.476   1.759   0.947  1.6149  1.0193  2.8840
   97MPD2    H2 1485   4.153   1.581   1.140  1.9401  0.3507  1.7848
   97MPD2    H3 1486   4.373   1.562   1.049  0.6598  0.1687 -0.0242
   97MPD2     N 1487   4.393   2.010   0.990  0.1633 -0.8944  0.4314
   97MPD2    H5 1488   4.482   1.989   0.945  0.1400 -1.1359  0.5002
   97MPD2    N1 1489   4.023   1.781   1.215 -0.3110 -0.2288 -0.3344
   97MPD2    H7 1490   3.988   1.694   1.254  0.5057 -0.9176 -1.1162
   98TCq2    C1 1491   4.357   2.143   1.006  0.4800 -0.3162 -0.2385
   98TCq2    O2 1492   4.244   2.189   1.016 -0.2001 -0.6783 -0.2961
   98TCq2    C2 1493   4.470   2.229   0.986  0.2281 -0.2238 -0.3105
   98TCq2    C3 1494   4.589   2.182   1.028  0.3185 -0.4713  0.6974
   98TCq2    C4 1495   4.703   2.245   0.998  0.1649  0.2916 -0.5667
   98TCq2    C5 1496   4.699   2.359   0.912 -0.9097  0.1340 -0.2477
   98TCq2    C6 1497   4.574   2.412   0.894 -0.0171  0.0709  0.3005
   98TCq2    C7 1498   4.456   2.351   0.925 -0.4568  0.9743  0.2869
   98TCq2    C8 1499   4.578   2.546   0.839 -0.3474  0.5356 -0.0286
   98TCq2    O4 1500   4.685   2.583   0.785 -0.1943 -0.3747  0.2640
   98TCq2    C9 1501   0.114   2.192   1.026 -0.4333  0.6676  0.5927
   98TCq2    O5 1502   0.207   2.264   0.994  0.3750  0.0678 -1.0935
   98TCq2    O6 1503   0.119   2.069   1.052 -0.1784 -0.2860 -0.7661
   98TCq2    H2 1504   4.594   2.099   1.098 -0.6462 -0.0599  1.2475
   98TCq2    H3 1505   0.073   2.406   0.889 -0.0095 -0.1624  2.8474
   98TCq2    H4 1506   4.356   2.385   0.904 -2.4501 -3.6418  2.1596
   99MPD2     C 1507   2.966   4.452   2.072  0.8564 -0.7461  0.4768
   99MPD2    C1 1508   2.833   4.495   2.086 -0.3174 -0.0200 -0.8008
   99MPD2    C2 1509   2.732   4.413   2.032 -0.4635 -0.0649 -1.0163
   99MPD2    C3 1510   2.762   4.298   1.961 -0.2266  0.2930  0.3424
   99MPD2    C4 1511   2.894   4.263   1.938  0.3072 -0.2207  1.0203
   99MPD2    C5 1512   2.993   4.337   2.000 -0.1512 -0.1987  0.3162
   99MPD2     H 1513   2.630   4.444   2.054 -0.2508 -2.1494  2.7841
   99MPD2    H1 1514   2.910   4.177   1.874  0.3954 -1.3322  2.5180
   99MPD2    H2 1515   3.055   4.500   2.110  0.2505  0.0654  0.8639
   99MPD2    H3 1516   3.095   4.301   1.990  0.5030  0.9558  2.9243
   99MPD2     N 1517   2.652   4.230   1.911 -0.0386 -0.3132 -0.0153
   99MPD2    H5 1518   2.564   4.269   1.942 -0.5935 -0.5155 -1.3128
   99MPD2    N1 1519   2.793   4.614   2.157  0.4391 -0.4825  0.4420
   99MPD2    H7 1520   2.696   4.641   2.165  0.0652 -1.3735 -1.0450
  100TCq2    C1 1521   2.875   4.698   2.217 -0.0743  0.6563 -0.0020
  100TCq2    O2 1522   2.989   4.673   2.251  0.6089  0.1110 -0.3308
  100TCq2    C2 1523   2.810   0.090   2.281  0.8198 -0.1806  0.0826
  100TCq2    C3 1524   2.852   0.116   2.402 -0.0910  0.7614 -0.1355
  100TCq2    C4 1525   2.762   0.164   2.487  0.0658  0.4054  0.6283
  100TCq2    C5 1526   2.643   0.208   2.448 -0.2450 -0.0137 -0.7704
  100TCq2    C6 1527   2.599   0.179   2.323  0.4370  0.1409  0.1572
  100TCq2    C7 1528   2.687   0.123   2.232  0.6136  0.3082 -0.8761
  100TCq2    C8 1529   2.456   0.190   2.292 -0.6991  0.1852 -0.2949
  100TCq2    O4 1530   2.388   0.240   2.383  0.6408  0.5630 -0.6285
  100TCq2    C9 1531   2.810   0.185   2.618  0.7470 -0.0568 -0.0761
  100TCq2    O5 1532   2.926   0.155   2.640 -0.6754  0.1201 -0.8745
  100TCq2    O6 1533   2.751   0.269   2.691 -0.3759  0.0134  0.5460
  100TCq2    H2 1534   2.956   0.100   2.426 -0.5840 -2.8416 -0.3296
  100TCq2    H3 1535   2.579   0.254   2.523 -2.6288 -1.4342 -1.9375
  100TCq2    H4 1536   2.660   0.113   2.127  1.1056  0.4184 -1.0142
  101MPD2     C 1537   3.848   0.384  12.618 -0.7075  0.0084 -0.1572
  101MPD2    C1 1538   3.843   0.389  12.759 -0.2523 -0.0329  0.3068
  101MPD2    C2 1539   3.808   0.265  12.816 -0.4959 -0.7455  0.5516
  101MPD2    C3 1540   3.790   0.144  12.745 -0.8755  0.6111 -0.3547
  101MPD2    C4 1541   3.787   0.141  12.606 -0.3206 -0.6962 -0.4350
  101MPD2    C5 1542   3.821   0.262  12.551  0.3418 -0.0297  0.2357
  101MPD2     H 1543   3.803   0.250  12.923 -1.7042  0.0975  0.6075
  101MPD2    H1 1544   3.776   0.048  12.552  2.5633 -0.3607 -1.5812
  101MPD2    H2 1545   3.871   0.475  12.563 -0.1313  0.3123  0.5882
  101MPD2    H3 1546   3.836   0.260  12.444 -1.2960 -3.1844  0.0725
  101MPD2     N 1547   3.787   0.033  12.829 -0.4702  0.2056 -0.4095
  101MPD2    H5 1548   3.795   0.052  12.929  0.1188 -1.4706 -0.1383
  101MPD2    N1 1549   3.862   0.507  12.834  0.0091  0.0768  0.3863
  101MPD2    H7 1550   3.905   0.585  12.788 -0.9094  0.2134 -0.2383
  102TCq2    C1 1551   4.017   0.960  12.929 -0.2247 -0.2184 -0.5468
  102TCq2    O2 1552   4.100   0.937  12.839  0.1061  0.1402  0.1467
  102TCq2    C2 1553   3.970   0.856  13.015 -0.9302 -0.5507 -0.3598
  102TCq2    C3 1554   3.899   0.891  13.129 -0.0190 -0.4524 -0.1544
  102TCq2    C4 1555   3.822   0.795  13.192 -0.3490  0.6570 -0.9731
  102TCq2    C5 1556   3.807   0.675  13.137  0.1564 -0.0928  0.4233
  102TCq2    C6 1557   3.884   0.639  13.032  0.8361  0.1312  0.5173
  102TCq2    C7 1558   3.966   0.728  12.963  0.6060  0.5711 -0.5123
  102TCq2    C8 1559   3.846   0.511  12.972 -0.0215  0.1211 -1.6683
  102TCq2    O4 1560   3.794   0.437  13.055  0.0219 -0.4119  0.1452
  102TCq2    C9 1561   3.742   0.822  13.307 -0.1475  0.3136  0.3395
  102TCq2    O5 1562   3.665   0.919  13.292  0.0654  0.1545  0.7434
  102TCq2    O6 1563   3.706   0.719  13.372  0.1193  0.2952  0.3784
  102TCq2    H2 1564   3.917   0.991  13.165  2.6367 -0.7494 -0.6707
  102TCq2    H3 1565   3.728   0.613  13.178 -2.2310  2.3351 -0.4653
  102TCq2    H4 1566   4.027   0.695  12.880  1.4931 -0.7189  0.6321
  103TMC2    C1 1567   1.963   0.576  12.451 -0.6290 -0.3335 -0.0747
  103TMC2    C2 1568   2.087   0.549  12.509  0.3556  0.0265  0.0458
  103TMC2    C3 1569   2.120   0.614  12.622 -0.3256 -0.8448 -0.1015
  103TMC2    C4 1570   1.855   0.649  12.513 -0.1210  0.6762  0.0949
  103TMC2    C5 1571   1.899   0.696  12.636  0.5532  0.5881  0.3997
  103TMC2    C6 1572   2.022   0.676  12.691 -0.3416  0.2385 -0.1391
  103TMC2     C 1573   1.913   0.505  12.333  0.5827 -0.3834  0.8947
  103TMC2     O 1574   1.851   0.571  12.254  0.4298 -0.2523 -1.0896
  103TMC2     H 1575   2.164   0.494  12.457 -1.9502 -2.5793 -0.6324
  103TMC2    H1 1576   1.753   0.638  12.477 -0.4174  1.9552  0.5186
  103TMC2    H2 1577   2.040   0.696  12.796 -0.5950  0.2016 -0.0878
  103TMC2    C7 1578   1.794   0.748  12.723  0.4615 -0.3355 -0.1974
  103TMC2    C8 1579   2.241   0.570  12.679  1.0719  0.2055 -0.1654
  103TMC2    O1 1580   1.806   0.741  12.846 -0.0662 -0.0523  0.3773
  103TMC2    O2 1581   2.295   0.465  12.648 -0.0106 -0.0486  0.1358
  103TMC2    O5 1582   2.300   0.658  12.764  0.0279  0.2856 -0.0268
  103TMC2    H5 1583   2.250   0.742  12.778  0.9893  1.0586 -1.2258
  104MPD2     C 1584   1.833   0.148  12.312  0.5984 -0.0684  0.4471
  104MPD2    C1 1585   1.829   0.280  12.267  1.0216 -0.3028  0.0902
  104MPD2    C2 1586   1.739   0.312  12.165 -0.7909 -0.2056  0.6079
  104MPD2    C3 1587   1.662   0.214  12.108  1.1808  0.3295  0.0769
  104MPD2    C4 1588   1.654   0.086  12.164 -0.1033  0.1879  0.2181
  104MPD2    C5 1589   1.744   0.053  12.266  0.3845 -0.3989  0.3883
  104MPD2     H 1590   1.731   0.411  12.122 -1.2446 -1.0581 -1.2743
  104MPD2    H1 1591   1.587   0.006  12.135  1.6261 -1.3816  0.6113
  104MPD2    H2 1592   1.906   0.109  12.382 -0.1514  1.6717  2.2136
  104MPD2    H3 1593   1.735   4.676  12.310 -0.1583 -0.4788  0.0921
  104MPD2     N 1594   1.584   0.251  11.997 -0.0719  0.0997  0.2857
  104MPD2    H5 1595   1.599   0.344  11.957  0.3214 -1.3600 -2.9388
  104MPD2    N1 1596   1.912   0.368  12.337 -1.3313 -1.0721 -0.1794
  104MPD2    H7 1597   1.956   0.323  12.416  2.4780  2.2281 -0.4890
  105MPD2     C 1598   3.401   0.076   0.087  0.8321 -0.3207  0.4064
  105MPD2    C1 1599   3.324   0.188   0.094  0.4624  0.0075  0.4541
  105MPD2    C2 1600   3.256   0.218   0.209 -0.9084  0.0252  0.4081
  105MPD2    C3 1601   3.264   0.135   0.321  0.4433 -0.0794 -0.7618
  105MPD2    C4 1602   3.336   0.019   0.308 -1.0246  0.2291 -0.0129
  105MPD2    C5 1603   3.412   4.711   0.196  0.0844  0.0303 -0.1857
  105MPD2     H 1604   3.198   0.306   0.230 -1.8936 -0.1050 -1.7584
  105MPD2    H1 1605   3.321   4.659   0.378 -0.6353 -0.6942 -1.0006
  105MPD2    H2 1606   3.445   0.044  17.680 -0.4021  0.7814 -0.5437
  105MPD2    H3 1607   3.462   4.616   0.179 -1.3934 -0.8433  0.4243
  105MPD2     N 1608   3.176   0.160   0.427 -0.7933 -0.6986 -0.1922
  105MPD2    H5 1609   3.110   0.237   0.426  3.2927  2.8405  2.6441
  105MPD2    N1 1610   3.303   0.277  17.674  0.1158 -0.5341 -0.5527
  105MPD2    H7 1611   3.242   0.357   0.003  0.5357 -0.3808  0.2524
  106TCq2    C1 1612   3.155   0.076   0.533  0.1101 -0.2533  0.4303
  106TCq2    O2 1613   3.193   4.687   0.561 -0.3894  0.2717 -0.2153
  106TCq2    C2 1614   3.052   0.120   0.625 -1.0458  0.6189  1.1477
  106TCq2    C3 1615   3.029   0.258   0.635 -1.0584 -0.8709 -0.4722
  106TCq2    C4 1616   2.911   0.299   0.689 -0.7386 -0.2129 -0.0897
  106TCq2    C5 1617   2.819   0.212   0.734 -0.0916 -0.0339 -0.5689
  106TCq2    C6 1618   2.855   0.081   0.738 -0.1881 -0.1063 -0.4548
  106TCq2    C7 1619   2.960   0.026   0.668 -0.7775  0.0046 -0.4136
  106TCq2    C8 1620   2.752   4.712   0.782 -0.2162  0.3482  1.0388
  106TCq2    O4 1621   2.755   4.600   0.735  0.8222 -0.2080 -0.7766
  106TCq2    C9 1622   2.883   0.442   0.678  0.1869 -0.3996  0.0911
  106TCq2    O5 1623   2.947   0.505   0.587 -0.2162  0.2741 -0.4511
  106TCq2    O6 1624   2.788   0.486   0.750 -0.5210 -0.1936 -0.1738
  106TCq2    H2 1625   3.107   0.330   0.612 -1.3992  0.1176  1.4483
  106TCq2    H3 1626   2.736   0.253   0.790  0.8365 -0.6665  1.2661
  106TCq2    H4 1627   2.984   4.641   0.673  1.7152  0.6263  0.7460
  107TMC2    C1 1628   3.435   4.110  11.764 -0.9196 -0.2156  0.6454
  107TMC2    C2 1629   3.378   4.173  11.658  0.0886 -0.4996 -0.0882
  107TMC2    C3 1630   3.416   4.146  11.532 -0.0642 -0.0503 -0.1499
  107TMC2    C4 1631   3.540   4.025  11.746  0.0065  0.4226  0.0635
  107TMC2    C5 1632   3.570   3.994  11.616 -0.3833 -0.0725 -0.2976
  107TMC2    C6 1633   3.500   4.044  11.507 -0.1821 -0.1671  0.6382
  107TMC2     C 1634   3.349   4.068  11.874 -0.6192 -0.0275 -0.4363
  107TMC2     O 1635   3.252   4.136  11.908 -0.1889 -0.2093  0.8545
  107TMC2     H 1636   3.303   4.250  11.674  1.1947  0.6055 -0.1717
  107TMC2    H1 1637   3.598   3.987  11.829  0.3966  0.1647 -0.3261
  107TMC2    H2 1638   3.516   4.020  11.403  1.5768  0.3740  0.7828
  107TMC2    C7 1639   3.670   3.883  11.607  0.5823  0.7818 -0.5478
  107TMC2    C8 1640   3.333   4.195  11.424 -0.4587 -0.6714 -0.4445
  107TMC2    O1 1641   3.686   3.809  11.701  0.2215  0.0045  0.1736
  107TMC2    O2 1642   3.389   4.250  11.334 -0.5974  0.3988  0.0014
  107TMC2    O5 1643   3.229   4.118  11.411  0.5758 -0.1919  0.3333
  107TMC2    H5 1644   3.192   4.071  11.489  0.6005 -2.4631 -1.0228
  108MPD2     C 1645   3.316   3.723  11.996  0.5306 -0.0711 -1.0356
  108MPD2    C1 1646   3.306   3.860  12.000  0.0583 -0.0647  0.5404
  108MPD2    C2 1647   3.226   3.923  12.099  0.3164 -0.0970  0.4762
  108MPD2    C3 1648   3.152   3.842  12.182  0.1854 -0.5491 -0.0517
  108MPD2    C4 1649   3.159   3.705  12.168  0.7409 -0.1015  0.1923
  108MPD2    C5 1650   3.242   3.648  12.080 -0.4456  0.0634 -0.2323
  108MPD2     H 1651   3.224   4.031  12.111  0.2975  0.1414 -1.6476
  108MPD2    H1 1652   3.106   3.626  12.221  0.9746  0.0130  0.6003
  108MPD2    H2 1653   3.368   3.669  11.918 -0.5147 -0.5758 -1.3856
  108MPD2    H3 1654   3.257   3.541  12.076 -1.3470 -0.1348  1.8465
  108MPD2     N 1655   3.071   3.885  12.293 -0.1337  0.0092 -0.3009
  108MPD2    H5 1656   3.018   3.815  12.344  0.6361 -0.9828 -0.8694
  108MPD2    N1 1657   3.374   3.935  11.902  0.3250 -0.0622 -0.5231
  108MPD2    H7 1658   3.447   3.888  11.849 -1.0038 -2.4299 -0.2590
  109MPD2     C 1659   3.019   1.309   2.279 -0.2953 -0.7256 -0.2593
  109MPD2    C1 1660   3.096   1.368   2.185 -0.5931 -0.0511 -0.0174
  109MPD2    C2 1661   3.234   1.345   2.177  0.4863  0.0814  0.2487
  109MPD2    C3 1662   3.287   1.253   2.270  0.6316 -0.4416  0.2088
  109MPD2    C4 1663   3.204   1.187   2.362 -0.5086 -0.4354  0.3207
  109MPD2    C5 1664   3.072   1.225   2.371  0.0619  0.5763 -0.1857
  109MPD2     H 1665   3.289   1.372   2.087 -0.6089  0.8494 -0.1858
  109MPD2    H1 1666   3.234   1.109   2.431 -0.4931 -0.0043  0.7960
  109MPD2    H2 1667   2.911   1.320   2.278 -0.0668  1.5207  0.6878
  109MPD2    H3 1668   3.008   1.174   2.442  0.2930 -0.2155 -0.5421
  109MPD2     N 1669   3.421   1.218   2.252 -0.1272 -0.3756  0.4724
  109MPD2    H5 1670   3.474   1.261   2.177 -0.5562 -1.2203 -0.3113
  109MPD2    N1 1671   3.027   1.444   2.093 -0.8970  0.4519  0.5854
  109MPD2    H7 1672   2.927   1.427   2.089 -0.5100 -1.2685 -1.2338
  110TCq2    C1 1673   3.492   1.120   2.322  0.2957  0.7341  0.4764
  110TCq2    O2 1674   3.446   1.041   2.403  0.2197  0.3848  0.6410
  110TCq2    C2 1675   3.630   1.113   2.276 -0.2417  0.6004  0.4178
  110TCq2    C3 1676   3.709   1.016   2.321  0.3293  0.2012  0.2288
  110TCq2    C4 1677   3.846   1.033   2.301 -0.1506  0.1822  0.2212
  110TCq2    C5 1678   3.905   1.139   2.238 -0.2861 -0.1518 -0.5250
  110TCq2    C6 1679   3.815   1.224   2.175 -0.1014 -0.6394 -0.4345
  110TCq2    C7 1680   3.682   1.208   2.189 -0.5126  0.2690 -0.1458
  110TCq2    C8 1681   3.852   1.330   2.085  0.7828  0.4390 -0.4969
  110TCq2    O4 1682   3.764   1.379   2.008 -0.1705  0.2118  0.3301
  110TCq2    C9 1683   3.937   0.942   2.355 -1.2087 -0.1089  0.5977
  110TCq2    O5 1684   4.060   0.955   2.333 -0.3527 -0.2543  0.5349
  110TCq2    O6 1685   3.896   0.868   2.450 -0.1467 -0.0303 -0.9477
  110TCq2    H2 1686   3.673   0.936   2.383 -1.6391  0.3715 -0.7016
  110TCq2    H3 1687   4.013   1.152   2.242 -0.3552  0.1632  0.1256
  110TCq2    H4 1688   3.618   1.282   2.143  0.2044  0.6987 -0.4437
  111TMC2    C1 1689   3.780   1.127  11.535  0.1199 -0.1453  0.1967
  111TMC2    C2 1690   3.837   1.071  11.423 -0.4999 -0.7789 -0.1770
  111TMC2    C3 1691   3.974   1.041  11.412 -0.0697 -0.4386 -0.4827
  111TMC2    C4 1692   3.863   1.159  11.636  0.4567  0.3592  0.0196
  111TMC2    C5 1693   3.995   1.119  11.625 -0.4743 -0.2081  0.5445
  111TMC2    C6 1694   4.052   1.062  11.516  0.1217  0.2448  0.1480
  111TMC2     C 1695   3.670   1.211  11.492 -0.2395  0.3456  0.5684
  111TMC2     O 1696   3.596   1.169  11.399  0.1898 -0.0322 -0.0717
  111TMC2     H 1697   3.769   1.042  11.343  1.6621  1.1367 -2.6853
  111TMC2    H1 1698   3.830   1.219  11.720 -1.7136 -2.4789  1.1622
  111TMC2    H2 1699   4.152   1.020  11.515  0.6280  1.4593 -1.0557
  111TMC2    C7 1700   4.095   1.175  11.719  0.0069 -0.4965 -0.9353
  111TMC2    C8 1701   4.033   0.979  11.295 -0.6356 -0.1233  0.6048
  111TMC2    O1 1702   4.063   1.160  11.836 -0.1705 -0.4750 -0.1596
  111TMC2    O2 1703   4.130   0.906  11.296  0.2357 -0.2645 -0.1170
  111TMC2    O5 1704   3.984   1.038  11.176 -0.0212  0.7167 -0.0212
  111TMC2    H5 1705   3.910   1.102  11.184  0.9807  1.6268  1.9996
  112MPD2     C 1706   3.395   1.635  11.552  0.0292  1.0317 -0.1403
  112MPD2    C1 1707   3.400   1.551  11.440  0.0277 -0.0575  0.0961
  112MPD2    C2 1708   3.495   1.451  11.442  0.4772  0.1111 -0.1043
  112MPD2    C3 1709   3.565   1.423  11.559 -0.5987 -0.6033 -0.1127
  112MPD2    C4 1710   3.553   1.505  11.669 -0.2246 -0.0169 -0.1836
  112MPD2    C5 1711   3.468   1.609  11.665 -0.5488  0.1279 -0.3371
  112MPD2     H 1712   3.510   1.390  11.354 -1.1001 -1.8169  0.9660
  112MPD2    H1 1713   3.610   1.493  11.760  1.5321  0.7725 -1.1959
  112MPD2    H2 1714   3.337   1.726  11.564 -1.7462 -0.2134  0.5042
  112MPD2    H3 1715   3.469   1.682  11.745 -1.5780  0.7241 -0.8585
  112MPD2     N 1716   3.657   1.318  11.576 -0.4212 -0.4260  0.3295
  112MPD2    H5 1717   3.736   1.343  11.635  0.5861 -0.0212 -1.1784
  112MPD2    N1 1718   3.329   1.567  11.315  0.0951  0.0935 -0.4760
  112MPD2    H7 1719   3.362   1.517  11.232  0.6290 -1.0280  0.4095
  113MPD2     C 1720   1.744   4.044   1.208 -0.8128  0.1370  0.2056
  113MPD2    C1 1721   1.633   4.123   1.162  0.8655  0.0489  0.1968
  113MPD2    C2 1722   1.547   4.072   1.065 -0.4312 -0.0797  0.1520
  113MPD2    C3 1723   1.566   3.948   1.018 -0.0655 -0.9328 -0.8929
  113MPD2    C4 1724   1.675   3.873   1.051  0.1252 -0.2711 -0.1001
  113MPD2    C5 1725   1.763   3.927   1.145  0.6165 -0.1386 -0.1869
  113MPD2     H 1726   1.472   4.140   1.026 -1.5487 -0.2922  1.9215
  113MPD2    H1 1727   1.697   3.774   1.013  0.3443 -0.9596  1.8344
  113MPD2    H2 1728   1.816   4.071   1.284 -1.9411  0.8928  0.9925
  113MPD2    H3 1729   1.850   3.868   1.172 -0.3559 -1.1185  0.8015
  113MPD2     N 1730   1.468   3.905   0.924  0.6001 -0.1165 -0.4671
  113MPD2    H5 1731   1.384   3.959   0.909 -1.4380 -2.7892  1.1745
  113MPD2    N1 1732   1.609   4.251   1.212 -0.0986  0.3738 -0.1428
  113MPD2    H7 1733   1.529   4.298   1.172  0.6155  1.5202 -0.2140
  114TCq2    C1 1734   1.469   3.799   0.839 -0.1912  0.1251 -0.3771
  114TCq2    O2 1735   1.559   3.721   0.827  0.2133 -0.2056  0.0972
  114TCq2    C2 1736   1.352   3.792   0.755 -0.1317  0.0238  0.0204
  114TCq2    C3 1737   1.283   3.909   0.729  0.2983  0.9675 -0.4779
  114TCq2    C4 1738   1.195   3.906   0.615  0.3961  0.0208  0.0108
  114TCq2    C5 1739   1.166   3.788   0.560 -0.9057 -0.4107  0.3083
  114TCq2    C6 1740   1.231   3.673   0.597  0.0603  0.1671  0.1103
  114TCq2    C7 1741   1.333   3.678   0.693  0.3432 -0.7605  0.6133
  114TCq2    C8 1742   1.147   3.557   0.598  0.0608  0.1851 -0.7395
  114TCq2    O4 1743   1.078   3.523   0.504 -0.0293 -0.1542  0.3053
  114TCq2    C9 1744   1.114   4.023   0.590 -0.2476  0.0985 -0.5711
  114TCq2    O5 1745   1.109   4.104   0.686 -0.0161  0.3533  0.4061
  114TCq2    O6 1746   1.055   4.027   0.478  0.2216  0.1990  0.3718
  114TCq2    H2 1747   1.308   4.006   0.770  0.2940  1.6187 -2.0122
  114TCq2    H3 1748   1.074   3.788   0.503 -0.3580 -0.6816 -0.5761
  114TCq2    H4 1749   1.389   3.590   0.723  4.8080  1.8019 -0.3030
  115TMC2    C1 1750   2.389   2.171   0.099  0.0185  0.0724 -0.6699
  115TMC2    C2 1751   2.521   2.140   0.111  0.5064  0.6041 -0.0392
  115TMC2    C3 1752   2.609   2.243   0.125  1.4440 -0.4548 -0.2337
  115TMC2    C4 1753   2.344   2.297   0.078  0.7631 -0.2567  0.5487
  115TMC2    C5 1754   2.429   2.397   0.103 -0.3245  0.3315  0.0096
  115TMC2    C6 1755   2.564   2.375   0.122  0.2894  0.1286 -0.1272
  115TMC2     C 1756   2.295   2.067   0.085 -0.3284 -0.3348 -0.1963
  115TMC2     O 1757   2.352   1.956   0.085 -0.8932  0.0528 -0.1556
  115TMC2     H 1758   2.555   2.037   0.116 -1.3075  0.0618  1.3300
  115TMC2    H1 1759   2.240   2.328   0.080  1.1321  1.1867 -2.2860
  115TMC2    H2 1760   2.636   2.455   0.121  1.9037 -1.3123 -0.2316
  115TMC2    C7 1761   2.386   2.536   0.068  0.3862 -0.1568  0.1069
  115TMC2    C8 1762   2.754   2.214   0.135 -0.3322 -0.0610  0.1018
  115TMC2    O1 1763   2.264   2.559   0.068 -0.7250 -0.1150 -0.0399
  115TMC2    O2 1764   2.798   2.107   0.172  0.3545  0.8281 -0.5007
  115TMC2    O5 1765   2.816   2.305   0.060  0.3338 -0.1363  0.1402
  115TMC2    H5 1766   2.762   2.367   0.006 -1.2007 -2.8996 -1.5452
  116MPD2     C 1767   1.866   1.822  17.663  0.5655 -0.0651 -0.5671
  116MPD2    C1 1768   1.994   1.789  17.627  0.4780  0.3216  0.5621
  116MPD2    C2 1769   2.096   1.883  17.657 -0.3645  0.0259 -0.3086
  116MPD2    C3 1770   2.063   2.001   0.035 -0.4392 -0.3334  0.2242
  116MPD2    C4 1771   1.933   2.028   0.066  0.0430 -0.1228  0.2261
  116MPD2    C5 1772   1.833   1.940   0.036 -0.7472  0.0362  0.4781
  116MPD2     H 1773   2.196   1.860  17.623 -0.4163 -0.7302  0.0550
  116MPD2    H1 1774   1.909   2.123   0.111 -1.4806 -0.0516 -0.7318
  116MPD2    H2 1775   1.786   1.751  17.650 -0.4351  1.4694 -2.9170
  116MPD2    H3 1776   1.729   1.959   0.060 -1.2804  0.2907 -1.9898
  116MPD2     N 1777   2.164   2.097   0.069  0.2128  0.1800 -0.2283
  116MPD2    H5 1778   2.139   2.194   0.086  1.7108  0.9619 -2.4999
  116MPD2    N1 1779   2.010   1.665  17.567 -0.0561 -0.1474  0.1586
  116MPD2    H7 1780   1.920   1.630  17.536 -1.6682  1.9091  2.5522
  117TMC2    C1 1781   1.612   3.191  14.706 -0.0670  0.3029 -0.2070
  117TMC2    C2 1782   1.725   3.118  14.725  0.2077  0.4070 -0.1878
  117TMC2    C3 1783   1.841   3.170  14.675 -0.5003  0.3514 -0.2974
  117TMC2    C4 1784   1.613   3.318  14.645 -0.1662 -0.4880 -0.4441
  117TMC2    C5 1785   1.737   3.367  14.611  0.5399  0.9547  0.2162
  117TMC2    C6 1786   1.853   3.301  14.634 -0.1527  0.5620  0.1002
  117TMC2     C 1787   1.487   3.130  14.725 -0.7462 -0.0428  0.2715
  117TMC2     O 1788   1.485   3.038  14.806 -0.5602  0.4044 -0.1928
  117TMC2     H 1789   1.723   3.016  14.763 -0.7056 -0.1280 -1.6857
  117TMC2    H1 1790   1.526   3.381  14.630 -1.1349 -1.8435 -0.5247
  117TMC2    H2 1791   1.947   3.340  14.597 -0.0939  1.7557  1.4942
  117TMC2    C7 1792   1.741   3.505  14.557 -0.9709  0.0195 -0.0520
  117TMC2    C8 1793   1.964   3.107  14.723 -0.1263 -0.2821 -0.0826
  117TMC2    O1 1794   1.828   3.576  14.598 -0.0699 -0.2790  0.3990
  117TMC2    O2 1795   1.966   2.987  14.743  0.1601  0.3790  0.4008
  117TMC2    O5 1796   2.046   3.201  14.777  0.4915  0.3232 -0.7232
  117TMC2    H5 1797   2.027   3.290  14.742  0.8348  1.8757  3.0078
  118MPD2     C 1798   1.540   3.621  14.273 -0.5623  0.2895  0.5278
  118MPD2    C1 1799   1.623   3.642  14.378 -0.5985 -0.7200 -0.0462
  118MPD2    C2 1800   1.685   3.764  14.387 -0.1137  0.5146 -0.5765
  118MPD2    C3 1801   1.639   3.870  14.310 -0.1164 -0.0006 -0.3194
  118MPD2    C4 1802   1.549   3.844  14.209 -0.3662 -0.0550 -0.1033
  118MPD2    C5 1803   1.499   3.726  14.191  0.5306  0.6450  0.0029
  118MPD2     H 1804   1.762   3.788  14.459  2.3426  1.4608 -3.5226
  118MPD2    H1 1805   1.525   3.923  14.139  0.4267  0.2560 -0.0230
  118MPD2    H2 1806   1.494   3.525  14.253  0.4667  0.2537 -1.6280
  118MPD2    H3 1807   1.416   3.699  14.126  1.6663  2.4206 -2.1740
  118MPD2     N 1808   1.682   4.004  14.324 -0.0779 -0.6383  0.4911
  118MPD2    H5 1809   1.631   4.073  14.271  0.1905 -0.5371  0.3677
  118MPD2    N1 1810   1.654   3.522  14.448  0.5411  0.5695 -0.2484
  118MPD2    H7 1811   1.605   3.437  14.420  2.0842 -0.0845 -0.9240
  119MPD2     C 1812   4.426   4.358  14.333 -0.4525  0.2634 -0.3998
  119MPD2    C1 1813   4.292   4.323  14.332  1.2105  0.2752  0.2850
  119MPD2    C2 1814   4.241   4.278  14.214 -1.1272  1.1886 -0.2617
  119MPD2    C3 1815   4.320   4.271  14.096  0.0826 -0.3213 -0.0901
  119MPD2    C4 1816   4.447   4.318  14.105 -0.0374 -0.3138  0.2073
  119MPD2    C5 1817   4.506   4.350  14.223  0.6192 -0.6310 -0.2876
  119MPD2     H 1818   4.138   4.246  14.204 -0.9361  0.4856  0.0128
  119MPD2    H1 1819   4.514   4.320  14.020  0.6624  1.0204  0.7865
  119MPD2    H2 1820   4.465   4.400  14.426 -0.1563 -0.7791 -0.0527
  119MPD2    H3 1821   4.610   4.379  14.225  0.2324  0.6663  0.6674
  119MPD2     N 1822   4.272   4.209  13.977 -0.2524 -0.1233 -0.2809
  119MPD2    H5 1823   4.348   4.178  13.916  0.3151  2.3801 -0.8367
  119MPD2    N1 1824   4.218   4.322  14.457 -0.3545 -0.2891  0.0313
  119MPD2    H7 1825   4.274   4.347  14.539  1.3977 -1.1378 -0.9086
  120TCq2    C1 1826   4.140   4.173  13.949  0.2749 -0.2289 -0.5752
  120TCq2    O2 1827   4.041   4.208  14.013  0.3904  0.2528 -0.2526
  120TCq2    C2 1828   4.118   4.069  13.844 -0.0535  0.1964 -0.3884
  120TCq2    C3 1829   4.205   4.079  13.740  0.3182  0.4961 -0.2502
  120TCq2    C4 1830   4.163   4.023  13.620 -0.4802 -0.1216  0.1935
  120TCq2    C5 1831   4.048   3.959  13.602  0.2590  0.6182 -0.2294
  120TCq2    C6 1832   3.962   3.967  13.713  0.4469  0.0437  0.0561
  120TCq2    C7 1833   3.996   4.009  13.834 -0.3666 -0.0416  0.2250
  120TCq2    C8 1834   3.830   3.906  13.692  0.0369 -0.2558  0.6098
  120TCq2    O4 1835   3.805   3.883  13.576 -0.2800 -0.2681 -0.2372
  120TCq2    C9 1836   4.248   4.040  13.505 -0.1684 -0.0777  0.3339
  120TCq2    O5 1837   4.195   4.058  13.390 -0.1619 -0.1411 -0.1150
  120TCq2    O6 1838   4.367   4.061  13.530 -0.3433 -0.3664 -0.2716
  120TCq2    H2 1839   4.296   4.136  13.747 -0.6257  2.0918 -0.9450
  120TCq2    H3 1840   4.029   3.907  13.509  0.5941  0.6459 -0.3095
  120TCq2    H4 1841   3.938   4.012  13.926  0.3320 -2.2999  0.7365
  121TMC2    C1 1842   0.434   1.378  14.012  0.0817 -0.1699  0.2611
  121TMC2    C2 1843   0.539   1.323  14.081  0.1499  0.0802 -0.3320
  121TMC2    C3 1844   0.518   1.218  14.173  0.3265 -0.3131 -0.1451
  121TMC2    C4 1845   0.311   1.319  14.026  0.6800 -0.6603  0.0817
  121TMC2    C5 1846   0.287   1.222  14.118 -0.0925 -0.1192 -0.0621
  121TMC2    C6 1847   0.390   1.176  14.202 -0.3430  0.7876 -0.3051
  121TMC2     C 1848   0.445   1.511  13.959 -0.3012  0.4557  0.0700
  121TMC2     O 1849   0.342   1.577  13.935 -0.2009 -0.4694  0.3140
  121TMC2     H 1850   0.641   1.359  14.081 -0.3605  1.5609  0.4451
  121TMC2    H1 1851   0.233   1.370  13.970  0.6566 -0.1879  0.5447
  121TMC2    H2 1852   0.368   1.110  14.285 -0.6151  2.7400  1.1639
  121TMC2    C7 1853   0.158   1.165  14.152 -0.7466 -0.1341 -0.0843
  121TMC2    C8 1854   0.617   1.208  14.279  0.4371  0.3251 -0.5809
  121TMC2    O1 1855   0.159   1.060  14.208  0.1267 -0.3096 -0.0872
  121TMC2    O2 1856   0.720   1.273  14.282  0.3316 -0.2223 -0.1049
  121TMC2    O5 1857   0.606   1.076  14.328  0.5614 -0.2062  0.1730
  121TMC2    H5 1858   0.532   1.017  14.303  0.6511 -0.1812 -0.1500
  122MPD2     C 1859   0.544   1.779  13.925 -0.0946 -0.2129  0.5190
  122MPD2    C1 1860   0.607   1.670  13.875  0.0412 -0.2558  0.0994
  122MPD2    C2 1861   0.715   1.690  13.791  0.1293 -0.2948 -0.1686
  122MPD2    C3 1862   0.760   1.814  13.758 -0.0489 -0.1197  0.8281
  122MPD2    C4 1863   0.689   1.915  13.796  0.7983  0.2275  0.1535
  122MPD2    C5 1864   0.585   1.905  13.883 -0.9500 -1.4826 -0.4214
  122MPD2     H 1865   0.767   1.601  13.758  1.5684  0.0840  1.1001
  122MPD2    H1 1866   0.729   2.016  13.787  0.1522  0.2632 -2.2180
  122MPD2    H2 1867   0.469   1.764  14.002  0.2157 -0.7198  0.7310
  122MPD2    H3 1868   0.538   1.999  13.909 -1.6359 -2.2954  1.2178
  122MPD2     N 1869   0.867   1.843  13.670 -0.1548 -0.7299 -0.1435
  122MPD2    H5 1870   0.877   1.937  13.633 -2.2676 -1.0200 -1.4287
  122MPD2    N1 1871   0.569   1.538  13.913  0.2927  0.2072 -0.2928
  122MPD2    H7 1872   0.643   1.468  13.906 -1.2961 -1.2426 -2.5832
  123MPD2     C 1873   4.015   0.019   9.135 -1.1126  0.0921 -0.0801
  123MPD2    C1 1874   3.968   4.607   9.144  0.1347 -0.2748 -0.1250
  123MPD2    C2 1875   4.054   4.508   9.183  0.1541  0.0986  0.9118
  123MPD2    C3 1876   4.192   4.526   9.175  0.0472 -0.3260  0.3018
  123MPD2    C4 1877   4.237   4.649   9.143 -0.1600 -0.4146 -0.5787
  123MPD2    C5 1878   4.150   0.038   9.127 -0.1202  0.1438  0.0923
  123MPD2     H 1879   4.015   4.409   9.207 -0.2362 -0.1605 -0.8047
  123MPD2    H1 1880   4.342   4.674   9.135 -0.9984  2.8626 -1.5505
  123MPD2    H2 1881   3.949   0.105   9.131 -0.7373  0.4107  0.6978
  123MPD2    H3 1882   4.190   0.138   9.111 -1.6843  0.7105 -0.2469
  123MPD2     N 1883   4.265   4.412   9.207  0.0897 -0.2958 -0.5585
  123MPD2    H5 1884   4.214   4.329   9.234 -1.1408  0.5113 -0.4183
  123MPD2    N1 1885   3.826   4.587   9.151 -0.0710  0.0277  0.8815
  123MPD2    H7 1886   3.762   4.665   9.163  0.2138  0.9003 -3.3213
  124TCq2    C1 1887   4.399   4.407   9.229  0.4832  0.1001 -0.2930
  124TCq2    O2 1888   4.486   4.491   9.201  0.1508 -0.2442  0.0918
  124TCq2    C2 1889   4.425   4.282   9.291  0.2005 -0.6184  0.6357
  124TCq2    C3 1890   4.332   4.181   9.294 -0.4577 -1.0233  0.4314
  124TCq2    C4 1891   4.350   4.080   9.391 -0.4553  0.3847  0.4960
  124TCq2    C5 1892   4.456   4.077   9.466 -0.9180 -0.2216  0.4424
  124TCq2    C6 1893   4.550   4.180   9.463 -0.2103  0.4846 -0.6238
  124TCq2    C7 1894   4.542   4.281   9.371 -0.3127 -1.1239 -0.1805
  124TCq2    C8 1895   4.650   4.181   9.570 -0.0158  0.1051 -0.0887
  124TCq2    O4 1896   4.619   4.108   9.662 -0.0815  0.0962 -0.2877
  124TCq2    C9 1897   4.255   3.969   9.398 -0.1686 -0.0690  0.0053
  124TCq2    O5 1898   4.170   3.960   9.308 -0.2313  0.1373 -0.0733
  124TCq2    O6 1899   4.249   3.907   9.510 -0.5165 -0.2494 -0.1096
  124TCq2    H2 1900   4.249   4.170   9.225 -2.5743 -0.0694  2.8286
  124TCq2    H3 1901   4.460   4.000   9.542  0.2593 -1.7082 -1.1309
  124TCq2    H4 1902   4.602   4.371   9.365 -0.0079 -1.3764 -0.9085
  125TMC2    C1 1903   1.202   1.794   8.604 -0.2331  0.5397 -0.0705
  125TMC2    C2 1904   1.272   1.721   8.511 -0.0560 -0.7700  0.2622
  125TMC2    C3 1905   1.200   1.652   8.420  0.0387 -0.8858  0.3817
  125TMC2    C4 1906   1.064   1.810   8.603 -0.6211  0.1760  0.2409
  125TMC2    C5 1907   0.997   1.736   8.505 -0.1401 -0.0521  0.1643
  125TMC2    C6 1908   1.066   1.667   8.410 -0.3384 -0.0974  0.2284
  125TMC2     C 1909   1.280   1.838   8.721  0.4214 -0.7792 -0.1163
  125TMC2     O 1910   1.379   1.775   8.746  0.3382 -0.2607 -1.0802
  125TMC2     H 1911   1.380   1.715   8.515  0.1886  2.2213 -1.8058
  125TMC2    H1 1912   1.020   1.881   8.672  0.1724 -1.0452  1.9923
  125TMC2    H2 1913   1.010   1.599   8.347 -0.2357 -1.0054  1.1132
  125TMC2    C7 1914   0.859   1.743   8.478  0.5439  0.5457 -0.5322
  125TMC2    C8 1915   1.261   1.557   8.330 -0.0862 -0.0659 -0.5758
  125TMC2    O1 1916   0.814   1.710   8.370  0.2483  0.7244 -0.3009
  125TMC2    O2 1917   1.352   1.477   8.353  0.2028 -0.3768 -0.0029
  125TMC2    O5 1918   1.225   1.603   8.202 -0.2703 -0.2906  0.5401
  125TMC2    H5 1919   1.177   1.689   8.207  0.6733  0.4337 -2.6445
  126MPD1     C 1920   1.354   2.149   9.133 -0.1983 -0.3978  0.0432
  126MPD1    C1 1921   1.259   2.204   9.053 -0.4329  0.1334 -0.3539
  126MPD1    C2 1922   1.219   2.128   8.944  0.3160  0.1985  0.1545
  126MPD1    C3 1923   1.274   2.006   8.905 -0.0091  0.4690 -0.0427
  126MPD1    C4 1924   1.375   1.959   8.982  1.0833 -0.2171  0.6276
  126MPD1    C5 1925   1.411   2.032   9.092  0.3133 -0.4432 -0.2913
  126MPD1     H 1926   1.137   2.163   8.882  0.2443 -1.0163 -0.4385
  126MPD1    H1 1927   1.428   1.867   8.956  2.7866  0.9230  0.0274
  126MPD1    H2 1928   1.378   2.188   9.232  0.7181  1.1594 -0.8016
  126MPD1    H3 1929   1.479   1.982   9.160  0.0481  0.4107  0.6019
  126MPD1     N 1930   1.225   1.941   8.785  0.3927  0.2811  0.5240
  126MPD1    H5 1931   1.156   1.981   8.722  0.0525 -0.8940  0.1470
  126MPD1    N1 1932   1.184   2.319   9.091 -0.1112 -0.1962 -0.2119
  126MPD1    H6 1933   1.240   2.373   9.156 -1.3864  0.7521  0.1118
  126MPD1    H7 1934   1.158   2.381   9.015  2.1590  1.4151  0.3230
  127MPD2     C 1935   1.393   0.808   9.084  0.2268 -0.3778 -0.1951
  127MPD2    C1 1936   1.401   0.767   9.218  0.4525 -0.0340 -0.0985
  127MPD2    C2 1937   1.412   0.870   9.318 -0.5036 -0.2926 -0.4185
  127MPD2    C3 1938   1.399   1.005   9.284 -0.1459 -0.5220  0.4047
  127MPD2    C4 1939   1.388   1.048   9.151 -0.5560 -0.0572 -0.0791
  127MPD2    C5 1940   1.395   0.947   9.056 -0.6376  0.4581 -0.8906
  127MPD2     H 1941   1.419   0.851   9.425 -1.4974 -0.2772 -0.3538
  127MPD2    H1 1942   1.387   1.153   9.125 -1.3178 -0.8143 -3.1503
  127MPD2    H2 1943   1.381   0.737   9.003 -0.5479 -0.4419 -0.0236
  127MPD2    H3 1944   1.381   0.971   8.951 -2.7339  2.0621 -0.2384
  127MPD2     N 1945   1.411   1.099   9.394 -0.3787 -0.1041 -0.1654
  127MPD2    H5 1946   1.450   1.063   9.481  0.6719 -0.7865 -0.9160
  127MPD2    N1 1947   1.389   0.630   9.246 -0.2950 -0.3143 -0.4314
  127MPD2    H7 1948   1.385   0.568   9.165 -0.6312 -1.1235  0.2130
  128TCq2    C1 1949   1.375   0.568   9.369  0.2605 -0.3522 -0.0156
  128TCq2    O2 1950   1.389   0.618   9.483  0.0425  0.3634  0.2208
  128TCq2    C2 1951   1.333   0.430   9.359  0.1393 -0.2744 -0.0647
  128TCq2    C3 1952   1.337   0.354   9.474 -0.0829  0.1579  0.2149
  128TCq2    C4 1953   1.305   0.223   9.465  0.8040 -0.4589  0.2300
  128TCq2    C5 1954   1.264   0.171   9.344 -0.0795  0.4878  0.1663
  128TCq2    C6 1955   1.250   0.252   9.239  0.6711  0.3342  0.1914
  128TCq2    C7 1956   1.293   0.382   9.236 -0.3280 -0.5432  0.0068
  128TCq2    C8 1957   1.158   0.218   9.132 -0.1561  0.1412  0.0938
  128TCq2    O4 1958   1.175   0.279   9.028  0.2600  0.1174  0.1661
  128TCq2    C9 1959   1.316   0.137   9.577  0.1579  0.2464 -0.5541
  128TCq2    O5 1960   1.378   0.185   9.678 -0.4571  0.6121  0.3555
  128TCq2    O6 1961   1.280   0.020   9.568 -0.3772 -0.1804  0.7377
  128TCq2    H2 1962   1.378   0.402   9.562  0.8939 -2.0829  0.9859
  128TCq2    H3 1963   1.261   0.063   9.339  1.7494  0.4356  0.1005
  128TCq2    H4 1964   1.260   0.445   9.155 -1.7192 -2.1014 -0.6396
  129MPD2     C 1965   4.499   0.409   1.748 -0.4091 -0.4274  0.1933
  129MPD2    C1 1966   4.433   0.505   1.811 -0.2282 -0.0072  0.0161
  129MPD2    C2 1967   4.447   0.633   1.759 -0.1495  0.6741  0.5152
  129MPD2    C3 1968   4.517   0.655   1.648  0.4205  0.1639  0.1441
  129MPD2    C4 1969   4.594   0.557   1.588 -0.0606  0.2976 -0.0414
  129MPD2    C5 1970   4.588   0.439   1.650 -0.0499  0.9162 -1.2101
  129MPD2     H 1971   4.380   0.710   1.796 -1.7957 -0.6359  0.2171
  129MPD2    H1 1972   4.654   0.575   1.500 -0.1049  0.3122 -0.0689
  129MPD2    H2 1973   4.498   0.305   1.780  0.1847  0.2380  2.3935
  129MPD2    H3 1974   4.649   0.362   1.603  1.5019  1.6657 -0.4267
  129MPD2     N 1975   4.513   0.788   1.592 -0.3102 -0.0026 -0.2019
  129MPD2    H5 1976   4.479   0.865   1.648 -1.9335 -1.7765  1.2587
  129MPD2    N1 1977   4.348   0.486   1.920  0.4169  0.2966 -0.0459
  129MPD2    H7 1978   4.288   0.562   1.950  0.5587  0.3735  0.0384
  130TCq2    C1 1979   4.324   0.367   1.983  0.5815  0.4911  0.7357
  130TCq2    O2 1980   4.382   0.259   1.974 -0.3245  0.4442  0.8524
  130TCq2    C2 1981   4.206   0.373   2.063 -0.3466 -0.4711 -0.0458
  130TCq2    C3 1982   4.198   0.286   2.166 -0.6782  0.4626  0.3536
  130TCq2    C4 1983   4.082   0.287   2.241 -0.0612 -0.8625  0.1330
  130TCq2    C5 1984   3.987   0.386   2.221  0.4062 -0.3992 -0.0554
  130TCq2    C6 1985   4.003   0.473   2.114 -0.2412  0.3480  0.2612
  130TCq2    C7 1986   4.118   0.480   2.043 -0.3865 -0.5642 -0.4150
  130TCq2    C8 1987   3.911   0.583   2.107 -0.5724  0.0501 -0.1862
  130TCq2    O4 1988   3.800   0.571   2.156  0.2588 -0.4143  0.2681
  130TCq2    C9 1989   4.054   0.181   2.338  0.1154 -0.1982  0.1861
  130TCq2    O5 1990   3.936   0.161   2.377  0.6588  0.1471 -0.1623
  130TCq2    O6 1991   4.149   0.103   2.367  0.4834 -0.0153 -0.3731
  130TCq2    H2 1992   4.270   0.208   2.184 -1.6688 -0.6438 -0.4918
  130TCq2    H3 1993   3.893   0.384   2.275  0.1560 -0.1100 -0.4817
  130TCq2    H4 1994   4.114   0.527   1.946  1.1935  1.0415  0.2831
  131MPD2     C 1995   3.352   0.421   9.512  0.2548 -0.4910  0.0204
  131MPD2    C1 1996   3.466   0.352   9.551  0.2595  0.0332 -0.7233
  131MPD2    C2 1997   3.478   0.222   9.509  0.4396 -0.0140  0.1149
  131MPD2    C3 1998   3.385   0.164   9.425  0.1965  0.2673 -0.3043
  131MPD2    C4 1999   3.267   0.228   9.398 -0.3762 -0.2168  0.9005
  131MPD2    C5 2000   3.251   0.359   9.441  0.2752 -0.1932 -0.4301
  131MPD2     H 2001   3.561   0.153   9.523  0.6388  0.2863  0.3882
  131MPD2    H1 2002   3.186   0.194   9.335  0.2156  0.8875 -0.4453
  131MPD2    H2 2003   3.349   0.524   9.546  0.3814 -0.2918 -0.5645
  131MPD2    H3 2004   3.159   0.413   9.421  0.8292  0.9881  0.1915
  131MPD2     N 2005   3.416   0.040   9.359  0.0956  0.6846 -0.7510
  131MPD2    H5 2006   3.498   4.716   9.397 -0.4481  0.6927  0.4114
  131MPD2    N1 2007   3.561   0.410   9.639 -0.5869 -0.2540  0.0513
  131MPD2    H7 2008   3.535   0.499   9.678 -2.8737 -1.4517  1.2075
  132TCq2    C1 2009   4.062   0.463   9.945 -0.0052 -0.5882 -0.6633
  132TCq2    O2 2010   4.105   0.351   9.910 -0.6992  0.7112  0.4060
  132TCq2    C2 2011   3.939   0.508   9.896  0.3717 -0.9813  0.5322
  132TCq2    C3 2012   3.868   0.604   9.956  0.0653 -0.0774  0.6005
  132TCq2    C4 2013   3.741   0.633   9.911 -0.6475  0.8769 -0.1614
  132TCq2    C5 2014   3.685   0.564   9.804  0.8857 -0.3404 -0.0064
  132TCq2    C6 2015   3.756   0.458   9.750 -0.1919 -0.2542  0.0299
  132TCq2    C7 2016   3.885   0.431   9.799  0.9403 -0.3043  0.1844
  132TCq2    C8 2017   3.684   0.355   9.671 -0.7120 -0.1675 -0.5043
  132TCq2    O4 2018   3.734   0.245   9.651  0.5685 -0.4507 -0.1248
  132TCq2    C9 2019   3.671   0.745   9.964  0.0775  0.0464 -0.8340
  132TCq2    O5 2020   3.686   0.762  10.087  0.3196  0.7032 -0.0084
  132TCq2    O6 2021   3.574   0.792   9.892  0.2693 -0.5261  0.2017
  132TCq2    H2 2022   3.908   0.646  10.047  1.3476 -2.1034  0.9636
  132TCq2    H3 2023   3.597   0.610   9.760  1.8121  0.8060 -0.6645
  132TCq2    H4 2024   3.947   0.355   9.750  0.3622 -0.2021 -0.7100
  133MPD2     C 2025   3.077   1.716   9.096  0.6785  0.4797  0.3134
  133MPD2    C1 2026   3.197   1.648   9.103 -0.0945 -0.2698 -0.1033
  133MPD2    C2 2027   3.206   1.530   9.173 -0.1198 -0.1005 -0.1981
  133MPD2    C3 2028   3.101   1.480   9.244  0.3203 -0.0259  0.2305
  133MPD2    C4 2029   2.978   1.540   9.226  0.5460 -0.0765 -0.0088
  133MPD2    C5 2030   2.969   1.657   9.152  0.2619 -0.2267  0.3068
  133MPD2     H 2031   3.302   1.483   9.194 -0.8349 -1.6557 -0.3891
  133MPD2    H1 2032   2.894   1.494   9.276 -1.1410  3.1040  0.1125
  133MPD2    H2 2033   3.067   1.804   9.033  0.7332  0.0330 -0.3142
  133MPD2    H3 2034   2.876   1.711   9.138  0.6294  0.6642  1.2393
  133MPD2     N 2035   3.099   1.359   9.320  0.0933  0.3358 -0.2203
  133MPD2    H5 2036   3.010   1.328   9.358  0.7395  0.6563  1.5714
  133MPD2    N1 2037   3.317   1.717   9.066 -0.1491 -0.5426 -0.3499
  133MPD2    H7 2038   3.315   1.818   9.052  2.2037 -0.3176  0.8491
  134TCq2    C1 2039   3.443   1.651   9.045  0.1654 -0.1083 -0.1404
  134TCq2    O2 2040   3.466   1.531   9.046  0.1434 -0.1921 -0.1794
  134TCq2    C2 2041   3.551   1.737   9.000  0.0681  0.1488  0.2684
  134TCq2    C3 2042   3.675   1.683   8.990 -0.1037 -0.1863 -0.9834
  134TCq2    C4 2043   3.777   1.761   8.938  0.8187  0.8589 -0.1662
  134TCq2    C5 2044   3.753   1.888   8.893  0.4399 -0.6063 -0.0496
  134TCq2    C6 2045   3.625   1.941   8.899 -0.1366  0.3853 -0.0627
  134TCq2    C7 2046   3.525   1.870   8.960  0.1758  0.1470 -0.4077
  134TCq2    C8 2047   3.608   2.085   8.902  0.4856 -0.5642 -0.1296
  134TCq2    O4 2048   3.499   2.132   8.894  0.4803 -0.3249  0.0488
  134TCq2    C9 2049   3.910   1.702   8.933  0.3323  0.1793 -0.0663
  134TCq2    O5 2050   3.927   1.596   8.995  0.0320  0.5358 -1.0383
  134TCq2    O6 2051   3.995   1.778   8.894  0.3107 -0.6982  0.5312
  134TCq2    H2 2052   3.703   1.589   9.035 -0.8856 -0.9070 -1.9972
  134TCq2    H3 2053   3.834   1.939   8.843 -0.4086 -0.8582 -1.6716
  134TCq2    H4 2054   3.431   1.921   8.972  0.1223  0.2673 -1.3330
  135MPD2     C 2055   0.816   2.356   9.518 -0.4765  0.2883 -0.2221
  135MPD2    C1 2056   0.738   2.242   9.492  0.3296 -0.2218 -0.4569
  135MPD2    C2 2057   0.783   2.158   9.386 -0.6944 -0.0822 -0.5997
  135MPD2    C3 2058   0.908   2.180   9.330  0.7862 -0.5269 -0.6170
  135MPD2    C4 2059   0.964   2.303   9.350 -0.3977  0.4531 -0.3945
  135MPD2    C5 2060   0.920   2.387   9.443  0.6566 -0.4653  0.1872
  135MPD2     H 2061   0.733   2.063   9.372 -2.1780  0.7023 -0.6405
  135MPD2    H1 2062   1.054   2.332   9.299 -1.6626  4.1238 -0.4882
  135MPD2    H2 2063   0.790   2.426   9.596 -0.1045 -0.0526  0.2090
  135MPD2    H3 2064   0.977   2.479   9.447 -1.3790  0.9093 -2.7701
  135MPD2     N 2065   0.972   2.087   9.241 -0.1556 -0.0585  0.2856
  135MPD2    H5 2066   1.068   2.113   9.220 -1.7130  3.7032 -1.9722
  135MPD2    N1 2067   0.629   2.203   9.571  0.5045  0.4596 -0.3253
  135MPD2    H7 2068   0.576   2.123   9.538  2.2130 -0.8556  0.1053
  136TCq2    C1 2069   0.594   2.259   9.688  0.0334 -0.4822  0.7118
  136TCq2    O2 2070   0.673   2.320   9.760 -0.0370 -0.5788  0.2842
  136TCq2    C2 2071   0.476   2.196   9.746  0.3439 -0.2646  0.2752
  136TCq2    C3 2072   0.371   2.161   9.667  0.7310 -0.0858 -0.5984
  136TCq2    C4 2073   0.257   2.120   9.730 -0.3948  0.1880  1.0496
  136TCq2    C5 2074   0.239   2.128   9.861  0.2498 -0.5121 -0.0887
  136TCq2    C6 2075   0.349   2.173   9.935  0.6032  0.0993 -0.7527
  136TCq2    C7 2076   0.467   2.212   9.880 -0.0492  0.3478 -0.3650
  136TCq2    C8 2077   0.338   2.217  10.078 -0.7298  0.2050  0.3708
  136TCq2    O4 2078   0.424   2.286  10.126  0.2819 -0.4153  0.4010
  136TCq2    C9 2079   0.155   2.059   9.648  0.8361  0.7082 -0.0875
  136TCq2    O5 2080   0.170   2.052   9.524 -0.1732  0.6688 -0.3406
  136TCq2    O6 2081   0.064   1.999   9.710  0.0781  0.5833  0.5392
  136TCq2    H2 2082   0.380   2.151   9.560  1.7259  0.5067 -0.5683
  136TCq2    H3 2083   0.138   2.113   9.898  0.0658  0.9553  0.0362
  136TCq2    H4 2084   0.547   2.255   9.939  0.1509  0.0281 -0.3995
  137MPD2     C 2085   0.975   0.919  10.182  0.0156 -0.0780 -0.3202
  137MPD2    C1 2086   0.878   0.969  10.100 -0.6255  0.6145 -0.2991
  137MPD2    C2 2087   0.776   1.034  10.167 -0.1488  0.1505 -0.1734
  137MPD2    C3 2088   0.774   1.048  10.306  0.3854 -0.5099 -0.2824
  137MPD2    C4 2089   0.870   0.983  10.385  1.0624  0.5753 -0.1473
  137MPD2    C5 2090   0.972   0.924  10.321  0.2870 -0.1831  0.5807
  137MPD2     H 2091   0.701   1.090  10.113 -1.0969 -1.4648 -0.5506
  137MPD2    H1 2092   0.859   0.982  10.492  1.3244  1.1384 -0.1177
  137MPD2    H2 2093   1.061   0.871  10.138 -0.5447 -0.3781 -1.0961
  137MPD2    H3 2094   1.055   0.885  10.378  0.4950 -1.3171 -0.4824
  137MPD2     N 2095   0.660   1.116  10.360  0.5359  0.6408  0.1203
  137MPD2    H5 2096   0.608   1.174  10.295  0.2493 -0.0444 -0.2612
  137MPD2    N1 2097   0.882   0.947   9.958 -0.6652  0.5008  0.5582
  137MPD2    H7 2098   0.958   0.889   9.923 -0.5077  0.8991  0.2369
  138TCq2    C1 2099   0.801   1.012   9.872 -0.0961 -0.3924  0.7596
  138TCq2    O2 2100   0.732   1.111   9.897  0.6255 -0.1892  0.5423
  138TCq2    C2 2101   0.804   0.962   9.736 -0.3401 -0.4036  0.0242
  138TCq2    C3 2102   0.803   0.833   9.719  0.5952 -0.9193  0.0209
  138TCq2    C4 2103   0.725   0.775   9.620 -0.5836  0.1033  0.0867
  138TCq2    C5 2104   0.637   0.862   9.548  0.8290  0.2094 -0.5846
  138TCq2    C6 2105   0.631   0.996   9.580 -0.2720 -0.6289 -0.7415
  138TCq2    C7 2106   0.723   1.045   9.668 -0.2203 -0.7426  0.4281
  138TCq2    C8 2107   0.498   1.055   9.584  0.1432  0.6968  0.2469
  138TCq2    O4 2108   0.394   0.983   9.577 -0.0125 -0.5207  0.3151
  138TCq2    C9 2109   0.687   0.635   9.625 -0.1672 -0.3059 -0.7823
  138TCq2    O5 2110   0.751   0.557   9.700 -0.0058 -0.3173  0.0629
  138TCq2    O6 2111   0.590   0.615   9.550 -0.4592  0.1330 -0.1689
  138TCq2    H2 2112   0.846   0.759   9.785 -1.0137 -1.2388  0.7177
  138TCq2    H3 2113   0.562   0.829   9.477  0.5077  2.6754 -1.4189
  138TCq2    H4 2114   0.723   1.153   9.676  0.6486 -0.6305 -1.0091
  139TMC2    C1 2115   0.993   4.297  13.207 -0.1543 -0.0485 -0.2469
  139TMC2    C2 2116   1.017   4.384  13.106 -0.0878  0.3382 -0.0548
  139TMC2    C3 2117   0.968   4.510  13.124 -0.3487 -0.7861  0.7703
  139TMC2    C4 2118   0.942   4.334  13.324 -0.6392  0.8494  1.0399
  139TMC2    C5 2119   0.896   4.461  13.338 -0.3229  0.5218  0.3038
  139TMC2    C6 2120   0.908   4.551  13.239  0.2019  1.0462 -0.8684
  139TMC2     C 2121   1.047   4.166  13.187  0.3957 -0.3565  0.0820
  139TMC2     O 2122   1.041   4.127  13.071  0.1468 -0.2298  0.0055
  139TMC2     H 2123   1.065   4.361  13.012  0.6180  0.9090  0.1646
  139TMC2    H1 2124   0.913   4.252  13.389 -1.3178  1.3536  1.3873
  139TMC2    H2 2125   0.893   4.655  13.266 -1.4679  0.9650 -1.5204
  139TMC2    C7 2126   0.840   4.508  13.459  0.1372  0.0557 -0.3157
  139TMC2    C8 2127   0.967   4.599  13.011  0.8921  0.3110 -0.5894
  139TMC2    O1 2128   0.792   4.619  13.456  0.5925  0.8088  0.3648
  139TMC2    O2 2129   1.029   4.565  12.916 -0.4190 -0.7059  0.4516
  139TMC2    O5 2130   0.847   4.657  13.001 -0.1653 -0.1351 -0.0393
  139TMC2    H5 2131   0.778   4.629  13.064 -2.6030 -1.1237 -3.1186
  140MPD2     C 2132   1.108   3.929  13.445 -0.1708 -0.3694  0.7791
  140MPD2    C1 2133   1.111   3.969  13.315 -0.1131 -0.8796  0.2872
  140MPD2    C2 2134   1.127   3.875  13.210  0.7998 -0.1804 -0.1166
  140MPD2    C3 2135   1.136   3.744  13.243 -0.5395  0.0586  0.6947
  140MPD2    C4 2136   1.137   3.706  13.375  0.4166 -0.2939 -0.5497
  140MPD2    C5 2137   1.133   3.805  13.477  0.5536  0.2532  0.4845
  140MPD2     H 2138   1.130   3.909  13.106  3.9037  1.1203  0.3938
  140MPD2    H1 2139   1.148   3.600  13.396 -0.0045 -0.6059 -1.8717
  140MPD2    H2 2140   1.082   4.002  13.521 -1.0482 -2.3775  2.3930
  140MPD2    H3 2141   1.126   3.765  13.577  1.5900 -4.3459 -1.2840
  140MPD2     N 2142   1.147   3.652  13.135 -0.6182 -0.2664  0.5140
  140MPD2    H5 2143   1.150   3.698  13.044  3.1391 -2.9891 -0.7413
  140MPD2    N1 2144   1.089   4.110  13.302  0.5959 -0.0447  0.1119
  140MPD2    H7 2145   1.089   4.160  13.391 -0.5635  0.0737  0.0476
  141TCq2    C1 2146   1.391   0.547  14.116  0.1091  0.2447 -0.1831
  141TCq2    O2 2147   1.370   0.660  14.082 -0.2275  0.2151  0.2346
  141TCq2    C2 2148   1.353   0.500  14.250  0.5555 -0.1497  0.9200
  141TCq2    C3 2149   1.305   0.375  14.261  0.4297  0.1164 -0.1163
  141TCq2    C4 2150   1.318   0.308  14.385  0.2264  0.3325  0.2403
  141TCq2    C5 2151   1.372   0.376  14.492  0.8063  0.3116 -0.1849
  141TCq2    C6 2152   1.411   0.508  14.480  0.0840  0.6547 -0.0716
  141TCq2    C7 2153   1.410   0.567  14.352  0.2747  0.5109  0.3809
  141TCq2    C8 2154   1.489   0.564  14.588 -0.6314  0.2754 -0.1918
  141TCq2    O4 2155   1.519   0.481  14.673 -0.6233  0.4770  0.1994
  141TCq2    C9 2156   1.267   0.181  14.394 -0.6920  0.6371  0.1990
  141TCq2    O5 2157   1.195   0.144  14.297 -0.0612 -0.1619  0.3115
  141TCq2    O6 2158   1.301   0.109  14.491 -0.6041  0.2684 -0.1083
  141TCq2    H2 2159   1.246   0.329  14.182  0.5832 -0.8123  0.3018
  141TCq2    H3 2160   1.368   0.320  14.585 -2.5847 -0.6171 -0.8797
  141TCq2    H4 2161   1.452   0.664  14.327  0.1565  0.6000  0.5254
  142MPD2     C 2162   4.125   4.013  10.812 -0.2042 -0.3100 -0.3700
  142MPD2    C1 2163   4.128   3.986  10.676  0.1184 -0.8713  0.8710
  142MPD2    C2 2164   4.244   4.018  10.594  0.2604  0.5714  0.0485
  142MPD2    C3 2165   4.350   4.086  10.654 -0.3917  0.6011 -0.0917
  142MPD2    C4 2166   4.350   4.096  10.788  0.1146  0.2331 -0.5295
  142MPD2    C5 2167   4.246   4.063  10.869  0.8471  0.0892 -0.1445
  142MPD2     H 2168   4.236   4.000  10.487 -1.6358 -3.5346  0.8881
  142MPD2    H1 2169   4.446   4.128  10.828 -0.4951  1.3962 -0.0132
  142MPD2    H2 2170   4.044   3.989  10.880 -0.1054  1.3943  0.3424
  142MPD2    H3 2171   4.252   4.071  10.977  3.1758  1.2398 -0.3650
  142MPD2     N 2172   4.467   4.115  10.582  0.4957  0.3951 -0.7080
  142MPD2    H5 2173   4.545   4.159  10.630  0.8629 -1.6608  0.5928
  142MPD2    N1 2174   4.018   3.922  10.623  0.6040  0.5716 -0.6259
  142MPD2    H7 2175   3.959   3.871  10.688 -1.3793  0.9491 -2.1423
  143TCq2    C1 2176   4.476   4.111  10.448  0.1881  0.1774  0.5169
  143TCq2    O2 2177   4.397   4.077  10.364  0.0316  0.3463 -0.1402
  143TCq2    C2 2178   4.611   4.146  10.397  0.5477  0.4322  0.1880
  143TCq2    C3 2179   4.712   4.168  10.485 -0.2829 -0.4327  0.1613
  143TCq2    C4 2180   0.105   4.221  10.428  0.0696 -0.1922  0.8850
  143TCq2    C5 2181   0.125   4.243  10.296  0.1371  0.0690  0.0886
  143TCq2    C6 2182   0.017   4.220  10.217 -0.8692  0.4619 -0.0103
  143TCq2    C7 2183   4.619   4.168  10.261  1.0465  0.3268 -0.3939
  143TCq2    C8 2184   0.015   4.244  10.072 -0.0461  0.9636  0.3254
  143TCq2    O4 2185   4.634   4.217  10.010 -0.1886 -0.7785 -0.0845
  143TCq2    C9 2186   0.218   4.223  10.528  0.0615 -0.6269  0.1477
  143TCq2    O5 2187   0.334   4.244  10.489 -0.1087  0.3380  0.4970
  143TCq2    O6 2188   0.190   4.208  10.651  0.2785 -0.7298  0.8439
  143TCq2    H2 2189   4.693   4.156  10.591  1.9446  1.6004  0.7746
  143TCq2    H3 2190   0.225   4.262  10.260 -0.6060  1.9204 -1.0104
  143TCq2    H4 2191   4.539   4.146  10.191 -0.4603  0.2467  1.3585
  144MPD2     C 2192   1.760   3.499   1.163  0.5572  0.4834 -0.0382
  144MPD2    C1 2193   1.845   3.419   1.092 -0.1424 -0.5572  0.2830
  144MPD2    C2 2194   1.971   3.402   1.142 -0.4111 -0.1366  0.3412
  144MPD2    C3 2195   2.012   3.463   1.263 -0.3731 -0.1801 -0.7583
  144MPD2    C4 2196   1.916   3.524   1.338 -0.1330  0.3637  0.3331
  144MPD2    C5 2197   1.790   3.548   1.288 -0.8778 -0.7746 -0.1689
  144MPD2     H 2198   2.033   3.337   1.081  1.7343  3.1444 -0.9195
  144MPD2    H1 2199   1.947   3.573   1.430 -0.2782 -0.5429  0.8658
  144MPD2    H2 2200   1.661   3.518   1.123 -0.5820 -1.8543  1.6669
  144MPD2    H3 2201   1.715   3.608   1.339  0.0714 -2.1261  2.8502
  144MPD2     N 2202   2.134   3.439   1.327  0.8449 -0.1133  0.2375
  144MPD2    H5 2203   2.126   3.479   1.420  1.1829 -2.2009  1.1673
  144MPD2    N1 2204   1.822   3.367   0.961  0.0144  0.1679  0.0679
  144MPD2    H7 2205   1.899   3.322   0.911 -2.4263 -3.1573 -0.7118
  145TCq2    C1 2206   2.238   3.368   1.275 -0.1753  0.3148 -0.1276
  145TCq2    O2 2207   2.235   3.298   1.171 -0.0998  0.4012 -1.0026
  145TCq2    C2 2208   2.343   3.369   1.373 -0.2459 -0.4981  0.7038
  145TCq2    C3 2209   2.417   3.257   1.365  1.0269 -0.9899  0.2768
  145TCq2    C4 2210   2.525   3.253   1.457  0.0784 -0.0151  0.1767
  145TCq2    C5 2211   2.534   3.337   1.566 -0.1475 -0.6223 -0.7617
  145TCq2    C6 2212   2.443   3.437   1.568  0.0215 -0.4719 -0.1956
  145TCq2    C7 2213   2.355   3.460   1.468 -0.3035  0.5405 -0.1203
  145TCq2    C8 2214   2.447   3.523   1.686 -0.1235  0.3100 -0.0180
  145TCq2    O4 2215   2.538   3.492   1.763 -0.3164  0.4415 -0.9096
  145TCq2    C9 2216   2.611   3.132   1.455 -0.2388 -0.6000 -0.2216
  145TCq2    O5 2217   2.638   3.085   1.342 -0.0822  0.1113 -0.2589
  145TCq2    O6 2218   2.668   3.094   1.562 -0.3965 -0.3629  0.4342
  145TCq2    H2 2219   2.408   3.174   1.297 -0.4665  1.1724 -2.1481
  145TCq2    H3 2220   2.603   3.321   1.648  0.2991 -0.5644 -1.1273
  145TCq2    H4 2221   2.287   3.543   1.456 -0.8548  0.0897 -0.1280
  146TMC2    C1 2222   3.686   2.164  12.212  1.1179 -0.2510  0.0936
  146TMC2    C2 2223   3.637   2.193  12.087  0.0429 -0.0500  0.1722
  146TMC2    C3 2224   3.690   2.131  11.983 -0.0025 -0.6474  0.2780
  146TMC2    C4 2225   3.786   2.073  12.234  0.1852  0.0719  0.5569
  146TMC2    C5 2226   3.843   2.014  12.121  0.1872 -0.5626  0.3937
  146TMC2    C6 2227   3.797   2.043  11.993  0.0219 -0.8191 -0.4335
  146TMC2     C 2228   3.634   2.249  12.317 -0.6582  0.1970  0.7031
  146TMC2     O 2229   3.614   2.369  12.319 -0.4863  0.1786  0.2267
  146TMC2     H 2230   3.571   2.278  12.082  0.9905  0.7261  1.0009
  146TMC2    H1 2231   3.826   2.073  12.334 -1.5929 -0.6867  1.2566
  146TMC2    H2 2232   3.840   2.002  11.902 -0.6920 -0.7671 -0.7951
  146TMC2    C7 2233   3.954   1.913  12.129  0.0844 -0.0645  0.3665
  146TMC2    C8 2234   3.635   2.170  11.853 -0.7526 -0.3281  0.2094
  146TMC2    O1 2235   3.998   1.878  12.019 -0.0129  0.1320  0.2399
  146TMC2    O2 2236   3.697   2.136  11.751 -0.8911 -0.2395  0.4271
  146TMC2    O5 2237   3.505   2.150  11.876 -0.4519 -0.8265  0.1205
  146TMC2    H5 2238   3.482   2.159  11.971  1.4082 -1.9136  0.6728
  147MPD2     C 2239   4.285   1.627  12.390  0.1369 -0.2763  0.3803
  147MPD2    C1 2240   4.205   1.686  12.483 -0.1255 -0.3602  0.3729
  147MPD2    C2 2241   4.107   1.771  12.437 -0.8063 -0.9254 -0.4304
  147MPD2    C3 2242   4.085   1.788  12.304  0.2101 -0.1873  0.5689
  147MPD2    C4 2243   4.155   1.719  12.211  1.0294  0.6684  0.2054
  147MPD2    C5 2244   4.263   1.636  12.255 -0.8485 -0.0602 -0.2174
  147MPD2     H 2245   4.048   1.829  12.507  1.6294  1.1457 -0.1099
  147MPD2    H1 2246   4.148   1.734  12.104  1.9678  1.8107  0.2984
  147MPD2    H2 2247   4.377   1.580  12.423  0.3606  0.0188  0.1693
  147MPD2    H3 2248   4.329   1.599  12.177 -0.2210  1.9492 -0.6290
  147MPD2     N 2249   3.983   1.879  12.261 -0.3758 -0.8388  0.7668
  147MPD2    H5 2250   3.936   1.931  12.335  0.4861  1.2854 -0.1701
  147MPD2    N1 2251   4.235   1.661  12.619  0.2220 -0.0981 -0.1521
  147MPD2    H7 2252   4.326   1.625  12.646 -0.1292  0.7715  2.1997
  148MPD2     C 2253   3.345   1.154  10.172 -0.2133  0.2213  0.0797
  148MPD2    C1 2254   3.433   1.048  10.155  0.5321 -0.0237 -0.3265
  148MPD2    C2 2255   3.374   0.920  10.144  0.3577 -0.3747  0.1858
  148MPD2    C3 2256   3.245   0.894  10.170 -0.3918  0.0735 -0.2447
  148MPD2    C4 2257   3.161   1.005  10.195  0.3252  0.5152 -0.4461
  148MPD2    C5 2258   3.212   1.129  10.189 -0.1658  0.4958 -0.2328
  148MPD2     H 2259   3.435   0.832  10.128 -1.3343 -1.3686 -0.8436
  148MPD2    H1 2260   3.057   0.996  10.224  0.5544 -1.1722 -0.1801
  148MPD2    H2 2261   3.381   1.255  10.155  0.4552 -0.0325 -0.0009
  148MPD2    H3 2262   3.140   1.207  10.208  0.9724  1.4193  0.2929
  148MPD2     N 2263   3.183   0.767  10.179  0.1613  0.5405  0.2296
  148MPD2    H5 2264   3.082   0.766  10.184  0.2182 -0.0382  1.1594
  148MPD2    N1 2265   3.573   1.060  10.145  0.0766  0.1287  0.3005
  148MPD2    H7 2266   3.626   0.973  10.136  0.8736  0.1898  4.4809
  149TCq2    C1 2267   3.645   1.168  10.181 -0.5480  0.2996 -0.4043
  149TCq2    O2 2268   3.606   1.281  10.208 -0.2470  0.2747 -0.2725
  149TCq2    C2 2269   3.785   1.142  10.212 -0.6972 -1.4330 -0.2715
  149TCq2    C3 2270   3.868   1.247  10.232 -0.6361 -0.1941 -0.0339
  149TCq2    C4 2271   3.996   1.222  10.271  0.7265 -0.1005 -0.0581
  149TCq2    C5 2272   4.036   1.095  10.292  0.0124 -0.1142 -0.0343
  149TCq2    C6 2273   3.957   0.996  10.265 -0.2073  0.2664 -0.1716
  149TCq2    C7 2274   3.827   1.012  10.228 -0.3371 -0.0658 -0.4576
  149TCq2    C8 2275   3.980   0.871  10.346  0.2648  0.0315  0.1115
  149TCq2    O4 2276   3.883   0.807  10.386  0.3003  0.5003  0.4063
  149TCq2    C9 2277   4.056   1.321  10.354  0.0490 -0.5241  0.1233
  149TCq2    O5 2278   4.049   1.439  10.319  0.1134 -0.1702  0.8057
  149TCq2    O6 2279   4.126   1.290  10.457  0.1636  0.4824  0.2538
  149TCq2    H2 2280   3.830   1.347  10.246 -0.3824 -0.0764 -0.1870
  149TCq2    H3 2281   4.138   1.077  10.325  0.7712  1.7269 -1.3598
  149TCq2    H4 2282   3.761   0.926  10.222  2.2507 -1.9892 -1.0424
  150MPD2     C 2283   0.036   0.238  11.904  0.6606 -0.1251  0.6632
  150MPD2    C1 2284   0.079   0.251  11.773 -0.7866 -0.8699 -0.7158
  150MPD2    C2 2285   0.221   0.262  11.746 -0.7251  0.2142  0.1041
  150MPD2    C3 2286   0.314   0.261  11.847  0.1638  0.1201  0.0608
  150MPD2    C4 2287   0.269   0.262  11.981  0.0695  0.4693  0.6516
  150MPD2    C5 2288   0.132   0.245  12.007 -0.2752  0.9465 -0.2799
  150MPD2     H 2289   0.265   0.270  11.648  1.3847  1.7508  1.1590
  150MPD2    H1 2290   0.331   0.281  12.067 -0.8982  0.4163  1.3590
  150MPD2    H2 2291   4.653   0.234  11.931  0.2471  0.9712 -0.7360
  150MPD2    H3 2292   0.091   0.239  12.107 -0.0655 -1.4034 -0.3158
  150MPD2     N 2293   0.447   0.284  11.812 -0.4617  0.6085  0.7853
  150MPD2    H5 2294   0.462   0.302  11.713  0.5824  0.3842  0.9006
  150MPD2    N1 2295   4.702   0.266  11.666 -0.4660 -0.4465  0.8085
  150MPD2    H7 2296   4.608   0.300  11.683 -0.5612  0.1918 -1.0552
  151TCq2    C1 2297   0.551   0.297  11.900 -0.8732  0.1699 -0.2688
  151TCq2    O2 2298   0.552   0.244  12.009  0.2243 -0.5018  0.3501
  151TCq2    C2 2299   0.677   0.356  11.852 -0.0550  0.3646 -0.4339
  151TCq2    C3 2300   0.683   0.430  11.737  0.2681  0.1625 -0.4975
  151TCq2    C4 2301   0.796   0.501  11.711  0.7199  0.6084  0.0642
  151TCq2    C5 2302   0.901   0.503  11.804  0.2024 -0.3705 -0.1746
  151TCq2    C6 2303   0.891   0.431  11.916 -0.0862  0.1167  0.5249
  151TCq2    C7 2304   0.784   0.343  11.931  0.0991  0.1140  0.1596
  151TCq2    C8 2305   1.000   0.422  12.007 -0.0214  0.2944 -0.1950
  151TCq2    O4 2306   1.082   0.515  12.019  0.0939  0.3104 -0.2068
  151TCq2    C9 2307   0.793   0.594  11.604 -0.5858 -0.3842 -0.3390
  151TCq2    O5 2308   0.723   0.569  11.502  0.4235 -0.2707  0.7577
  151TCq2    O6 2309   0.871   0.696  11.607 -0.1518  0.5948 -0.7672
  151TCq2    H2 2310   0.593   0.425  11.676 -0.9577  0.2108  1.3152
  151TCq2    H3 2311   0.986   0.570  11.799  0.0731 -0.3171 -1.5700
  151TCq2    H4 2312   0.775   0.275  12.015  0.7337  0.7168  0.7182
  152MPD2     C 2313   4.674   4.573  12.886 -0.5290 -0.0647  0.2609
  152MPD2    C1 2314   0.009   4.665  12.795  0.1799 -0.7566  0.8127
  152MPD2    C2 2315   4.652   0.028  12.721  0.3091 -0.1501 -0.4283
  152MPD2    C3 2316   4.518   0.015  12.718 -0.2033 -0.0368 -0.4975
  152MPD2    C4 2317   4.459   4.644  12.807 -0.3640 -0.1636 -0.4603
  152MPD2    C5 2318   4.541   4.569  12.888 -1.0861 -0.7096  0.1351
  152MPD2     H 2319   4.704   0.096  12.654 -2.9233  1.6446 -1.1152
  152MPD2    H1 2320   4.352   4.630  12.800 -0.6673  2.1364 -0.6001
  152MPD2    H2 2321   0.001   4.511  12.960  0.8813 -0.4701 -0.9918
  152MPD2    H3 2322   4.498   4.509  12.968  0.3085 -0.2626  1.2392
  152MPD2     N 2323   4.451   0.112  12.638 -0.0600 -0.1445 -0.4345
  152MPD2    H5 2324   4.506   0.186  12.595 -1.0713  0.9272  0.1079
  152MPD2    N1 2325   0.146   4.658  12.792  0.7223  0.0569  0.6932
  152MPD2    H7 2326   0.189   4.608  12.869 -0.7723 -2.5629 -0.1566
  153TCq2    C1 2327   0.223   0.020  12.712  0.7056  0.4222 -1.3443
  153TCq2    O2 2328   0.199   0.091  12.611  0.2295  0.5078  0.0482
  153TCq2    C2 2329   0.353   0.040  12.771 -0.6545  0.4528  0.5934
  153TCq2    C3 2330   0.366   0.013  12.903 -0.7009  0.5304 -0.6078
  153TCq2    C4 2331   0.488   0.026  12.966  0.4861  0.0672  1.4212
  153TCq2    C5 2332   0.592   0.071  12.893  0.7242 -0.5178  0.1489
  153TCq2    C6 2333   0.578   0.102  12.763  0.3848 -0.2579 -0.0854
  153TCq2    C7 2334   0.456   0.096  12.694  0.0497 -1.1406  0.5260
  153TCq2    C8 2335   0.697   0.142  12.684 -0.4815  0.7040 -0.4478
  153TCq2    O4 2336   0.661   0.193  12.577  0.3412  0.4237  0.5989
  153TCq2    C9 2337   0.511   4.699  13.097  0.5713  0.1681  0.3976
  153TCq2    O5 2338   0.622   4.651  13.131  0.2506 -0.0366  0.7707
  153TCq2    O6 2339   0.412   4.689  13.176 -0.0398  0.1774  0.2784
  153TCq2    H2 2340   0.291   4.694  12.970 -1.4278 -0.0076 -1.7406
  153TCq2    H3 2341   0.680   0.095  12.950  0.4522  0.5132  0.1378
  153TCq2    H4 2342   0.454   0.107  12.586  1.5937 -3.4341  0.2815
  154MPD2     C 2343   1.685   4.004   0.653 -0.1770  0.8248 -0.2111
  154MPD2    C1 2344   1.687   4.135   0.690  0.2476  0.4414  0.5076
  154MPD2    C2 2345   1.603   4.217   0.622  0.1222 -0.3067  0.4402
  154MPD2    C3 2346   1.511   4.170   0.535  0.0178  0.1500  0.0411
  154MPD2    C4 2347   1.503   4.031   0.513 -0.2348  0.4104 -0.4083
  154MPD2    C5 2348   1.593   3.946   0.565 -0.2894 -0.1760  0.3207
  154MPD2     H 2349   1.602   4.325   0.630  3.2127 -0.3276  0.9960
  154MPD2    H1 2350   1.414   4.005   0.456 -0.7576  0.5627  0.3330
  154MPD2    H2 2351   1.742   3.939   0.719  1.8636  0.6022 -2.2016
  154MPD2    H3 2352   1.588   3.839   0.551 -0.1991 -0.1626  0.1896
  154MPD2     N 2353   1.417   4.258   0.474 -0.1762 -0.1570  0.0645
  154MPD2    H5 2354   1.405   4.350   0.516 -2.1219 -0.4073  0.0758
  154MPD2    N1 2355   1.768   4.170   0.801 -0.5758  0.2268  0.6204
  154MPD2    H7 2356   1.826   4.104   0.850  1.6603  1.3922 -0.4393
  155TCq2    C1 2357   1.787   4.298   0.844  0.3427  0.1246 -0.6568
  155TCq2    O2 2358   1.736   4.402   0.802  0.3836 -0.3746  0.3656
  155TCq2    C2 2359   1.878   4.302   0.961  0.1618 -0.3989  0.5655
  155TCq2    C3 2360   1.883   4.421   1.037  0.3702 -0.1909  0.1649
  155TCq2    C4 2361   1.980   4.424   1.133 -0.2861 -0.4384  0.0285
  155TCq2    C5 2362   2.074   4.330   1.149  0.5284  1.3174  0.4575
  155TCq2    C6 2363   2.076   4.220   1.070  0.2707  0.0789  0.4182
  155TCq2    C7 2364   1.977   4.206   0.972  0.9921  0.0902  0.5279
  155TCq2    C8 2365   2.191   4.121   1.060 -0.5733  0.3775  0.7848
  155TCq2    O4 2366   2.178   4.030   0.978  0.1865 -0.3676  0.5292
  155TCq2    C9 2367   2.000   4.541   1.213  0.0051  0.3527 -0.1645
  155TCq2    O5 2368   2.062   4.535   1.325 -0.5006 -0.2631 -0.3721
  155TCq2    O6 2369   1.989   4.646   1.148 -0.2207  0.2486 -0.0773
  155TCq2    H2 2370   1.808   4.498   1.028  1.4117  0.6145 -1.7834
  155TCq2    H3 2371   2.146   4.328   1.230  0.1651 -0.1564  0.7497
  155TCq2    H4 2372   1.982   4.114   0.915  1.2153  0.2099  0.3514
  156MPD2     C 2373   0.084   2.515  12.175 -0.5399  0.2112  0.3043
  156MPD2    C1 2374   0.102   2.595  12.065 -0.4716  0.2839 -0.0172
  156MPD2    C2 2375   0.184   2.701  12.078 -0.3338 -0.8642 -0.4601
  156MPD2    C3 2376   0.258   2.712  12.197 -0.5555 -0.5155  0.2634
  156MPD2    C4 2377   0.238   2.636  12.309 -0.1162 -0.2194 -1.0513
  156MPD2    C5 2378   0.148   2.536  12.299  0.3770  0.1239 -0.0137
  156MPD2     H 2379   0.206   2.769  11.996 -0.0839  0.5806  0.8037
  156MPD2    H1 2380   0.297   2.640  12.400 -0.7303  0.6195 -0.6890
  156MPD2    H2 2381   0.037   2.417  12.180  0.6734 -0.4115 -0.2607
  156MPD2    H3 2382   0.151   2.470  12.385 -3.1260  1.6116  1.2821
  156MPD2     N 2383   0.351   2.818  12.189  0.3209  0.4721 -0.1127
  156MPD2    H5 2384   0.369   2.860  12.099 -1.4702  1.5012  0.0063
  156MPD2    N1 2385   0.045   2.556  11.941 -0.3649  0.1161  0.5855
  156MPD2    H7 2386   4.694   2.487  11.959 -1.9871  1.4862 -0.6511
  157TCq2    C1 2387   0.075   2.600  11.819  0.6491 -0.0483  0.5142
  157TCq2    O2 2388   0.151   2.691  11.789  0.3091 -0.0023 -0.0253
  157TCq2    C2 2389   0.008   2.536  11.712  0.1135  0.8034  0.2400
  157TCq2    C3 2390   0.018   2.399  11.694  0.8086 -0.2189 -0.3528
  157TCq2    C4 2391   0.004   2.349  11.560 -0.0022 -0.6043 -0.2561
  157TCq2    C5 2392   4.705   2.430  11.451  0.1046 -0.4240 -0.9233
  157TCq2    C6 2393   4.696   2.563  11.472  0.1581  0.8952  0.2005
  157TCq2    C7 2394   4.708   2.615  11.601  0.0502 -0.3960  0.3656
  157TCq2    C8 2395   4.684   2.661  11.376 -0.5925 -0.2022 -0.2289
  157TCq2    O4 2396   0.042   2.756  11.383  0.0242 -0.0820 -0.1072
  157TCq2    C9 2397   0.020   2.205  11.533 -0.4712  0.6189  0.1275
  157TCq2    O5 2398   0.034   2.130  11.633  0.6832 -0.0020 -0.2134
  157TCq2    O6 2399   0.047   2.171  11.416  0.5034 -0.1203  0.5129
  157TCq2    H2 2400   0.040   2.332  11.777  1.0237  2.5053  1.7875
  157TCq2    H3 2401   4.699   2.395  11.349  1.3691 -2.1087 -0.4315
  157TCq2    H4 2402   4.685   2.717  11.628  1.5079 -0.3125  1.2837
  158TMC2    C1 2403   1.071   0.930  14.164 -0.6606  0.4839 -0.5378
  158TMC2    C2 2404   1.150   1.032  14.109 -0.0366 -0.4602  0.2229
  158TMC2    C3 2405   1.098   1.086  13.995  0.5263 -0.7126 -0.8248
  158TMC2    C4 2406   0.953   0.885  14.111  0.0429  0.4617  0.0718
  158TMC2    C5 2407   0.905   0.952  14.005 -0.1525  0.4202 -0.7844
  158TMC2    C6 2408   0.975   1.047  13.946  0.7296 -0.5369 -0.3913
  158TMC2     C 2409   1.104   0.915  14.309  0.5855  0.4889  0.1947
  158TMC2     O 2410   1.171   1.005  14.361  0.3680  0.1033 -0.4311
  158TMC2     H 2411   1.241   1.075  14.149 -0.2896 -2.3060  2.7785
  158TMC2    H1 2412   0.889   0.817  14.166 -1.3724 -0.1575 -2.3577
  158TMC2    H2 2413   0.941   1.088  13.851 -1.7596 -1.2137  0.2031
  158TMC2    C7 2414   0.769   0.952  13.967 -0.6097  0.9913 -0.0443
  158TMC2    C8 2415   1.159   1.204  13.942 -0.5316 -0.1203 -0.3708
  158TMC2    O1 2416   0.721   1.059  13.917 -0.0518 -0.1331 -0.1760
  158TMC2    O2 2417   1.098   1.303  13.899 -0.3982  0.0146 -0.1081
  158TMC2    O5 2418   1.293   1.184  13.948 -0.9256  0.1642 -0.0970
  158TMC2    H5 2419   1.317   1.089  13.953  0.5542  0.4893 -1.2240
  159MPD2     C 2420   1.210   0.655  14.730 -1.0076 -0.5785 -0.1080
  159MPD2    C1 2421   1.117   0.583  14.656  0.2788 -0.3953 -1.0636
  159MPD2    C2 2422   1.072   0.632  14.535 -0.1994  0.0631 -0.2294
  159MPD2    C3 2423   1.116   0.752  14.483  0.0396 -0.0839 -0.7671
  159MPD2    C4 2424   1.214   0.819  14.558 -0.1913  0.0077 -0.6186
  159MPD2    C5 2425   1.261   0.767  14.677  0.1477  0.2017 -0.5715
  159MPD2     H 2426   0.997   0.575  14.481 -2.6055  1.9979  1.0946
  159MPD2    H1 2427   1.263   0.913  14.533  0.7909 -0.5967 -0.9655
  159MPD2    H2 2428   1.255   0.641  14.827 -0.7392  1.7033  0.0990
  159MPD2    H3 2429   1.337   0.823  14.731  0.3579  0.2162 -0.8836
  159MPD2     N 2430   1.076   0.797  14.359  0.6834 -0.3085 -0.1850
  159MPD2    H5 2431   1.015   0.744  14.297 -1.7623  1.9671  0.2770
  159MPD2    N1 2432   1.066   0.469  14.730  0.1553  0.0929  0.4360
  159MPD2    H7 2433   1.104   0.460  14.823 -0.2466  0.6023  0.6508
  160TMC2    C1 2434   0.024   3.920   2.088  0.1364 -1.2827  0.1242
  160TMC2    C2 2435   4.652   3.851   2.003  0.8124  0.1576  0.0351
  160TMC2    C3 2436   4.710   3.791   1.890 -0.0920  0.3732 -0.1185
  160TMC2    C4 2437   0.155   3.927   2.065  0.2519  0.6221  0.5489
  160TMC2    C5 2438   0.206   3.858   1.965  0.1481  0.6806  0.3479
  160TMC2    C6 2439   0.122   3.789   1.882  0.7443  0.3748  0.9396
  160TMC2     C 2440   4.692   4.011   2.186 -0.6433 -0.0212 -0.7951
  160TMC2     O 2441   0.033   4.023   2.290  0.2547 -0.3274 -0.0369
  160TMC2     H 2442   4.553   3.820   2.033  1.1263 -1.2700 -0.3975
  160TMC2    H1 2443   0.223   3.972   2.136  0.6477 -0.0102  0.5758
  160TMC2    H2 2444   0.173   3.732   1.806 -1.5929 -0.6108  0.1034
  160TMC2    C7 2445   0.322   3.908   1.889  0.4547 -0.5145  0.3513
  160TMC2    C8 2446   4.637   3.721   1.787  0.1511 -0.9849 -0.8907
  160TMC2    O1 2447   0.331   4.033   1.892  0.0084 -0.1447  0.4123
  160TMC2    O2 2448   4.693   3.639   1.715 -0.6379  0.2055 -0.3166
  160TMC2    O5 2449   4.508   3.758   1.804  0.9906  0.0998 -0.1506
  160TMC2    H5 2450   4.491   3.847   1.842  3.3182  0.1548  0.7454
  161MPD2     C 2451   4.538   4.217   2.347  0.4555  0.1377 -0.5112
  161MPD2    C1 2452   4.486   4.149   2.235 -0.2181  0.1815  0.2434
  161MPD2    C2 2453   4.367   4.194   2.181  0.5371  0.5653  0.4884
  161MPD2    C3 2454   4.294   4.302   2.233 -0.3109  0.1724 -0.2321
  161MPD2    C4 2455   4.348   4.363   2.346  0.2446 -0.2635  0.0517
  161MPD2    C5 2456   4.474   4.328   2.395 -0.5408 -0.1601  0.7169
  161MPD2     H 2457   4.331   4.151   2.089 -1.2951  0.5600  1.1973
  161MPD2    H1 2458   4.306   4.451   2.393  3.3393  1.1872  0.0965
  161MPD2    H2 2459   4.633   4.189   2.391 -0.5056 -2.4522 -0.0563
  161MPD2    H3 2460   4.527   4.391   2.466 -3.3135  1.6841  1.1391
  161MPD2     N 2461   4.172   4.358   2.185  0.1498  0.1908 -0.3372
  161MPD2    H5 2462   4.134   4.437   2.235 -0.2623  0.8092 -1.6233
  161MPD2    N1 2463   4.555   4.050   2.166 -0.6532  0.2181  0.2456
  161MPD2    H7 2464   4.518   4.006   2.082  0.7233  0.2372 -0.3762
  162TMC2    C1 2465   3.042   1.606   1.063  0.7450  0.3792 -0.3345
  162TMC2    C2 2466   3.024   1.731   1.013  0.0884  0.3329 -0.6913
  162TMC2    C3 2467   2.925   1.804   1.071  0.0777  0.5778  1.0025
  162TMC2    C4 2468   2.967   1.554   1.168 -0.5158 -0.4197 -0.0626
  162TMC2    C5 2469   2.878   1.647   1.230 -0.3609 -0.1501 -0.0473
  162TMC2    C6 2470   2.849   1.770   1.175 -0.0492 -0.7166  0.1700
  162TMC2     C 2471   3.141   1.514   1.008  0.0190  0.0920  0.0791
  162TMC2     O 2472   3.129   1.397   1.034 -0.3615 -0.6730  0.3775
  162TMC2     H 2473   3.083   1.767   0.930 -1.0456  0.3896 -1.4813
  162TMC2    H1 2474   2.985   1.452   1.200 -3.4223 -0.6834  0.7183
  162TMC2    H2 2475   2.782   1.838   1.226 -1.0256  0.6993 -2.9520
  162TMC2    C7 2476   2.792   1.601   1.333 -0.6961 -1.3748 -0.6655
  162TMC2    C8 2477   2.913   1.937   1.012 -0.2817  0.1450  0.3856
  162TMC2    O1 2478   2.685   1.655   1.346 -0.1918  0.1719 -0.0390
  162TMC2    O2 2479   3.013   1.998   0.982 -0.2207 -0.6778 -0.2819
  162TMC2    O5 2480   2.802   1.931   0.934  0.1047 -0.3772 -0.0160
  162TMC2    H5 2481   2.755   1.846   0.949 -0.3103 -0.4000 -1.4810
  163MPD2     C 2482   3.536   1.410   0.688  0.2561 -0.5742  0.3780
  163MPD2    C1 2483   3.455   1.327   0.763  0.8540 -0.4192  0.1463
  163MPD2    C2 2484   3.348   1.386   0.840 -0.3950 -0.2489  0.1027
  163MPD2    C3 2485   3.337   1.525   0.852  0.6527  0.5215  0.5077
  163MPD2    C4 2486   3.418   1.602   0.777  0.4232 -0.2547  0.3389
  163MPD2    C5 2487   3.513   1.546   0.691  0.0590 -0.7192  0.0711
  163MPD2     H 2488   3.276   1.324   0.892 -0.4604  0.7404  1.2011
  163MPD2    H1 2489   3.412   1.710   0.784  2.5852 -0.0299 -1.6207
  163MPD2    H2 2490   3.620   1.368   0.635  0.9413 -1.2526  1.9883
  163MPD2    H3 2491   3.574   1.622   0.643  2.9239 -2.0240  1.6205
  163MPD2     N 2492   3.240   1.582   0.937 -0.0428  0.0957 -0.4283
  163MPD2    H5 2493   3.239   1.683   0.947 -1.0234  0.0526 -0.0999
  163MPD2    N1 2494   3.488   1.194   0.762  0.8739  0.0492  0.6675
  163MPD2    H7 2495   3.560   1.167   0.696  0.4501 -1.9319  1.0201
  164TCq2    C1 2496   4.084   0.988  10.661 -0.0219  0.7639  0.2393
  164TCq2    O2 2497   4.067   0.877  10.705 -0.4446  0.3348 -0.4420
  164TCq2    C2 2498   3.976   1.084  10.685 -0.0057 -0.8008 -0.1966
  164TCq2    C3 2499   4.007   1.196  10.758 -0.0623  0.1007  0.0740
  164TCq2    C4 2500   3.908   1.265  10.821 -0.2619  0.1159  0.1740
  164TCq2    C5 2501   3.779   1.224  10.829 -0.1290  0.1855 -0.5119
  164TCq2    C6 2502   3.752   1.107  10.762  0.0418  0.3910  0.5064
  164TCq2    C7 2503   3.844   1.040  10.690  0.2226  0.5919 -0.2320
  164TCq2    C8 2504   3.642   1.029  10.809 -0.8826  0.1315  0.8163
  164TCq2    O4 2505   3.595   0.944  10.738  0.1557  0.8483 -0.0892
  164TCq2    C9 2506   3.951   1.370  10.902  0.6371 -0.1859  0.3406
  164TCq2    O5 2507   3.875   1.422  10.988  0.2362  0.2642 -0.1004
  164TCq2    O6 2508   4.073   1.399  10.891  0.4620  0.4039 -0.4667
  164TCq2    H2 2509   4.108   1.228  10.780 -0.3209  0.4457  0.7752
  164TCq2    H3 2510   3.705   1.282  10.883  1.9797  0.2431  2.3055
  164TCq2    H4 2511   3.829   0.944  10.641 -2.3464  1.6409 -1.4843
  165MPD2     C 2512   4.657   2.363   1.289 -0.1372  0.4515  0.5472
  165MPD2    C1 2513   4.532   2.401   1.271  0.0669 -0.8992 -0.2410
  165MPD2    C2 2514   4.498   2.528   1.217  0.1442  0.1069  0.0867
  165MPD2    C3 2515   4.603   2.614   1.194  0.3582  0.1490  0.3789
  165MPD2    C4 2516   0.012   2.572   1.221 -0.0185 -0.7110 -0.3312
  165MPD2    C5 2517   0.031   2.454   1.277  0.1686  0.0758  0.4356
  165MPD2     H 2518   4.398   2.566   1.202  0.5362  0.7383 -0.9490
  165MPD2    H1 2519   0.097   2.637   1.205  0.4661 -0.5845  2.8974
  165MPD2    H2 2520   4.676   2.261   1.319  0.0700  0.4066  0.2632
  165MPD2    H3 2521   0.131   2.426   1.310 -0.3263 -1.0746  0.9562
  165MPD2     N 2522   4.590   2.737   1.135 -0.4984 -0.1517  0.1340
  165MPD2    H5 2523   4.680   2.782   1.117  0.5609 -1.8084  1.2483
  165MPD2    N1 2524   4.428   2.302   1.290  0.0388 -0.3283 -0.1707
  165MPD2    H7 2525   4.458   2.215   1.333  0.7574  0.1608  0.3148
  166TCq2    C1 2526   4.478   2.810   1.134 -0.1894  0.5656 -0.5554
  166TCq2    O2 2527   4.358   2.787   1.158 -0.1837 -0.2570 -0.0269
  166TCq2    C2 2528   4.523   2.951   1.128  0.5905 -0.9691  0.1531
  166TCq2    C3 2529   4.423   3.043   1.147  0.5731  0.9333  0.5673
  166TCq2    C4 2530   4.458   3.170   1.195  0.5300  0.6121 -0.1921
  166TCq2    C5 2531   4.579   3.204   1.246 -0.2340  0.4360 -0.0386
  166TCq2    C6 2532   4.676   3.104   1.242 -0.8594 -0.3924  0.2453
  166TCq2    C7 2533   4.653   2.981   1.176 -0.3727  0.0613  0.2784
  166TCq2    C8 2534   0.090   3.142   1.289 -0.2372 -0.0664  0.2749
  166TCq2    O4 2535   0.182   3.060   1.273  0.2911  0.5674  0.2277
  166TCq2    C9 2536   4.349   3.266   1.198 -0.0577 -0.5179  0.0706
  166TCq2    O5 2537   4.374   3.376   1.252 -0.4617 -1.0884 -0.0819
  166TCq2    O6 2538   4.243   3.228   1.144 -0.4617  0.3383 -0.0226
  166TCq2    H2 2539   4.325   3.005   1.123 -0.5315  3.1844  1.4995
  166TCq2    H3 2540   4.596   3.309   1.264 -1.0230  0.8268 -1.5634
  166TCq2    H4 2541   0.016   2.913   1.179 -0.8892 -0.6151 -0.7572
  167TMC2    C1 2542   3.533   0.718  12.972 -0.5544 -0.0820  0.3225
  167TMC2    C2 2543   3.490   0.772  13.088  0.9736 -0.1515  0.9327
  167TMC2    C3 2544   3.413   0.696  13.171 -0.2611 -0.3513  0.2460
  167TMC2    C4 2545   3.504   0.590  12.932 -0.0635  0.8508 -0.0580
  167TMC2    C5 2546   3.423   0.518  13.019  0.3767  0.2938 -0.0005
  167TMC2    C6 2547   3.369   0.567  13.136  0.3562  0.4671 -0.1108
  167TMC2     C 2548   3.590   0.814  12.874  0.2081 -0.4805  0.1423
  167TMC2     O 2549   3.632   0.920  12.922  0.0823  0.0710 -0.4183
  167TMC2     H 2550   3.501   0.879  13.104 -4.3138  0.7342 -1.0681
  167TMC2    H1 2551   3.550   0.547  12.843 -1.1134 -1.5627  0.5901
  167TMC2    H2 2552   3.298   0.507  13.191 -1.0131  0.7387 -1.5642
  167TMC2    C7 2553   3.428   0.376  13.022  0.6524 -0.0957  0.4021
  167TMC2    C8 2554   3.332   0.752  13.273  0.0113  0.0124 -0.1514
  167TMC2    O1 2555   3.390   0.319  13.124 -0.2983  0.3620  0.5145
  167TMC2    O2 2556   3.247   0.690  13.337 -0.2392 -0.0458 -0.1854
  167TMC2    O5 2557   3.407   0.846  13.330  0.5851 -0.5153  0.1169
  167TMC2    H5 2558   3.491   0.859  13.281  0.7403  0.9471  0.7558
  168MPD2     C 2559   3.731   0.966  12.661  0.5030  0.7225  0.4371
  168MPD2    C1 2560   3.664   0.844  12.640  0.1093 -0.7722 -0.5615
  168MPD2    C2 2561   3.649   0.789  12.517 -0.1727 -0.8545 -0.3255
  168MPD2    C3 2562   3.698   0.860  12.407  0.2604 -0.1013  0.6872
  168MPD2    C4 2563   3.764   0.979  12.433  0.2344  0.1753  0.6903
  168MPD2    C5 2564   3.785   1.029  12.556 -0.2161 -0.7182 -0.0560
  168MPD2     H 2565   3.605   0.692  12.498  1.2266 -1.8905  1.7930
  168MPD2    H1 2566   3.796   1.046  12.354 -0.0966  1.1196  1.3552
  168MPD2    H2 2567   3.741   1.013  12.758 -1.6218  0.6512  0.6755
  168MPD2    H3 2568   3.846   1.118  12.561 -1.9268  0.4539 -0.2179
  168MPD2     N 2569   3.671   0.826  12.273  0.1273  0.0037 -0.3947
  168MPD2    H5 2570   3.691   0.893  12.199 -1.8101 -0.5659 -1.4164
  168MPD2    N1 2571   3.600   0.772  12.745 -0.1934 -0.1659  0.4906
  168MPD2    H7 2572   3.548   0.690  12.716 -0.2178 -0.0487  0.1987
  169MPD1     C 2573   1.798   3.900   9.123  0.8674  0.5629  0.3934
  169MPD1    C1 2574   1.689   3.914   9.039  0.6467 -0.0313 -0.3431
  169MPD1    C2 2575   1.625   4.039   9.025 -0.0697 -0.1822 -0.1815
  169MPD1    C3 2576   1.662   4.147   9.114  0.3837  0.4740 -0.2331
  169MPD1    C4 2577   1.763   4.129   9.201 -0.2009 -0.8147 -0.0262
  169MPD1    C5 2578   1.830   4.008   9.202  0.4015 -0.4773  0.3531
  169MPD1     H 2579   1.539   4.053   8.961  1.8878  4.1768 -1.8834
  169MPD1    H1 2580   1.804   4.193   9.279 -0.1380 -0.1746 -0.5769
  169MPD1    H2 2581   1.861   3.812   9.137 -1.5920 -1.3757 -0.6510
  169MPD1    H3 2582   1.915   4.009   9.270  1.4169 -0.4243 -0.9147
  169MPD1     N 2583   1.609   4.278   9.095  0.3887  0.3363  0.1675
  169MPD1    H5 2584   1.544   4.289   9.018 -0.7862  1.2788  1.2639
  169MPD1    N1 2585   1.650   3.799   8.955 -0.3975 -0.5182  0.3445
  169MPD1    H6 2586   1.666   3.708   8.997 -0.0239 -0.4299  0.3885
  169MPD1    H7 2587   1.553   3.814   8.927 -0.7909 -1.0015  1.4507
  170MPD1     C 2588   4.105   2.668  12.994 -0.2366  0.2850  0.0478
  170MPD1    C1 2589   4.137   2.802  13.016  0.8653 -0.1459  0.6008
  170MPD1    C2 2590   4.121   2.859  13.143 -0.3068  1.0546 -0.5150
  170MPD1    C3 2591   4.090   2.776  13.256 -0.2735 -0.1660 -0.1524
  170MPD1    C4 2592   4.085   2.638  13.231  0.3780  0.0678  0.1231
  170MPD1    C5 2593   4.088   2.590  13.102  0.3110  0.1095  0.1815
  170MPD1     H 2594   4.122   2.966  13.156 -1.9840  0.5991  3.3850
  170MPD1    H1 2595   4.055   2.567  13.307  0.5931  0.3842  0.5024
  170MPD1    H2 2596   4.114   2.609  12.904 -0.1852 -1.1065  0.9652
  170MPD1    H3 2597   4.066   2.487  13.080 -0.9129  0.6077 -0.9005
  170MPD1     N 2598   4.068   2.838  13.379  0.1796 -0.0627  0.3300
  170MPD1    H5 2599   4.080   2.938  13.371 -1.1425  0.0155 -0.5819
  170MPD1    N1 2600   4.172   2.879  12.909 -0.1882  0.7434 -0.5417
  170MPD1    H6 2601   4.213   2.965  12.945  2.3777 -1.7704  2.5394
  170MPD1    H7 2602   4.240   2.836  12.848  0.7544 -0.0030  1.0305
  171MPD1     C 2603   3.309   4.122  15.814 -0.6315 -0.0482  0.5991
  171MPD1    C1 2604   3.197   4.052  15.776 -0.0109  1.1196 -0.2689
  171MPD1    C2 2605   3.172   3.940  15.853 -0.4742  0.5065 -0.2038
  171MPD1    C3 2606   3.257   3.891  15.947  0.4877 -0.8870  0.1405
  171MPD1    C4 2607   3.373   3.961  15.976  0.5001  0.1519  0.2560
  171MPD1    C5 2608   3.401   4.070  15.907  0.3490 -0.4078  0.2909
  171MPD1     H 2609   3.079   3.888  15.831 -0.6569  1.7026 -2.2348
  171MPD1    H1 2610   3.446   3.929  16.051 -0.1571  1.8508  1.6250
  171MPD1    H2 2611   3.347   4.215  15.774  0.9967 -1.3401 -0.8735
  171MPD1    H3 2612   3.488   4.131  15.928 -0.0675  0.7757 -1.3513
  171MPD1     N 2613   3.228   3.774  16.015 -0.9514  0.2913  0.9323
  171MPD1    H5 2614   3.295   3.759  16.089  2.3507  2.3289 -1.6450
  171MPD1    N1 2615   3.104   4.103  15.681 -0.1459  0.4289  0.2533
  171MPD1    H6 2616   3.053   4.034  15.626  0.7563 -0.3365  0.3781
  171MPD1    H7 2617   3.157   4.154  15.611 -1.2640 -1.3104 -1.8405
  172MPD1     C 2618   1.942   2.572   0.398 -0.4100  0.4039  0.1340
  172MPD1    C1 2619   2.029   2.622   0.311  0.7545 -0.4447 -0.9310
  172MPD1    C2 2620   2.114   2.730   0.352  0.2146 -0.0394 -0.2621
  172MPD1    C3 2621   2.109   2.785   0.479 -0.3972  0.4401 -0.4352
  172MPD1    C4 2622   2.041   2.704   0.571  0.0415 -0.4690  0.6398
  172MPD1    C5 2623   1.967   2.595   0.532 -0.2903 -0.2903  0.1556
  172MPD1     H 2624   2.176   2.784   0.281  0.9810 -0.2259  0.2644
  172MPD1    H1 2625   2.048   2.731   0.675  2.7430 -0.4939  0.4660
  172MPD1    H2 2626   1.874   2.491   0.373 -1.0653  1.7778 -2.4840
  172MPD1    H3 2627   1.923   2.538   0.613  0.3334  0.3500  0.9403
  172MPD1     N 2628   2.180   2.896   0.537  0.1309 -0.2520  0.4371
  172MPD1    H5 2629   2.164   2.917   0.635  1.7539 -1.4793  0.9654
  172MPD1    N1 2630   2.007   2.606   0.177  0.0719  0.3082  0.2587
  172MPD1    H6 2631   1.927   2.661   0.148 -1.7580 -2.7702 -0.5774
  172MPD1    H7 2632   2.087   2.620   0.116  0.2209  1.3455  0.6978
  173MPD1     C 2633   3.237   3.367  14.774  0.0471  0.3798 -0.7295
  173MPD1    C1 2634   3.267   3.254  14.708  0.2763 -0.1995  0.4109
  173MPD1    C2 2635   3.266   3.135  14.779  1.1436 -0.4614  0.2923
  173MPD1    C3 2636   3.241   3.134  14.913 -0.6374  0.5775 -0.2505
  173MPD1    C4 2637   3.201   3.249  14.976 -0.1264 -0.9012  0.3987
  173MPD1    C5 2638   3.192   3.366  14.900  0.4083  0.0908  0.2416
  173MPD1     H 2639   3.296   3.045  14.727  1.9267 -0.4619  0.7405
  173MPD1    H1 2640   3.178   3.254  15.081 -0.4866 -1.1716  0.3328
  173MPD1    H2 2641   3.235   3.462  14.721  0.5811  1.8257  1.8195
  173MPD1    H3 2642   3.163   3.462  14.940 -0.7448 -0.5501  0.9558
  173MPD1     N 2643   3.247   3.006  14.973  0.4411  0.1134  0.0025
  173MPD1    H5 2644   3.276   2.929  14.913  0.8308 -1.9008  2.7982
  173MPD1    N1 2645   3.293   3.251  14.574 -0.4672 -0.4800  0.5929
  173MPD1    H6 2646   3.322   3.153  14.568  1.7091  0.0946  1.9935
  173MPD1    H7 2647   3.209   3.264  14.518  0.4526  2.8318 -0.0122
  174MPD1     C 2648   3.918   2.635  14.720  0.4531  0.2993  0.7446
  174MPD1    C1 2649   3.924   2.571  14.838  0.2173  0.0258  0.4042
  174MPD1    C2 2650   3.811   2.586  14.925  0.3927 -1.0362  0.0288
  174MPD1    C3 2651   3.688   2.649  14.877  0.0987 -0.1370  0.4594
  174MPD1    C4 2652   3.693   2.705  14.748 -0.5610 -0.1487  0.1450
  174MPD1    C5 2653   3.810   2.703  14.675  0.4594 -0.2272 -0.4676
  174MPD1     H 2654   3.812   2.548  15.027 -0.1336  1.2353  0.8738
  174MPD1    H1 2655   3.615   2.761  14.697 -0.9788  1.4451  2.5731
  174MPD1    H2 2656   4.003   2.628  14.653  1.5303  2.5617  1.8669
  174MPD1    H3 2657   3.818   2.735  14.572  0.7271 -0.3026 -0.4711
  174MPD1     N 2658   3.562   2.670  14.941 -0.0714 -0.7473 -0.0975
  174MPD1    H5 2659   3.501   2.728  14.886 -0.3605 -0.3664  0.6242
  174MPD1    N1 2660   4.053   2.531  14.893 -0.2507 -1.5346  0.3353
  174MPD1    H6 2661   4.119   2.503  14.821  0.2559 -0.1486  0.2503
  174MPD1    H7 2662   4.032   2.455  14.957 -1.8983 -1.3786 -0.0138
  175MPD1     C 2663   1.557   3.073  16.723 -0.0167 -0.2185 -0.0915
  175MPD1    C1 2664   1.451   3.163  16.716 -0.4276 -0.1622  0.0022
  175MPD1    C2 2665   1.482   3.290  16.761 -0.5841 -0.1681 -0.5936
  175MPD1    C3 2666   1.599   3.323  16.825 -0.7521  0.8937 -0.6643
  175MPD1    C4 2667   1.705   3.234  16.815  0.5021 -0.0826 -0.7881
  175MPD1    C5 2668   1.677   3.113  16.773 -0.4039 -1.0097 -0.2372
  175MPD1     H 2669   1.407   3.366  16.742 -0.2407  0.2808 -0.1462
  175MPD1    H1 2670   1.801   3.253  16.862  0.4413 -0.3231 -0.5684
  175MPD1    H2 2671   1.554   2.968  16.696  4.2960  0.0827 -1.8120
  175MPD1    H3 2672   1.764   3.048  16.775  0.0482 -0.4945 -4.1296
  175MPD1     N 2673   1.637   3.451  16.870  0.1342 -0.6029 -0.8920
  175MPD1    H5 2674   1.734   3.457  16.900  0.6433  0.9669 -2.8547
  175MPD1    N1 2675   1.334   3.143  16.642  0.6562  0.0480 -0.2948
  175MPD1    H6 2676   1.340   3.175  16.546 -1.3943 -0.5638 -0.6438
  175MPD1    H7 2677   1.266   3.205  16.685  0.2876 -0.2016 -0.5175
  176MPD1     C 2678   3.561   0.917  16.969 -0.4469  0.3457  0.2354
  176MPD1    C1 2679   3.480   1.028  16.934  0.8893 -0.2845 -0.0206
  176MPD1    C2 2680   3.411   1.083  17.039 -0.0605 -0.3912 -0.2931
  176MPD1    C3 2681   3.422   1.031  17.170  0.1224  0.3510  0.4846
  176MPD1    C4 2682   3.517   0.933  17.199 -0.1638 -0.1951  0.3383
  176MPD1    C5 2683   3.587   0.878  17.097  0.9835  0.7210  0.4653
  176MPD1     H 2684   3.338   1.158  17.011  0.8837  0.3988 -0.5924
  176MPD1    H1 2685   3.523   0.902  17.303  2.4831  1.7121  0.7684
  176MPD1    H2 2686   3.617   0.868  16.890  0.9614  2.6629 -0.2123
  176MPD1    H3 2687   3.660   0.799  17.108 -0.4435 -0.7116 -0.3201
  176MPD1     N 2688   3.346   1.097  17.263  0.2707  0.1189  0.0698
  176MPD1    H5 2689   3.270   1.152  17.224  0.1369 -0.7245 -0.8479
  176MPD1    N1 2690   3.464   1.056  16.803  0.3636 -0.2074  0.4300
  176MPD1    H6 2691   3.543   1.023  16.747  0.2797 -1.6034  1.1268
  176MPD1    H7 2692   3.465   1.155  16.780  1.4359 -0.1312  0.7964
  177MPD1     C 2693   1.843   0.967  10.126  0.4829  0.0276 -0.2414
  177MPD1    C1 2694   1.767   0.898  10.038 -0.3323 -0.5018  0.3663
  177MPD1    C2 2695   1.696   0.977   9.945 -0.1733 -0.7518  0.7750
  177MPD1    C3 2696   1.691   1.116   9.943  0.5205  0.3129  0.4110
  177MPD1    C4 2697   1.760   1.185  10.045  0.1272 -0.0241 -0.5926
  177MPD1    C5 2698   1.832   1.108  10.126  0.3562 -0.2992  0.1355
  177MPD1     H 2699   1.639   0.926   9.869  0.3814  1.3248 -1.0262
  177MPD1    H1 2700   1.765   1.294  10.049 -0.5651 -0.0429  0.6496
  177MPD1    H2 2701   1.917   0.915  10.184 -0.1652 -1.1075 -0.4258
  177MPD1    H3 2702   1.895   1.159  10.198  0.8835 -2.3396  1.1415
  177MPD1     N 2703   1.602   1.175   9.843 -0.1112  0.3067 -0.2118
  177MPD1    H5 2704   1.546   1.121   9.777  0.8215 -0.5048 -0.3477
  177MPD1    N1 2705   1.780   0.762  10.035 -0.0057  0.1213  0.1038
  177MPD1    H6 2706   1.691   0.730   9.996  0.6948  0.4097 -1.7666
  177MPD1    H7 2707   1.789   0.735  10.132  0.5320 -2.9350 -0.8088
  178MPD1     C 2708   3.415   1.902   0.643  0.9020  0.6699  0.5304
  178MPD1    C1 2709   3.544   1.936   0.666  0.4659  0.0800 -0.4393
  178MPD1    C2 2710   3.639   1.923   0.569  0.2132 -0.4766 -0.2960
  178MPD1    C3 2711   3.610   1.848   0.455 -0.4568  0.9807  0.0859
  178MPD1    C4 2712   3.480   1.809   0.431 -0.0272  0.2230  0.2459
  178MPD1    C5 2713   3.381   1.841   0.526  0.1738 -0.0727  0.0912
  178MPD1     H 2714   3.742   1.953   0.583 -0.2905  1.2292 -0.2211
  178MPD1    H1 2715   3.445   1.748   0.349 -2.0083  1.0092  0.5080
  178MPD1    H2 2716   3.333   1.922   0.711 -1.1080 -0.6960 -1.4918
  178MPD1    H3 2717   3.283   1.802   0.501  0.9691 -3.9825  3.0449
  178MPD1     N 2718   3.707   1.788   0.370  0.4509  0.5232 -0.2036
  178MPD1    H5 2719   3.669   1.713   0.313  1.1043 -0.9389  1.2957
  178MPD1    N1 2720   3.575   2.014   0.785  0.3539 -0.1229  0.2673
  178MPD1    H6 2721   3.517   1.993   0.865  1.7802  0.6142  1.5051
  178MPD1    H7 2722   3.673   2.011   0.815  0.4137 -1.3806 -0.0615
  179MPD1     C 2723   3.775   0.529  16.357  0.0382 -0.0079 -1.1102
  179MPD1    C1 2724   3.905   0.487  16.374  0.3417  0.0487 -0.1391
  179MPD1    C2 2725   3.932   0.354  16.363 -0.7142 -0.5330  0.3119
  179MPD1    C3 2726   3.831   0.266  16.326 -0.2862 -0.1536 -0.3247
  179MPD1    C4 2727   3.705   0.309  16.297  0.6269 -0.2452  0.2146
  179MPD1    C5 2728   3.682   0.447  16.311  0.0135  0.8195 -0.0046
  179MPD1     H 2729   4.020   0.311  16.411 -0.8922  0.6436  1.7073
  179MPD1    H1 2730   3.631   0.239  16.259  1.3702 -1.2131  0.5595
  179MPD1    H2 2731   3.757   0.636  16.364 -2.3449 -0.5697  1.3554
  179MPD1    H3 2732   3.586   0.494  16.295 -0.5251 -0.0341  0.7210
  179MPD1     N 2733   3.854   0.125  16.308  0.0313  0.5204 -0.0383
  179MPD1    H5 2734   3.771   0.067  16.297 -0.1864  1.1558 -1.7641
  179MPD1    N1 2735   3.994   0.576  16.427 -0.3338 -0.0328  0.8150
  179MPD1    H6 2736   4.087   0.558  16.391 -0.2555 -1.6551  1.8036
  179MPD1    H7 2737   3.982   0.668  16.386 -0.0674  0.4364  1.8136
  180MPD1     C 2738   3.735   1.459  15.611 -0.6120  0.5703  0.2025
  180MPD1    C1 2739   3.846   1.411  15.556  0.2203  0.0572 -0.5311
  180MPD1    C2 2740   3.852   1.374  15.420 -0.2543 -0.5939  0.3660
  180MPD1    C3 2741   3.736   1.374  15.339  1.6851  0.5595  0.4143
  180MPD1    C4 2742   3.612   1.402  15.397  0.0484  0.2652  0.3127
  180MPD1    C5 2743   3.614   1.451  15.532  0.4308  0.2137  0.1181
  180MPD1     H 2744   3.949   1.360  15.375  0.1044  0.4505  0.8216
  180MPD1    H1 2745   3.514   1.411  15.351 -0.0950 -1.0116  0.3678
  180MPD1    H2 2746   3.719   1.488  15.714 -1.9230  0.1322  0.1238
  180MPD1    H3 2747   3.521   1.479  15.582  0.2097  1.8861 -1.2704
  180MPD1     N 2748   3.753   1.346  15.202  0.8533  0.5280 -0.1178
  180MPD1    H5 2749   3.845   1.322  15.167  2.0303  0.8093  2.7898
  180MPD1    N1 2750   3.961   1.389  15.634 -0.3865  0.2542  0.3332
  180MPD1    H6 2751   4.044   1.367  15.581 -0.8727  0.5470 -0.5509
  180MPD1    H7 2752   3.975   1.438  15.723 -1.3212 -1.6269  1.5006
  181MPD1     C 2753   4.638   3.160   9.670 -0.1724 -0.3862 -0.6736
  181MPD1    C1 2754   4.671   3.263   9.587  0.4396  0.7579  0.8291
  181MPD1    C2 2755   0.078   3.314   9.588  0.1902  0.1995 -0.1178
  181MPD1    C3 2756   0.170   3.249   9.665  0.3853 -0.3456 -0.1527
  181MPD1    C4 2757   0.139   3.129   9.737  0.2961  0.0556 -0.3966
  181MPD1    C5 2758   0.008   3.091   9.746  0.3904  0.3922 -1.0731
  181MPD1     H 2759   0.115   3.389   9.518  2.0309  0.4601  1.1350
  181MPD1    H1 2760   0.205   3.065   9.795 -1.9062 -1.7362  0.1683
  181MPD1    H2 2761   4.543   3.109   9.668  1.0410 -2.6471 -0.7072
  181MPD1    H3 2762   4.701   3.015   9.819  0.5809  2.0444  0.7255
  181MPD1     N 2763   0.313   3.279   9.658 -0.1203 -0.5796  0.3800
  181MPD1    H5 2764   0.377   3.219   9.710  0.1371  0.1659  0.9228
  181MPD1    N1 2765   4.583   3.305   9.484 -0.5496 -0.4237  0.1052
  181MPD1    H6 2766   4.488   3.278   9.508 -0.3888  0.2430  1.5350
  181MPD1    H7 2767   4.595   3.403   9.462 -1.9504 -1.0527 -3.5083
  182MPD1     C 2768   1.759   2.464   1.530  0.0717 -0.0331  0.3384
  182MPD1    C1 2769   1.775   2.387   1.412 -0.3548 -0.2011 -0.1630
  182MPD1    C2 2770   1.682   2.409   1.311  0.1110 -0.1774  0.4662
  182MPD1    C3 2771   1.566   2.479   1.332  0.4548  0.3178 -0.6212
  182MPD1    C4 2772   1.551   2.540   1.455 -0.0438 -0.3274  0.1748
  182MPD1    C5 2773   1.652   2.533   1.554  0.2788  0.2065 -0.5413
  182MPD1     H 2774   1.699   2.366   1.212  1.2378 -2.7265  1.7491
  182MPD1    H1 2775   1.463   2.595   1.486 -0.2437 -0.8387  0.5244
  182MPD1    H2 2776   1.832   2.467   1.611  0.1891  3.6143  0.1022
  182MPD1    H3 2777   1.633   2.590   1.645 -1.2344  0.6362 -1.1271
  182MPD1     N 2778   1.465   2.497   1.230 -0.2586 -0.0285  0.5932
  182MPD1    H5 2779   1.392   2.566   1.243 -1.7605 -1.4304 -0.3552
  182MPD1    N1 2780   1.893   2.316   1.389  0.5646  0.1623 -0.2345
  182MPD1    H6 2781   1.909   2.258   1.471  3.3115 -0.2891 -1.0843
  182MPD1    H7 2782   1.885   2.250   1.312 -0.2058 -0.4085  0.3375
  183MPD1     C 2783   1.966   2.740   8.573  0.0700  0.0774 -0.1267
  183MPD1    C1 2784   1.912   2.659   8.674 -0.6221 -0.7406 -0.2605
  183MPD1    C2 2785   1.813   2.712   8.759  0.1037 -0.0037  0.2094
  183MPD1    C3 2786   1.755   2.835   8.729  0.0399  0.1035 -0.6090
  183MPD1    C4 2787   1.799   2.909   8.622  0.4851  0.0062 -0.5068
  183MPD1    C5 2788   1.906   2.863   8.549 -0.2066 -0.1308 -0.1348
  183MPD1     H 2789   1.780   2.660   8.848 -1.9885 -0.1910 -0.6897
  183MPD1    H1 2790   1.767   3.008   8.594  0.8293 -0.0129 -0.9749
  183MPD1    H2 2791   2.055   2.720   8.514  0.1707  1.0581 -0.3141
  183MPD1    H3 2792   1.940   2.920   8.462 -3.3063 -1.1124 -1.9701
  183MPD1     N 2793   1.664   2.889   8.815 -0.2200 -0.2921  0.0165
  183MPD1    H5 2794   1.656   2.845   8.906 -1.5645  1.5902  0.8202
  183MPD1    N1 2795   1.983   2.543   8.723 -0.4881 -0.0747  0.1181
  183MPD1    H6 2796   1.915   2.472   8.749 -0.0877 -1.1273 -1.7253
  183MPD1    H7 2797   2.043   2.492   8.658  0.9895  1.7229  0.0877
  184MPD1     C 2798   0.811   0.164   9.431 -0.2741  0.2015 -0.2369
  184MPD1    C1 2799   0.900   0.219   9.519  0.3145 -0.1810  0.3073
  184MPD1    C2 2800   0.959   0.341   9.487  0.1686 -0.2003 -0.0456
  184MPD1    C3 2801   0.921   0.409   9.368  0.1550  0.2468 -0.4783
  184MPD1    C4 2802   0.840   0.341   9.279 -0.2064 -0.9454  0.1679
  184MPD1    C5 2803   0.778   0.224   9.313  0.5662 -0.2487  0.1422
  184MPD1     H 2804   1.028   0.386   9.559  0.8196  0.6716 -1.2112
  184MPD1    H1 2805   0.820   0.379   9.180  0.2068  0.6560  0.6955
  184MPD1    H2 2806   0.772   0.066   9.454  0.4711  0.3369  1.5347
  184MPD1    H3 2807   0.698   0.179   9.256  0.2330  0.4633  0.0537
  184MPD1     N 2808   0.965   0.540   9.333  0.4462  0.0464 -0.2993
  184MPD1    H5 2809   0.932   0.578   9.245 -1.3842  1.6058  1.0632
  184MPD1    N1 2810   0.921   0.172   9.652 -0.0379 -0.3270 -0.3056
  184MPD1    H6 2811   0.904   0.072   9.661  0.7412 -0.5854 -1.8401
  184MPD1    H7 2812   1.016   0.199   9.677 -1.0935 -0.6739  4.0754
  185MPD1     C 2813   0.896   0.908   8.594  1.0456 -0.3363 -0.6537
  185MPD1    C1 2814   0.889   0.779   8.652 -0.5167  0.3868 -0.9155
  185MPD1    C2 2815   0.934   0.770   8.779 -0.0341  0.2861 -0.0140
  185MPD1    C3 2816   0.979   0.888   8.846 -0.2461  0.0016  0.1328
  185MPD1    C4 2817   0.978   1.018   8.784 -0.4041  0.0207 -0.7775
  185MPD1    C5 2818   0.934   1.022   8.655  0.1901 -0.5021  0.7841
  185MPD1     H 2819   0.938   0.673   8.826 -1.8062  0.2791  0.0915
  185MPD1    H1 2820   1.012   1.109   8.831 -0.9587  0.6045 -1.4991
  185MPD1    H2 2821   0.869   0.913   8.489 -1.8635  1.5444  0.1723
  185MPD1    H3 2822   0.922   1.114   8.598 -0.7882 -0.4654  1.0410
  185MPD1     N 2823   1.005   0.870   8.987  0.4556 -0.6740 -0.0835
  185MPD1    H5 2824   0.987   0.785   9.040 -0.0926 -1.7793 -2.0383
  185MPD1    N1 2825   0.858   0.659   8.585  0.1609  0.1190  0.1882
  185MPD1    H6 2826   0.918   0.581   8.611  0.7888  0.2041 -0.9884
  185MPD1    H7 2827   0.876   0.677   8.486 -0.0995 -0.7702 -0.0243
  186MPD1     C 2828   4.336   4.480  15.952  0.3471 -1.0514 -0.4733
  186MPD1    C1 2829   4.463   4.533  15.982  0.4049 -0.4168  0.2749
  186MPD1    C2 2830   4.477   4.609  16.093 -0.1190 -0.5449  0.1186
  186MPD1    C3 2831   4.364   4.657  16.158  0.3408 -0.4061  0.4371
  186MPD1    C4 2832   4.239   4.620  16.107 -0.5360  0.1860 -0.6901
  186MPD1    C5 2833   4.223   4.533  16.004 -0.1274 -0.4701 -0.4115
  186MPD1     H 2834   4.573   4.622  16.144 -0.3435  1.5369  0.0077
  186MPD1    H1 2835   4.140   4.642  16.147  0.4078  1.0004  1.2136
  186MPD1    H2 2836   4.328   4.405  15.874 -1.4425 -0.1158 -1.2035
  186MPD1    H3 2837   4.124   4.510  15.966  0.0610  0.8336 -1.6525
  186MPD1     N 2838   4.364   0.017  16.272 -0.1334 -0.3969  0.1121
  186MPD1    H5 2839   4.275   0.064  16.284 -0.7718 -2.3345  2.8368
  186MPD1    N1 2840   4.577   4.478  15.925  0.0230 -0.4779  0.2062
  186MPD1    H6 2841   4.664   4.532  15.927 -1.8350  2.4463  3.0595
  186MPD1    H7 2842   4.555   4.442  15.833 -1.3383 -3.3249  1.6543
  187MPD1     C 2843   3.235   2.179   0.401 -0.6318  0.1671 -0.2222
  187MPD1    C1 2844   3.271   2.304   0.366 -0.2374  1.0761 -0.1795
  187MPD1    C2 2845   3.225   2.345   0.242  0.7461  0.5870  0.1308
  187MPD1    C3 2846   3.171   2.266   0.146  0.1261 -0.0069  0.1638
  187MPD1    C4 2847   3.150   2.132   0.178 -0.2815  0.6405  0.1381
  187MPD1    C5 2848   3.170   2.096   0.310  0.1873  0.4348  0.3308
  187MPD1     H 2849   3.244   2.449   0.219 -0.1382  1.0879  1.6786
  187MPD1    H1 2850   3.114   2.062   0.103 -0.2328  0.7533  0.0081
  187MPD1    H2 2851   3.270   2.135   0.494  0.3603 -0.9525 -1.1329
  187MPD1    H3 2852   3.143   1.994   0.335  1.2991  0.2371  0.7270
  187MPD1     N 2853   3.153   2.309   0.015  0.2239 -0.3846  0.3554
  187MPD1    H5 2854   3.127   2.240  17.633  2.0925 -0.8082  0.0813
  187MPD1    N1 2855   3.312   2.384   0.466  0.6475 -0.3041  0.9189
  187MPD1    H6 2856   3.363   2.333   0.538  1.9341  1.9127  1.5962
  187MPD1    H7 2857   3.379   2.456   0.439 -0.0043  0.3107  0.9267
  188MPD1     C 2858   3.629   2.674   9.381  0.1448  0.2009  0.0421
  188MPD1    C1 2859   3.509   2.666   9.313 -0.1191  0.4555 -0.0429
  188MPD1    C2 2860   3.442   2.543   9.312 -0.1333 -0.6044  0.6199
  188MPD1    C3 2861   3.511   2.430   9.356 -0.0354 -0.2303 -0.1807
  188MPD1    C4 2862   3.645   2.440   9.393 -0.7568 -0.1080  0.4818
  188MPD1    C5 2863   3.698   2.564   9.412 -1.0273  0.5688  0.2832
  188MPD1     H 2864   3.351   2.529   9.255 -0.7399  1.3900  1.1165
  188MPD1    H1 2865   3.697   2.353   9.431 -1.6023 -2.0906 -2.8798
  188MPD1    H2 2866   3.674   2.772   9.382  1.9573 -0.6332  0.4352
  188MPD1    H3 2867   3.803   2.570   9.440 -0.8945 -0.0103 -0.0912
  188MPD1     N 2868   3.457   2.298   9.356 -0.5252 -0.3716 -0.2170
  188MPD1    H5 2869   3.520   2.228   9.394 -2.4328 -1.4675  0.9920
  188MPD1    N1 2870   3.445   2.787   9.267 -0.4232 -0.2008 -0.0459
  188MPD1    H6 2871   3.513   2.856   9.235  0.8757 -0.0572  3.0654
  188MPD1    H7 2872   3.381   2.768   9.190  0.1465 -0.9908 -0.3396
  189MPD1     C 2873   0.566   3.732   0.886 -0.4154  0.1106  0.4523
  189MPD1    C1 2874   0.444   3.791   0.848  0.2869  0.0731  0.7308
  189MPD1    C2 2875   0.339   3.712   0.799  0.2730  0.1775 -0.7449
  189MPD1    C3 2876   0.357   3.577   0.774 -0.1657  0.0368 -0.4439
  189MPD1    C4 2877   0.478   3.519   0.816  0.7554  0.4928  0.2860
  189MPD1    C5 2878   0.580   3.597   0.872  0.1423  0.1655  0.0988
  189MPD1     H 2879   0.249   3.763   0.766  0.0796  0.9101  0.8854
  189MPD1    H1 2880   0.491   3.412   0.802 -0.5997  0.3111  0.4283
  189MPD1    H2 2881   0.648   3.781   0.936  0.1496 -0.1247 -0.2597
  189MPD1    H3 2882   0.674   3.550   0.898  0.0849  0.2417  0.4514
  189MPD1     N 2883   0.249   3.512   0.720  0.0482 -0.2071  0.6391
  189MPD1    H5 2884   0.162   3.561   0.701  0.2027 -0.9064 -1.9502
  189MPD1    N1 2885   0.431   3.926   0.873 -0.0326  0.0463  0.1908
  189MPD1    H6 2886   0.357   3.971   0.819 -0.2003 -0.0633  0.3283
  189MPD1    H7 2887   0.516   3.974   0.845 -0.9076  1.4439 -0.0698
  190MPD1     C 2888   3.218   1.889  16.160  0.0437  0.3143 -0.3541
  190MPD1    C1 2889   3.233   1.797  16.255 -0.3498 -0.4069  0.5316
  190MPD1    C2 2890   3.337   1.701  16.252  0.4549  0.3938  0.1160
  190MPD1    C3 2891   3.420   1.694  16.145  0.2970  0.2520 -0.5814
  190MPD1    C4 2892   3.399   1.775  16.039 -0.0458  0.5881 -0.2479
  190MPD1    C5 2893   3.300   1.872  16.047 -0.1514  0.4338  0.2744
  190MPD1     H 2894   3.339   1.624  16.328  0.7987  1.0959  0.8176
  190MPD1    H1 2895   3.474   1.790  15.962 -0.8834 -0.0566 -1.1852
  190MPD1    H2 2896   3.142   1.965  16.154 -0.9397 -0.7361 -1.0663
  190MPD1    H3 2897   3.279   1.944  15.969 -0.9171 -0.1742 -0.0814
  190MPD1     N 2898   3.528   1.602  16.168 -0.4344 -0.5271 -0.3529
  190MPD1    H5 2899   3.542   1.583  16.267  0.3764  1.7312 -0.0505
  190MPD1    N1 2900   3.135   1.794  16.353 -0.3579 -0.3795 -0.0769
  190MPD1    H6 2901   3.124   1.701  16.394 -3.3285 -0.0981 -0.2588
  190MPD1    H7 2902   3.043   1.834  16.337  0.1224  0.8425  0.2393
  191MPD1     C 2903   3.184   3.162  13.422  0.2120  0.1254 -0.2712
  191MPD1    C1 2904   3.276   3.216  13.337  0.0366 -0.1030  0.2205
  191MPD1    C2 2905   3.233   3.279  13.219  0.2315 -0.0159  0.3417
  191MPD1    C3 2906   3.102   3.272  13.177  0.2961 -0.6615 -0.5963
  191MPD1    C4 2907   3.012   3.211  13.257  1.0021  0.2852  0.8834
  191MPD1    C5 2908   3.054   3.164  13.379  0.3529 -0.2557  0.3633
  191MPD1     H 2909   3.306   3.326  13.154  0.6601  1.4830  1.9111
  191MPD1    H1 2910   2.905   3.218  13.241  0.9977  1.8216  1.5920
  191MPD1    H2 2911   3.211   3.130  13.522 -0.8127 -1.1187 -0.3928
  191MPD1    H3 2912   2.981   3.118  13.444 -1.0961  0.8253 -0.4946
  191MPD1     N 2913   3.069   3.332  13.049  0.1679  0.6638 -0.7614
  191MPD1    H5 2914   3.142   3.376  12.994  0.7553  0.2576 -0.3078
  191MPD1    N1 2915   3.405   3.226  13.392 -0.1432 -0.6100 -0.7598
  191MPD1    H6 2916   3.429   3.145  13.450  1.7851  0.1508 -0.4868
  191MPD1    H7 2917   3.485   3.230  13.329  1.2455  1.2227  1.1123
  192MPD1     C 2918   2.175   3.416  12.529  0.2977 -0.9423  0.2502
  192MPD1    C1 2919   2.274   3.360  12.458 -0.2575  0.5253 -0.2304
  192MPD1    C2 2920   2.398   3.378  12.509  0.2674  0.6032  0.3775
  192MPD1    C3 2921   2.432   3.446  12.625  0.6960 -0.6528  0.7210
  192MPD1    C4 2922   2.329   3.500  12.692 -0.5757  0.3334  0.6261
  192MPD1    C5 2923   2.206   3.484  12.641 -0.0842  0.1374  0.2922
  192MPD1     H 2924   2.479   3.344  12.444 -0.1561  0.8482 -0.2753
  192MPD1    H1 2925   2.346   3.551  12.786  0.7260  2.7895 -0.9380
  192MPD1    H2 2926   2.072   3.414  12.495 -0.0595 -0.3458  1.2963
  192MPD1    H3 2927   2.122   3.532  12.690 -0.2085 -0.3305  0.5289
  192MPD1     N 2928   2.565   3.445  12.676 -0.7462  0.3594  0.1186
  192MPD1    H5 2929   2.576   3.482  12.770  0.5296 -0.9155  0.4577
  192MPD1    N1 2930   2.247   3.301  12.333 -0.0695 -0.1273  0.5368
  192MPD1    H6 2931   2.294   3.214  12.311 -0.6854 -0.7948  1.8547
  192MPD1    H7 2932   2.147   3.292  12.321  0.0180 -0.4119 -0.0007
  193MPD1     C 2933   2.735   3.478  16.412 -0.2135 -0.3919 -0.0041
  193MPD1    C1 2934   2.766   3.368  16.493  0.5282  0.0986 -1.0176
  193MPD1    C2 2935   2.858   3.392  16.598  0.6834 -0.1797  0.3681
  193MPD1    C3 2936   2.903   3.523  16.620 -0.0273  0.1232 -0.0881
  193MPD1    C4 2937   2.861   3.629  16.540 -0.3106  0.8452  0.4466
  193MPD1    C5 2938   2.782   3.608  16.436  0.6153 -0.2281  0.1450
  193MPD1     H 2939   2.878   3.314  16.671 -0.1984  0.0793  0.8864
  193MPD1    H1 2940   2.893   3.731  16.553 -0.9942  0.8713  1.8577
  193MPD1    H2 2941   2.673   3.472  16.323 -1.5433  1.2445  0.8210
  193MPD1    H3 2942   2.755   3.691  16.370  1.4693  0.6144  0.8561
  193MPD1     N 2943   2.985   3.560  16.726  0.2527  0.1330  0.0690
  193MPD1    H5 2944   3.008   3.658  16.740 -0.2715  0.1281  0.9628
  193MPD1    N1 2945   2.728   3.236  16.464 -0.2996 -0.2235 -0.5980
  193MPD1    H6 2946   2.748   3.171  16.540  0.7126 -1.0680 -1.5897
  193MPD1    H7 2947   2.627   3.235  16.449 -0.1493  1.5873 -1.6713
  194MPD1     C 2948   1.683   1.592  17.201 -0.6421  0.7592 -0.1295
  194MPD1    C1 2949   1.648   1.618  17.333  0.1769  0.1630 -0.1950
  194MPD1    C2 2950   1.559   1.539  17.398  0.0103 -0.1962  0.4283
  194MPD1    C3 2951   1.505   1.428  17.337  0.5171 -0.2783 -0.6753
  194MPD1    C4 2952   1.553   1.397  17.212 -0.4309 -0.5920  0.5902
  194MPD1    C5 2953   1.632   1.481  17.138 -0.2768  0.1606  0.0572
  194MPD1     H 2954   1.527   1.578  17.494 -0.9467 -1.5149  0.6404
  194MPD1    H1 2955   1.529   1.303  17.165 -3.6598 -0.3742  1.8193
  194MPD1    H2 2956   1.753   1.657  17.149  2.4977 -2.8403 -0.3859
  194MPD1    H3 2957   1.663   1.435  17.045 -1.2952  1.2737 -0.8310
  194MPD1     N 2958   1.418   1.332  17.393 -0.2310  0.1634 -0.1137
  194MPD1    H5 2959   1.400   1.250  17.335 -2.4786  1.6605 -1.5572
  194MPD1    N1 2960   1.723   1.717  17.398 -0.2018  0.3729 -0.4223
  194MPD1    H6 2961   1.656   1.761  17.460  0.5645  0.7290  0.1498
  194MPD1    H7 2962   1.766   1.779  17.329 -0.5977 -0.0263 -1.0359
  195MPD1     C 2963   3.151   2.533   1.110 -0.4908  0.4163 -0.3973
  195MPD1    C1 2964   3.099   2.586   0.997 -0.1580 -0.1229  0.5324
  195MPD1    C2 2965   3.068   2.498   0.893 -0.2446  0.3845  0.2968
  195MPD1    C3 2966   3.064   2.361   0.921  0.3554  0.1246 -0.0552
  195MPD1    C4 2967   3.121   2.309   1.036 -0.1843  0.1905  0.1985
  195MPD1    C5 2968   3.166   2.395   1.128 -0.7817 -0.0921  0.2514
  195MPD1     H 2969   3.022   2.546   0.807  0.0593  2.0788  1.0896
  195MPD1    H1 2970   3.136   2.202   1.044  1.4753  0.6779  3.7454
  195MPD1    H2 2971   3.185   2.598   1.189  2.7362  2.0289 -3.1186
  195MPD1    H3 2972   3.208   2.362   1.222  0.7446 -1.7752 -1.0404
  195MPD1     N 2973   3.042   2.264   0.823 -0.1350 -0.1117  0.3681
  195MPD1    H5 2974   3.051   2.166   0.851  2.7329  0.4173  1.2894
  195MPD1    N1 2975   3.113   2.720   0.970  0.0625  0.0729 -0.0084
  195MPD1    H6 2976   3.061   2.756   0.891 -0.1168  0.0758  0.1108
  195MPD1    H7 2977   3.083   2.777   1.049 -0.5781  1.7575 -1.4722
  196MPD1     C 2978   1.903   1.746   0.766  0.5968  0.7771 -0.2132
  196MPD1    C1 2979   2.033   1.739   0.718  0.0613  0.2523  0.5079
  196MPD1    C2 2980   2.107   1.854   0.717 -0.3722 -0.1174  0.3641
  196MPD1    C3 2981   2.057   1.972   0.767  0.5844 -0.4575 -0.8720
  196MPD1    C4 2982   1.927   1.975   0.808  0.2450 -0.0904 -0.2350
  196MPD1    C5 2983   1.850   1.863   0.808  0.5559 -0.4227 -0.7759
  196MPD1     H 2984   2.209   1.856   0.678 -1.2168  0.3626 -1.8009
  196MPD1    H1 2985   1.878   2.064   0.846  0.8246 -0.6979  1.8969
  196MPD1    H2 2986   1.842   1.657   0.756 -0.4591  1.5263 -0.5161
  196MPD1    H3 2987   1.750   1.874   0.847  0.4377  3.4935 -2.2498
  196MPD1     N 2988   2.138   2.084   0.800 -0.0001 -0.4011 -0.6625
  196MPD1    H5 2989   2.098   2.175   0.822  1.0032  0.4078 -2.2265
  196MPD1    N1 2990   2.077   1.607   0.692 -0.4405 -0.6297 -0.4244
  196MPD1    H6 2991   2.000   1.542   0.677  0.3851 -1.7415  0.1207
  196MPD1    H7 2992   2.135   1.595   0.610 -0.0798 -3.6443  0.2607
  197MPD1     C 2993   2.172   4.679   0.371  0.1419 -0.1751 -0.1656
  197MPD1    C1 2994   2.078   4.593   0.323  0.3525 -0.2530  0.3510
  197MPD1    C2 2995   2.043   4.588   0.189 -0.0889  0.4579  0.5286
  197MPD1    C3 2996   2.100   4.681   0.096 -0.8247 -0.4739  0.1297
  197MPD1    C4 2997   2.178   0.052   0.146  0.1884  0.5213 -0.3594
  197MPD1    C5 2998   2.219   0.052   0.278 -0.1586 -0.5030  0.2188
  197MPD1     H 2999   1.977   4.509   0.155  0.5183  0.3492 -0.3689
  197MPD1    H1 3000   2.227   0.127   0.085 -0.1463 -0.3234 -1.6599
  197MPD1    H2 3001   2.210   4.680   0.473 -1.9945 -0.3251  0.6210
  197MPD1    H3 3002   2.294   0.125   0.306 -1.0862  0.5786 -0.1329
  197MPD1     N 3003   2.052   4.698  17.647 -0.5868  0.5605 -0.0338
  197MPD1    H5 3004   2.072   0.063  17.598 -0.6217  0.7641  0.3078
  197MPD1    N1 3005   2.047   4.484   0.408 -0.4942 -0.1393 -0.1444
  197MPD1    H6 3006   1.953   4.446   0.392 -0.8564 -0.0260  1.7717
  197MPD1    H7 3007   2.040   4.522   0.502  0.4679  0.3850 -0.2909
  198MPD1     C 3008   4.272   1.718  15.574  0.2289 -0.2471  0.2134
  198MPD1    C1 3009   4.138   1.714  15.571  0.2897  0.3204 -0.6102
  198MPD1    C2 3010   4.064   1.797  15.653 -0.5041 -0.8122  0.3344
  198MPD1    C3 3011   4.123   1.873  15.754  0.1209 -0.9912  0.8368
  198MPD1    C4 3012   4.265   1.884  15.750  0.5217  0.3931 -0.3869
  198MPD1    C5 3013   4.335   1.800  15.660  0.3486 -0.2594 -0.6482
  198MPD1     H 3014   3.956   1.795  15.641 -0.1926 -0.1044 -2.5360
  198MPD1    H1 3015   4.325   1.944  15.818 -2.8302  1.7848  1.3426
  198MPD1    H2 3016   4.333   1.667  15.501 -1.8930  1.9684 -3.1456
  198MPD1    H3 3017   4.444   1.797  15.662  0.3263  0.2771  1.1680
  198MPD1     N 3018   4.055   1.957  15.840  0.2856 -0.8881  0.1721
  198MPD1    H5 3019   3.958   1.972  15.811  1.3294  2.3593 -1.6841
  198MPD1    N1 3020   4.084   1.640  15.468 -0.4612 -0.1727 -0.5299
  198MPD1    H6 3021   4.129   1.549  15.462 -2.9488 -1.4656  0.2725
  198MPD1    H7 3022   3.985   1.622  15.486  0.0689 -0.6272  1.9332
  199MPD1     C 3023   1.305   3.368   9.280 -0.3512 -0.6695 -0.3783
  199MPD1    C1 3024   1.173   3.363   9.329 -0.0145  0.3499 -0.3577
  199MPD1    C2 3025   1.086   3.461   9.295  0.4170  0.1410  0.1652
  199MPD1    C3 3026   1.128   3.569   9.218 -0.0466  0.0770 -0.5629
  199MPD1    C4 3027   1.262   3.577   9.179  0.1590  0.3610 -0.9903
  199MPD1    C5 3028   1.348   3.471   9.198  0.1956 -0.0063  0.6327
  199MPD1     H 3029   0.981   3.443   9.312 -0.1989  3.6561 -0.0980
  199MPD1    H1 3030   1.300   3.652   9.110  2.1070 -1.0975 -1.4971
  199MPD1    H2 3031   1.375   3.292   9.312 -0.2776 -0.3285  0.2819
  199MPD1    H3 3032   1.450   3.478   9.163 -0.0592 -0.1290 -0.1384
  199MPD1     N 3033   1.040   3.669   9.169 -0.5225  0.4712 -0.0505
  199MPD1    H5 3034   1.090   3.740   9.116 -2.1084  0.6961 -1.2694
  199MPD1    N1 3035   1.137   3.251   9.409  0.3293  0.2551 -0.5666
  199MPD1    H6 3036   1.210   3.181   9.412  2.0155  2.0186 -0.2412
  199MPD1    H7 3037   1.102   3.269   9.503 -1.1622  0.5132 -1.1700
  200MPD1     C 3038   4.107   3.753  15.910  0.1911 -0.6403  0.1899
  200MPD1    C1 3039   4.090   3.834  15.803  0.5818  0.0406  0.4791
  200MPD1    C2 3040   4.110   3.782  15.679 -0.4645  0.3618  0.0450
  200MPD1    C3 3041   4.118   3.650  15.651 -0.7103 -0.6023 -0.0458
  200MPD1    C4 3042   4.145   3.571  15.756 -0.3231 -0.6379 -0.1566
  200MPD1    C5 3043   4.150   3.625  15.883 -0.0020  0.3749  0.1950
  200MPD1     H 3044   4.116   3.853  15.597 -2.5212 -0.4070 -0.7859
  200MPD1    H1 3045   4.162   3.464  15.756  1.7347 -0.3246 -1.6680
  200MPD1    H2 3046   4.110   3.784  16.014  0.3120  1.7932 -0.5555
  200MPD1    H3 3047   4.157   3.563  15.972  1.3363 -0.9234 -0.8350
  200MPD1     N 3048   4.111   3.613  15.517  0.5015  0.1783 -0.5167
  200MPD1    H5 3049   4.093   3.686  15.449 -1.6087  1.0818  1.0090
  200MPD1    N1 3050   4.084   3.978  15.812 -0.2431  0.3636  0.2236
  200MPD1    H6 3051   4.033   4.016  15.732 -2.4059  0.6726  1.7587
  200MPD1    H7 3052   4.039   4.009  15.898 -2.3280 -0.3281 -0.6061
  201MPD1     C 3053   2.198   2.155  13.754  0.1244 -0.5000 -0.3437
  201MPD1    C1 3054   2.227   2.207  13.875 -0.5515  0.0796 -0.0344
  201MPD1    C2 3055   2.324   2.141  13.944 -0.4592 -0.8152  0.0905
  201MPD1    C3 3056   2.370   2.011  13.908 -0.3769  0.2204  0.9729
  201MPD1    C4 3057   2.330   1.957  13.790 -0.6623 -0.0739 -0.1118
  201MPD1    C5 3058   2.237   2.028  13.717 -0.1799  0.9641 -0.1996
  201MPD1     H 3059   2.360   2.188  14.034 -0.5775  0.2593 -0.4165
  201MPD1    H1 3060   2.357   1.855  13.766 -0.6406  0.1929 -1.2525
  201MPD1    H2 3061   2.140   2.216  13.686 -1.4121 -1.0961  0.4255
  201MPD1    H3 3062   2.210   1.992  13.618  0.1912  0.6010 -0.1693
  201MPD1     N 3063   2.461   1.951  13.999 -0.0649  0.0573  0.6975
  201MPD1    H5 3064   2.490   2.019  14.068  2.8790  0.8543 -1.3427
  201MPD1    N1 3065   2.183   2.336  13.911 -0.1890 -0.7977  0.0416
  201MPD1    H6 3066   2.085   2.347  13.887 -0.4551 -1.2095  0.9178
  201MPD1    H7 3067   2.186   2.344  14.012 -2.8332  3.0975 -0.2061
  202MPD1     C 3068   1.753   1.753   8.981 -0.0114  0.0007  0.2028
  202MPD1    C1 3069   1.714   1.886   8.988  0.1155 -0.7073  0.1609
  202MPD1    C2 3070   1.754   1.963   9.096 -0.2669  0.1982 -0.0854
  202MPD1    C3 3071   1.824   1.904   9.204  0.5073 -0.5362 -0.1311
  202MPD1    C4 3072   1.867   1.769   9.187  0.2665  0.6679 -0.0131
  202MPD1    C5 3073   1.823   1.689   9.082  0.5972 -0.2892  0.0664
  202MPD1     H 3074   1.750   2.071   9.095 -0.8242  0.1710 -0.8170
  202MPD1    H1 3075   1.925   1.711   9.258 -1.5749 -0.8830  0.2258
  202MPD1    H2 3076   1.732   1.706   8.885 -1.4947  1.6507 -0.2842
  202MPD1    H3 3077   1.850   1.584   9.074  2.5013  0.0778  1.5884
  202MPD1     N 3078   1.841   1.965   9.326 -0.1550 -0.1222 -0.4200
  202MPD1    H5 3079   1.913   1.926   9.385  0.7789  1.3783 -0.5460
  202MPD1    N1 3080   1.698   1.957   8.870  0.1719  0.2399  0.4780
  202MPD1    H6 3081   1.661   2.049   8.890  0.5352  0.5276 -0.1947
  202MPD1    H7 3082   1.643   1.893   8.812 -0.2198  1.8427 -0.9160
  203MPD1     C 3083   0.570   3.279  12.643  0.1053  0.4333 -0.3342
  203MPD1    C1 3084   0.576   3.211  12.760  0.2627  0.1103 -0.3196
  203MPD1    C2 3085   0.648   3.091  12.758  0.6270 -0.2581  0.3208
  203MPD1    C3 3086   0.734   3.050  12.657 -0.3836  0.4713 -0.1090
  203MPD1    C4 3087   0.732   3.122  12.547 -0.7499  0.0732  0.4801
  203MPD1    C5 3088   0.650   3.232  12.544 -0.1899  0.1203  0.4777
  203MPD1     H 3089   0.639   3.031  12.848 -0.6010  1.1077  1.1246
  203MPD1    H1 3090   0.781   3.090  12.456  0.9101 -0.9046  1.7191
  203MPD1    H2 3091   0.511   3.368  12.628 -0.4768 -0.0550 -0.9344
  203MPD1    H3 3092   0.645   3.284  12.449 -1.7706  0.0419  0.5247
  203MPD1     N 3093   0.801   2.926  12.666  0.0910  0.0939  0.4074
  203MPD1    H5 3094   0.782   2.873  12.751 -0.4480 -0.3461  0.0142
  203MPD1    N1 3095   0.507   3.248  12.878 -0.3320  0.5851 -0.1798
  203MPD1    H6 3096   0.551   3.220  12.966 -4.6203 -0.3842  1.6675
  203MPD1    H7 3097   0.481   3.346  12.877  0.3503  0.8076  2.2899
  204MPD1     C 3098   0.145   4.031   0.528 -0.2879  0.3250  0.3336
  204MPD1    C1 3099   0.276   4.010   0.555 -0.1420  0.1210  0.4739
  204MPD1    C2 3100   0.332   3.897   0.505 -0.1797 -0.6863  0.0278
  204MPD1    C3 3101   0.251   3.798   0.458  0.0622 -0.0688 -0.4147
  204MPD1    C4 3102   0.116   3.804   0.458  0.4503  0.4005  0.3141
  204MPD1    C5 3103   0.060   3.928   0.488  0.2205  0.0808 -0.8433
  204MPD1     H 3104   0.439   3.882   0.515  0.1180 -0.0895 -2.2088
  204MPD1    H1 3105   0.047   3.727   0.425 -0.0928  1.1884 -0.4244
  204MPD1    H2 3106   0.091   4.123   0.547  1.3751  1.1248  1.1694
  204MPD1    H3 3107   4.676   3.950   0.498 -0.0891 -3.1490  3.0977
  204MPD1     N 3108   0.317   3.686   0.412  0.4139  0.0353 -0.4007
  204MPD1    H5 3109   0.418   3.678   0.417  0.2964 -1.8942 -0.8327
  204MPD1    N1 3110   0.356   4.114   0.604 -0.0827 -0.4663 -0.2272
  204MPD1    H6 3111   0.311   4.164   0.680  0.4811 -1.1859  0.5935
  204MPD1    H7 3112   0.449   4.087   0.636  0.8409  1.7643 -1.0161
  205MPD1     C 3113   4.026   2.104   0.026  0.0002  0.0973 -0.8576
  205MPD1    C1 3114   4.054   2.218   0.097 -1.1137 -0.1014 -0.1768
  205MPD1    C2 3115   4.182   2.272   0.077  0.4091  0.0770 -0.4518
  205MPD1    C3 3116   4.266   2.231  17.658 -0.6455  0.1000  0.2422
  205MPD1    C4 3117   4.222   2.117  17.589 -0.2701  0.1106  0.0497
  205MPD1    C5 3118   4.104   2.060  17.615  0.4222  0.3824  0.3340
  205MPD1     H 3119   4.207   2.361   0.134 -1.6201 -0.6918  1.6628
  205MPD1    H1 3120   4.282   2.068  17.512  1.0685  1.0142  0.5087
  205MPD1    H2 3121   3.930   2.055   0.037  0.1143 -0.0853 -0.6883
  205MPD1    H3 3122   4.063   1.977  17.559  1.8276  0.4101 -0.7351
  205MPD1     N 3123   4.401   2.277  17.635 -0.4705  0.4108  0.0719
  205MPD1    H5 3124   4.448   2.238  17.554 -1.1940 -1.7022  0.6689
  205MPD1    N1 3125   3.973   2.249   0.209  0.3937 -0.3369  0.4098
  205MPD1    H6 3126   3.876   2.224   0.191  0.3370 -1.0580  1.7134
  205MPD1    H7 3127   3.976   2.349   0.231 -2.5944  0.0073 -0.8270
  206MPD1     C 3128   0.722   1.319  16.980 -0.0665  0.3471 -0.4783
  206MPD1    C1 3129   0.719   1.179  16.979  0.4001  0.0594  0.3239
  206MPD1    C2 3130   0.759   1.107  16.872  0.1659 -0.5118 -0.2647
  206MPD1    C3 3131   0.780   1.172  16.753  0.1631  0.5282 -0.5525
  206MPD1    C4 3132   0.774   1.314  16.747  0.2990 -0.5335  0.7515
  206MPD1    C5 3133   0.748   1.378  16.863 -1.1233 -0.5065  0.5660
  206MPD1     H 3134   0.773   1.000  16.877  1.6177 -0.2378  1.5093
  206MPD1    H1 3135   0.790   1.384  16.666 -0.0592 -0.7011  0.5349
  206MPD1    H2 3136   0.699   1.373  17.071  0.3689 -2.3146  1.2166
  206MPD1    H3 3137   0.747   1.487  16.863  0.7442 -0.5049  1.7585
  206MPD1     N 3138   0.777   1.096  16.633 -0.3574 -0.1734  0.4856
  206MPD1    H5 3139   0.793   1.156  16.553  1.7308 -1.6106 -0.1663
  206MPD1    N1 3140   0.711   1.111  17.103 -0.4260 -0.4455  0.7562
  206MPD1    H6 3141   0.656   1.173  17.163 -1.0735 -0.0979 -0.1861
  206MPD1    H7 3142   0.665   1.021  17.094  0.3476 -0.7733  0.1265
  207MPD1     C 3143   3.469   3.567   9.729  0.3002  0.6270  0.4714
  207MPD1    C1 3144   3.516   3.693   9.752  0.5649  0.1683  0.2171
  207MPD1    C2 3145   3.600   3.697   9.861 -0.5256  0.5319  0.3524
  207MPD1    C3 3146   3.598   3.593   9.959 -0.3738 -0.4366 -0.3907
  207MPD1    C4 3147   3.538   3.473   9.935  0.3935  0.8148  0.2487
  207MPD1    C5 3148   3.463   3.472   9.814  0.2873 -0.4525 -0.3177
  207MPD1     H 3149   3.653   3.789   9.880 -0.3346  0.4960 -0.0028
  207MPD1    H1 3150   3.535   3.400  10.015  1.6927  0.7956  0.2765
  207MPD1    H2 3151   3.404   3.550   9.643  0.5866  0.2169  0.3329
  207MPD1    H3 3152   3.413   3.380   9.788  1.5457 -0.8648 -1.3198
  207MPD1     N 3153   3.651   3.607  10.087 -0.3886  0.6756 -0.6889
  207MPD1    H5 3154   3.650   3.523  10.145  1.6275  1.4950  0.5648
  207MPD1    N1 3155   3.519   3.785   9.645  0.6685 -0.8200  0.3491
  207MPD1    H6 3156   3.541   3.881   9.672 -2.0354 -0.1750  0.2490
  207MPD1    H7 3157   3.434   3.786   9.588  1.0148 -1.2891 -0.1764
  208MPD1     C 3158   1.528   2.253  16.928  0.1729  0.3753  0.1161
  208MPD1    C1 3159   1.394   2.205  16.917 -0.3636  0.2458  0.0957
  208MPD1    C2 3160   1.322   2.194  17.033 -0.8297 -0.1939  0.0267
  208MPD1    C3 3161   1.372   2.233  17.158 -0.1899 -0.3926  1.0244
  208MPD1    C4 3162   1.503   2.267  17.171  0.1598  0.6121  0.7447
  208MPD1    C5 3163   1.578   2.272  17.056 -0.2361 -0.4850  0.4844
  208MPD1     H 3164   1.215   2.177  17.027 -0.6579 -0.6543 -1.6833
  208MPD1    H1 3165   1.529   2.335  17.251 -0.6942  0.8372  0.8272
  208MPD1    H2 3166   1.592   2.273  16.843  0.5204 -1.2424 -0.0101
  208MPD1    H3 3167   1.680   2.308  17.066 -0.2922 -0.6086  1.4449
  208MPD1     N 3168   1.288   2.225  17.269  0.0013  0.2588  0.4452
  208MPD1    H5 3169   1.192   2.198  17.250 -0.4787  0.6493  2.2951
  208MPD1    N1 3170   1.334   2.183  16.793  0.1663 -0.0607 -0.3270
  208MPD1    H6 3171   1.373   2.232  16.713 -1.1043 -0.7421 -1.3607
  208MPD1    H7 3172   1.247   2.235  16.799  0.0755 -0.3615  1.1253
  209MPD1     C 3173   3.676   2.278  11.029 -0.0118  0.2802  0.4056
  209MPD1    C1 3174   3.692   2.363  10.922 -0.2908  0.7623  0.0452
  209MPD1    C2 3175   3.732   2.492  10.947  0.1567 -0.0685 -0.1153
  209MPD1    C3 3176   3.748   2.544  11.072  0.0998  0.0416  0.1636
  209MPD1    C4 3177   3.736   2.455  11.177 -0.1000 -0.0135 -1.0667
  209MPD1    C5 3178   3.694   2.327  11.155 -0.3881  0.5107  0.5812
  209MPD1     H 3179   3.741   2.559  10.862 -0.0014 -0.4126 -0.4006
  209MPD1    H1 3180   3.739   2.476  11.283  1.4245  0.3107 -1.1732
  209MPD1    H2 3181   3.644   2.175  11.026  2.1834 -0.4339  1.6966
  209MPD1    H3 3182   3.687   2.265  11.244 -0.1605  0.2018  0.3845
  209MPD1     N 3183   3.771   2.675  11.095  0.1777 -0.8351 -0.2332
  209MPD1    H5 3184   3.751   2.731  11.012 -1.5660 -1.9540 -0.5630
  209MPD1    N1 3185   3.670   2.309  10.794 -0.4028 -0.0022  0.3175
  209MPD1    H6 3186   3.707   2.355  10.711  1.5826 -1.7901  0.2200
  209MPD1    H7 3187   3.673   2.208  10.781  0.1367  0.3909 -2.5364
  210MPD1     C 3188   3.972   2.986  11.934 -0.0637  0.2088 -0.4185
  210MPD1    C1 3189   3.951   3.112  11.889  0.2492 -0.0187  0.2547
  210MPD1    C2 3190   3.963   3.133  11.755 -0.2726  0.6103 -0.0421
  210MPD1    C3 3191   3.986   3.021  11.674  0.3582 -0.7381  0.3324
  210MPD1    C4 3192   4.000   2.892  11.722 -0.1850 -0.0860  0.3671
  210MPD1    C5 3193   4.003   2.876  11.857  0.0660  0.1493  0.1986
  210MPD1     H 3194   3.969   3.231  11.710  1.2416 -0.1648 -1.5353
  210MPD1    H1 3195   4.017   2.803  11.662  0.1421  1.4998 -1.8942
  210MPD1    H2 3196   3.970   2.968  12.041 -0.4679 -1.7611 -0.7525
  210MPD1    H3 3197   4.008   2.778  11.904 -1.5356 -1.5781 -3.1432
  210MPD1     N 3198   3.995   3.022  11.532  0.3510  0.2122  0.0533
  210MPD1    H5 3199   4.020   2.935  11.486 -1.8193 -0.7904  0.7567
  210MPD1    N1 3200   3.938   3.223  11.969 -0.0593 -0.3946 -0.8186
  210MPD1    H6 3201   3.892   3.209  12.059  1.3856  2.2251  0.3093
  210MPD1    H7 3202   3.912   3.311  11.925 -0.7043  1.0595  2.4698
  211MPD1     C 3203   0.931   1.972  16.575  0.3740  0.2066  0.1631
  211MPD1    C1 3204   0.865   1.975  16.696  0.2323 -0.4442  0.1270
  211MPD1    C2 3205   0.875   2.089  16.783  0.5329  0.7674  0.7281
  211MPD1    C3 3206   0.962   2.192  16.746  0.0241  0.0109  1.0763
  211MPD1    C4 3207   1.029   2.192  16.627  0.2674  1.5017  0.1278
  211MPD1    C5 3208   1.009   2.083  16.547 -0.7635 -0.0176 -0.1048
  211MPD1     H 3209   0.826   2.095  16.880 -3.3681  3.5667 -1.4518
  211MPD1    H1 3210   1.088   2.271  16.582 -1.5227  2.4349 -0.5603
  211MPD1    H2 3211   0.927   1.884  16.513 -1.6174 -0.8165  1.7280
  211MPD1    H3 3212   1.059   2.081  16.450 -0.6121 -0.9243 -0.0109
  211MPD1     N 3213   0.968   2.307  16.836  0.2536 -0.0817 -0.3641
  211MPD1    H5 3214   0.897   2.301  16.907 -0.1184  2.1349 -0.5307
  211MPD1    N1 3215   0.762   1.881  16.709 -0.1347  0.0573 -0.1334
  211MPD1    H6 3216   0.772   1.793  16.659  0.4343  0.4546 -0.7319
  211MPD1    H7 3217   0.736   1.872  16.806 -1.4799 -0.8876 -0.5823
  212MPD1     C 3218   0.428   1.077  16.560 -0.2291 -1.0255 -0.5355
  212MPD1    C1 3219   0.426   1.125  16.687  0.0774 -0.5990  0.5247
  212MPD1    C2 3220   0.362   1.049  16.785 -0.1249 -0.5388 -0.1680
  212MPD1    C3 3221   0.312   0.928  16.754  0.5822 -0.1875 -0.4142
  212MPD1    C4 3222   0.334   0.878  16.630  0.2437  0.6366  0.4818
  212MPD1    C5 3223   0.387   0.955  16.531  0.0425  0.2575  0.0902
  212MPD1     H 3224   0.359   1.097  16.882  0.4019 -1.3987  0.2766
  212MPD1    H1 3225   0.286   0.784  16.604 -2.0065  1.6526  0.9602
  212MPD1    H2 3226   0.472   1.140  16.482 -0.1997  0.9327  1.0558
  212MPD1    H3 3227   0.383   0.913  16.431  1.3853 -2.3004  1.1194
  212MPD1     N 3228   0.238   0.844  16.844  0.4003 -0.0725 -0.1561
  212MPD1    H5 3229   0.203   0.755  16.810 -0.0664 -0.0102  0.1522
  212MPD1    N1 3230   0.455   1.259  16.704 -0.3658 -0.0483  0.6270
  212MPD1    H6 3231   0.513   1.283  16.625 -0.7021  0.8656  0.6619
  212MPD1    H7 3232   0.485   1.291  16.796  1.4347 -0.4018  0.1582
  213MPD1     C 3233   2.932   1.623  16.119 -0.4284  0.3638 -0.2406
  213MPD1    C1 3234   2.892   1.524  16.030 -0.0044  0.4886  0.1816
  213MPD1    C2 3235   2.872   1.571  15.905 -0.0565  0.1069 -0.3112
  213MPD1    C3 3236   2.876   1.702  15.868  0.0562 -0.4983 -0.4570
  213MPD1    C4 3237   2.890   1.797  15.967 -0.2401  0.0854  0.3244
  213MPD1    C5 3238   2.921   1.755  16.091 -0.0673  0.2640 -0.5800
  213MPD1     H 3239   2.868   1.506  15.819  0.1129 -2.4874  1.6645
  213MPD1    H1 3240   2.873   1.902  15.951  2.2002  0.8736  2.9316
  213MPD1    H2 3241   2.953   1.605  16.224  0.6220  1.2072 -0.3036
  213MPD1    H3 3242   2.939   1.828  16.170  0.8886 -0.7715  0.1595
  213MPD1     N 3243   2.858   1.742  15.734  0.2006 -0.2672  0.1893
  213MPD1    H5 3244   2.847   1.663  15.671  1.0570  0.3046 -0.6787
  213MPD1    N1 3245   2.932   1.386  16.054 -0.7213 -0.0902 -0.4812
  213MPD1    H6 3246   2.943   1.367  16.153  1.9741  1.2347 -0.5165
  213MPD1    H7 3247   2.868   1.322  16.008 -1.5587  1.4964 -1.5409
  214MPD1     C 3248   2.659   1.295  14.908 -0.2619  0.1914 -0.4897
  214MPD1    C1 3249   2.586   1.327  15.019  0.0746 -0.5167  0.1138
  214MPD1    C2 3250   2.619   1.440  15.100 -0.2260 -0.1415  0.0044
  214MPD1    C3 3251   2.735   1.509  15.082  0.7496 -0.3028 -0.8836
  214MPD1    C4 3252   2.810   1.476  14.967 -0.2057 -0.1607 -0.1950
  214MPD1    C5 3253   2.768   1.378  14.880 -0.5379  0.1121 -0.0734
  214MPD1     H 3254   2.552   1.476  15.177 -0.2713 -0.5728  0.1650
  214MPD1    H1 3255   2.899   1.535  14.949 -0.9956  2.0759  3.2421
  214MPD1    H2 3256   2.628   1.222  14.834  1.6390 -1.6313  0.5258
  214MPD1    H3 3257   2.828   1.365  14.791  0.7049  0.4234  0.7247
  214MPD1     N 3258   2.782   1.610  15.166 -0.0525 -0.2712 -0.5784
  214MPD1    H5 3259   2.870   1.651  15.138 -1.3792  2.8560 -0.1558
  214MPD1    N1 3260   2.455   1.273  15.029 -0.1697 -0.2099 -0.3454
  214MPD1    H6 3261   2.388   1.322  14.970  2.4616  2.6711 -0.9057
  214MPD1    H7 3262   2.420   1.286  15.123 -0.2090 -1.3845 -0.1943
  215MPD1     C 3263   3.424   2.626  10.466 -0.1198  0.4747 -0.5122
  215MPD1    C1 3264   3.384   2.753  10.437  0.2748 -0.0425  0.2982
  215MPD1    C2 3265   3.419   2.859  10.518 -0.4024  1.1860  0.0077
  215MPD1    C3 3266   3.491   2.827  10.637 -0.1790 -0.1563 -0.3256
  215MPD1    C4 3267   3.535   2.694  10.662  0.3654  0.3566 -0.0522
  215MPD1    C5 3268   3.500   2.598  10.570  0.5263 -0.0738 -0.1917
  215MPD1     H 3269   3.390   2.959  10.489 -1.8782  1.8090  3.5552
  215MPD1    H1 3270   3.583   2.667  10.755 -0.2178  1.6439  0.6263
  215MPD1    H2 3271   3.398   2.548  10.395  2.3123 -2.0291  1.3696
  215MPD1    H3 3272   3.533   2.496  10.589  0.6665  0.1509  0.7602
  215MPD1     N 3273   3.509   2.934  10.729  0.2173 -0.4193 -0.2790
  215MPD1    H5 3274   3.484   3.027  10.697  0.3730  0.4722  2.1891
  215MPD1    N1 3275   3.337   2.776  10.311  0.0811  0.0646  0.1567
  215MPD1    H6 3276   3.350   2.869  10.273 -0.1052  0.3322  0.7412
  215MPD1    H7 3277   3.353   2.693  10.254 -0.9430  0.2819 -0.4425
  216MPD1     C 3278   0.493   0.380  16.654 -0.5668 -0.1255  0.1895
  216MPD1    C1 3279   0.503   0.249  16.691  0.4229  0.4844 -0.1971
  216MPD1    C2 3280   0.493   0.223  16.825 -0.0160  0.0943 -0.5701
  216MPD1    C3 3281   0.476   0.317  16.921  0.5132 -0.0838 -0.9203
  216MPD1    C4 3282   0.469   0.451  16.891 -0.0947  0.4639  0.1235
  216MPD1    C5 3283   0.480   0.477  16.755  0.0133 -0.8973  1.0083
  216MPD1     H 3284   0.470   0.125  16.865  0.3993 -0.3137 -1.3241
  216MPD1    H1 3285   0.459   0.529  16.966  0.5578 -1.4913  2.2464
  216MPD1    H2 3286   0.507   0.413  16.551 -0.5175  1.0224  0.5717
  216MPD1    H3 3287   0.485   0.580  16.722 -1.9036 -1.4008 -0.8331
  216MPD1     N 3288   0.467   0.261  17.055 -0.0082  0.1361 -0.2690
  216MPD1    H5 3289   0.484   0.162  17.068 -0.2958  0.0658 -0.4344
  216MPD1    N1 3290   0.541   0.149  16.598 -0.1275  0.0691  0.4912
  216MPD1    H6 3291   0.507   0.169  16.504 -0.7197 -0.6927  0.5389
  216MPD1    H7 3292   0.492   0.065  16.630  0.5270  0.3860  2.3167
  217MPD1     C 3293   1.157   1.292   8.516  0.6031 -0.4590 -0.2026
  217MPD1    C1 3294   1.039   1.356   8.536  0.0370  0.4827 -0.2054
  217MPD1    C2 3295   1.016   1.427   8.656  1.0831 -0.0902  0.9134
  217MPD1    C3 3296   1.113   1.418   8.750 -0.3109  1.1290  0.6787
  217MPD1    C4 3297   1.217   1.337   8.736 -0.0254 -0.6438  0.3085
  217MPD1    C5 3298   1.242   1.274   8.625 -0.7488 -0.5607 -0.0031
  217MPD1     H 3299   0.920   1.476   8.666 -0.0224 -2.3456  1.3047
  217MPD1    H1 3300   1.293   1.336   8.813 -0.9533  0.4185  1.2313
  217MPD1    H2 3301   1.176   1.234   8.426  1.4324 -0.5071 -0.0000
  217MPD1    H3 3302   1.335   1.219   8.611  1.3655  2.7372  1.3437
  217MPD1     N 3303   1.102   1.498   8.868 -0.9753  0.0698  0.0306
  217MPD1    H5 3304   1.183   1.486   8.929 -1.4316 -2.0059  0.1976
  217MPD1    N1 3305   0.952   1.372   8.425  0.4296  0.3838  0.3246
  217MPD1    H6 3306   0.942   1.302   8.351 -1.2247  1.6284 -0.6194
  217MPD1    H7 3307   0.858   1.395   8.454  0.5682 -0.7267  1.6755
  218MPD1     C 3308   2.359   3.024  12.828 -0.4862  0.7586  0.0382
  218MPD1    C1 3309   2.426   2.940  12.919  0.1606  0.2879  0.8225
  218MPD1    C2 3310   2.563   2.927  12.910  0.3554 -0.2327 -0.1240
  218MPD1    C3 3311   2.630   2.996  12.806  0.2411  0.6037  0.1764
  218MPD1    C4 3312   2.563   3.071  12.706  0.0265 -0.2545  1.1757
  218MPD1    C5 3313   2.425   3.077  12.722  0.1492 -0.2394 -0.5704
  218MPD1     H 3314   2.617   2.861  12.977 -0.8041  1.2677  2.3064
  218MPD1    H1 3315   2.607   3.130  12.627 -3.2832 -0.3664 -0.7789
  218MPD1    H2 3316   2.253   3.044  12.835 -0.5560  1.1394 -2.1903
  218MPD1    H3 3317   2.366   3.137  12.653 -0.2314  1.8358  1.5805
  218MPD1     N 3318   2.767   2.987  12.810 -0.4877  0.5784 -0.3508
  218MPD1    H5 3319   2.806   2.953  12.897  1.0071 -0.3646 -1.4076
  218MPD1    N1 3320   2.346   2.854  12.994  0.1732 -0.2284 -0.3523
  218MPD1    H6 3321   2.406   2.821  13.070 -1.9858  1.3412  2.0359
  218MPD1    H7 3322   2.270   2.908  13.036  0.5455  0.1523 -0.1697
  219MPD1     C 3323   3.478   3.394  12.172 -0.4936 -0.5215 -0.0869
  219MPD1    C1 3324   3.506   3.419  12.301 -0.1310 -0.4692 -0.6462
  219MPD1    C2 3325   3.434   3.353  12.399  1.3391 -0.0425 -0.7205
  219MPD1    C3 3326   3.339   3.260  12.366 -0.2638 -0.5846  0.0707
  219MPD1    C4 3327   3.315   3.239  12.236 -0.1145 -0.0233  1.0743
  219MPD1    C5 3328   3.376   3.309  12.131  0.6015  0.3753 -0.0963
  219MPD1     H 3329   3.462   3.367  12.503 -2.5823  0.9837  0.1823
  219MPD1    H1 3330   3.233   3.174  12.208  0.3922 -0.1827 -0.0308
  219MPD1    H2 3331   3.528   3.458  12.100 -0.6333  0.5071  0.7363
  219MPD1    H3 3332   3.356   3.300  12.025  1.0288  0.2121 -0.1640
  219MPD1     N 3333   3.268   3.186  12.467  0.1085 -0.3349  0.6269
  219MPD1    H5 3334   3.197   3.120  12.435  0.1820  0.6472 -1.5571
  219MPD1    N1 3335   3.612   3.511  12.337  0.9253 -0.2670  0.6987
  219MPD1    H6 3336   3.592   3.569  12.418  0.4951 -0.2677  0.5886
  219MPD1    H7 3337   3.630   3.579  12.263  1.3682 -1.9645 -0.7425
  220MPD1     C 3338   3.218   4.138   9.525  0.3247  0.1988 -0.1977
  220MPD1    C1 3339   3.296   4.147   9.644 -0.3216  0.0530  0.5644
  220MPD1    C2 3340   3.266   4.049   9.740  0.1480 -0.4043 -0.2060
  220MPD1    C3 3341   3.184   3.942   9.715 -0.6402  0.2588 -0.8088
  220MPD1    C4 3342   3.107   3.951   9.599 -0.4106  0.1129  0.2165
  220MPD1    C5 3343   3.117   4.048   9.516  0.3814 -0.6779 -0.0530
  220MPD1     H 3344   3.318   4.052   9.835 -0.8568 -2.1718  0.3984
  220MPD1    H1 3345   3.034   3.876   9.570  0.3638 -1.1905  1.6322
  220MPD1    H2 3346   3.230   4.210   9.445 -1.0125 -0.8722 -1.3664
  220MPD1    H3 3347   3.055   4.045   9.427 -0.4482 -0.0493  0.5055
  220MPD1     N 3348   3.182   3.835   9.808  0.2065 -0.4326  0.4518
  220MPD1    H5 3349   3.234   3.848   9.894 -1.2613 -0.2459  1.3148
  220MPD1    N1 3350   3.412   4.234   9.658 -0.2372  0.0216  0.2620
  220MPD1    H6 3351   3.441   4.268   9.749  1.6040 -0.0187 -0.3109
  220MPD1    H7 3352   3.369   4.316   9.614  0.4594 -1.3914 -3.0832
  221MPD1     C 3353   4.649   1.810  17.186 -0.4728  0.6317  0.6423
  221MPD1    C1 3354   0.023   1.872  17.257 -0.4878 -0.8464  0.3056
  221MPD1    C2 3355   0.135   1.919  17.194 -0.5898  0.7463 -0.1687
  221MPD1    C3 3356   0.152   1.892  17.058 -0.2550 -0.7394  0.4335
  221MPD1    C4 3357   0.055   1.820  16.993 -0.0591  0.0670 -0.3286
  221MPD1    C5 3358   4.663   1.787  17.055  0.0545  0.5070 -0.2008
  221MPD1     H 3359   0.215   1.968  17.248  0.1387  0.6677 -1.1752
  221MPD1    H1 3360   0.059   1.800  16.887 -0.0344 -1.4173 -0.0470
  221MPD1    H2 3361   4.566   1.756  17.231 -1.9362 -0.2046 -3.0768
  221MPD1    H3 3362   4.594   1.724  16.999 -0.1183  1.2249 -0.7971
  221MPD1     N 3363   0.258   1.937  16.973  0.2467  0.0238 -0.2839
  221MPD1    H5 3364   0.249   1.928  16.872 -0.3474  0.1491 -0.2432
  221MPD1    N1 3365   0.015   1.889  17.393  0.3052  0.0181 -0.2035
  221MPD1    H6 3366   4.642   1.901  17.431  0.4653  2.0140 -0.4321
  221MPD1    H7 3367   0.079   1.963  17.422  0.1891 -0.8466  2.2201
  222MPD1     C 3368   0.230   4.606  17.390  0.0027  0.8238  0.0894
  222MPD1    C1 3369   0.198   4.717  17.318  0.6395 -0.4155 -0.3799
  222MPD1    C2 3370   0.145   0.110  17.379  0.1748 -0.1284  0.2504
  222MPD1    C3 3371   0.099   0.103  17.513  0.1351 -0.0330  0.9638
  222MPD1    C4 3372   0.123   4.708  17.586  0.3422 -0.0698 -0.8727
  222MPD1    C5 3373   0.183   4.603  17.517 -0.4281 -1.0741 -0.1198
  222MPD1     H 3374   0.121   0.200  17.323 -0.6807 -1.9701 -2.3169
  222MPD1    H1 3375   0.081   4.695  17.685  0.3094  0.3880 -0.8246
  222MPD1    H2 3376   0.276   4.518  17.346 -1.5130 -1.1676  2.4342
  222MPD1    H3 3377   0.195   4.509  17.569  0.2828  0.1758  1.9732
  222MPD1     N 3378   0.040   0.206  17.584  0.1244 -0.3164  0.3511
  222MPD1    H5 3379   0.011   0.187  17.679 -1.3048 -2.5941 -0.5432
  222MPD1    N1 3380   0.238   0.005  17.179 -0.3335  0.2691  0.6654
  222MPD1    H6 3381   0.196   0.091  17.143  0.0493 -0.0710 -0.5872
  222MPD1    H7 3382   0.208   4.638  17.140  1.2889  1.0453 -2.3000
  223MPD1     C 3383   4.283   0.031   0.585  0.8282  0.2810  0.4608
  223MPD1    C1 3384   4.407   0.006   0.538  0.0572  0.2122  0.8123
  223MPD1    C2 3385   4.458   0.077   0.427 -0.4864  0.2077  0.2217
  223MPD1    C3 3386   4.387   0.177   0.364  0.6648  1.1793  0.2858
  223MPD1    C4 3387   4.254   0.190   0.403 -0.2842  0.1550 -0.1807
  223MPD1    C5 3388   4.212   0.131   0.521  0.0731 -0.1311 -0.0732
  223MPD1     H 3389   4.551   0.041   0.384  0.1922  0.5970  1.3614
  223MPD1    H1 3390   4.191   0.255   0.343  0.5564  0.6772 -0.4903
  223MPD1    H2 3391   4.248   4.696   0.671  1.5627  1.2992  1.4349
  223MPD1    H3 3392   4.116   0.164   0.560 -0.4558 -1.8040  0.0226
  223MPD1     N 3393   4.451   0.246   0.255  0.2684 -0.3383  0.3067
  223MPD1    H5 3394   4.551   0.227   0.249  0.0929 -1.1220 -0.1922
  223MPD1    N1 3395   4.479   4.618   0.591 -0.1591 -0.1482  0.6584
  223MPD1    H6 3396   4.459   4.612   0.690  0.4431 -0.3123  0.7655
  223MPD1    H7 3397   4.579   4.618   0.572 -0.2427  0.0592  0.1926
  224MPD1     C 3398   1.337   2.741   8.753  0.2717  0.1235 -0.2884
  224MPD1    C1 3399   1.413   2.652   8.829  0.4943  0.2566 -0.1261
  224MPD1    C2 3400   1.372   2.620   8.957  0.0336 -0.2097 -0.5624
  224MPD1    C3 3401   1.279   2.699   9.029 -0.0336 -0.3907 -0.8751
  224MPD1    C4 3402   1.219   2.797   8.954  0.0017  0.5356  0.0855
  224MPD1    C5 3403   1.243   2.812   8.818  0.4424 -0.4231 -0.2884
  224MPD1     H 3404   1.424   2.544   9.014  0.7343  1.3089  0.8417
  224MPD1    H1 3405   1.141   2.857   8.998 -1.1134 -1.1169  0.3473
  224MPD1    H2 3406   1.362   2.753   8.648 -0.8809 -1.7363 -0.7874
  224MPD1    H3 3407   1.201   2.895   8.762  0.3878 -1.3631 -1.6411
  224MPD1     N 3408   1.246   2.683   9.167  0.0416  0.1299 -0.4250
  224MPD1    H5 3409   1.178   2.749   9.203  0.1744 -1.5100  2.8919
  224MPD1    N1 3410   1.510   2.571   8.762 -0.6324  0.6984  0.4202
  224MPD1    H6 3411   1.547   2.629   8.688  1.0217 -1.1670 -0.1950
  224MPD1    H7 3412   1.583   2.548   8.829  0.8589  0.6530 -1.2368
  225MPD1     C 3413   1.337   3.910  13.944  0.1121 -0.0671  0.2124
  225MPD1    C1 3414   1.279   3.804  13.885 -0.2403 -0.4195  0.2721
  225MPD1    C2 3415   1.331   3.759  13.766  0.0933  0.4145 -0.3189
  225MPD1    C3 3416   1.427   3.834  13.701 -0.4516  0.5495 -0.3478
  225MPD1    C4 3417   1.476   3.952  13.754  0.2625  0.6447  0.1215
  225MPD1    C5 3418   1.434   3.986  13.877  0.0206 -0.2194 -0.9927
  225MPD1     H 3419   1.293   3.664  13.730 -1.6466  1.8553 -2.2240
  225MPD1    H1 3420   1.555   4.011  13.708  1.2462 -0.5193  0.2924
  225MPD1    H2 3421   1.310   3.939  14.045  0.3169  1.2188 -0.0949
  225MPD1    H3 3422   1.486   4.070  13.922  0.7269 -0.4915 -1.3031
  225MPD1     N 3423   1.470   3.798  13.571  0.2694 -0.0478 -0.2359
  225MPD1    H5 3424   1.517   3.871  13.519 -0.6243  1.3018  0.8665
  225MPD1    N1 3425   1.190   3.721  13.960  0.1441  0.9527  0.5559
  225MPD1    H6 3426   1.133   3.775  14.025  0.9032  0.2142  1.8236
  225MPD1    H7 3427   1.120   3.680  13.899 -1.3262  1.0351  2.1838
  226MPD1     C 3428   0.359   2.914   9.415 -0.2428  0.1493  0.2165
  226MPD1    C1 3429   0.492   2.945   9.404 -0.0320 -0.1288  0.1721
  226MPD1    C2 3430   0.526   3.065   9.340 -0.4445 -0.0537 -0.0258
  226MPD1    C3 3431   0.428   3.156   9.308 -0.7518 -0.3268 -0.0727
  226MPD1    C4 3432   0.292   3.126   9.340 -0.2495 -0.3246 -1.2808
  226MPD1    C5 3433   0.257   3.004   9.388 -0.4858  0.1211 -0.0734
  226MPD1     H 3434   0.628   3.084   9.307  0.0056 -1.6044  0.4426
  226MPD1    H1 3435   0.209   3.194   9.324  0.3696  0.8504  0.5119
  226MPD1    H2 3436   0.318   2.820   9.450  2.1043 -0.4243  1.4667
  226MPD1    H3 3437   0.158   2.968   9.414 -0.2878 -0.4517 -0.1100
  226MPD1     N 3438   0.462   3.272   9.238 -0.0013 -0.6508 -0.1026
  226MPD1    H5 3439   0.559   3.295   9.221  0.2415 -1.7946 -0.2551
  226MPD1    N1 3440   0.590   2.847   9.425 -0.3334 -1.2598  0.2621
  226MPD1    H6 3441   0.680   2.882   9.458 -0.8310  1.7746 -1.5687
  226MPD1    H7 3442   0.553   2.789   9.500  0.1823 -0.9095  0.7851
  227MPD1     C 3443   4.460   3.914   9.072  0.0204  0.1274 -0.7322
  227MPD1    C1 3444   4.466   3.789   9.126 -0.3927 -0.6017  0.2128
  227MPD1    C2 3445   4.593   3.731   9.108 -0.2471 -0.2355 -0.1319
  227MPD1    C3 3446   4.700   3.790   9.037 -0.4819 -0.1175  0.0920
  227MPD1    C4 3447   4.692   3.920   8.995  0.0817 -0.1285  0.4382
  227MPD1    C5 3448   4.567   3.982   9.010 -0.1359  0.5712  0.5727
  227MPD1     H 3449   4.612   3.626   9.127 -0.6233  0.1129  2.2147
  227MPD1    H1 3450   0.051   3.971   8.943  1.1457 -1.4879  0.7688
  227MPD1    H2 3451   4.367   3.968   9.089 -0.1383 -0.4925  0.3103
  227MPD1    H3 3452   4.556   4.085   8.976 -0.6332 -0.2628 -1.7522
  227MPD1     N 3453   0.095   3.712   9.025  0.4420  0.0582 -0.0916
  227MPD1    H5 3454   0.089   3.619   9.064 -0.0135 -0.2912 -1.0122
  227MPD1    N1 3455   4.360   3.728   9.188 -0.4024 -0.0126  0.1575
  227MPD1    H6 3456   4.393   3.670   9.265  2.3471  1.6037  0.1913
  227MPD1    H7 3457   4.295   3.798   9.223  0.3417  0.7841 -0.0864
  228MPD1     C 3458   0.263   1.875  12.917 -0.6463  0.5847 -0.0249
  228MPD1    C1 3459   0.180   1.920  12.820  0.4345  0.3023  0.6953
  228MPD1    C2 3460   0.044   1.891  12.839 -0.4275  0.0001  0.2518
  228MPD1    C3 3461   0.012   1.782  12.914  0.0315  0.0081  0.2984
  228MPD1    C4 3462   0.110   1.713  12.979  0.5524 -0.0390  0.1750
  228MPD1    C5 3463   0.230   1.771  12.998 -0.0528 -0.3822  0.6183
  228MPD1     H 3464   4.686   1.945  12.789  0.0357 -0.1713 -0.6733
  228MPD1    H1 3465   0.096   1.614  13.023 -0.6929  0.3248  0.5945
  228MPD1    H2 3466   0.360   1.922  12.921 -1.2665  1.9148 -0.5294
  228MPD1    H3 3467   0.309   1.736  13.064  0.5601 -0.9843 -0.4339
  228MPD1     N 3468   4.600   1.746  12.908  0.1556  0.1354 -0.0463
  228MPD1    H5 3469   4.535   1.822  12.889 -2.2894 -1.8869  0.2596
  228MPD1    N1 3470   0.216   2.038  12.755 -0.0395  0.1674  0.1714
  228MPD1    H6 3471   0.309   2.034  12.715 -0.2414  0.9170 -0.3756
  228MPD1    H7 3472   0.158   2.043  12.671 -0.9185  0.9860  0.8263
  229MPD1     C 3473   4.617   0.823  15.492 -0.5736 -0.5417  0.2015
  229MPD1    C1 3474   4.507   0.782  15.565 -0.7480  0.1432 -0.1961
  229MPD1    C2 3475   4.492   0.643  15.581 -0.3162  0.8972 -0.5174
  229MPD1    C3 3476   4.597   0.553  15.561 -0.0372 -0.4898 -0.2182
  229MPD1    C4 3477   4.717   0.599  15.506 -0.4843 -0.3378 -0.4301
  229MPD1    C5 3478   0.002   0.733  15.473  0.1650 -0.2823 -0.0690
  229MPD1     H 3479   4.400   0.599  15.617 -0.2942  1.5238  0.2921
  229MPD1    H1 3480   0.076   0.528  15.490 -0.3458 -0.1956 -0.3753
  229MPD1    H2 3481   4.620   0.927  15.462 -1.6777 -0.0979  1.6035
  229MPD1    H3 3482   0.089   0.767  15.417 -0.3856 -1.9226 -1.9094
  229MPD1     N 3483   4.594   0.413  15.582 -0.5714 -0.2124  0.4006
  229MPD1    H5 3484   4.669   0.362  15.536 -0.3570 -0.0087  0.5276
  229MPD1    N1 3485   4.399   0.871  15.578  0.1038 -0.0476 -0.0186
  229MPD1    H6 3486   4.436   0.965  15.594  0.6124  0.0074 -1.5362
  229MPD1    H7 3487   4.340   0.853  15.659 -0.3961 -3.3464 -1.1239
  230MPD1     C 3488   0.370   4.301  15.447  0.3536  0.2544 -0.1379
  230MPD1    C1 3489   0.271   4.294  15.348  0.5854  0.7799 -0.6787
  230MPD1    C2 3490   0.170   4.382  15.371 -0.5409  0.6746 -0.4950
  230MPD1    C3 3491   0.168   4.484  15.471 -0.8308 -0.2871 -0.0449
  230MPD1    C4 3492   0.275   4.495  15.556  0.3864 -0.0167 -0.1832
  230MPD1    C5 3493   0.366   4.394  15.550 -0.7059 -0.4708 -0.0231
  230MPD1     H 3494   0.080   4.377  15.311 -0.6048 -1.4795 -0.2441
  230MPD1    H1 3495   0.290   4.562  15.639  1.8501  0.0542 -0.5074
  230MPD1    H2 3496   0.456   4.235  15.452 -1.4589 -2.1939 -0.7355
  230MPD1    H3 3497   0.433   4.373  15.632  0.8710 -0.1891 -1.2447
  230MPD1     N 3498   0.055   4.568  15.483  0.1194 -0.0814 -0.3177
  230MPD1    H5 3499   4.698   4.542  15.425  0.9139 -2.2691 -0.4161
  230MPD1    N1 3500   0.259   4.184  15.265  0.4811 -0.3596 -0.9192
  230MPD1    H6 3501   0.338   4.130  15.229  0.9800 -0.2704  0.0444
  230MPD1    H7 3502   0.206   4.213  15.182 -0.5092 -0.5947 -0.3728
  231MPD1     C 3503   1.705   1.725  15.531 -0.0965  0.5936  0.4323
  231MPD1    C1 3504   1.758   1.689  15.408  0.0340  0.1700  0.0480
  231MPD1    C2 3505   1.874   1.757  15.362  0.7578  0.4146 -0.3427
  231MPD1    C3 3506   1.935   1.853  15.444  0.1809  0.3147  0.2734
  231MPD1    C4 3507   1.888   1.870  15.573 -0.5219  0.3450 -0.0503
  231MPD1    C5 3508   1.772   1.808  15.613  0.4459 -0.0716  0.4627
  231MPD1     H 3509   1.910   1.738  15.262  0.3467 -1.3445 -0.1687
  231MPD1    H1 3510   1.929   1.948  15.636 -1.9237  0.8450  0.2355
  231MPD1    H2 3511   1.616   1.681  15.574  1.3780 -1.9961  0.8132
  231MPD1    H3 3512   1.722   1.827  15.707 -1.0361 -0.2215 -0.2825
  231MPD1     N 3513   2.056   1.910  15.399  0.0689 -0.1784  0.3819
  231MPD1    H5 3514   2.091   1.890  15.305  1.9651 -0.6675  1.1858
  231MPD1    N1 3515   1.676   1.613  15.320  0.3426 -0.5671  0.0619
  231MPD1    H6 3516   1.614   1.544  15.364 -1.1107 -0.8491 -2.4253
  231MPD1    H7 3517   1.718   1.564  15.242 -0.2892 -2.2446  0.7596
  232MPD1     C 3518   3.727   4.169   0.781  0.5038  0.1195 -0.4315
  232MPD1    C1 3519   3.846   4.154   0.716  0.5614 -0.4365 -0.6624
  232MPD1    C2 3520   3.855   4.052   0.623  0.1639 -0.6014  1.0456
  232MPD1    C3 3521   3.747   3.973   0.593  0.4707  0.1437  0.5052
  232MPD1    C4 3522   3.631   3.984   0.669  0.1426  0.5467  0.4885
  232MPD1    C5 3523   3.622   4.091   0.757 -0.5229 -0.4042  0.1992
  232MPD1     H 3524   3.946   4.047   0.564  1.5132  0.7306  2.9910
  232MPD1    H1 3525   3.550   3.912   0.661  1.3057 -0.5797 -1.0515
  232MPD1    H2 3526   3.711   4.256   0.844 -0.3887 -1.1989  1.1528
  232MPD1    H3 3527   3.530   4.098   0.814 -1.4425  1.6130 -1.5836
  232MPD1     N 3528   3.747   3.899   0.478  0.6129  0.3724 -0.2086
  232MPD1    H5 3529   3.836   3.906   0.430  0.6089 -1.0363 -0.4344
  232MPD1    N1 3530   3.952   4.251   0.723 -0.0536 -1.0142  0.2593
  232MPD1    H6 3531   4.042   4.208   0.706  0.7570  0.3708  1.0824
  232MPD1    H7 3532   3.945   4.290   0.817  0.8002  1.8146 -0.8727
  233MPD1     C 3533   0.207   3.119   2.016 -0.2078 -0.3026 -0.1785
  233MPD1    C1 3534   0.210   3.122   1.880  0.1522 -0.0611  0.2493
  233MPD1    C2 3535   0.331   3.093   1.816 -0.1779  0.1707 -0.6825
  233MPD1    C3 3536   0.437   3.040   1.889 -0.1365  0.3736 -0.3398
  233MPD1    C4 3537   0.430   3.044   2.026 -0.4133 -0.6253 -0.0616
  233MPD1    C5 3538   0.318   3.089   2.087 -0.5334 -0.2163  0.1404
  233MPD1     H 3539   0.344   3.092   1.708 -1.4378  1.3673 -0.8356
  233MPD1    H1 3540   0.512   3.005   2.085 -1.2289  0.0587  1.5193
  233MPD1    H2 3541   0.114   3.147   2.064 -1.4474 -1.8937 -1.6281
  233MPD1    H3 3542   0.308   3.094   2.194  0.7036  0.4875  0.2303
  233MPD1     N 3543   0.556   2.986   1.839 -0.3509 -0.1534 -0.5090
  233MPD1    H5 3544   0.629   2.960   1.905  1.3680  2.2775 -1.4439
  233MPD1    N1 3545   0.101   3.180   1.811  0.1741  0.2075  0.0080
  233MPD1    H6 3546   0.011   3.169   1.858  1.2011 -0.9549  1.6905
  233MPD1    H7 3547   0.081   3.127   1.726  0.0279 -1.9937  1.4068
  234MPD1     C 3548   2.245   1.318  10.355 -0.0248 -0.0254  0.6493
  234MPD1    C1 3549   2.221   1.449  10.396  0.4939  0.1701  0.6888
  234MPD1    C2 3550   2.149   1.527  10.312  0.8409  0.2246 -0.3419
  234MPD1    C3 3551   2.104   1.477  10.182  0.4996  0.6097 -0.1324
  234MPD1    C4 3552   2.133   1.343  10.148 -0.0436 -0.8300  0.6023
  234MPD1    C5 3553   2.204   1.269  10.234 -0.6312  0.1386  0.2524
  234MPD1     H 3554   2.118   1.621  10.355  1.9278  0.2878  0.2887
  234MPD1    H1 3555   2.084   1.295  10.064 -0.3050  1.3402 -0.4998
  234MPD1    H2 3556   2.302   1.252  10.418  0.5965  0.0251  0.1392
  234MPD1    H3 3557   2.226   1.166  10.208  0.1237  0.2013  0.6588
  234MPD1     N 3558   2.033   1.568  10.099  0.1848  0.3674  0.0911
  234MPD1    H5 3559   2.014   1.662  10.132 -2.1011 -0.4833  1.2283
  234MPD1    N1 3560   2.257   1.506  10.520 -0.3359  0.2888 -0.2278
  234MPD1    H6 3561   2.200   1.584  10.552 -0.9699 -0.1654 -0.2505
  234MPD1    H7 3562   2.272   1.439  10.596 -1.0391 -2.0435 -2.1368
  235MPD1     C 3563   3.336   3.707   9.245  0.4984 -0.2648 -0.6137
  235MPD1    C1 3564   3.433   3.758   9.323 -0.6308 -0.2801 -0.3537
  235MPD1    C2 3565   3.459   3.887   9.321 -0.5011 -0.8474  0.3265
  235MPD1    C3 3566   3.385   3.976   9.252  0.0133  0.9913 -1.3568
  235MPD1    C4 3567   3.277   3.923   9.184  0.2357  0.3627 -0.5358
  235MPD1    C5 3568   3.251   3.787   9.184 -0.2578  0.6726  0.6421
  235MPD1     H 3569   3.539   3.920   9.386  0.6484 -0.7915 -1.1116
  235MPD1    H1 3570   3.213   3.983   9.121 -1.2295 -0.6654 -0.0285
  235MPD1    H2 3571   3.311   3.602   9.245  1.8427 -0.5821 -0.2308
  235MPD1    H3 3572   3.170   3.742   9.129  1.6658 -2.6955  0.5723
  235MPD1     N 3573   3.422   4.114   9.247  0.5692  0.4280 -0.2583
  235MPD1    H5 3574   3.507   4.143   9.295  1.9256 -0.4210 -2.1069
  235MPD1    N1 3575   3.532   3.674   9.372  0.1110 -0.2824 -0.1012
  235MPD1    H6 3576   3.577   3.720   9.450 -0.0560  1.0898 -0.8066
  235MPD1    H7 3577   3.496   3.586   9.409  1.0130 -0.0928  1.2116
  236MPD1     C 3578   2.683   0.517   9.557 -0.0153 -0.4958  0.6532
  236MPD1    C1 3579   2.702   0.391   9.617 -0.8663  0.0526 -0.2115
  236MPD1    C2 3580   2.780   0.379   9.729 -0.4422  0.4423 -0.0416
  236MPD1    C3 3581   2.816   0.489   9.806 -0.3447  0.5890  0.8190
  236MPD1    C4 3582   2.787   0.610   9.756  0.3212 -0.1837 -0.3186
  236MPD1    C5 3583   2.736   0.623   9.626 -0.0989  0.4347  0.4307
  236MPD1     H 3584   2.815   0.279   9.752  0.7005  0.3765 -2.0574
  236MPD1    H1 3585   2.828   0.700   9.798 -0.0804  0.7535 -1.9277
  236MPD1    H2 3586   2.632   0.525   9.462 -0.0357  3.4610  1.0047
  236MPD1    H3 3587   2.710   0.719   9.585 -2.2056 -0.3848 -0.1556
  236MPD1     N 3588   2.885   0.487   9.925 -0.5623  0.3823 -0.0240
  236MPD1    H5 3589   2.903   0.576   9.969 -0.6268  0.1843  0.4087
  236MPD1    N1 3590   2.672   0.278   9.542 -0.4543 -0.1042 -0.6825
  236MPD1    H6 3591   2.596   0.288   9.474 -1.2811 -2.0155 -0.0527
  236MPD1    H7 3592   2.651   0.198   9.602 -1.9527  0.2663 -0.7049
  237MPD1     C 3593   2.531   3.704  16.086 -0.2480  0.3389  0.1381
  237MPD1    C1 3594   2.492   3.604  16.164  0.4114  0.1059 -0.1573
  237MPD1    C2 3595   2.438   3.489  16.108  0.2124 -0.1549 -0.1689
  237MPD1    C3 3596   2.448   3.470  15.966 -0.3716  0.1023  0.4351
  237MPD1    C4 3597   2.509   3.567  15.895  0.0664 -0.3785  0.1586
  237MPD1    C5 3598   2.549   3.683  15.952  0.7817  0.2201  0.0446
  237MPD1     H 3599   2.399   3.413  16.175 -0.5529 -1.5563 -2.1699
  237MPD1    H1 3600   2.517   3.565  15.787  0.5923 -2.2361  0.2366
  237MPD1    H2 3601   2.575   3.798  16.119 -2.6989  1.5637 -0.1305
  237MPD1    H3 3602   2.614   3.749  15.896  1.1352 -0.3045 -0.1659
  237MPD1     N 3603   2.414   3.344  15.898  0.5200 -0.1132  0.4120
  237MPD1    H5 3604   2.416   3.348  15.797  2.0473 -2.9822  0.3323
  237MPD1    N1 3605   2.470   3.637  16.299  0.1795  0.1866 -0.5729
  237MPD1    H6 3606   2.542   3.703  16.327  0.1621  0.7460 -1.8532
  237MPD1    H7 3607   2.472   3.553  16.357 -3.1942  1.2724  1.0757
  238MPD1     C 3608   4.488   2.201  15.485  0.2344  0.2043 -0.7478
  238MPD1    C1 3609   4.457   2.085  15.415 -0.4500 -0.4518  0.0948
  238MPD1    C2 3610   4.326   2.027  15.430 -0.3855  0.0724  0.0226
  238MPD1    C3 3611   4.229   2.106  15.476 -0.3134 -0.5197  0.2139
  238MPD1    C4 3612   4.262   2.223  15.546 -0.0223  0.8934 -1.1203
  238MPD1    C5 3613   4.389   2.262  15.557  0.5897  0.1499  0.1152
  238MPD1     H 3614   4.299   1.939  15.373  0.8434  0.4776 -1.1920
  238MPD1    H1 3615   4.181   2.275  15.595 -3.1755 -3.9859 -1.2663
  238MPD1    H2 3616   4.590   2.237  15.488  0.3614 -0.0442 -2.5683
  238MPD1    H3 3617   4.402   2.351  15.617  0.0907 -0.9184  1.7838
  238MPD1     N 3618   4.101   2.060  15.459  0.8623  0.1138  0.2509
  238MPD1    H5 3619   4.089   1.969  15.415 -0.6592  0.2232  0.4322
  238MPD1    N1 3620   4.549   2.004  15.345  0.5055  0.4714  0.2329
  238MPD1    H6 3621   4.620   2.064  15.304 -1.1503  2.5001  0.3137
  238MPD1    H7 3622   4.511   1.947  15.270 -2.7242 -0.9818  2.9458
  239MPD1     C 3623   4.445   2.375  15.180  0.4682 -0.3099 -0.1666
  239MPD1    C1 3624   4.507   2.385  15.062 -0.2999  0.6646  0.1568
  239MPD1    C2 3625   4.471   2.488  14.982  0.3747 -0.3928 -0.4355
  239MPD1    C3 3626   4.377   2.585  15.008 -0.0833  0.7608  0.0641
  239MPD1    C4 3627   4.334   2.584  15.137  0.0229  0.6151  0.0846
  239MPD1    C5 3628   4.362   2.478  15.221  0.5615 -0.1522 -1.0890
  239MPD1     H 3629   4.501   2.483  14.878  1.4824 -0.8101 -0.1002
  239MPD1    H1 3630   4.264   2.659  15.172 -1.3788 -1.2730  1.3001
  239MPD1    H2 3631   4.456   2.283  15.237  2.2807  0.5281  0.8564
  239MPD1    H3 3632   4.310   2.466  15.315  2.1334 -2.0946 -0.4657
  239MPD1     N 3633   4.346   2.692  14.919 -0.1304  0.2120  0.0914
  239MPD1    H5 3634   4.274   2.755  14.954  0.0768 -0.9871  2.7070
  239MPD1    N1 3635   4.576   2.276  15.008  0.2949  0.0998  0.5882
  239MPD1    H6 3636   4.619   2.220  15.081  0.9456  1.9920  1.6350
  239MPD1    H7 3637   4.649   2.292  14.939 -0.1513  0.0026  0.0937
  240MPD1     C 3638   3.270   2.284  14.041 -0.9292  0.1515  0.3571
  240MPD1    C1 3639   3.218   2.200  14.131 -0.0948 -0.4772 -0.2755
  240MPD1    C2 3640   3.240   2.227  14.261 -0.5894 -0.2741 -0.2456
  240MPD1    C3 3641   3.307   2.341  14.302  0.3211 -0.8743  0.1786
  240MPD1    C4 3642   3.349   2.429  14.211 -0.5387  0.4535 -0.1258
  240MPD1    C5 3643   3.346   2.394  14.082  0.3923 -0.1514  0.5749
  240MPD1     H 3644   3.203   2.160  14.337  0.9250  0.5063  1.1871
  240MPD1    H1 3645   3.391   2.528  14.225 -0.2076 -0.1146  2.8751
  240MPD1    H2 3646   3.253   2.273  13.935  0.1516  1.9859  0.0056
  240MPD1    H3 3647   3.363   2.473  14.008 -1.3716  0.1746  0.5072
  240MPD1     N 3648   3.324   2.363  14.440 -0.2428  0.4066 -0.2585
  240MPD1    H5 3649   3.270   2.298  14.497 -2.1584  0.2358 -2.2181
  240MPD1    N1 3650   3.156   2.080  14.088  0.9151 -0.1510  0.3336
  240MPD1    H6 3651   3.095   2.088  14.008 -1.5489  0.4573  2.2668
  240MPD1    H7 3652   3.095   2.048  14.163  1.1527  1.0492  1.0532
  241MPD1     C 3653   4.083   2.278  15.183  0.0091 -0.2547 -0.1603
  241MPD1    C1 3654   4.089   2.252  15.047  0.5052 -0.7908 -0.1786
  241MPD1    C2 3655   3.972   2.245  14.974  0.7440  0.1893 -0.4853
  241MPD1    C3 3656   3.850   2.285  15.032 -0.0085 -0.0914 -0.4797
  241MPD1    C4 3657   3.846   2.316  15.164 -0.6795  0.2609 -0.1380
  241MPD1    C5 3658   3.963   2.318  15.235  0.5914  0.3345 -0.4696
  241MPD1     H 3659   3.971   2.220  14.869  0.2390  0.1818 -0.4777
  241MPD1    H1 3660   3.754   2.354  15.206 -0.1500  0.6047  0.7110
  241MPD1    H2 3661   4.174   2.286  15.241 -0.0214 -0.1446 -0.1272
  241MPD1    H3 3662   3.951   2.351  15.338 -0.0120  0.1977 -0.4937
  241MPD1     N 3663   3.725   2.295  14.960  0.1848  0.2357 -0.2530
  241MPD1    H5 3664   3.656   2.333  15.024 -1.1942 -2.5110 -0.1335
  241MPD1    N1 3665   4.215   2.221  14.990  0.0013  0.1212  0.2642
  241MPD1    H6 3666   4.229   2.226  14.889  0.9184 -2.1470  0.2853
  241MPD1    H7 3667   4.284   2.283  15.033 -0.4928  0.3911  0.6677
  242MPD1     C 3668   3.521   1.011  15.289  0.4751 -0.2690  1.0162
  242MPD1    C1 3669   3.472   0.961  15.171 -0.2807  0.1320  0.2575
  242MPD1    C2 3670   3.545   0.868  15.104 -0.1425  0.0970 -0.5914
  242MPD1    C3 3671   3.672   0.826  15.156  0.9521  0.1155 -0.7995
  242MPD1    C4 3672   3.718   0.880  15.278  0.4341  0.3355  0.1386
  242MPD1    C5 3673   3.641   0.968  15.340  0.5946  0.0674 -0.3535
  242MPD1     H 3674   3.508   0.823  15.013 -0.8409  2.7557 -1.6302
  242MPD1    H1 3675   3.808   0.849  15.331  1.3122  1.3208 -0.7943
  242MPD1    H2 3676   3.468   1.080  15.354 -0.0423  1.9826 -1.7887
  242MPD1    H3 3677   3.676   1.025  15.425 -1.1109  1.0714 -0.3118
  242MPD1     N 3678   3.749   0.726  15.088  0.3097  0.2335  1.0070
  242MPD1    H5 3679   3.840   0.706  15.128  1.0408  0.5729 -0.4853
  242MPD1    N1 3680   3.340   0.982  15.131 -0.5546  0.0406  0.0220
  242MPD1    H6 3681   3.325   1.079  15.159 -1.5481 -0.3796  0.9623
  242MPD1    H7 3682   3.322   0.983  15.031 -1.2195  0.1210  0.1468
  243MPD1     C 3683   0.812   0.537  16.829  0.2690 -0.3261  0.3255
  243MPD1    C1 3684   0.806   0.403  16.801  0.5057 -0.4564  0.1355
  243MPD1    C2 3685   0.835   0.320  16.919  0.2281 -0.1404 -0.0054
  243MPD1    C3 3686   0.829   0.368  17.047  0.3793  0.0325 -0.9674
  243MPD1    C4 3687   0.812   0.500  17.071  0.2016 -0.6589 -0.3795
  243MPD1    C5 3688   0.808   0.583  16.958 -0.1848  0.3108  0.3323
  243MPD1     H 3689   0.868   0.217  16.911 -2.0160 -0.9915  1.6681
  243MPD1    H1 3690   0.835   0.535  17.172 -1.7237 -1.9335  0.4813
  243MPD1    H2 3691   0.807   0.609  16.748 -0.1724  1.3706  1.8456
  243MPD1    H3 3692   0.801   0.690  16.971 -0.8687  0.2397  0.5771
  243MPD1     N 3693   0.844   0.263  17.140  0.3301  0.3373  0.0884
  243MPD1    H5 3694   0.840   0.171  17.097  3.0490 -0.3183  1.2064
  243MPD1    N1 3695   0.812   0.352  16.670  0.0694 -0.5516 -0.3450
  243MPD1    H6 3696   0.736   0.403  16.627  2.4322  3.2408 -0.0451
  243MPD1    H7 3697   0.790   0.253  16.674  0.9935 -0.7127  1.2339
  244MPD1     C 3698   1.026   0.325   0.465 -0.2447 -0.1815 -0.0290
  244MPD1    C1 3699   1.085   0.402   0.365  0.1166 -0.0061  0.6193
  244MPD1    C2 3700   1.080   0.366   0.230  0.2968 -0.4126 -0.2002
  244MPD1    C3 3701   1.022   0.248   0.195  0.1662  0.3081 -0.6016
  244MPD1    C4 3702   0.980   0.163   0.300 -0.3846  0.1758  0.3054
  244MPD1    C5 3703   0.975   0.205   0.430 -0.0985  0.6528  0.4790
  244MPD1     H 3704   1.132   0.434   0.164 -1.0832  0.2935 -0.5410
  244MPD1    H1 3705   0.933   0.067   0.280  0.2083 -0.5416  2.2487
  244MPD1    H2 3706   1.034   0.358   0.568 -0.3658  0.7989 -0.3309
  244MPD1    H3 3707   0.933   0.135   0.501 -1.5103  0.3302 -0.6480
  244MPD1     N 3708   1.000   0.218   0.059  0.2136 -0.3967 -0.2009
  244MPD1    H5 3709   1.024   0.289  17.677  1.2021 -0.8425 -0.3205
  244MPD1    N1 3710   1.163   0.508   0.407  0.9120 -0.1956  0.5602
  244MPD1    H6 3711   1.105   0.561   0.473 -0.7014 -0.5784 -0.5458
  244MPD1    H7 3712   1.174   0.575   0.331 -0.7046  1.2266  1.5616
  245MPD1     C 3713   2.846   0.098  12.807  0.1957  0.2993  0.0321
  245MPD1    C1 3714   2.929   0.182  12.876 -0.3977 -0.9620  0.1595
  245MPD1    C2 3715   2.887   0.222  12.996  0.3801 -0.7630  0.1979
  245MPD1    C3 3716   2.763   0.194  13.048 -0.6660 -0.6095  0.2681
  245MPD1    C4 3717   2.670   0.128  12.960  0.0521  0.2579  0.3604
  245MPD1    C5 3718   2.717   0.073  12.845 -0.1482 -0.0255 -0.1599
  245MPD1     H 3719   2.959   0.274  13.058  1.0296 -1.0179 -0.3454
  245MPD1    H1 3720   2.566   0.114  12.986  0.5196 -1.0246  1.5374
  245MPD1    H2 3721   2.887   0.061  12.714  0.2878  0.7657 -0.1130
  245MPD1    H3 3722   2.649   0.027  12.774 -0.9224 -0.1242  0.6469
  245MPD1     N 3723   2.733   0.253  13.171  0.4460 -0.1603 -0.9931
  245MPD1    H5 3724   2.800   0.320  13.207 -0.5346 -1.2397  2.8283
  245MPD1    N1 3725   3.058   0.186  12.828  0.2425  0.4061  0.4759
  245MPD1    H6 3726   3.063   0.161  12.729 -1.1641  0.8640  0.2942
  245MPD1    H7 3727   3.106   0.276  12.835  0.5815  0.2880 -0.2775
  246MPD1     C 3728   3.811   2.548   9.007  0.1885  0.6678 -0.2033
  246MPD1    C1 3729   3.918   2.461   9.015 -0.1899  0.6533 -0.5768
  246MPD1    C2 3730   3.888   2.331   8.975  0.3411  0.1727  0.0189
  246MPD1    C3 3731   3.754   2.282   8.949 -0.0365  0.0161  0.1620
  246MPD1    C4 3732   3.651   2.377   8.961  0.4469 -0.0913  0.6153
  246MPD1    C5 3733   3.679   2.505   8.995 -0.3468  0.3830 -0.0189
  246MPD1     H 3734   3.969   2.259   8.978  0.4283  0.2573 -0.3016
  246MPD1    H1 3735   3.544   2.357   8.952  0.6646 -0.5822 -0.8925
  246MPD1    H2 3736   3.826   2.654   9.026 -1.0040  1.1045 -1.7731
  246MPD1    H3 3737   3.598   2.576   8.987 -0.2024  0.3176 -2.1368
  246MPD1     N 3738   3.728   2.143   8.935 -0.1659 -0.0210 -0.0422
  246MPD1    H5 3739   3.813   2.086   8.943 -1.5702 -2.3114 -1.3826
  246MPD1    N1 3740   4.047   2.513   9.029 -0.1057  0.1216  0.4800
  246MPD1    H6 3741   4.105   2.446   9.079  0.6046 -1.4178 -2.4400
  246MPD1    H7 3742   4.052   2.598   9.085 -0.8301 -0.2251  1.0616
  247MPD1     C 3743   0.782   4.115  16.547  0.5856  0.0597 -0.3849
  247MPD1    C1 3744   0.817   4.202  16.441 -0.3837  0.1684  0.2659
  247MPD1    C2 3745   0.949   4.207  16.402 -0.2671 -0.6949 -0.6703
  247MPD1    C3 3746   1.034   4.098  16.439 -0.0792  0.3021  0.0082
  247MPD1    C4 3747   0.995   4.004  16.529 -0.4935  0.6861  0.0933
  247MPD1    C5 3748   0.871   4.015  16.584 -0.5250 -0.1386  0.0301
  247MPD1     H 3749   0.983   4.281  16.330 -0.5693 -0.9526 -1.0828
  247MPD1    H1 3750   1.051   3.918  16.565 -0.5702 -0.5541 -2.7590
  247MPD1    H2 3751   0.688   4.131  16.600 -1.6718 -1.6746 -3.8677
  247MPD1    H3 3752   0.835   3.944  16.657 -0.1114 -0.6805 -0.2902
  247MPD1     N 3753   1.165   4.078  16.385 -0.0365  0.1489  0.3316
  247MPD1    H5 3754   1.216   3.997  16.419 -1.5977  0.0144  2.3444
  247MPD1    N1 3755   0.730   4.311  16.417  1.0474 -0.1609 -0.0808
  247MPD1    H6 3756   0.744   4.340  16.321 -1.3094  2.2362  0.3247
  247MPD1    H7 3757   0.633   4.282  16.431  1.6675 -1.9608  0.6357
  248MPD1     C 3758   2.682   4.005   1.146 -0.8310 -0.2975  0.4831
  248MPD1    C1 3759   2.652   4.119   1.221 -0.9859 -0.1663  0.8422
  248MPD1    C2 3760   2.518   4.158   1.227  0.0497 -0.9842 -0.0722
  248MPD1    C3 3761   2.424   4.097   1.143 -0.1853  0.3257  0.3889
  248MPD1    C4 3762   2.464   4.001   1.051 -0.1223 -0.2493  0.4464
  248MPD1    C5 3763   2.592   3.952   1.056 -0.4026 -0.4718  0.3856
  248MPD1     H 3764   2.491   4.229   1.304 -2.7303 -2.3721  0.2042
  248MPD1    H1 3765   2.392   3.944   0.994  2.0688 -0.9121 -1.6773
  248MPD1    H2 3766   2.782   3.965   1.134 -0.7137  0.0104  0.4267
  248MPD1    H3 3767   2.638   3.873   0.997 -1.9101 -0.7016 -0.4726
  248MPD1     N 3768   2.293   4.150   1.149 -0.1700 -0.6349 -0.4498
  248MPD1    H5 3769   2.273   4.218   1.222  1.1793  0.0798 -0.7412
  248MPD1    N1 3770   2.748   4.160   1.320  0.1922  0.2295 -0.6221
  248MPD1    H6 3771   2.719   4.254   1.347  2.4225  0.7986 -0.2527
  248MPD1    H7 3772   2.844   4.166   1.288  0.5111 -0.1550  0.2786
  249MPD1     C 3773   4.467   2.500  10.569  0.0250  0.4740 -0.3683
  249MPD1    C1 3774   4.485   2.636  10.554 -1.2128  0.0502 -0.0667
  249MPD1    C2 3775   4.385   2.714  10.503 -0.8774 -0.2144 -0.5092
  249MPD1    C3 3776   4.280   2.653  10.447 -0.0906 -0.2268 -0.0228
  249MPD1    C4 3777   4.270   2.516  10.449 -0.6676  0.7778  0.1589
  249MPD1    C5 3778   4.360   2.443  10.515  0.0137 -0.2180  0.3375
  249MPD1     H 3779   4.396   2.822  10.495 -1.4536 -0.1164 -0.0029
  249MPD1    H1 3780   4.189   2.458  10.407  1.5407 -3.3927  1.6051
  249MPD1    H2 3781   4.537   2.428  10.609 -0.8928 -0.4665 -0.4802
  249MPD1    H3 3782   4.337   2.337  10.520 -1.0106  0.0687  1.6542
  249MPD1     N 3783   4.187   2.737  10.384  0.3643  0.3349 -0.5651
  249MPD1    H5 3784   4.195   2.833  10.414 -0.9217 -0.1192  1.2213
  249MPD1    N1 3785   4.609   2.697  10.590  0.3115  0.2649 -0.6420
  249MPD1    H6 3786   4.620   2.798  10.581  0.6286  0.3548  0.7434
  249MPD1    H7 3787   4.663   2.661  10.669 -1.2680  0.8923  0.7036
  250MPD2     C 3788   4.662   4.268  13.064  0.3398  0.0447 -0.7280
  250MPD2    C1 3789   0.037   4.221  12.983  0.6951  0.2648  0.2350
  250MPD2    C2 3790   0.008   4.122  12.891  0.6132  0.3530 -0.1885
  250MPD2    C3 3791   4.603   4.061  12.886  0.4345  0.3907  0.0783
  250MPD2    C4 3792   4.507   4.113  12.969  0.0009  0.2040  0.5339
  250MPD2    C5 3793   4.539   4.217  13.051 -0.1324  0.1993  0.6368
  250MPD2     H 3794   0.085   4.096  12.819 -1.1247 -0.3153 -1.8129
  250MPD2    H1 3795   4.410   4.067  12.977  0.2207 -0.1864  0.9225
  250MPD2    H2 3796   4.671   4.352  13.132 -2.9793  0.4055 -0.7492
  250MPD2    H3 3797   4.461   4.267  13.108 -1.5415 -1.5060  0.1844
  250MPD2     N 3798   4.564   3.956  12.798 -0.3506 -0.4455  0.0624
  250MPD2    H5 3799   4.464   3.937  12.794 -0.0221 -2.2338  0.3229
  250MPD2    N1 3800   0.160   4.289  12.983 -0.1300  0.0943  0.2815
  250MPD2    H7 3801   0.181   4.352  13.060 -0.9540 -0.6723  1.1250
  251TMC3    C1 3802   0.402   4.308  12.963  0.0719 -0.0618  0.0708
  251TMC3    C2 3803   0.409   4.341  13.093  0.7019  0.7168  0.6540
  251TMC3    C3 3804   0.529   4.312  13.158  0.0052 -0.1046  0.0863
  251TMC3    C4 3805   0.521   4.270  12.892  0.5730 -0.3156  0.6392
  251TMC3    C5 3806   0.627   4.225  12.970  0.5640  0.1055 -0.4488
  251TMC3    C6 3807   0.636   4.246  13.105  0.4160  0.1747  0.3643
  251TMC3     C 3808   0.272   4.261  12.902 -0.5743 -0.4886 -0.1304
  251TMC3     O 3809   0.279   4.195  12.802  0.3919 -0.2158 -0.3131
  251TMC3     H 3810   0.315   4.365  13.141  1.2702  1.6629  1.3074
  251TMC3    H1 3811   0.524   4.272  12.784 -1.3404 -0.1761  0.5923
  251TMC3    H2 3812   0.716   4.205  13.166  1.7784  2.4970  0.1667
  251TMC3    C7 3813   0.692   4.108  12.921  0.0903 -0.3993 -0.4149
  251TMC3    C8 3814   0.535   4.328  13.300  0.4964 -0.6095 -0.1694
  251TMC3    O1 3815   0.770   4.053  13.000 -0.4218 -0.9519  0.3359
  251TMC3    O2 3816   0.616   4.268  13.370 -0.1003  0.8391  0.3734
  252TMC3    C1 3817   1.579   4.510   9.117  0.6431  0.4361 -0.2775
  252TMC3    C2 3818   1.641   4.630   9.146  0.1865  0.5015  0.1267
  252TMC3    C3 3819   1.595   0.024   9.078  0.2953  0.2642 -0.2510
  252TMC3    C4 3820   1.477   4.498   9.022  0.7071  0.3799  0.3461
  252TMC3    C5 3821   1.434   4.612   8.966 -0.4085 -0.6134  0.9077
  252TMC3    C6 3822   1.493   0.018   8.982  0.0432 -0.4439  0.1817
  252TMC3     C 3823   1.636   4.392   9.171 -0.0305 -0.3572  0.6197
  252TMC3     O 3824   1.708   4.401   9.277  0.5746 -0.5598 -0.0761
  252TMC3     H 3825   1.720   4.639   9.219 -0.9941 -0.3167  1.5073
  252TMC3    H1 3826   1.438   4.401   8.993  0.7154  0.1072  1.2542
  252TMC3    H2 3827   1.458   0.112   8.940  0.2498 -0.9357 -1.0994
  252TMC3    C7 3828   1.325   4.603   8.875  0.6010  0.6713 -0.3789
  252TMC3    C8 3829   1.638   0.153   9.119  0.0007  0.6118  0.3000
  252TMC3    O1 3830   1.315   4.696   8.797 -0.3167 -0.5806 -0.0774
  252TMC3    O2 3831   1.665   0.238   9.031  0.2281  0.0664  0.0645
  253MPD2     C 3832   2.131   3.574  15.728  0.0880 -0.7435  0.5636
  253MPD2    C1 3833   2.027   3.480  15.725 -0.3886 -0.6948 -0.5470
  253MPD2    C2 3834   1.953   3.453  15.839  1.0254  0.0214  0.5441
  253MPD2    C3 3835   1.976   3.523  15.953  0.4538  0.6433 -0.4701
  253MPD2    C4 3836   2.091   3.599  15.964 -0.0629  0.1592  0.5484
  253MPD2    C5 3837   2.153   3.634  15.849  0.1775  0.6029  0.2607
  253MPD2     H 3838   1.879   3.374  15.840  0.2699  0.7852  3.2715
  253MPD2    H1 3839   2.125   3.645  16.056 -2.1284  0.9739  0.9105
  253MPD2    H2 3840   2.195   3.589  15.642 -0.3101 -2.0682  0.0309
  253MPD2    H3 3841   2.238   3.699  15.864  0.3578  0.4865 -0.2552
  253MPD2     N 3842   1.899   3.513  16.074  0.1288 -0.1662  0.2989
  253MPD2    H5 3843   1.938   3.547  16.161  2.8583  1.5134 -1.5650
  253MPD2    N1 3844   1.995   3.415  15.609  0.1980 -0.1873 -0.1687
  253MPD2    H7 3845   1.925   3.343  15.624 -1.1855  1.4098  0.8918
  254TMC3    C1 3846   1.733   3.426  16.207 -0.2855  0.2431 -1.0786
  254TMC3    C2 3847   1.598   3.419  16.221 -0.1349  0.2038  0.5948
  254TMC3    C3 3848   1.540   3.330  16.298 -0.0538  0.2759 -0.5965
  254TMC3    C4 3849   1.804   3.346  16.297  0.4834 -0.1292 -0.4602
  254TMC3    C5 3850   1.741   3.256  16.374 -0.7225  0.3967 -0.0745
  254TMC3    C6 3851   1.606   3.243  16.382  0.0672  0.5371  0.1082
  254TMC3     C 3852   1.774   3.469  16.069 -0.4771 -0.8096 -0.6317
  254TMC3     O 3853   1.695   3.463  15.979 -0.1245 -0.1760 -0.0260
  254TMC3     H 3854   1.533   3.459  16.144  0.4236  0.2991  0.1648
  254TMC3    H1 3855   1.912   3.339  16.301  0.5475 -0.0751 -2.1753
  254TMC3    H2 3856   1.547   3.178  16.445  0.3106  1.5565  1.3702
  254TMC3    C7 3857   1.825   3.164  16.455 -0.2990 -0.2253 -0.1862
  254TMC3    C8 3858   1.401   3.351  16.330  0.2657  0.1570 -0.3275
  254TMC3    O1 3859   1.925   3.207  16.510  0.3416 -0.1702 -0.4294
  254TMC3    O2 3860   1.359   3.264  16.407 -0.0862 -0.3367  0.0796
  255MPD2     C 3861   4.420   1.363  10.797  0.1142  0.3738  0.0989
  255MPD2    C1 3862   4.496   1.475  10.793  0.0872 -0.3409 -0.7441
  255MPD2    C2 3863   4.636   1.460  10.767 -0.1310 -0.0001 -0.2510
  255MPD2    C3 3864   4.687   1.332  10.759 -0.6339  0.7241  0.0439
  255MPD2    C4 3865   4.613   1.215  10.762  0.1370  0.8458  0.7093
  255MPD2    C5 3866   4.482   1.238  10.794 -0.4130 -0.2905 -1.2246
  255MPD2     H 3867   4.692   1.552  10.755 -0.4052  0.0944 -0.8647
  255MPD2    H1 3868   4.650   1.113  10.764  0.7766  1.0882  1.4099
  255MPD2    H2 3869   4.312   1.366  10.812  0.0510  1.2736 -0.5588
  255MPD2    H3 3870   4.422   1.151  10.818 -0.8241  0.3214  0.0158
  255MPD2     N 3871   0.100   1.335  10.714  0.1673 -0.5365  0.0139
  255MPD2    H5 3872   0.134   1.427  10.687  0.1291 -0.8758 -1.2037
  255MPD2    N1 3873   4.432   1.603  10.803  0.3328  0.2443  0.2375
  255MPD2    H7 3874   4.331   1.607  10.803  0.3904  1.6229 -0.2719
  256TMC3    C1 3875   4.405   1.841  10.759 -0.0147  0.7850 -0.6650
  256TMC3    C2 3876   4.483   1.952  10.754  0.2312  0.1730  0.2861
  256TMC3    C3 3877   4.482   2.031  10.643  0.4149  0.2318 -0.1297
  256TMC3    C4 3878   4.322   1.813  10.658  0.5145  0.7995  0.0510
  256TMC3    C5 3879   4.324   1.893  10.544 -0.4092  0.1868 -0.0279
  256TMC3    C6 3880   4.410   2.001  10.535  0.2264  0.3475 -0.1236
  256TMC3     C 3881   4.488   1.727  10.803 -0.1566 -0.6649  0.0182
  256TMC3     O 3882   4.609   1.749  10.814  0.0959  0.2717  0.1110
  256TMC3     H 3883   4.548   1.977  10.837  0.7279 -1.1205  0.2809
  256TMC3    H1 3884   4.255   1.729  10.666  0.1404  0.8247 -2.9231
  256TMC3    H2 3885   4.412   2.059  10.443 -1.3433 -1.7183 -1.4595
  256TMC3    C7 3886   4.297   1.823  10.423 -0.0467  0.1840 -0.5565
  256TMC3    C8 3887   4.594   2.118  10.624  0.1425  0.6918  0.1317
  256TMC3    O1 3888   4.273   1.706  10.429  0.2873  0.2443  0.4347
  256TMC3    O2 3889   4.656   2.169  10.716 -0.5926  0.9713 -0.1005
  257MPD2     C 3890   4.183   3.657  13.440 -0.3365 -0.0630 -0.1886
  257MPD2    C1 3891   4.141   3.570  13.344  1.1799 -0.2874 -0.2883
  257MPD2    C2 3892   4.114   3.438  13.381 -0.0461  0.7859 -0.3309
  257MPD2    C3 3893   4.108   3.409  13.517  0.4048 -0.0917 -0.3469
  257MPD2    C4 3894   4.168   3.493  13.609 -0.1763  0.4084  0.0039
  257MPD2    C5 3895   4.202   3.619  13.567 -0.4933 -0.0735 -0.3216
  257MPD2     H 3896   4.089   3.357  13.314  2.0199  2.0921 -2.6501
  257MPD2    H1 3897   4.186   3.460  13.711  1.2802  0.8754 -0.1027
  257MPD2    H2 3898   4.214   3.758  13.414 -2.6745  0.0459 -2.5668
  257MPD2    H3 3899   4.253   3.680  13.641 -0.8739  1.6984 -1.5108
  257MPD2     N 3900   4.065   3.279  13.549 -0.6997 -0.3846 -0.5413
  257MPD2    H5 3901   4.072   3.206  13.479  3.4732 -0.8884  0.4425
  257MPD2    N1 3902   4.119   3.626  13.212 -0.0521  0.7048 -0.2280
  257MPD2    H7 3903   4.151   3.722  13.203  0.7656  0.6829  2.2787
  258TMC3    C1 3904   4.019   3.091  13.688  0.1928 -0.2662  0.3029
  258TMC3    C2 3905   4.010   3.010  13.579  0.1567 -0.6436 -0.2453
  258TMC3    C3 3906   4.017   2.873  13.606  0.5148 -0.1304  0.3935
  258TMC3    C4 3907   4.032   3.046  13.815  0.4001 -0.0285  1.0291
  258TMC3    C5 3908   4.046   2.911  13.834  0.4386  0.0572 -0.5835
  258TMC3    C6 3909   4.038   2.823  13.732  0.4674 -0.1410 -0.4058
  258TMC3     C 3910   4.026   3.237  13.676  0.0366 -0.1214 -0.7643
  258TMC3     O 3911   4.016   3.310  13.775  0.4877 -0.4714  0.1981
  258TMC3     H 3912   3.979   3.050  13.483  0.5008  1.2682  0.4413
  258TMC3    H1 3913   4.026   3.123  13.892 -0.9081  0.7783  0.1204
  258TMC3    H2 3914   4.049   2.716  13.744 -0.6015 -0.2945 -0.8238
  258TMC3    C7 3915   4.026   2.868  13.970 -0.1764  0.0082  0.0583
  258TMC3    C8 3916   4.039   2.772  13.495 -0.3225 -0.0662  0.4664
  258TMC3    O1 3917   3.974   2.946  14.046  0.1495  0.3287 -0.2688
  258TMC3    O2 3918   4.048   2.655  13.529 -0.3590  0.2815 -0.1362
  259MPD2     C 3919   2.937   0.414   1.096 -0.0173  0.1967  0.3186
  259MPD2    C1 3920   2.906   0.285   1.112 -0.0283  0.2957 -0.0596
  259MPD2    C2 3921   3.002   0.186   1.071 -0.7179  0.6482 -0.1915
  259MPD2    C3 3922   3.108   0.216   0.994 -0.5891 -0.1429 -0.2658
  259MPD2    C4 3923   3.139   0.354   0.975  0.5134  0.1644  0.2118
  259MPD2    C5 3924   3.058   0.447   1.035  0.4327 -0.2985 -0.3563
  259MPD2     H 3925   2.977   0.082   1.087 -0.3044  0.5278 -0.3466
  259MPD2    H1 3926   3.227   0.395   0.929  0.1914  1.5824  0.8678
  259MPD2    H2 3927   2.879   0.491   1.145 -0.9411  0.7246 -1.6161
  259MPD2    H3 3928   3.090   0.550   1.025  0.2260  0.0076  2.0966
  259MPD2     N 3929   3.188   0.112   0.939 -0.2922  0.0359 -0.0393
  259MPD2    H5 3930   3.158   0.018   0.964  0.6555  0.2065  1.7126
  259MPD2    N1 3931   2.795   0.260   1.193 -0.2125 -0.5091  0.2637
  259MPD2    H7 3932   2.743   0.343   1.218 -0.0976  0.0053 -1.1865
  260TMC3    C1 3933   3.379   0.012   0.844  0.2026  0.1002 -0.3516
  260TMC3    C2 3934   3.475   0.024   0.746 -0.1533 -0.2029 -0.0475
  260TMC3    C3 3935   3.547   4.629   0.726  0.5019 -0.5610  0.0393
  260TMC3    C4 3936   3.366   4.626   0.925 -0.0086 -0.1873 -0.8398
  260TMC3    C5 3937   3.452   4.520   0.903  0.1381 -0.0066  0.3268
  260TMC3    C6 3938   3.535   4.515   0.800  0.5430  0.0877 -0.2104
  260TMC3     C 3939   3.304   0.133   0.865 -0.9636 -0.3619 -0.4342
  260TMC3     O 3940   3.355   0.239   0.832 -0.3949  0.4268 -0.7824
  260TMC3     H 3941   3.479   0.105   0.675  0.1926 -0.7356 -0.6323
  260TMC3    H1 3942   3.311   4.621   1.018  0.4851 -1.2914 -0.6126
  260TMC3    H2 3943   3.608   4.435   0.805 -0.9769 -1.3910 -1.7783
  260TMC3    C7 3944   3.470   4.426   1.015 -0.5598 -0.2160 -0.3514
  260TMC3    C8 3945   3.632   4.623   0.614  0.6380  0.7669 -0.0767
  260TMC3    O1 3946   3.574   4.429   1.076 -0.2722  0.0221  0.1216
  260TMC3    O2 3947   3.704   0.004   0.603 -0.0109  0.4362 -0.1991
  261MPD2     C 3948   4.101   4.021  12.271  0.4570 -0.1374 -0.0645
  261MPD2    C1 3949   4.190   4.083  12.354 -0.2933  0.0720  0.0937
  261MPD2    C2 3950   4.179   4.218  12.381 -0.0677 -0.2432  0.0105
  261MPD2    C3 3951   4.083   4.298  12.329  0.4777 -0.4608  0.3892
  261MPD2    C4 3952   3.986   4.237  12.245  0.0999 -0.2894 -0.0341
  261MPD2    C5 3953   4.001   4.099  12.211  0.8871  0.2985  0.3653
  261MPD2     H 3954   4.251   4.262  12.448  0.8641 -1.3459 -0.2791
  261MPD2    H1 3955   3.905   4.293  12.198  0.4298  1.2442  1.2212
  261MPD2    H2 3956   4.097   3.913  12.263 -0.7048 -0.2804  2.4807
  261MPD2    H3 3957   3.931   4.055  12.142 -1.1729 -0.0654  2.6654
  261MPD2     N 3958   4.088   4.434  12.364  0.3418 -0.0642 -0.1459
  261MPD2    H5 3959   4.176   4.457  12.408 -0.6936  2.6275  0.5028
  261MPD2    N1 3960   4.290   4.003  12.415 -0.5525  0.7018  0.4936
  261MPD2    H7 3961   4.358   4.047  12.476  1.3425  1.3748 -2.1020
  262TMC3    C1 3962   4.061   4.667  12.322 -0.5490 -0.4003  0.5139
  262TMC3    C2 3963   4.036   0.027  12.213  0.6151 -0.5878 -0.3255
  262TMC3    C3 3964   4.146   0.098  12.176 -0.2392 -0.2281 -0.2588
  262TMC3    C4 3965   4.173   4.669  12.406 -0.1565  0.0254  0.3388
  262TMC3    C5 3966   4.278   0.005  12.349 -0.0332  0.2826 -0.1029
  262TMC3    C6 3967   4.265   0.086  12.237 -0.4968 -0.0318 -0.3841
  262TMC3     C 3968   4.005   4.527  12.306 -0.3005  0.3903  0.6314
  262TMC3     O 3969   3.892   4.514  12.260 -0.2162  0.4050 -0.0350
  262TMC3     H 3970   3.955   0.003  12.145 -0.2968  1.0964  0.1811
  262TMC3    H1 3971   4.184   4.603  12.491 -0.9802  0.7636  1.0214
  262TMC3    H2 3972   4.344   0.153  12.206  1.1514 -0.4904  2.8248
  262TMC3    C7 3973   4.385   4.621  12.331  0.2677  0.2745  0.0090
  262TMC3    C8 3974   4.155   0.122  12.036 -0.3037  0.9040  0.0157
  262TMC3    O1 3975   4.391   4.536  12.421  0.0189 -0.0784 -0.2000
  262TMC3    O2 3976   4.262   0.090  11.986  0.3678  0.4323  0.4769
  263MPD2     C 3977   1.227   2.881  11.552 -0.1835  0.3613  0.0247
  263MPD2    C1 3978   1.348   2.820  11.527 -0.2671  0.4464 -0.7460
  263MPD2    C2 3979   1.374   2.815  11.389 -0.0077  0.4964 -1.1631
  263MPD2    C3 3980   1.285   2.846  11.287  0.4240  0.4294 -0.1456
  263MPD2    C4 3981   1.164   2.906  11.320 -0.3787  0.7653  0.4415
  263MPD2    C5 3982   1.133   2.919  11.457  1.1643  0.0634  0.5297
  263MPD2     H 3983   1.462   2.757  11.363 -0.6418 -0.3258 -1.4616
  263MPD2    H1 3984   1.087   2.926  11.246  0.0314  0.4682 -0.0572
  263MPD2    H2 3985   1.195   2.888  11.656  2.0540  1.6543  0.6187
  263MPD2    H3 3986   1.037   2.964  11.479  1.4493  0.9198  0.0294
  263MPD2     N 3987   1.315   2.821  11.150  0.2621 -0.1878 -0.2748
  263MPD2    H5 3988   1.397   2.767  11.124  1.5626  1.5325  0.3102
  263MPD2    N1 3989   1.437   2.778  11.628  0.9070 -0.3442 -0.6350
  263MPD2    H7 3990   1.404   2.750  11.719  2.0471 -0.8866 -0.3891
  264TMC3    C1 3991   1.298   2.817  10.917 -0.7128 -1.0453 -0.0735
  264TMC3    C2 3992   1.223   2.799  10.805  0.0677  0.0052 -0.2519
  264TMC3    C3 3993   1.276   2.792  10.681  0.2093 -0.5725 -0.0115
  264TMC3    C4 3994   1.434   2.826  10.909 -0.0456  0.8075 -0.1289
  264TMC3    C5 3995   1.487   2.808  10.788  0.7500 -0.0462  0.2296
  264TMC3    C6 3996   1.414   2.779  10.674 -0.0848 -0.2344 -0.0126
  264TMC3     C 3997   1.232   2.841  11.041 -0.1144  0.8683  0.3670
  264TMC3     O 3998   1.117   2.881  11.035  0.6668  0.4112 -0.0475
  264TMC3     H 3999   1.115   2.787  10.808 -0.0108  0.8188  0.2568
  264TMC3    H1 4000   1.499   2.824  10.995  0.7000 -1.5247 -0.7380
  264TMC3    H2 4001   1.467   2.762  10.582  1.6695 -0.3570  1.0203
  264TMC3    C7 4002   1.618   2.859  10.757 -0.1981  0.2811  0.0393
  264TMC3    C8 4003   1.227   2.889  10.586 -0.4176 -0.1124 -0.1529
  264TMC3    O1 4004   1.675   2.793  10.673 -0.6456  0.1757 -0.3037
  264TMC3    O2 4005   1.108   2.922  10.598  0.0318  0.1962  0.2285
  265MPD2     C 4006   3.014   2.967  15.923  0.1064 -0.3604  0.0909
  265MPD2    C1 4007   3.096   3.065  15.884 -0.4515  0.0104  0.0608
  265MPD2    C2 4008   3.191   3.036  15.786  0.4841 -0.2227 -0.4827
  265MPD2    C3 4009   3.198   2.911  15.719  0.6443  0.0715 -0.5394
  265MPD2    C4 4010   3.094   2.819  15.753  0.0429  0.0940  0.0023
  265MPD2    C5 4011   3.016   2.849  15.857  0.8469  0.0137 -0.2965
  265MPD2     H 4012   3.264   3.111  15.754 -1.4522  1.4486 -1.0031
  265MPD2    H1 4013   3.075   2.721  15.712  0.1768  1.5356 -3.4858
  265MPD2    H2 4014   2.946   2.971  16.008 -0.3930  0.0337 -0.3368
  265MPD2    H3 4015   2.934   2.786  15.889  0.3471  0.2320 -1.1277
  265MPD2     N 4016   3.281   2.866  15.617 -0.6388  0.0149  0.6475
  265MPD2    H5 4017   3.276   2.770  15.587  1.3509  0.3976 -0.9248
  265MPD2    N1 4018   3.099   3.195  15.946  0.4116 -0.5342  0.4578
  265MPD2    H7 4019   3.159   3.264  15.902  0.8107  0.0087  1.8479
  266TMC3    C1 4020   3.059   3.360  16.116 -0.0520 -0.2349  0.4620
  266TMC3    C2 4021   3.065   3.377  16.257  0.8586 -0.0592 -0.3437
  266TMC3    C3 4022   3.114   3.502  16.301  0.0767 -0.3761 -0.4333
  266TMC3    C4 4023   3.074   3.464  16.031 -0.4277 -0.1356  0.3798
  266TMC3    C5 4024   3.133   3.573  16.080 -0.0219 -0.4998  0.5703
  266TMC3    C6 4025   3.152   3.597  16.214  0.6865  0.1566  0.0373
  266TMC3     C 4026   3.026   3.224  16.064 -0.7766  0.1091  0.3741
  266TMC3     O 4027   2.964   3.153  16.139 -0.1838 -0.2457  0.5476
  266TMC3     H 4028   3.043   3.294  16.323 -0.8044  1.8031  1.4394
  266TMC3    H1 4029   3.046   3.454  15.926 -0.0215 -2.5872  0.4993
  266TMC3    H2 4030   3.204   3.687  16.244 -0.3281  1.4905 -2.2150
  266TMC3    C7 4031   3.133   3.683  15.987 -0.5502 -0.4699 -0.4053
  266TMC3    C8 4032   3.187   3.501  16.427  0.5196 -0.3717 -0.2273
  266TMC3    O1 4033   3.043   3.677  15.904  0.5587  0.0146 -0.4804
  266TMC3    O2 4034   3.205   3.387  16.470  0.2735 -0.2385  0.4558
  267MPD2     C 4035   0.289   0.679   0.251 -0.2291  0.4536 -0.4142
  267MPD2    C1 4036   0.351   0.560   0.282 -0.7936  0.0567 -0.6337
  267MPD2    C2 4037   0.360   0.466   0.187 -0.0148 -0.1238 -0.1137
  267MPD2    C3 4038   0.308   0.493   0.062  0.3666  0.1520 -0.3918
  267MPD2    C4 4039   0.250   0.613   0.028 -0.0326  0.1410 -0.3488
  267MPD2    C5 4040   0.244   0.707   0.125 -0.1195 -0.3383 -0.9236
  267MPD2     H 4041   0.419   0.377   0.205  1.6916  0.5459 -2.3549
  267MPD2    H1 4042   0.232   0.640  17.612 -0.3490 -0.8905 -0.5726
  267MPD2    H2 4043   0.279   0.755   0.327 -2.2875 -0.1767 -0.0297
  267MPD2    H3 4044   0.199   0.804   0.108  0.0060  0.0014  0.5918
  267MPD2     N 4045   0.330   0.409  17.641  0.0571 -0.1670 -0.2401
  267MPD2    H5 4046   0.312   0.436  17.545 -0.2725 -0.4080 -0.2466
  267MPD2    N1 4047   0.412   0.551   0.409 -0.1617  0.0619 -0.1051
  267MPD2    H7 4048   0.448   0.637   0.449 -0.0947  1.4559 -3.1992
  268TMC3    C1 4049   0.549   0.477   0.568  0.7738 -0.3696 -0.5266
  268TMC3    C2 4050   0.648   0.569   0.553 -0.2430 -0.5301 -0.0384
  268TMC3    C3 4051   0.750   0.552   0.641  0.1688 -0.2462 -0.5471
  268TMC3    C4 4052   0.555   0.374   0.663  0.6093  0.6477  0.0601
  268TMC3    C5 4053   0.668   0.361   0.741  0.7985 -0.4456 -1.0016
  268TMC3    C6 4054   0.759   0.455   0.733  0.2563 -0.2982 -0.3158
  268TMC3     C 4055   0.463   0.441   0.459  0.0332 -0.4075  0.0794
  268TMC3     O 4056   0.452   0.326   0.418 -0.1485  0.2358 -0.2438
  268TMC3     H 4057   0.651   0.648   0.479 -3.1007 -1.0717 -0.7431
  268TMC3    H1 4058   0.486   0.290   0.661  1.8612 -0.3962  0.3735
  268TMC3    H2 4059   0.851   0.453   0.792 -1.8301  1.0698  3.0166
  268TMC3    C7 4060   0.668   0.252   0.840 -0.6747  0.0098 -0.0985
  268TMC3    C8 4061   0.860   0.645   0.639 -0.1367  0.7302 -0.6253
  268TMC3    O1 4062   0.777   0.227   0.887 -0.1298  0.3244  0.8846
  268TMC3    O2 4063   0.909   0.672   0.748 -0.3717 -0.5603  0.5333
  269MPD2     C 4064   1.156   3.429  15.968  0.4552 -0.3999  0.4069
  269MPD2    C1 4065   1.039   3.480  16.023 -0.4909  0.1592 -0.7853
  269MPD2    C2 4066   1.023   3.619  16.020  0.2437 -0.2387 -0.1099
  269MPD2    C3 4067   1.119   3.698  15.963  0.4832 -0.0352  0.1858
  269MPD2    C4 4068   1.233   3.646  15.905  0.4106  0.6992 -0.6303
  269MPD2    C5 4069   1.244   3.510  15.909  1.1437 -0.9238  0.4717
  269MPD2     H 4070   0.937   3.665  16.068  0.4379 -1.2456  1.2014
  269MPD2    H1 4071   1.314   3.711  15.874 -1.0801  2.7623 -0.2233
  269MPD2    H2 4072   1.162   3.321  15.973 -1.9239 -0.5543 -0.0362
  269MPD2    H3 4073   1.326   3.458  15.861  0.2078 -2.2459  0.2950
  269MPD2     N 4074   1.084   3.834  15.948  0.2306  0.4892 -0.5729
  269MPD2    H5 4075   0.990   3.862  15.974 -0.0714 -1.9106  0.8889
  269MPD2    N1 4076   0.953   3.390  16.086  0.1516  0.5292  0.3443
  269MPD2    H7 4077   0.969   3.291  16.068  2.7595  1.0467 -0.2395
  270TMC3    C1 4078   0.755   3.310  16.202 -0.7528 -0.6866 -0.0534
  270TMC3    C2 4079   0.622   3.322  16.188  0.2442 -0.1658 -1.0783
  270TMC3    C3 4080   0.551   3.212  16.216 -0.1730 -1.3678  0.5508
  270TMC3    C4 4081   0.815   3.191  16.238  0.0662  1.2521  0.7585
  270TMC3    C5 4082   0.741   3.081  16.250  0.2937 -0.1745 -0.0384
  270TMC3    C6 4083   0.605   3.089  16.245 -0.3521 -0.0016  0.3876
  270TMC3     C 4084   0.833   3.424  16.149 -0.2357 -0.6078  0.2845
  270TMC3     O 4085   0.777   3.532  16.153  0.2920  0.6867  0.5121
  270TMC3     H 4086   0.569   3.416  16.179  0.4265  0.1583  1.2105
  270TMC3    H1 4087   0.923   3.182  16.230 -0.3020 -0.6099 -2.2657
  270TMC3    H2 4088   0.539   3.003  16.241 -2.2168  1.3873  1.4330
  270TMC3    C7 4089   0.808   2.961  16.218 -0.0334 -0.2664  0.0841
  270TMC3    C8 4090   0.428   3.196  16.141  0.6622  0.6008  0.0746
  270TMC3    O1 4091   0.925   2.967  16.179 -0.2003  0.2467  0.9068
  270TMC3    O2 4092   0.326   3.242  16.180 -0.3088 -0.0280 -0.1542
  271MPD2     C 4093   4.446   3.236  14.450  0.0978 -0.2132  0.5331
  271MPD2    C1 4094   4.404   3.247  14.579  1.0674 -0.1018 -0.2838
  271MPD2    C2 4095   4.286   3.316  14.614 -0.3546 -0.1694  0.1954
  271MPD2    C3 4096   4.219   3.381  14.510  0.4199 -0.3701  0.1002
  271MPD2    C4 4097   4.262   3.375  14.380  0.7547 -0.3152  0.4017
  271MPD2    C5 4098   4.384   3.313  14.353  0.1668 -0.7377 -0.0896
  271MPD2     H 4099   4.259   3.309  14.719 -2.3339  1.7188 -0.1842
  271MPD2    H1 4100   4.219   3.435  14.301  3.1596  1.0757  0.1722
  271MPD2    H2 4101   4.529   3.176  14.414 -0.4314 -1.7593  1.9141
  271MPD2    H3 4102   4.413   3.317  14.249 -0.4671  2.2755 -0.1566
  271MPD2     N 4103   4.092   3.445  14.528 -0.9398  0.2223 -0.4859
  271MPD2    H5 4104   4.051   3.482  14.443  0.6346 -1.1594 -1.8432
  271MPD2    N1 4105   4.479   3.176  14.683 -0.9767 -0.1031 -0.0851
  271MPD2    H7 4106   4.439   3.165  14.776  1.1201  0.0995  0.8198
  272TMC3    C1 4107   4.654   3.034  14.783 -0.2687  0.4716  0.2985
  272TMC3    C2 4108   0.037   2.953  14.756  0.3993 -0.1904 -1.1496
  272TMC3    C3 4109   0.112   2.898  14.859  0.0310 -0.1817 -0.0429
  272TMC3    C4 4110   4.628   3.074  14.906  0.6671  0.1603  0.0967
  272TMC3    C5 4111   4.715   3.027  15.008 -0.5511  0.1626  0.4287
  272TMC3    C6 4112   0.097   2.935  14.989  0.8292  0.6418 -0.0637
  272TMC3     C 4113   4.604   3.112  14.666  0.5667  0.5116 -0.4416
  272TMC3     O 4114   4.676   3.103  14.563  0.8599  0.0223  0.1687
  272TMC3     H 4115   0.045   2.926  14.651 -0.5870 -0.2704 -1.2005
  272TMC3    H1 4116   4.563   3.158  14.928 -1.7446 -1.8047  0.5479
  272TMC3    H2 4117   0.161   2.903  15.071  0.7660  0.2680 -0.1627
  272TMC3    C7 4118   4.694   3.074  15.143 -0.5660 -0.3107 -0.5475
  272TMC3    C8 4119   0.228   2.825  14.819  0.7049  0.0895 -0.2541
  272TMC3    O1 4120   4.580   3.104  15.177 -0.5509 -0.3668 -0.0387
  272TMC3    O2 4121   0.231   2.793  14.699  0.3352  0.0046  0.3708
  273MPD2     C 4122   1.537   1.363  11.490 -0.3737  0.3687 -0.8179
  273MPD2    C1 4123   1.631   1.456  11.471  0.3429  0.5271 -0.0025
  273MPD2    C2 4124   1.617   1.557  11.376 -0.2342  0.3107  0.6207
  273MPD2    C3 4125   1.503   1.561  11.301  0.1015 -0.1817  0.3029
  273MPD2    C4 4126   1.402   1.473  11.332  0.3869 -0.3172  0.2438
  273MPD2    C5 4127   1.416   1.370  11.425  0.1474  0.4449 -0.6342
  273MPD2     H 4128   1.680   1.645  11.366  1.3600 -0.9510 -0.3263
  273MPD2    H1 4129   1.302   1.485  11.293  0.2349  0.3940  0.8585
  273MPD2    H2 4130   1.555   1.287  11.565 -1.5878  0.1961 -0.7007
  273MPD2    H3 4131   1.334   1.303  11.447  0.7000  0.0170  0.1051
  273MPD2     N 4132   1.502   1.656  11.196  0.0916 -0.0384  0.2458
  273MPD2    H5 4133   1.573   1.730  11.193 -0.4325  0.4529  0.0053
  273MPD2    N1 4134   1.741   1.454  11.559  0.0397  0.4840 -0.1874
  273MPD2    H7 4135   1.753   1.376  11.623  1.8748 -0.9376 -2.2442
  274TMC3    C1 4136   1.421   1.770  11.001  0.6863  0.2222  0.3210
  274TMC3    C2 4137   1.340   1.775  10.891  0.4686 -0.8018 -0.2224
  274TMC3    C3 4138   1.345   1.884  10.809 -0.2967  0.4303 -0.7516
  274TMC3    C4 4139   1.521   1.861  11.022  0.5090 -0.1169 -0.5151
  274TMC3    C5 4140   1.530   1.965  10.932 -0.0537  0.8713 -0.7802
  274TMC3    C6 4141   1.443   1.979  10.828 -0.0560 -0.7631 -0.0497
  274TMC3     C 4142   1.402   1.659  11.098 -0.0006 -0.0981  0.2756
  274TMC3     O 4143   1.297   1.595  11.084  0.1809  0.3760 -0.2814
  274TMC3     H 4144   1.282   1.692  10.852 -0.5933  0.5267 -1.4764
  274TMC3    H1 4145   1.588   1.858  11.107 -1.3336  0.2546  0.9663
  274TMC3    H2 4146   1.442   2.077  10.782 -0.4636 -1.1069 -0.7862
  274TMC3    C7 4147   1.631   2.070  10.954  0.2419  0.3287  0.3292
  274TMC3    C8 4148   1.238   1.897  10.711 -0.2666 -0.1534  0.2694
  274TMC3    O1 4149   1.668   2.133  10.857  0.3328 -0.0147  0.3567
  274TMC3    O2 4150   1.143   1.824  10.733 -0.5105  0.3803  0.3027
  275MPD2     C 4151   1.087   4.416  14.529  1.0166 -0.3778  0.3323
  275MPD2    C1 4152   1.132   4.296  14.573  0.1179  0.6252 -0.4960
  275MPD2    C2 4153   1.048   4.196  14.617 -0.4637 -0.7644 -0.2839
  275MPD2    C3 4154   0.913   4.225  14.629 -0.3308 -0.7529  0.1186
  275MPD2    C4 4155   0.864   4.348  14.586 -0.5813  0.4963 -0.1928
  275MPD2    C5 4156   0.953   4.441  14.541  0.1391 -0.1296  0.2140
  275MPD2     H 4157   1.095   4.104  14.648  2.3647  0.4084 -1.0313
  275MPD2    H1 4158   0.762   4.376  14.607 -1.0147  0.2792 -2.0807
  275MPD2    H2 4159   1.150   4.496  14.492 -0.3845 -0.3003 -1.8833
  275MPD2    H3 4160   0.913   4.537  14.512 -0.1820 -0.3576 -0.1144
  275MPD2     N 4161   0.826   4.142  14.690  0.0479  0.0894  0.0849
  275MPD2    H5 4162   0.730   4.173  14.685  0.6321  1.6690 -1.4545
  275MPD2    N1 4163   1.265   4.252  14.554  0.8537  0.3990  0.2409
  275MPD2    H7 4164   1.288   4.157  14.580  0.0800  0.1142 -0.1253
  276TMC3    C1 4165   1.500   4.244  14.540 -0.6071 -0.6674  0.0996
  276TMC3    C2 4166   1.463   4.112  14.548 -0.3116  0.2140 -0.1889
  276TMC3    C3 4167   1.527   4.027  14.636 -0.7934  0.6283 -0.0048
  276TMC3    C4 4168   1.597   4.299  14.619 -0.2416  0.2349  0.9088
  276TMC3    C5 4169   1.648   4.213  14.708  0.8302  0.3783  0.3219
  276TMC3    C6 4170   1.615   4.077  14.727 -0.0332 -0.0094 -0.0605
  276TMC3     C 4171   1.379   4.325  14.526  0.4887  1.5437  0.0335
  276TMC3     O 4172   1.384   4.447  14.528  0.5290  0.1578 -0.2312
  276TMC3     H 4173   1.415   4.057  14.468  0.4292  1.9190 -1.8072
  276TMC3    H1 4174   1.634   4.401  14.618 -0.5519  0.3376 -0.4554
  276TMC3    H2 4175   1.651   4.026  14.816 -1.4663 -0.4359  0.2852
  276TMC3    C7 4176   1.746   4.272  14.801 -0.5422 -0.6101 -0.1136
  276TMC3    C8 4177   1.476   3.890  14.641 -0.4100 -1.0111 -0.5354
  276TMC3    O1 4178   1.733   4.387  14.836  0.0617  0.2791  0.0539
  276TMC3    O2 4179   1.372   3.870  14.579  0.6650  0.5293 -0.1905
  277MPD2     C 4180   3.085   3.284  13.828 -0.7247 -0.3518 -0.6968
  277MPD2    C1 4181   2.956   3.265  13.787 -0.7449 -0.2819 -0.1886
  277MPD2    C2 4182   2.871   3.193  13.877 -0.0622  0.5433  0.1482
  277MPD2    C3 4183   2.920   3.146  13.993 -0.5682  0.2470  0.3783
  277MPD2    C4 4184   3.050   3.161  14.031 -0.1083 -0.1335 -0.2280
  277MPD2    C5 4185   3.125   3.234  13.945  0.1575 -0.1879 -0.0371
  277MPD2     H 4186   2.763   3.179  13.868  0.1514  0.0959 -1.8078
  277MPD2    H1 4187   3.101   3.125  14.120  0.6405  0.8532 -0.2648
  277MPD2    H2 4188   3.147   3.356  13.776  1.2691 -1.1122  0.6821
  277MPD2    H3 4189   3.228   3.247  13.978  0.1992  3.1083 -1.4883
  277MPD2     N 4190   2.825   3.075  14.074 -0.6641 -0.0868  0.4247
  277MPD2    H5 4191   2.729   3.065  14.044 -0.4757  1.0889 -0.5818
  277MPD2    N1 4192   2.904   3.347  13.680 -0.1378  0.0377  0.1293
  277MPD2    H7 4193   2.965   3.419  13.642 -1.4131  0.1952 -1.5768
  278TMC3    C1 4194   2.744   2.947  14.261 -0.1979  0.0445 -0.4268
  278TMC3    C2 4195   2.773   2.875  14.376 -0.1882  0.4877  0.3406
  278TMC3    C3 4196   2.665   2.812  14.436  0.3816 -0.6201 -0.5101
  278TMC3    C4 4197   2.625   2.925  14.192  0.7189  0.3521 -0.0940
  278TMC3    C5 4198   2.528   2.859  14.258  0.3586 -0.4940 -0.1675
  278TMC3    C6 4199   2.543   2.799  14.380 -0.0746 -0.6024 -0.1526
  278TMC3     C 4200   2.854   3.019  14.195  0.0151 -0.5039  0.1636
  278TMC3     O 4201   2.956   3.031  14.263  0.1171 -0.1886 -0.5820
  278TMC3     H 4202   2.874   2.871  14.414  0.7347 -1.5594 -2.3239
  278TMC3    H1 4203   2.609   2.950  14.087 -3.4857  0.6759  0.6179
  278TMC3    H2 4204   2.456   2.753  14.426  1.1228 -1.2741  1.4312
  278TMC3    C7 4205   2.406   2.822  14.186  0.4041 -0.4239  0.0296
  278TMC3    C8 4206   2.717   2.697  14.508  0.5962 -0.3091 -0.1109
  278TMC3    O1 4207   2.419   2.809  14.066 -0.7005 -0.0252  0.0993
  278TMC3    O2 4208   2.793   2.723  14.602  0.0612 -0.1334 -0.7312
  279MPD2     C 4209   2.533   3.736   0.587  0.3721 -0.3770  0.4919
  279MPD2    C1 4210   2.527   3.632   0.494 -0.7084 -0.2738 -0.3039
  279MPD2    C2 4211   2.540   3.658   0.358 -0.1247  0.5696 -0.9576
  279MPD2    C3 4212   2.550   3.786   0.309  0.4014 -0.1020 -0.2506
  279MPD2    C4 4213   2.553   3.887   0.401  0.1336 -0.2629 -0.1169
  279MPD2    C5 4214   2.539   3.864   0.535  0.1016 -0.0068  0.1856
  279MPD2     H 4215   2.534   3.572   0.292  1.0766 -0.8833  0.8133
  279MPD2    H1 4216   2.550   3.986   0.357  0.8803  0.2272  0.9298
  279MPD2    H2 4217   2.509   3.723   0.692 -1.7406  1.3876  0.2381
  279MPD2    H3 4218   2.535   3.955   0.595  0.6359  1.9689 -2.7772
  279MPD2     N 4219   2.539   3.816   0.172 -1.1410  0.5008 -0.5789
  279MPD2    H5 4220   2.511   3.911   0.149 -0.9493  1.0458  1.4425
  279MPD2    N1 4221   2.503   3.505   0.554 -0.1218 -0.2106  0.8673
  279MPD2    H7 4222   2.497   3.509   0.655 -1.1119 -0.9098  0.8418
  280TMC3    C1 4223   2.430   3.279   0.568 -0.6515  0.0022 -0.2673
  280TMC3    C2 4224   2.393   3.168   0.500  0.4936 -0.8602  0.2850
  280TMC3    C3 4225   2.289   3.092   0.545 -0.0911 -0.3411 -0.2703
  280TMC3    C4 4226   2.368   3.309   0.683  0.3807  0.1969 -0.0264
  280TMC3    C5 4227   2.255   3.241   0.712  0.2421  0.0581  0.2107
  280TMC3    C6 4228   2.218   3.125   0.656  0.2590 -0.0683  0.0436
  280TMC3     C 4229   2.483   3.388   0.482 -0.1162  0.1563  0.6830
  280TMC3     O 4230   2.496   3.370   0.357  0.3135 -0.1011 -0.3801
  280TMC3     H 4231   2.413   3.151   0.395  0.0837 -0.6060  0.1637
  280TMC3    H1 4232   2.392   3.398   0.741  0.4070  0.3795 -0.3175
  280TMC3    H2 4233   2.124   3.079   0.681  0.0831  1.6634  2.5721
  280TMC3    C7 4234   2.154   3.330   0.768 -0.7414  0.4821  0.8514
  280TMC3    C8 4235   2.246   2.987   0.459  0.3811 -0.4914 -0.4863
  280TMC3    O1 4236   2.076   3.293   0.852  0.4301  0.1077  0.2410
  280TMC3    O2 4237   2.304   2.967   0.352 -0.2598  0.5891 -1.0586
  281TMC3    C1 4238   1.139   3.453  13.007 -0.0038 -0.6901 -0.4477
  281TMC3    C2 4239   1.042   3.509  12.931 -0.2233 -0.1150 -0.3781
  281TMC3    C3 4240   0.952   3.425  12.861 -0.7313 -0.0890  0.0326
  281TMC3    C4 4241   1.160   3.318  12.995  1.1581  1.2349  0.0535
  281TMC3    C5 4242   1.088   3.251  12.903  0.9552  0.0791 -0.2287
  281TMC3    C6 4243   0.973   3.297  12.835 -0.0513 -0.1161  0.5209
  281TMC3     C 4244   1.150   3.512  13.144  1.2155 -0.7953 -0.0092
  281TMC3     O 4245   1.166   3.440  13.239 -0.1747  0.1308  0.0193
  281TMC3     H 4246   1.024   3.616  12.936  0.7471  0.0084  0.4946
  281TMC3    H1 4247   1.231   3.254  13.046 -0.9076 -0.9729  0.1738
  281TMC3    H2 4248   0.919   3.239  12.761 -3.6261  1.6023  1.8079
  281TMC3    C7 4249   1.087   3.113  12.940 -0.2023 -0.2880 -1.0144
  281TMC3    C8 4250   0.867   3.490  12.767 -1.1645 -0.0718  0.6221
  281TMC3    O1 4251   1.190   3.052  12.920  0.0681 -0.0631  0.0981
  281TMC3    O2 4252   0.855   3.441  12.653 -0.3874  0.1542  0.3926
  282MPD2     C 4253   2.903   0.089  15.003 -0.1653  0.2510  0.2069
  282MPD2    C1 4254   2.846   0.199  15.067 -0.2248 -0.4464 -0.1782
  282MPD2    C2 4255   2.809   0.310  14.988 -0.1177 -0.1530  0.8665
  282MPD2    C3 4256   2.831   0.313  14.847  0.2483  0.2060  0.7614
  282MPD2    C4 4257   2.891   0.203  14.794 -0.0786  0.5549  0.1065
  282MPD2    C5 4258   2.921   0.095  14.867 -0.7184 -0.7133  0.1599
  282MPD2     H 4259   2.754   0.392  15.034 -1.5800 -0.0123 -1.1422
  282MPD2    H1 4260   2.917   0.201  14.689 -0.5529  0.0191  0.0001
  282MPD2    H2 4261   2.936   0.001  15.056  1.5080  0.2893 -0.8020
  282MPD2    H3 4262   2.977   0.018  14.814 -0.0973 -0.0197 -0.1847
  282MPD2     N 4263   2.785   0.427  14.776  0.5087 -0.0205  0.1272
  282MPD2    H5 4264   2.772   0.507  14.837  0.5563 -0.3064  0.5150
  282MPD2    N1 4265   2.811   0.205  15.206 -0.0975 -0.4258 -1.0500
  282MPD2    H7 4266   2.778   0.297  15.235  2.1146  0.0851 -0.1801
  283TMC3    C1 4267   2.757   0.133  15.423 -0.4115 -0.2167 -0.6755
  283TMC3    C2 4268   2.744   0.266  15.460 -0.8104 -0.5129  0.5479
  283TMC3    C3 4269   2.694   0.294  15.587 -0.1801  0.0201 -0.9498
  283TMC3    C4 4270   2.718   0.024  15.500  0.1730 -0.3662 -0.5852
  283TMC3    C5 4271   2.676   0.056  15.628 -0.1077 -0.1172  0.4997
  283TMC3    C6 4272   2.666   0.186  15.669 -0.7641 -0.1441  1.0103
  283TMC3     C 4273   2.812   0.100  15.294  0.1053 -0.3916 -0.7405
  283TMC3     O 4274   2.864   4.709  15.288 -0.0826  0.1984  0.3421
  283TMC3     H 4275   2.785   0.349  15.403 -2.6678 -0.9003 -1.3386
  283TMC3    H1 4276   2.722   4.643  15.461  2.9654 -0.3536 -0.3295
  283TMC3    H2 4277   2.628   0.201  15.770  0.2238  0.5242  1.2853
  283TMC3    C7 4278   2.600   4.692  15.711  0.1885 -0.4428 -0.3741
  283TMC3    C8 4279   2.694   0.423  15.652  0.6852 -0.0228  0.5837
  283TMC3    O1 4280   2.599   4.717  15.830 -0.3489  0.0009 -0.0364
  283TMC3    O2 4281   2.690   0.423  15.775  0.1008  0.0834  0.4441
  284MPD2     C 4282   1.112   4.243  11.390 -0.2483 -0.7411  0.0688
  284MPD2    C1 4283   1.246   4.263  11.413  0.5502 -0.5886 -0.6172
  284MPD2    C2 4284   1.283   4.278  11.546 -0.8114  0.2848  0.4184
  284MPD2    C3 4285   1.196   4.272  11.652  0.4783  0.8000 -1.1147
  284MPD2    C4 4286   1.062   4.255  11.627  0.8066 -0.1733  0.2715
  284MPD2    C5 4287   1.021   4.249  11.492  0.1306 -0.4690 -0.4585
  284MPD2     H 4288   1.388   4.278  11.570 -0.4648 -0.3136 -1.1075
  284MPD2    H1 4289   0.986   4.241  11.703 -0.8717  0.5394 -1.2751
  284MPD2    H2 4290   1.070   4.229  11.290 -2.3842  0.6681  0.7529
  284MPD2    H3 4291   0.917   4.248  11.461  0.0906 -3.0644 -0.2340
  284MPD2     N 4292   1.251   4.264  11.781 -0.3026  0.7652 -0.3545
  284MPD2    H5 4293   1.352   4.267  11.785 -0.3422  1.5027  0.1943
  284MPD2    N1 4294   1.341   4.253  11.308 -0.0127 -0.4447  0.4345
  284MPD2    H7 4295   1.433   4.297  11.308  1.5312 -3.6446  2.3195
  285TMC3    C1 4296   1.431   4.193  11.108  0.4013 -0.4946  0.0360
  285TMC3    C2 4297   1.500   4.081  11.077  0.5501  0.7637  0.5249
  285TMC3    C3 4298   1.630   4.089  11.051  0.8616  0.4020  0.3076
  285TMC3    C4 4299   1.490   4.314  11.120 -0.0075  0.5769  0.1277
  285TMC3    C5 4300   1.630   4.316  11.089 -0.9957 -0.3872 -0.2014
  285TMC3    C6 4301   1.700   4.203  11.053 -0.4576  0.2347  0.0515
  285TMC3     C 4302   1.323   4.170  11.204  0.2472  0.8742 -0.0751
  285TMC3     O 4303   1.253   4.070  11.200  0.7602  0.0467  0.3976
  285TMC3     H 4304   1.445   3.987  11.077  0.4643  0.8137  0.4520
  285TMC3    H1 4305   1.429   4.403  11.120 -0.1113  0.5055 -0.1576
  285TMC3    H2 4306   1.798   4.202  11.007 -0.2610  2.2662  0.4384
  285TMC3    C7 4307   1.698   4.446  11.085 -0.5418  0.2587  0.0248
  285TMC3    C8 4308   1.692   3.969  11.006  0.4477 -0.9143  0.0567
  285TMC3    O1 4309   1.626   4.545  11.069  0.3493 -0.1516  0.1549
  285TMC3    O2 4310   1.617   3.890  10.950  0.3169  0.3336  1.0142
  286MPD2     C 4311   1.329   3.042   1.758  0.1130 -0.0401 -0.6455
  286MPD2    C1 4312   1.314   3.068   1.625  0.5949 -0.2743 -0.4433
  286MPD2    C2 4313   1.405   3.013   1.539  0.6541 -1.3107 -0.0634
  286MPD2    C3 4314   1.511   2.940   1.591 -0.4691 -0.3687  0.1216
  286MPD2    C4 4315   1.525   2.913   1.721  0.3785 -0.0403  0.0267
  286MPD2    C5 4316   1.433   2.970   1.810 -0.1537 -0.7110  0.0300
  286MPD2     H 4317   1.392   3.039   1.435 -0.9119 -0.7526  0.2711
  286MPD2    H1 4318   1.614   2.862   1.757  1.2491  0.7125 -1.0563
  286MPD2    H2 4319   1.260   3.075   1.835  0.0454  2.0621 -1.6218
  286MPD2    H3 4320   1.429   2.944   1.915  0.8452  0.2389  0.3018
  286MPD2     N 4321   1.621   2.888   1.511  0.3784 -0.1905 -0.5984
  286MPD2    H5 4322   1.699   2.852   1.566 -1.9165 -1.9946  1.4857
  286MPD2    N1 4323   1.210   3.142   1.573 -0.4131 -0.5192  0.1435
  286MPD2    H7 4324   1.216   3.155   1.472 -0.8167  2.3201  0.4699
  287TMC3    C1 4325   1.721   2.800   1.310  0.2302  0.5462  0.2907
  287TMC3    C2 4326   1.713   2.782   1.177 -0.5657 -0.1622  0.8099
  287TMC3    C3 4327   1.811   2.713   1.115 -0.2895  0.5034  0.0701
  287TMC3    C4 4328   1.825   2.750   1.382 -0.0926  0.1764  0.2462
  287TMC3    C5 4329   1.922   2.686   1.317  0.4656 -0.5243  0.1675
  287TMC3    C6 4330   1.917   2.662   1.182 -0.8499  0.2560 -0.7391
  287TMC3     C 4331   1.609   2.871   1.378  0.2993 -0.0115 -0.6536
  287TMC3     O 4332   1.515   2.891   1.302  0.2650 -0.0413  0.0650
  287TMC3     H 4333   1.623   2.806   1.123  0.1049  0.1773 -0.1521
  287TMC3    H1 4334   1.830   2.759   1.490 -2.4706  0.0147  0.3615
  287TMC3    H2 4335   1.996   2.612   1.126 -2.0075 -0.1812 -1.9826
  287TMC3    C7 4336   2.037   2.640   1.398 -1.0558 -0.5299  0.1804
  287TMC3    C8 4337   1.794   2.664   0.977 -0.0278  0.0874 -0.2344
  287TMC3    O1 4338   2.038   2.659   1.521  0.1132 -0.6740 -0.3313
  287TMC3    O2 4339   1.839   2.560   0.951 -0.3564 -0.1783  0.1098
  288TMC3    C1 4340   3.392   2.665  15.095 -0.1000 -0.6778 -0.1926
  288TMC3    C2 4341   3.304   2.591  15.175  0.2674  0.0013 -1.0398
  288TMC3    C3 4342   3.194   2.650  15.239 -0.3461 -0.1356 -0.3370
  288TMC3    C4 4343   3.368   2.797  15.080 -0.4439  0.8168  0.5396
  288TMC3    C5 4344   3.266   2.849  15.148  0.7745 -0.3256  0.0834
  288TMC3    C6 4345   3.175   2.788  15.232 -0.2845 -0.3123 -0.0533
  288TMC3     C 4346   3.515   2.603  15.050 -0.3411 -0.3764  0.7740
  288TMC3     O 4347   3.569   2.509  15.103 -0.0561 -0.5738 -0.1927
  288TMC3     H 4348   3.332   2.487  15.183 -2.1883 -0.4615  1.7637
  288TMC3    H1 4349   3.432   2.862  15.022 -1.2098  0.8953 -0.2343
  288TMC3    H2 4350   3.091   2.838  15.279  2.8471  2.9777  2.0695
  288TMC3    C7 4351   3.228   2.981  15.108 -0.6824  0.0128 -0.2169
  288TMC3    C8 4352   3.147   2.599  15.364 -0.2005  0.4717 -0.1611
  288TMC3    O1 4353   3.161   3.050  15.183  0.1206  0.2599  0.5307
  288TMC3    O2 4354   3.204   2.637  15.468 -0.0134 -0.2928 -0.1625
  289MPD2     C 4355   3.160   1.950  14.948  0.0688 -0.0613 -0.4088
  289MPD2    C1 4356   3.132   2.081  14.934  0.2742 -0.2874  0.6415
  289MPD2    C2 4357   2.994   2.114  14.916  0.4320 -0.0433 -0.1998
  289MPD2    C3 4358   2.902   2.023  14.894 -0.1384  0.0010  0.0558
  289MPD2    C4 4359   2.926   1.887  14.892 -0.0678 -0.2021 -0.1246
  289MPD2    C5 4360   3.058   1.857  14.928  0.3219 -0.3580  0.5294
  289MPD2     H 4361   2.964   2.218  14.915 -0.0975 -0.1892  0.4810
  289MPD2    H1 4362   2.853   1.807  14.882 -1.4946  1.3748 -2.2050
  289MPD2    H2 4363   3.259   1.908  14.956  0.6817  1.6867  1.1480
  289MPD2    H3 4364   3.079   1.751  14.933 -1.5279 -0.8750 -2.5269
  289MPD2     N 4365   2.765   2.053  14.863  0.0056 -0.1360 -0.1017
  289MPD2    H5 4366   2.703   1.974  14.849 -0.5259  0.1689  0.5401
  289MPD2    N1 4367   3.237   2.166  14.914 -0.2876  0.7875 -0.2900
  289MPD2    H7 4368   3.332   2.132  14.922 -0.5406  0.0658 -0.3834
  290TMC3    C1 4369   2.589   2.176  14.775 -0.1045  0.4413  0.0392
  290TMC3    C2 4370   2.530   2.304  14.756 -0.1070 -0.3065  0.0143
  290TMC3    C3 4371   2.457   2.331  14.640  0.3904  1.1589 -0.0663
  290TMC3    C4 4372   2.562   2.077  14.684  0.2139  0.5002 -0.6426
  290TMC3    C5 4373   2.493   2.109  14.577 -0.8142 -0.0164 -0.0322
  290TMC3    C6 4374   2.440   2.233  14.547  0.1614  0.8450  0.2899
  290TMC3     C 4375   2.711   2.178  14.851  1.0539 -0.3898 -0.2574
  290TMC3     O 4376   2.751   2.282  14.903 -0.2376 -0.1112 -0.6539
  290TMC3     H 4377   2.527   2.375  14.838  1.5805 -0.6425  0.3660
  290TMC3    H1 4378   2.600   1.977  14.701 -0.4391  0.0664 -1.7758
  290TMC3    H2 4379   2.383   2.246  14.456 -0.2178 -1.3141  0.2397
  290TMC3    C7 4380   2.445   2.005  14.496  0.7118 -0.3339 -0.1785
  290TMC3    C8 4381   2.395   2.461  14.615  0.3158  0.6746  0.2848
  290TMC3    O1 4382   2.355   2.039  14.420 -0.2659 -0.5433  0.0733
  290TMC3    O2 4383   2.343   2.484  14.509  0.2143  0.1209 -0.3519
  291MPD2     C 4384   2.105   2.199   0.422  0.1343 -0.7145  0.4295
  291MPD2    C1 4385   2.163   2.071   0.429  0.4445 -0.2147 -0.1500
  291MPD2    C2 4386   2.298   2.053   0.459 -1.0987  0.3650 -0.0886
  291MPD2    C3 4387   2.373   2.162   0.494 -0.3581 -0.3842  0.1805
  291MPD2    C4 4388   2.317   2.284   0.488 -0.3048 -0.1792 -0.5452
  291MPD2    C5 4389   2.188   2.305   0.440 -0.0823  0.1083 -0.1911
  291MPD2     H 4390   2.341   1.954   0.466 -0.4717  0.6494  0.0456
  291MPD2    H1 4391   2.372   2.375   0.511 -0.3563 -0.1342 -0.5990
  291MPD2    H2 4392   2.002   2.222   0.401  0.6759  0.4735 -0.9071
  291MPD2    H3 4393   2.146   2.403   0.420  0.6991  0.9007  2.0528
  291MPD2     N 4394   2.514   2.145   0.524 -0.1144 -0.1723  0.2042
  291MPD2    H5 4395   2.572   2.227   0.533 -0.3648  0.0076  0.1872
  291MPD2    N1 4396   2.087   1.951   0.400  0.2738  0.6487 -0.1366
  291MPD2    H7 4397   2.136   1.862   0.403 -2.6490 -1.0390 -2.7287
  292TMC3    C1 4398   1.893   1.825   0.366  0.4850  0.5954  0.2436
  292TMC3    C2 4399   1.795   1.780   0.450  0.0757 -0.5552 -0.4659
  292TMC3    C3 4400   1.758   1.643   0.455 -0.2267 -0.4905  0.2252
  292TMC3    C4 4401   1.959   1.730   0.288 -0.2516 -0.0308 -0.3143
  292TMC3    C5 4402   1.920   1.597   0.295  0.2214  0.2802 -0.5140
  292TMC3    C6 4403   1.823   1.549   0.377  0.4133 -0.2871 -0.2527
  292TMC3     C 4404   1.952   1.955   0.395 -0.1191 -0.1512 -0.4876
  292TMC3     O 4405   1.874   2.036   0.446 -0.4837 -0.2134  0.7233
  292TMC3     H 4406   1.767   1.846   0.531  0.0987  0.8699 -1.6311
  292TMC3    H1 4407   2.032   1.761   0.214 -0.3652  1.6942  0.2981
  292TMC3    H2 4408   1.793   1.446   0.372  1.7990 -0.7199  0.2236
  292TMC3    C7 4409   1.967   1.518   0.194  0.0831 -0.0530 -0.6664
  292TMC3    C8 4410   1.656   1.596   0.544  0.3035 -0.3787  0.5227
  292TMC3    O1 4411   2.082   1.503   0.166  0.2849 -0.5113  0.1809
  292TMC3    O2 4412   1.580   1.689   0.561  0.2186 -0.0774  0.0905
  293MPD2     C 4413   4.517   3.563  12.878  0.4273 -0.4147 -0.6622
  293MPD2    C1 4414   4.422   3.479  12.921  0.7939  0.8834  0.7762
  293MPD2    C2 4415   4.409   3.440  13.055  0.4400  0.7062 -0.3999
  293MPD2    C3 4416   4.486   3.504  13.144 -0.0111 -0.0029  0.2254
  293MPD2    C4 4417   4.586   3.593  13.104  0.0379 -0.1608  0.2436
  293MPD2    C5 4418   4.593   3.625  12.972  0.3360  0.2762  0.9566
  293MPD2     H 4419   4.328   3.373  13.082  2.9054 -1.3050  2.0360
  293MPD2    H1 4420   4.654   3.641  13.174  0.7513 -1.0890  0.1771
  293MPD2    H2 4421   4.522   3.585  12.772  0.7247 -0.7958 -0.7276
  293MPD2    H3 4422   4.666   3.697  12.937 -2.2499  2.0084 -0.9338
  293MPD2     N 4423   4.471   3.481  13.279 -0.4862 -0.0933 -0.1863
  293MPD2    H5 4424   4.414   3.402  13.307  1.1648 -1.0451  0.4820
  293MPD2    N1 4425   4.330   3.443  12.810 -0.4070 -0.1416 -0.0933
  293MPD2    H7 4426   4.350   3.470  12.714  1.0462  0.9732  0.5181
  294TMC3    C1 4427   4.181   3.319  12.686 -0.0558  0.4759 -0.2782
  294TMC3    C2 4428   4.129   3.193  12.661  0.3021 -0.4524 -0.4405
  294TMC3    C3 4429   4.038   3.177  12.562 -0.6172  0.3219  0.2879
  294TMC3    C4 4430   4.156   3.425  12.603  0.3398  0.5654  0.2357
  294TMC3    C5 4431   4.072   3.403  12.501  0.1897 -0.1174 -0.1790
  294TMC3    C6 4432   4.008   3.286  12.486 -0.2024  0.5391 -0.1719
  294TMC3     C 4433   4.236   3.343  12.811 -0.0372 -0.2169  0.3520
  294TMC3     O 4434   4.221   3.263  12.902 -0.2152  0.4835  0.1424
  294TMC3     H 4435   4.145   3.113  12.733 -0.7626  0.2360  0.5521
  294TMC3    H1 4436   4.202   3.523  12.608  0.1913  0.6577 -0.2463
  294TMC3    H2 4437   3.949   3.273  12.396 -1.6328  1.5010  0.6276
  294TMC3    C7 4438   4.032   3.520  12.424 -0.0251 -0.2133 -0.9204
  294TMC3    C8 4439   3.966   3.056  12.552  0.4617  0.6282  0.5074
  294TMC3    O1 4440   4.034   3.622  12.487 -0.1890  0.7087 -0.1974
  294TMC3    O2 4441   4.021   2.961  12.603 -0.5917 -0.2364  0.5640
  295MPD2     C 4442   4.255   1.007   0.625 -1.4174  0.0992 -0.1012
  295MPD2    C1 4443   4.328   1.115   0.670  0.8326  0.2548 -0.1358
  295MPD2    C2 4444   4.363   1.126   0.806 -0.3348  0.0644 -0.0368
  295MPD2    C3 4445   4.328   1.024   0.891  0.6030 -0.5648  0.1811
  295MPD2    C4 4446   4.254   0.919   0.845 -0.3258 -0.9251  0.4189
  295MPD2    C5 4447   4.220   0.908   0.711  0.2807  0.7403 -0.1928
  295MPD2     H 4448   4.420   1.210   0.845  0.0903 -0.5462  0.6593
  295MPD2    H1 4449   4.228   0.847   0.923 -0.0553 -0.2795  1.1076
  295MPD2    H2 4450   4.228   0.992   0.522 -0.7242 -1.1549 -0.1012
  295MPD2    H3 4451   4.161   0.828   0.668 -0.0473  1.1192 -0.4474
  295MPD2     N 4452   4.359   1.018   1.031  0.0268 -0.8074 -0.5276
  295MPD2    H5 4453   4.334   0.933   1.079 -1.5268 -0.6541 -1.0561
  295MPD2    N1 4454   4.372   1.219   0.582  0.3539 -0.1547 -0.3144
  295MPD2    H7 4455   4.432   1.294   0.615 -0.8248  0.4316  0.4635
  296TMC3    C1 4456   4.436   1.099   1.246 -0.3655  0.0850 -0.8824
  296TMC3    C2 4457   4.450   1.205   1.326  0.0865  0.4638 -0.1854
  296TMC3    C3 4458   4.488   1.180   1.454  0.1262 -0.7292  0.6199
  296TMC3    C4 4459   4.458   0.968   1.280  0.1736  0.3229  0.6456
  296TMC3    C5 4460   4.499   0.946   1.412  0.3537  0.7614  0.1636
  296TMC3    C6 4461   4.522   1.055   1.498 -0.2875  0.1561  0.4901
  296TMC3     C 4462   4.383   1.126   1.109  0.2020 -0.3464  0.9872
  296TMC3     O 4463   4.388   1.241   1.081 -0.2272  0.3817 -0.4790
  296TMC3     H 4464   4.435   1.307   1.293 -1.0964 -0.0989 -1.3594
  296TMC3    H1 4465   4.439   0.890   1.207 -2.9931 -1.0502  2.9374
  296TMC3    H2 4466   4.543   1.046   1.604  0.2327 -1.6284  0.2368
  296TMC3    C7 4467   4.535   0.809   1.455 -0.6764  0.4197  0.5943
  296TMC3    C8 4468   4.545   1.286   1.537  0.0036  0.0919 -0.5536
  296TMC3    O1 4469   4.547   0.729   1.362  0.1250 -0.5630  0.4164
  296TMC3    O2 4470   4.642   1.260   1.610 -0.3622  0.1968  0.3688
  297MPD2     C 4471   2.203   3.916  17.113 -0.1680  0.2319 -0.1468
  297MPD2    C1 4472   2.137   3.926  16.992 -0.3680 -0.0278 -0.1153
  297MPD2    C2 4473   2.208   3.987  16.894  0.3229 -0.1540  0.2350
  297MPD2    C3 4474   2.340   4.027  16.915  0.1395  0.4165 -0.0658
  297MPD2    C4 4475   2.400   4.014  17.038 -0.4620  0.0319  0.3971
  297MPD2    C5 4476   2.329   3.953  17.138 -0.3009 -0.3204 -0.0069
  297MPD2     H 4477   2.154   4.011  16.803  4.8462  1.1466 -2.0699
  297MPD2    H1 4478   2.501   4.033  17.071 -0.4756  1.9298 -0.6777
  297MPD2    H2 4479   2.156   3.868  17.198  2.3221 -0.5736  0.7790
  297MPD2    H3 4480   2.374   3.938  17.235 -1.0563  1.8907  0.6707
  297MPD2     N 4481   2.404   4.090  16.807  0.0202  0.2856 -0.1109
  297MPD2    H5 4482   2.349   4.101  16.722  1.7731 -3.2938 -1.6763
  297MPD2    N1 4483   2.005   3.883  16.972 -0.3538 -0.5323 -0.0085
  297MPD2    H7 4484   1.952   3.898  16.887  0.6363  0.5789 -0.4198
  298TMC3    C1 4485   1.800   3.798  17.017  0.4660  0.0965  0.3001
  298TMC3    C2 4486   1.736   3.675  17.004  0.0221  0.2660  0.9472
  298TMC3    C3 4487   1.618   3.680  16.929  0.2474 -0.1415  0.1559
  298TMC3    C4 4488   1.747   3.920  16.982 -0.2884 -0.1809 -0.3216
  298TMC3    C5 4489   1.623   3.914  16.920  0.1991  1.0581  0.6261
  298TMC3    C6 4490   1.552   3.798  16.899  0.3987 -0.0636 -0.0639
  298TMC3     C 4491   1.934   3.807  17.065  0.0150 -0.2418 -0.1625
  298TMC3     O 4492   1.963   3.757  17.176  0.1367 -0.3347  0.0138
  298TMC3     H 4493   1.801   3.588  17.011 -1.0909 -0.6342  0.3093
  298TMC3    H1 4494   1.808   4.007  17.001 -1.4766  0.6202 -0.1431
  298TMC3    H2 4495   1.449   3.792  16.865  0.1657  2.4305  0.2202
  298TMC3    C7 4496   1.541   4.033  16.941  0.5079  0.3244 -0.1898
  298TMC3    C8 4497   1.557   3.560  16.877 -0.3682  0.1121  0.0140
  298TMC3    O1 4498   1.592   4.119  17.007  0.0058  0.2950 -0.2379
  298TMC3    O2 4499   1.445   3.574  16.830  0.8806  0.4284 -0.1352
  299MPD2     C 4500   3.009   3.631  10.662  0.6607 -0.1822  0.1774
  299MPD2    C1 4501   3.024   3.750  10.605 -0.0406  0.3669  0.1477
  299MPD2    C2 4502   2.990   3.765  10.472  0.6569 -0.4932  0.1034
  299MPD2    C3 4503   2.938   3.664  10.395 -0.7881 -0.0883 -0.0697
  299MPD2    C4 4504   2.919   3.544  10.455  0.1051  0.4369 -0.1200
  299MPD2    C5 4505   2.959   3.531  10.588  0.1871 -0.1511 -0.3946
  299MPD2     H 4506   3.003   3.865  10.433  5.3589 -1.2279 -0.2258
  299MPD2    H1 4507   2.880   3.458  10.401 -1.3886  2.2746 -1.9678
  299MPD2    H2 4508   3.025   3.609  10.767  1.9005 -2.7825 -0.5439
  299MPD2    H3 4509   2.936   3.439  10.640  0.4025  0.7454  1.2982
  299MPD2     N 4510   2.895   3.682  10.262 -0.1205  0.4977 -0.4782
  299MPD2    H5 4511   2.854   3.604  10.211  0.7730 -0.4219  0.2019
  299MPD2    N1 4512   3.075   3.852  10.694  0.1811  0.2035 -0.2160
  299MPD2    H7 4513   3.099   3.828  10.790  3.1233  2.5084 -0.4074
  300TMC3    C1 4514   2.830   3.775  10.057  0.1466 -0.5127 -1.1797
  300TMC3    C2 4515   2.816   3.883   9.983  0.0275 -0.4637  0.9414
  300TMC3    C3 4516   2.744   3.874   9.873  0.1331  0.1585 -0.0653
  300TMC3    C4 4517   2.778   3.653  10.029 -0.1787  1.0877  0.0140
  300TMC3    C5 4518   2.717   3.642   9.909 -0.2975  0.1437 -0.6325
  300TMC3    C6 4519   2.698   3.750   9.836  0.4254  0.6285  0.2346
  300TMC3     C 4520   2.879   3.802  10.191  0.4600 -0.3822 -0.1542
  300TMC3     O 4521   2.902   3.919  10.232  0.3244  0.6517  1.0690
  300TMC3     H 4522   2.852   3.976  10.025  0.3319  1.3492 -3.2842
  300TMC3    H1 4523   2.762   3.576  10.104  1.2035  0.1261 -0.6667
  300TMC3    H2 4524   2.645   3.743   9.741  0.8500 -0.9176  0.1223
  300TMC3    C7 4525   2.648   3.524   9.874  0.1493 -0.3500 -0.2078
  300TMC3    C8 4526   2.653   3.985   9.862 -0.0463  0.2987  0.2479
  300TMC3    O1 4527   2.615   3.509   9.756  0.0514 -0.1047  0.3518
  300TMC3    O2 4528   2.698   4.089   9.910  0.2121 -0.4014 -0.4142
  301MPD2     C 4529   4.079   0.365   1.701 -0.4881  0.3104 -0.0874
  301MPD2    C1 4530   3.961   0.363   1.769 -0.2656 -0.0073  0.2053
  301MPD2    C2 4531   3.915   0.251   1.838 -0.5171  0.3627  0.2666
  301MPD2    C3 4532   3.994   0.142   1.843  0.5043  0.4455  0.2693
  301MPD2    C4 4533   4.119   0.145   1.780  1.1085 -0.3334 -0.3024
  301MPD2    C5 4534   4.157   0.261   1.715 -0.3296  0.4732 -0.1284
  301MPD2     H 4535   3.821   0.257   1.892 -1.6489  2.7851 -1.9585
  301MPD2    H1 4536   4.185   0.060   1.781 -0.6357 -1.7286 -2.0202
  301MPD2    H2 4537   4.115   0.451   1.646  0.8988 -0.7419 -0.8320
  301MPD2    H3 4538   4.250   0.253   1.660 -1.3931 -0.0080 -1.8551
  301MPD2     N 4539   3.970   0.026   1.920  0.1629 -0.2203  0.5557
  301MPD2    H5 4540   4.046   4.682   1.903  0.3211  0.4749 -1.4044
  301MPD2    N1 4541   3.872   0.472   1.761  0.1804 -0.0729  0.3785
  301MPD2    H7 4542   3.775   0.449   1.780  0.3085  0.0371  1.1859
  302TMC3    C1 4543   3.861   4.583   2.039  0.1799 -0.1195  0.0216
  302TMC3    C2 4544   3.979   4.518   2.068  0.1953  0.0073  0.1579
  302TMC3    C3 4545   3.972   4.374   2.060 -0.3935 -0.2737 -0.3964
  302TMC3    C4 4546   3.741   4.522   2.006 -0.0817 -0.1943 -0.1999
  302TMC3    C5 4547   3.748   4.382   1.999  0.2769  0.7660  0.0203
  302TMC3    C6 4548   3.861   4.308   2.016  0.4906  0.3430  0.2909
  302TMC3     C 4549   3.853   4.719   1.984  0.0942 -0.3288 -0.3187
  302TMC3     O 4550   3.747   0.057   1.982 -0.0382 -0.3371 -0.4754
  302TMC3     H 4551   4.069   4.575   2.082 -0.1082  0.0551  1.8066
  302TMC3    H1 4552   3.651   4.580   1.986  0.6702  1.0762  0.1223
  302TMC3    H2 4553   3.862   4.201   1.998 -1.1600  0.5520 -1.0261
  302TMC3    C7 4554   3.638   4.308   1.938 -0.3959  0.5326  0.1060
  302TMC3    C8 4555   4.075   4.287   2.109 -0.1332  0.2752  0.1677
  302TMC3    O1 4556   3.643   4.184   1.949 -0.1738  0.1315 -0.6531
  302TMC3    O2 4557   4.071   4.168   2.081  0.1800 -0.3380 -0.4957
  303MPD2     C 4558   0.726   3.339  10.016  0.0982  0.4300  0.4184
  303MPD2    C1 4559   0.627   3.260   9.973 -0.0013 -0.2802  0.7829
  303MPD2    C2 4560   0.494   3.305   9.951 -0.1115 -0.4614 -0.2558
  303MPD2    C3 4561   0.466   3.440   9.958 -0.2343 -0.1742  0.0085
  303MPD2    C4 4562   0.570   3.520  10.009  0.0216  0.0522 -0.2501
  303MPD2    C5 4563   0.695   3.466  10.040  0.7161  0.5271 -0.1620
  303MPD2     H 4564   0.421   3.232   9.918 -1.0881  1.2362 -1.8714
  303MPD2    H1 4565   0.551   3.626  10.019 -1.0607  0.1058 -3.0069
  303MPD2    H2 4566   0.828   3.304  10.026  0.8451  2.1347 -1.3536
  303MPD2    H3 4567   0.770   3.523  10.093 -1.1619 -0.2973  3.3790
  303MPD2     N 4568   0.342   3.502   9.946  0.5990 -0.6391  0.0725
  303MPD2    H5 4569   0.346   3.604   9.945  2.3652 -0.7160 -0.8884
  303MPD2    N1 4570   0.668   3.128   9.951 -0.5702 -0.0095 -0.9130
  303MPD2    H7 4571   0.762   3.103   9.982 -1.4046  0.2238  1.7788
  304TMC3    C1 4572   0.633   2.896   9.886 -0.6244  0.2308 -0.9031
  304TMC3    C2 4573   0.649   2.852  10.015  0.4163  0.2834  0.2884
  304TMC3    C3 4574   0.631   2.719  10.029 -0.2009  0.7299 -0.4405
  304TMC3    C4 4575   0.600   2.818   9.776 -0.4446 -0.3393 -0.1433
  304TMC3    C5 4576   0.609   2.686   9.796  0.0908  0.4099  0.8110
  304TMC3    C6 4577   0.619   2.636   9.923  0.5379 -0.0447 -0.0761
  304TMC3     C 4578   0.589   3.035   9.887 -0.0824 -0.0040 -0.5146
  304TMC3     O 4579   0.495   3.053   9.811  1.1676  0.3303 -0.2398
  304TMC3     H 4580   0.690   2.913  10.095 -0.1720  2.7658 -1.3058
  304TMC3    H1 4581   0.586   2.860   9.677  0.0450  0.2168  0.0250
  304TMC3    H2 4582   0.616   2.528   9.931 -1.0064 -0.2841 -3.9945
  304TMC3    C7 4583   0.513   2.608   9.717 -0.1549  0.3360 -0.0244
  304TMC3    C8 4584   0.539   2.686  10.131 -0.5125 -0.7608  0.3190
  304TMC3    O1 4585   0.511   2.626   9.601  0.9240 -0.2705  0.1900
  304TMC3    O2 4586   0.501   2.571  10.132 -0.3006  0.5833 -0.7819
  305MPD2     C 4587   4.225   0.057  13.548 -0.2508 -0.0967 -0.4593
  305MPD2    C1 4588   4.127   4.683  13.572  0.4632  1.2404 -0.1510
  305MPD2    C2 4589   4.055   4.617  13.469 -0.3376 -0.2167  0.0174
  305MPD2    C3 4590   4.087   4.643  13.338 -0.0280 -0.0800  0.0223
  305MPD2    C4 4591   4.187   0.009  13.316  0.2660 -0.2663  0.1871
  305MPD2    C5 4592   4.254   0.079  13.414  0.4359 -0.1007  0.4236
  305MPD2     H 4593   3.983   4.540  13.496 -0.6946  0.0296 -0.2403
  305MPD2    H1 4594   4.221   0.027  13.215 -0.0449  0.5313  0.2204
  305MPD2    H2 4595   4.288   0.106  13.621 -0.9722 -0.6610  0.5417
  305MPD2    H3 4596   4.328   0.153  13.388  3.7038 -2.1020  3.8926
  305MPD2     N 4597   4.023   4.591  13.229  0.0749  0.8515  0.1745
  305MPD2    H5 4598   4.068   4.612  13.140 -1.1078  1.4409 -0.2827
  305MPD2    N1 4599   4.082   4.679  13.710  0.1736  0.0729  0.2918
  305MPD2    H7 4600   4.108   0.041  13.761  2.4335 -0.2371 -0.3669
  306TMC3    C1 4601   3.908   4.627  13.877  0.3686 -0.8490  0.1348
  306TMC3    C2 4602   3.875   4.543  13.977  0.2773 -0.1929 -1.2628
  306TMC3    C3 4603   3.786   4.591  14.069  0.2852  0.1139  0.2703
  306TMC3    C4 4604   3.867   0.030  13.876  0.5065  0.6873 -0.1841
  306TMC3    C5 4605   3.784   0.080  13.969 -0.8597 -0.3248  0.0797
  306TMC3    C6 4606   3.743   0.003  14.068  0.1614 -0.5118  0.2408
  306TMC3     C 4607   3.989   4.586  13.764 -0.3743  0.4151  0.1736
  306TMC3     O 4608   3.981   4.472  13.726 -0.0560 -0.2977 -0.3344
  306TMC3     H 4609   3.916   4.443  13.982 -0.1939 -0.4539 -2.7258
  306TMC3    H1 4610   3.893   0.098  13.795  1.8945 -0.9785 -1.1467
  306TMC3    H2 4611   3.696   0.043  14.157 -0.7667 -2.3373  0.5735
  306TMC3    C7 4612   3.755   0.221  13.969  0.4794  0.2507 -0.8397
  306TMC3    C8 4613   3.786   4.530  14.198  0.0470  0.1965 -0.5004
  306TMC3    O1 4614   3.732   0.291  13.873 -0.4818 -0.2530  0.5887
  306TMC3    O2 4615   3.895   4.487  14.233  0.4591  1.1970  0.2671
  307MPD2     C 4616   0.912   4.148   1.154  0.1668  0.1950 -0.9234
  307MPD2    C1 4617   0.778   4.150   1.125  0.1772  0.6529 -0.4705
  307MPD2    C2 4618   0.686   4.053   1.173 -0.1113  0.3363 -0.4758
  307MPD2    C3 4619   0.731   3.940   1.239 -0.2238  0.6262  0.2411
  307MPD2    C4 4620   0.865   3.935   1.277  0.4921 -0.1427  0.3021
  307MPD2    C5 4621   0.946   4.041   1.234  0.4783  0.3940  0.1457
  307MPD2     H 4622   0.580   4.053   1.150  0.5754  1.0560 -3.6588
  307MPD2    H1 4623   0.910   3.853   1.331  1.3613 -0.2211 -0.5545
  307MPD2    H2 4624   0.986   4.221   1.122  0.0148  0.3457 -0.9334
  307MPD2    H3 4625   1.050   4.033   1.260  0.2449 -0.0864  0.9257
  307MPD2     N 4626   0.641   3.832   1.271  0.3105 -0.0991 -0.1373
  307MPD2    H5 4627   0.542   3.840   1.251  0.4060 -0.7278 -0.8525
  307MPD2    N1 4628   0.725   4.245   1.034  0.8144 -0.0103  0.0558
  307MPD2    H7 4629   0.626   4.250   1.010  0.8585  1.6663  0.1572
  308TMC3    C1 4630   0.364   3.563   1.204 -0.5844 -0.1906 -0.5703
  308TMC3    C2 4631   0.277   3.632   1.285  0.3410 -0.1877  0.5608
  308TMC3    C3 4632   0.316   3.714   1.379  0.6409 -0.1371  0.6115
  308TMC3    C4 4633   0.498   3.555   1.239  0.3296  0.6929  0.7775
  308TMC3    C5 4634   0.545   3.636   1.344 -0.1299  0.0876  0.5645
  308TMC3    C6 4635   0.450   3.729   1.399  0.1728  0.5685 -0.1724
  308TMC3     C 4636   0.308   3.464   1.118 -0.9482  0.3111 -0.0309
  308TMC3     O 4637   0.375   3.368   1.077  0.5502  0.0777 -0.2865
  308TMC3     H 4638   0.171   3.612   1.280  0.0662  1.0774  1.3354
  308TMC3    H1 4639   0.559   3.495   1.172  1.2385 -0.6626  2.8256
  308TMC3    H2 4640   0.477   3.794   1.481  1.1254  1.2832 -1.0513
  308TMC3    C7 4641   0.667   3.705   1.321  0.4076  0.1052  0.2085
  308TMC3    C8 4642   0.229   3.798   1.459 -0.4971  0.5448 -0.0736
  308TMC3    O1 4643   0.771   3.638   1.322 -0.7342  0.1964  0.2697
  308TMC3    O2 4644   0.263   3.819   1.574 -0.0963  0.3491 -0.2977
  309MPD2     C 4645   0.162   3.491  17.563 -0.7481  0.1079  0.3407
  309MPD2    C1 4646   0.121   3.529  17.436 -0.3173  0.3125 -0.1500
  309MPD2    C2 4647   4.712   3.548  17.406  0.1733  0.2053  0.3822
  309MPD2    C3 4648   4.615   3.549  17.512  0.0592  0.0312  0.6312
  309MPD2    C4 4649   4.655   3.500  17.633 -0.4876 -0.1737 -0.8976
  309MPD2    C5 4650   0.067   3.475  17.662  0.4329  0.1066 -0.1142
  309MPD2     H 4651   4.686   3.587  17.308 -1.2804  1.6399  1.3448
  309MPD2    H1 4652   4.586   3.495   0.029  4.5987 -1.8661  3.2307
  309MPD2    H2 4653   0.269   3.483  17.581 -0.8591  1.0350  1.4232
  309MPD2    H3 4654   0.099   3.450   0.076 -3.4333 -1.3856  0.7296
  309MPD2     N 4655   4.478   3.579  17.495  0.0412  0.2950  0.6709
  309MPD2    H5 4656   4.432   3.593  17.584  0.7296 -0.1023  1.0886
  309MPD2    N1 4657   0.209   3.541  17.326  0.0756  0.0819 -0.2867
  309MPD2    H7 4658   0.180   3.565  17.232  2.1829  1.1745 -0.6779
  310TMC3    C1 4659   0.398   3.531  17.196  0.2470  0.0975 -0.8440
  310TMC3    C2 4660   0.329   3.607  17.108 -0.3554  0.0314  0.6975
  310TMC3    C3 4661   0.374   3.606  16.977 -0.2798 -0.0947  0.8369
  310TMC3    C4 4662   0.505   3.450  17.167 -0.5720  1.1047  0.7571
  310TMC3    C5 4663   0.540   3.440  17.033 -0.1194  0.4133  0.1980
  310TMC3    C6 4664   0.469   3.517  16.939 -0.2756  0.8757  0.3551
  310TMC3     C 4665   0.343   3.512  17.325  0.3354  0.4012 -0.1622
  310TMC3     O 4666   0.411   3.452  17.407  0.0422  0.0754  0.3149
  310TMC3     H 4667   0.242   3.669  17.130  0.0031  0.0251  2.1040
  310TMC3    H1 4668   0.552   3.386  17.241 -2.1471 -0.7818  0.1163
  310TMC3    H2 4669   0.482   3.496  16.833 -2.9263  1.4422 -0.0784
  310TMC3    C7 4670   0.656   3.360  16.997 -0.1091  0.0590  0.4313
  310TMC3    C8 4671   0.302   3.672  16.869  0.6185 -0.2638 -0.3268
  310TMC3    O1 4672   0.737   3.342  17.087  0.0114 -0.0083 -0.3875
  310TMC3    O2 4673   0.187   3.701  16.895  0.2737 -0.6647 -0.3679
  311MPD2     C 4674   2.236   4.680  12.565  0.4087  0.4274  0.5522
  311MPD2    C1 4675   2.244   0.077  12.638 -0.0757 -0.7562  0.3332
  311MPD2    C2 4676   2.135   0.105  12.710 -0.0776 -0.6624 -0.2763
  311MPD2    C3 4677   2.016   0.037  12.698 -1.1774 -0.3538  0.3006
  311MPD2    C4 4678   2.013   4.638  12.621  0.3063  0.0959 -0.7983
  311MPD2    C5 4679   2.128   4.601  12.562 -0.4660 -0.1409 -0.3154
  311MPD2     H 4680   2.135   0.201  12.760  0.4502 -0.0632 -1.4134
  311MPD2    H1 4681   1.920   4.585  12.605 -0.3219  0.9226  0.1507
  311MPD2    H2 4682   2.322   4.652  12.505 -1.8643 -3.8349 -0.6856
  311MPD2    H3 4683   2.121   4.514  12.498 -0.8882  1.3139 -2.2282
  311MPD2     N 4684   1.912   0.096  12.766  0.1009  0.5412  0.3630
  311MPD2    H5 4685   1.938   0.160  12.840 -0.0927 -0.6232  1.4529
  311MPD2    N1 4686   2.356   0.165  12.644  0.5479  0.0768  0.2551
  311MPD2    H7 4687   2.343   0.250  12.699 -0.5475  0.5258 -0.6986
  312TMC3    C1 4688   1.692   0.124  12.850 -0.3600  0.3338 -0.1468
  312TMC3    C2 4689   1.564   0.141  12.815 -0.4924 -0.2870 -0.3328
  312TMC3    C3 4690   1.473   0.167  12.915  0.0927  0.4107  0.1002
  312TMC3    C4 4691   1.734   0.131  12.977 -0.1470  0.1846 -0.9522
  312TMC3    C5 4692   1.645   0.140  13.080  0.0275 -0.3143  0.4960
  312TMC3    C6 4693   1.514   0.159  13.043 -0.3843  0.2526 -0.3647
  312TMC3     C 4694   1.780   0.069  12.745  0.1300 -0.3703 -0.6156
  312TMC3     O 4695   1.729   0.038  12.639  0.4512  0.5840 -0.1371
  312TMC3     H 4696   1.539   0.121  12.711  2.2448 -1.3709 -0.7673
  312TMC3    H1 4697   1.838   0.125  13.009 -1.0142  2.3082  2.2905
  312TMC3    H2 4698   1.434   0.159  13.117  1.4181 -0.2449  1.5922
  312TMC3    C7 4699   1.683   0.184  13.214  0.0163  0.0321 -0.4033
  312TMC3    C8 4700   1.327   0.158  12.882 -0.5806 -0.4119 -0.5411
  312TMC3    O1 4701   1.595   0.246  13.271 -0.1686 -0.5664  0.4782
  312TMC3    O2 4702   1.243   0.152  12.969  0.1112 -0.5273 -0.1567
  313MPD2     C 4703   1.676   3.937  10.149 -0.2152 -0.7723 -0.3254
  313MPD2    C1 4704   1.547   3.956  10.099 -0.5718  0.5253 -0.5151
  313MPD2    C2 4705   1.529   3.987   9.967  0.3686 -0.5376 -0.9633
  313MPD2    C3 4706   1.643   4.006   9.886 -0.3645  0.3291  0.5160
  313MPD2    C4 4707   1.765   4.008   9.950 -0.3960 -0.2248 -0.4769
  313MPD2    C5 4708   1.785   3.970  10.079  0.2549  1.1700 -1.2236
  313MPD2     H 4709   1.429   3.988   9.923  0.2261 -0.9079 -0.6423
  313MPD2    H1 4710   1.854   4.046   9.900 -1.3701  1.0954 -1.2036
  313MPD2    H2 4711   1.688   3.930  10.256  1.9999 -0.5262 -0.5708
  313MPD2    H3 4712   1.882   3.981  10.127 -1.3031  1.2438  1.9146
  313MPD2     N 4713   1.615   4.024   9.751 -0.6862  0.9597 -0.0713
  313MPD2    H5 4714   1.520   4.007   9.719 -0.6043  0.7756 -0.2128
  313MPD2    N1 4715   1.433   3.970  10.180 -0.5288 -0.3799  0.0783
  313MPD2    H7 4716   1.357   4.001  10.120  0.2679  1.6781  0.1136
  314TMC3    C1 4717   1.303   4.006  10.378 -0.1196  1.0858  0.2610
  314TMC3    C2 4718   1.309   3.984  10.515  0.1934  0.2035 -0.1796
  314TMC3    C3 4719   1.262   4.085  10.594  0.1459 -0.3925  0.2042
  314TMC3    C4 4720   1.236   4.118  10.330 -0.5233  0.3221 -0.0838
  314TMC3    C5 4721   1.183   4.205  10.411 -0.2490  0.1666 -0.1254
  314TMC3    C6 4722   1.186   4.194  10.549 -1.0056  0.9592 -0.0557
  314TMC3     C 4723   1.429   3.959  10.315 -0.0924 -0.2254  0.1578
  314TMC3     O 4724   1.515   3.911  10.388  0.1391  0.1039 -0.1352
  314TMC3     H 4725   1.348   3.891  10.555 -0.7796 -0.1220  0.0138
  314TMC3    H1 4726   1.243   4.139  10.224 -0.9394  0.5807 -0.0581
  314TMC3    H2 4727   1.156   4.277  10.612 -1.0000  0.8544  0.0860
  314TMC3    C7 4728   1.115   4.327  10.369 -0.8826  0.5574  0.6067
  314TMC3    C8 4729   1.366   4.138  10.679  0.3827 -0.2309  0.0870
  314TMC3    O1 4730   1.008   4.352  10.430  0.3741 -0.1784 -0.5436
  314TMC3    O2 4731   1.346   4.241  10.742 -0.5094  0.1790  0.3982
  315MPD2     C 4732   1.367   3.440   0.332  0.1120  0.5964  0.0721
  315MPD2    C1 4733   1.467   3.466   0.430  0.3356 -0.1235 -0.1948
  315MPD2    C2 4734   1.546   3.572   0.427 -0.2238  0.2867  0.4738
  315MPD2    C3 4735   1.546   3.661   0.317 -0.2503  0.1958  0.6366
  315MPD2    C4 4736   1.447   3.629   0.221  0.3265 -0.5170 -0.0140
  315MPD2    C5 4737   1.357   3.530   0.228  0.1540  0.0474  0.0289
  315MPD2     H 4738   1.610   3.592   0.513  0.8023 -0.1509 -0.1849
  315MPD2    H1 4739   1.436   3.696   0.137 -3.3119 -0.2103  0.7007
  315MPD2    H2 4740   1.300   3.355   0.322 -1.0823  1.8597 -2.7166
  315MPD2    H3 4741   1.283   3.525   0.148 -0.6372  0.0029  0.7666
  315MPD2     N 4742   1.639   3.768   0.311 -0.3409  0.4939  0.2669
  315MPD2    H5 4743   1.714   3.762   0.379 -0.7679 -1.1536  0.5995
  315MPD2    N1 4744   1.504   3.378   0.532 -0.4204 -0.0763 -0.1484
  315MPD2    H7 4745   1.578   3.397   0.599  1.2123 -0.2528 -1.9022
  316TMC3    C1 4746   1.747   3.957   0.239  0.4736  0.3850  0.5869
  316TMC3    C2 4747   1.855   3.914   0.310  0.2048  0.4030  0.3115
  316TMC3    C3 4748   1.935   4.010   0.376  0.2992 -0.7014  0.0930
  316TMC3    C4 4749   1.713   4.090   0.225  0.4455 -0.1088  0.2646
  316TMC3    C5 4750   1.795   4.182   0.289  0.4108  0.6943  0.3749
  316TMC3    C6 4751   1.906   4.145   0.368 -0.4780  0.2264  0.0069
  316TMC3     C 4752   1.650   3.861   0.209 -0.0921  0.1160 -0.6659
  316TMC3     O 4753   1.561   3.889   0.126  0.1214 -0.4114 -0.0678
  316TMC3     H 4754   1.879   3.808   0.309  3.1515  1.1046 -1.6689
  316TMC3    H1 4755   1.621   4.123   0.179 -0.5344  0.3196  2.5723
  316TMC3    H2 4756   1.950   4.220   0.432 -2.2216  2.3614 -1.2925
  316TMC3    C7 4757   1.756   4.320   0.288 -0.3421  0.2134  0.1155
  316TMC3    C8 4758   1.982   3.975   0.503  0.4254 -0.4019 -0.6173
  316TMC3    O1 4759   1.786   4.384   0.389 -0.2281  0.1371  0.2243
  316TMC3    O2 4760   1.992   4.065   0.588 -0.0892 -0.6500  0.3393
  317MPD2     C 4761   3.569   2.339  12.594 -0.3391 -0.5027  0.1345
  317MPD2    C1 4762   3.624   2.217  12.559 -0.5092 -0.1345 -0.2640
  317MPD2    C2 4763   3.647   2.135  12.664  0.2143  0.6323 -0.0439
  317MPD2    C3 4764   3.634   2.165  12.796  0.5192 -0.2320 -0.7780
  317MPD2    C4 4765   3.585   2.289  12.833  0.1968  0.3875 -0.1813
  317MPD2    C5 4766   3.547   2.373  12.727 -0.0872 -0.5865  0.1728
  317MPD2     H 4767   3.674   2.033  12.641  0.6314  1.2346 -2.2177
  317MPD2    H1 4768   3.546   2.308  12.932 -1.7316 -0.5269 -0.7597
  317MPD2    H2 4769   3.505   2.385  12.520  1.0006  1.9722  0.5112
  317MPD2    H3 4770   3.484   2.460  12.743 -1.0264 -1.7128  2.7333
  317MPD2     N 4771   3.664   2.058  12.883 -0.5477 -0.4490 -0.5932
  317MPD2    H5 4772   3.692   1.973  12.835 -2.5655 -1.1849 -0.4643
  317MPD2    N1 4773   3.648   2.172  12.430  1.1155  0.2443 -0.0190
  317MPD2    H7 4774   3.669   2.073  12.419 -0.6922  0.0458 -1.4971
  318TMC3    C1 4775   3.643   1.912  13.055 -0.6651  0.2982 -0.1307
  318TMC3    C2 4776   3.621   1.798  12.977  0.0994  0.0168 -0.3609
  318TMC3    C3 4777   3.662   1.677  13.015  0.8050  0.0153  0.0727
  318TMC3    C4 4778   3.712   1.894  13.170 -0.6670  0.0617 -0.4193
  318TMC3    C5 4779   3.759   1.768  13.206  1.2193  0.2175  0.3671
  318TMC3    C6 4780   3.733   1.657  13.128  0.3068  0.3846  0.1951
  318TMC3     C 4781   3.624   2.050  13.013 -0.4903  0.0452  0.3039
  318TMC3     O 4782   3.566   2.132  13.084  0.6275 -0.0286 -0.5913
  318TMC3     H 4783   3.552   1.827  12.898 -0.6762 -0.8002  0.0120
  318TMC3    H1 4784   3.723   1.983  13.231  1.0694  1.1361 -2.2910
  318TMC3    H2 4785   3.752   1.555  13.161  1.8155  0.0585 -1.6901
  318TMC3    C7 4786   3.811   1.756  13.346  0.3947  0.1090  0.3772
  318TMC3    C8 4787   3.617   1.571  12.932 -0.1349 -0.4033 -0.5674
  318TMC3    O1 4788   3.804   1.851  13.417 -0.1112 -0.5087  0.8704
  318TMC3    O2 4789   3.614   1.581  12.809  0.0677  0.5526  0.3551
  319MPD2     C 4790   3.531   3.164  17.492  0.0190 -0.3036  0.6247
  319MPD2    C1 4791   3.658   3.113  17.475  0.5447  0.6579 -0.0427
  319MPD2    C2 4792   3.699   3.079  17.343 -0.5074 -0.3249  0.0353
  319MPD2    C3 4793   3.621   3.101  17.237  1.4166 -0.0612  0.0427
  319MPD2    C4 4794   3.503   3.156  17.257  0.1124  0.4747  0.1616
  319MPD2    C5 4795   3.458   3.184  17.380  0.3337  0.5141 -0.4038
  319MPD2     H 4796   3.799   3.036  17.340 -0.6740 -0.7508  0.4340
  319MPD2    H1 4797   3.438   3.167  17.172 -0.5442 -1.1593  0.4570
  319MPD2    H2 4798   3.480   3.209  17.577 -0.6911 -1.0818  0.6181
  319MPD2    H3 4799   3.360   3.229  17.389 -0.2359 -0.7928 -0.1005
  319MPD2     N 4800   3.664   3.069  17.110 -0.2677 -0.0195  0.0269
  319MPD2    H5 4801   3.612   3.109  17.032  0.0371  0.7752  0.2243
  319MPD2    N1 4802   3.751   3.107  17.580  0.3294 -0.4106  0.2642
  319MPD2    H7 4803   3.842   3.071  17.554  0.0381 -0.0312 -1.3005
  320TMC3    C1 4804   3.800   2.989  16.941 -0.2508 -0.3095 -0.4258
  320TMC3    C2 4805   3.800   3.104  16.868 -0.5931 -0.1412  0.2895
  320TMC3    C3 4806   3.793   3.084  16.733 -0.5152  0.5506 -1.2865
  320TMC3    C4 4807   3.811   2.863  16.889 -0.9085  0.4258  0.5459
  320TMC3    C5 4808   3.816   2.853  16.752  0.2944  0.3549  0.1728
  320TMC3    C6 4809   3.800   2.962  16.674  0.2194  0.3082  0.2823
  320TMC3     C 4810   3.777   2.997  17.082 -0.0172 -0.2301  0.3774
  320TMC3     O 4811   3.832   2.918  17.155 -0.0113  0.1226 -0.4533
  320TMC3     H 4812   3.795   3.201  16.915  0.4456  1.3360 -2.6422
  320TMC3    H1 4813   3.786   2.773  16.945 -0.0515  0.1727  0.5126
  320TMC3    H2 4814   3.790   2.943  16.568  2.4554 -0.6031  0.2469
  320TMC3    C7 4815   3.764   2.738  16.693 -0.0156  0.0490 -0.0127
  320TMC3    C8 4816   3.740   3.199  16.656 -0.4870  0.4648  0.5340
  320TMC3    O1 4817   3.810   2.708  16.584 -0.1990 -0.9368 -0.4923
  320TMC3    O2 4818   3.748   3.314  16.695  0.2267 -0.3700 -0.1219
  321TMC3    C1 4819   3.848   3.186   0.104 -0.5629  0.1302 -0.7853
  321TMC3    C2 4820   3.837   3.169   0.242 -0.2465 -0.0808 -0.7818
  321TMC3    C3 4821   3.949   3.198   0.310 -0.3003  0.6189 -0.3164
  321TMC3    C4 4822   3.969   3.197   0.039  0.3690  0.9176  0.2837
  321TMC3    C5 4823   4.076   3.229   0.120  0.0054 -0.7323  0.2777
  321TMC3    C6 4824   4.062   3.243   0.249  0.3051  0.1504 -0.8544
  321TMC3     C 4825   3.728   3.173   0.017 -0.0802 -0.2567 -0.4200
  321TMC3     O 4826   3.621   3.182   0.077 -0.3747  0.2819  0.0241
  321TMC3     H 4827   3.748   3.135   0.294  0.3931  1.0249  1.0426
  321TMC3    H1 4828   3.991   3.201  17.620  0.9268  1.4944  0.4214
  321TMC3    H2 4829   4.149   3.255   0.313  0.2511 -1.0825 -0.5427
  321TMC3    C7 4830   4.178   3.134   0.094 -0.1850  0.2377  0.0787
  321TMC3    C8 4831   3.979   3.102   0.420 -0.3767 -0.2160  0.0396
  321TMC3    O1 4832   4.139   3.019   0.082 -0.1111 -0.4652 -0.0663
  321TMC3    O2 4833   4.089   3.101   0.475  0.0450  0.0072  0.0752
  322MPD2     C 4834   2.563   4.171  14.123 -0.3117 -0.6697  0.8764
  322MPD2    C1 4835   2.648   4.118  14.220  0.5047  0.0619  0.1104
  322MPD2    C2 4836   2.657   3.984  14.213  0.2859  0.7813  0.2255
  322MPD2    C3 4837   2.572   3.901  14.143 -0.8046 -0.6862  0.3529
  322MPD2    C4 4838   2.476   3.952  14.060  0.2863 -0.4416  0.2335
  322MPD2    C5 4839   2.479   4.090  14.052 -0.2444 -0.0747  0.2422
  322MPD2     H 4840   2.738   3.934  14.265 -1.0905 -1.4553  0.2247
  322MPD2    H1 4841   2.412   3.897  13.992  0.2256  0.4876 -0.4722
  322MPD2    H2 4842   2.556   4.278  14.109 -1.1134 -0.8889 -0.3771
  322MPD2    H3 4843   2.410   4.130  13.978  0.3344  1.6495  0.6218
  322MPD2     N 4844   2.607   3.770  14.139 -0.3764 -0.9898  0.1597
  322MPD2    H5 4845   2.690   3.744  14.192  2.3323 -0.4869 -3.8761
  322MPD2    N1 4846   2.735   4.200  14.300  0.0788  0.2924  0.5552
  322MPD2    H7 4847   2.739   4.299  14.276 -0.7195  1.3205  4.6688
  323TMC3    C1 4848   2.906   4.233  14.459 -0.3424  0.1342  0.8070
  323TMC3    C2 4849   2.979   4.316  14.376 -0.5174 -0.3028  0.7192
  323TMC3    C3 4850   3.076   4.394  14.445  1.0395 -0.5871  0.6812
  323TMC3    C4 4851   2.937   4.215  14.593  0.4316 -0.5180 -0.4381
  323TMC3    C5 4852   3.024   4.296  14.653  0.3898  0.3344  0.2991
  323TMC3    C6 4853   3.081   4.395  14.581  0.2491 -0.2146 -0.0951
  323TMC3     C 4854   2.800   4.153  14.410  0.3667 -0.7669 -0.7617
  323TMC3     O 4855   2.765   4.060  14.482 -0.0096  0.6805  0.5801
  323TMC3     H 4856   2.965   4.329  14.269 -0.5174  0.5931  0.8309
  323TMC3    H1 4857   2.875   4.157  14.659  1.2421  1.9342  2.4476
  323TMC3    H2 4858   3.143   4.474  14.622 -1.0697 -0.6128  2.6714
  323TMC3    C7 4859   3.117   4.233  14.752 -0.4312 -0.4998 -0.0598
  323TMC3    C8 4860   3.212   4.370  14.393  0.6536  0.4646  0.2482
  323TMC3    O1 4861   3.076   4.132  14.802  0.0564 -0.2937  0.0062
  323TMC3    O2 4862   3.301   4.351  14.476  0.0735  0.3311 -0.4070
  324MPD2     C 4863   0.533   0.559  14.736 -0.6317  0.6096 -0.2407
  324MPD2    C1 4864   0.558   0.694  14.725 -0.3645 -0.6059  0.3779
  324MPD2    C2 4865   0.458   0.771  14.673  0.2430  0.3435  0.5150
  324MPD2    C3 4866   0.339   0.720  14.630  0.1870  0.0948  0.7928
  324MPD2    C4 4867   0.321   0.583  14.637  0.0474  0.0717 -0.0319
  324MPD2    C5 4868   0.421   0.507  14.685  1.1696 -0.0835  0.8752
  324MPD2     H 4869   0.476   0.878  14.675  1.0095  0.2184  0.5546
  324MPD2    H1 4870   0.225   0.549  14.599 -1.2405 -0.9706  4.1305
  324MPD2    H2 4871   0.608   0.493  14.778  0.5360  0.7578 -2.0874
  324MPD2    H3 4872   0.422   0.399  14.684  1.1978 -0.0596 -1.6071
  324MPD2     N 4873   0.231   0.798  14.582 -0.2394  0.5885 -0.0111
  324MPD2    H5 4874   0.141   0.751  14.583 -0.9998  2.0489  0.0377
  324MPD2    N1 4875   0.672   0.754  14.787 -0.4027  0.2169 -0.1199
  324MPD2    H7 4876   0.686   0.855  14.787  1.6776 -0.0838  1.4058
  325TMC3    C1 4877   0.090   0.985  14.542 -0.1862 -0.1873  0.0855
  325TMC3    C2 4878   4.716   0.893  14.509  0.0083 -0.8244 -0.3526
  325TMC3    C3 4879   4.591   0.945  14.489 -0.2596  0.3555 -0.2546
  325TMC3    C4 4880   0.065   1.115  14.541  0.1571  0.5614  0.1467
  325TMC3    C5 4881   4.659   1.163  14.524  0.3803 -0.3395  0.1239
  325TMC3    C6 4882   4.560   1.079  14.497  0.3572  0.1564  0.7949
  325TMC3     C 4883   0.232   0.939  14.574  0.5781  0.1222  0.4674
  325TMC3     O 4884   0.320   1.021  14.599 -0.5050 -0.4665  0.1207
  325TMC3     H 4885   0.014   0.788  14.523  0.8105 -0.7787 -1.1572
  325TMC3    H1 4886   0.129   1.183  14.596  0.4178 -0.8051  1.5234
  325TMC3    H2 4887   4.464   1.117  14.465  0.9936 -0.0934 -1.4347
  325TMC3    C7 4888   4.620   1.292  14.583 -0.1907  0.1783 -0.5535
  325TMC3    C8 4889   4.483   0.856  14.445  0.0521  0.0604 -0.0984
  325TMC3    O1 4890   4.700   1.386  14.583 -0.1012 -0.0533 -0.5618
  325TMC3    O2 4891   4.522   0.748  14.395  0.5531 -0.3793  0.3564
  326MPD2     C 4892   0.896   1.964  10.972 -0.1348 -0.0755  0.1734
  326MPD2    C1 4893   0.876   2.082  10.899  0.5694  0.0588 -0.1524
  326MPD2    C2 4894   0.972   2.175  10.892 -0.4519  0.8095 -0.0703
  326MPD2    C3 4895   1.090   2.157  10.962  0.4088 -0.7025 -0.1979
  326MPD2    C4 4896   1.110   2.043  11.040  0.3322  0.0034 -0.4662
  326MPD2    C5 4897   1.013   1.949  11.045  0.3155  0.0873  0.0256
  326MPD2     H 4898   0.951   2.266  10.837  0.2027  1.1709  0.2820
  326MPD2    H1 4899   1.204   2.033  11.092  0.4457  0.5451 -0.5709
  326MPD2    H2 4900   0.819   1.889  10.978 -0.3422  0.0807 -0.5246
  326MPD2    H3 4901   1.029   1.856  11.097  2.9556  0.5397  0.0277
  326MPD2     N 4902   1.190   2.257  10.960  0.5354 -0.6026  0.3531
  326MPD2    H5 4903   1.268   2.250  11.025  0.8551 -2.6435 -0.2597
  326MPD2    N1 4904   0.759   2.098  10.819 -0.0793  0.3110 -0.1586
  326MPD2    H7 4905   0.752   2.181  10.762 -2.2113  0.8055  0.7958
  327TMC3    C1 4906   0.573   2.031  10.683 -0.5532 -0.1284  0.0231
  327TMC3    C2 4907   0.533   2.166  10.690  0.0212 -0.0199  0.1728
  327TMC3    C3 4908   0.506   2.229  10.576  0.6367 -0.0835 -0.5400
  327TMC3    C4 4909   0.588   1.967  10.561  0.1316 -0.8991 -1.0689
  327TMC3    C5 4910   0.576   2.045  10.447 -0.3245 -0.3124  0.3929
  327TMC3    C6 4911   0.513   2.164  10.454  0.4963  0.0031  0.2683
  327TMC3     C 4912   0.677   1.993  10.782 -0.8624  0.1931 -0.1566
  327TMC3     O 4913   0.695   1.874  10.797  0.0041  0.7628 -0.0189
  327TMC3     H 4914   0.534   2.219  10.784 -3.6877  0.3683 -0.0219
  327TMC3    H1 4915   0.644   1.875  10.571  0.8136 -0.3253  0.3412
  327TMC3    H2 4916   0.498   2.205  10.355  1.9245 -1.6873 -0.6385
  327TMC3    C7 4917   0.697   2.076  10.381 -0.0273 -0.1005  0.6861
  327TMC3    C8 4918   0.518   2.368  10.556 -1.6227  0.3854 -0.0220
  327TMC3    O1 4919   0.703   2.180  10.315  0.5125  0.5789  0.5592
  327TMC3    O2 4920   0.559   2.406  10.448  0.4126 -0.1613  0.2583
  328MPD2     C 4921   3.313   1.904  17.424 -0.2673  0.2649  0.3814
  328MPD2    C1 4922   3.222   1.804  17.383  0.1762  0.5520  0.3074
  328MPD2    C2 4923   3.117   1.833  17.299  0.1018 -0.6569 -0.2703
  328MPD2    C3 4924   3.118   1.954  17.236  0.0485 -0.0209  0.1342
  328MPD2    C4 4925   3.223   2.047  17.264  0.7952 -0.1913 -0.4619
  328MPD2    C5 4926   3.310   2.023  17.361 -0.3185 -0.5535 -0.2444
  328MPD2     H 4927   3.040   1.761  17.274  1.0428 -1.4791 -0.7983
  328MPD2    H1 4928   3.227   2.144  17.217  1.3642 -0.9717 -2.0357
  328MPD2    H2 4929   3.394   1.878  17.491 -0.2206  0.4630  0.4035
  328MPD2    H3 4930   3.383   2.100  17.386 -1.8391  0.6967  0.3447
  328MPD2     N 4931   3.012   1.992  17.149  0.4039 -0.3684  0.1026
  328MPD2    H5 4932   3.041   2.063  17.082  2.8732 -1.5200 -0.0203
  328MPD2    N1 4933   3.253   1.673  17.438  0.2611  0.2606  0.2369
  328MPD2    H7 4934   3.318   1.661  17.515  1.0725 -0.6471 -0.5809
  329TMC3    C1 4935   3.224   1.440  17.455 -0.2820  0.3046  0.0179
  329TMC3    C2 4936   3.218   1.452  17.587 -0.4245  0.4861  0.9533
  329TMC3    C3 4937   3.238   1.335  17.655 -0.3904  0.2537  0.1390
  329TMC3    C4 4938   3.252   1.325  17.382  0.1438  0.1733  0.1757
  329TMC3    C5 4939   3.272   1.209  17.454  0.2361  1.0438  0.0490
  329TMC3    C6 4940   3.259   1.210  17.592 -1.1035  0.6154 -0.0991
  329TMC3     C 4941   3.203   1.560  17.370 -0.3453 -0.1910 -0.3689
  329TMC3     O 4942   3.146   1.550  17.260  0.1654  0.3975 -0.3105
  329TMC3     H 4943   3.206   1.547  17.639  1.7450  2.6895 -2.6061
  329TMC3    H1 4944   3.249   1.328  17.274  0.8196 -0.2993  0.1368
  329TMC3    H2 4945   3.274   1.122  17.653 -0.2800  0.7267 -0.1450
  329TMC3    C7 4946   3.359   1.101  17.401  0.1179  0.2919  0.1467
  329TMC3    C8 4947   3.253   1.344   0.112 -0.4337 -0.2565  0.0343
  329TMC3    O1 4948   3.423   1.029  17.481  0.0896 -0.0009  0.0663
  329TMC3    O2 4949   3.305   1.249   0.165  0.2859 -0.2582  0.5739
  330TMC3    C1 4950   1.353   1.516   9.618 -0.3726 -0.1433  0.2381
  330TMC3    C2 4951   1.343   1.434   9.511  0.0261  0.0539 -0.0887
  330TMC3    C3 4952   1.396   1.308   9.512 -0.6427  0.6858 -0.4935
  330TMC3    C4 4953   1.441   1.478   9.719 -0.0093 -0.6631  0.4343
  330TMC3    C5 4954   1.499   1.355   9.722  0.1855 -0.8004  0.7762
  330TMC3    C6 4955   1.476   1.268   9.614 -0.6053  0.2368  0.0059
  330TMC3     C 4956   1.272   1.632   9.636 -0.5057 -1.1819 -0.1742
  330TMC3     O 4957   1.317   1.705   9.719  0.5746 -0.3395 -0.2064
  330TMC3     H 4958   1.293   1.469   9.421  0.7071 -0.1195 -0.5357
  330TMC3    H1 4959   1.462   1.550   9.798  0.3844 -0.5291  0.2077
  330TMC3    H2 4960   1.560   1.202   9.592 -2.2498 -1.2798 -1.7069
  330TMC3    C7 4961   1.602   1.311   9.820 -0.2654  0.1208 -0.2793
  330TMC3    C8 4962   1.381   1.233   9.393  0.4037  0.5789  0.3327
  330TMC3    O1 4963   1.649   1.399   9.888  0.2966 -0.1936 -0.0575
  330TMC3    O2 4964   1.312   1.291   9.308 -0.3106 -0.1826 -0.2994
  331MPD2     C 4965   4.689   0.603  13.176 -0.6779  0.0708 -0.4781
  331MPD2    C1 4966   0.017   0.631  13.056 -0.3527  0.3893  0.5321
  331MPD2    C2 4967   4.650   0.616  12.945 -0.1660 -0.3956  0.3344
  331MPD2    C3 4968   4.515   0.586  12.962  0.1249  0.4503 -0.0776
  331MPD2    C4 4969   4.471   0.558  13.090 -0.0599  0.1383 -0.0690
  331MPD2    C5 4970   4.559   0.566  13.191 -0.2376  0.5334 -0.0579
  331MPD2     H 4971   4.678   0.622  12.841  0.9104  1.0706  0.7171
  331MPD2    H1 4972   4.371   0.525  13.113  0.6908 -3.1503 -1.5932
  331MPD2    H2 4973   0.022   0.596  13.270  1.6092  0.2132 -1.7947
  331MPD2    H3 4974   4.511   0.547  13.286  2.5328  1.1616  1.4550
  331MPD2     N 4975   4.437   0.587  12.848  0.4328  0.7564  0.0726
  331MPD2    H5 4976   4.481   0.600  12.757 -2.0320  0.7145 -1.1357
  331MPD2    N1 4977   0.155   0.664  13.054 -0.3208 -0.0762  0.0212
  331MPD2    H7 4978   0.202   0.658  13.145  0.2087 -1.2316 -0.3307
  332TMC3    C1 4979   4.290   0.482  12.704  0.2370  0.0033  0.0764
  332TMC3    C2 4980   4.363   0.543  12.602 -0.0653  0.0637  0.5087
  332TMC3    C3 4981   4.385   0.462  12.496 -0.4814 -0.2884  0.2475
  332TMC3    C4 4982   4.259   0.357  12.706  0.2543 -0.2458 -0.2173
  332TMC3    C5 4983   4.297   0.276  12.596  0.6064  0.2083  0.4314
  332TMC3    C6 4984   4.364   0.331  12.488  0.2876 -0.3464 -0.4692
  332TMC3     C 4985   4.311   0.530  12.835 -1.2481  0.2908  0.2062
  332TMC3     O 4986   4.239   0.489  12.922 -0.4721  0.3047 -0.1292
  332TMC3     H 4987   4.375   0.649  12.583 -1.9748 -0.3936 -3.3080
  332TMC3    H1 4988   4.216   0.312  12.794 -1.4859 -3.6667 -2.8290
  332TMC3    H2 4989   4.390   0.273  12.400  0.5678 -0.4375 -0.3250
  332TMC3    C7 4990   4.323   0.149  12.650 -0.5486 -0.2123  0.1622
  332TMC3    C8 4991   4.439   0.523  12.378  0.4754 -0.0290  0.4556
  332TMC3    O1 4992   4.235   0.098  12.717 -0.0390  0.2703 -0.1917
  332TMC3    O2 4993   4.533   0.602  12.390  0.4175  0.1849  0.5190
  333MPD2     C 4994   3.935   0.293  10.798 -0.9768 -0.0919  0.0081
  333MPD2    C1 4995   4.021   0.197  10.756  0.4066 -0.3780  0.1008
  333MPD2    C2 4996   4.014   0.068  10.803 -0.0716  0.8686 -0.0115
  333MPD2    C3 4997   3.942   0.043  10.918  0.3394  0.3229 -0.3404
  333MPD2    C4 4998   3.852   0.140  10.957 -0.5829  0.7132 -0.2699
  333MPD2    C5 4999   3.844   0.266  10.897  0.4561  0.0739 -0.1796
  333MPD2     H 5000   4.078   4.711  10.763 -2.0929 -0.4663 -0.6465
  333MPD2    H1 5001   3.781   0.120  11.037 -0.1719 -0.3777 -0.1721
  333MPD2    H2 5002   3.939   0.394  10.759  1.7128  0.9494  2.9246
  333MPD2    H3 5003   3.781   0.347  10.930 -0.7795 -0.3199 -1.5756
  333MPD2     N 5004   3.939   4.635  10.972  0.1010  0.0977 -0.2297
  333MPD2    H5 5005   3.999   4.564  10.932  0.4995 -0.0423  0.6060
  333MPD2    N1 5006   4.129   0.244  10.680  0.0881 -0.2021  0.6985
  333MPD2    H7 5007   4.114   0.341  10.656  0.1767 -0.5245 -0.6473
  334TMC3    C1 5008   4.352   0.270  10.612 -0.6019 -0.4489 -0.9382
  334TMC3    C2 5009   4.448   0.223  10.530  0.3449  0.4692 -0.1573
  334TMC3    C3 5010   4.578   0.264  10.544  0.1114  0.2477 -0.5034
  334TMC3    C4 5011   4.373   0.364  10.703 -0.3042  0.8040  0.1935
  334TMC3    C5 5012   4.502   0.416  10.709 -0.0491 -0.5739  0.4847
  334TMC3    C6 5013   4.606   0.367  10.626  0.0650  0.7665  0.7351
  334TMC3     C 5014   4.249   0.180  10.644 -0.1627  0.5461 -0.0487
  334TMC3     O 5015   4.284   0.067  10.648  0.1048  0.4234  0.6283
  334TMC3     H 5016   4.422   0.144  10.461  1.5327 -0.6508  0.6600
  334TMC3    H1 5017   4.300   0.365  10.783 -1.1256  0.1660 -0.5581
  334TMC3    H2 5018   4.701   0.417  10.637  1.4312 -1.7149  0.1824
  334TMC3    C7 5019   4.529   0.527  10.793  0.2014 -0.3921  0.2972
  334TMC3    C8 5020   4.676   0.195  10.461 -0.3017  0.3167  0.8306
  334TMC3    O1 5021   4.628   0.593  10.771  0.0377  0.5799 -0.4231
  334TMC3    O2 5022   4.635   0.112  10.384 -0.2856 -0.0138  0.6585
  335TMC3    C1 5023   3.907   1.770   0.254  0.0108  0.0996 -0.3905
  335TMC3    C2 5024   3.834   1.697   0.158  0.4296  0.6517 -0.8006
  335TMC3    C3 5025   3.912   1.642   0.059 -0.1867  0.2653 -0.3225
  335TMC3    C4 5026   4.040   1.791   0.248 -0.2164 -0.1915 -0.0456
  335TMC3    C5 5027   4.107   1.738   0.142  0.3191 -0.4279 -0.3194
  335TMC3    C6 5028   4.047   1.663   0.047 -0.1573  0.1791  0.5684
  335TMC3     C 5029   3.837   1.838   0.355 -0.7861  0.1221 -0.6228
  335TMC3     O 5030   3.884   1.930   0.420 -0.6230 -0.0885  0.3370
  335TMC3     H 5031   3.732   1.661   0.164  0.2003  1.6183  1.1190
  335TMC3    H1 5032   4.091   1.848   0.325  2.5543 -0.2719 -1.8045
  335TMC3    H2 5033   4.108   1.607  17.664  0.1409  2.3299 -0.8911
  335TMC3    C7 5034   4.251   1.767   0.122 -0.3899  0.3721  0.2990
  335TMC3    C8 5035   3.858   1.542  17.656  0.6856  0.2114  0.0398
  335TMC3    O1 5036   4.312   1.699   0.039  0.5920  0.0151  0.5056
  335TMC3    O2 5037   3.794   1.451   0.020 -0.0341 -0.7169  0.1866
  336MPD2     C 5038   4.242   4.181  16.695 -0.0293 -0.0233 -0.2688
  336MPD2    C1 5039   4.154   4.118  16.609  0.2686 -0.2460  0.3038
  336MPD2    C2 5040   4.131   3.978  16.619  0.1303  0.6717 -0.0410
  336MPD2    C3 5041   4.222   3.912  16.696  0.0855  0.0699 -0.2649
  336MPD2    C4 5042   4.304   3.979  16.788 -0.3245  0.8704 -0.3830
  336MPD2    C5 5043   4.317   4.108  16.785 -1.4430  0.0128  0.3710
  336MPD2     H 5044   4.061   3.935  16.549 -2.9890  0.8842  2.9831
  336MPD2    H1 5045   4.365   3.926  16.861 -3.2090 -2.1384 -0.1739
  336MPD2    H2 5046   4.262   4.287  16.704 -0.9109  0.0522  0.7765
  336MPD2    H3 5047   4.395   4.159  16.842 -0.6908  1.5913 -2.0737
  336MPD2     N 5048   4.211   3.770  16.717 -0.3328  0.6968  0.1660
  336MPD2    H5 5049   4.253   3.726  16.798  1.3212 -0.4377 -1.3292
  336MPD2    N1 5050   4.086   4.196  16.507 -0.2423 -0.5625  0.5703
  336MPD2    H7 5051   4.019   4.156  16.443 -2.1775  1.8533  1.0821
  337TMC3    C1 5052   4.016   4.413  16.399 -0.0105 -0.3661 -0.3412
  337TMC3    C2 5053   3.904   4.357  16.348  0.1227 -0.7113  0.4590
  337TMC3    C3 5054   3.819   4.442  16.281  0.3415  0.6945 -0.0093
  337TMC3    C4 5055   4.035   4.549  16.397 -0.4592  0.3103  1.0741
  337TMC3    C5 5056   3.945   4.628  16.332 -0.5766  0.6564 -0.2041
  337TMC3    C6 5057   3.834   4.580  16.268 -0.0390 -0.6867 -0.1303
  337TMC3     C 5058   4.111   4.331  16.484  0.8784 -0.1286  0.4407
  337TMC3     O 5059   4.203   4.399  16.527  0.1608 -0.6997  0.6404
  337TMC3     H 5060   3.887   4.250  16.350 -0.3527 -0.7243 -3.7240
  337TMC3    H1 5061   4.121   4.595  16.443  2.4030 -2.6288 -1.3324
  337TMC3    H2 5062   3.763   4.633  16.206  0.4769  1.3580  0.9874
  337TMC3    C7 5063   3.969   0.057  16.334  0.6889  0.6049 -0.3886
  337TMC3    C8 5064   3.689   4.386  16.240  0.3647 -0.7354 -0.1957
  337TMC3    O1 5065   4.082   0.104  16.336  0.1803 -0.1255 -0.8330
  337TMC3    O2 5066   3.646   4.293  16.303 -0.0233 -0.3317  0.0119
  338MPD2     C 5067   3.899   3.906   1.066  0.1661  0.3006  0.2509
  338MPD2    C1 5068   3.841   3.806   0.982 -0.6088 -0.4520  0.3625
  338MPD2    C2 5069   3.699   3.787   0.974  0.6675 -0.3994 -0.5506
  338MPD2    C3 5070   3.627   3.879   1.055  0.2922  0.4155  0.2856
  338MPD2    C4 5071   3.689   3.960   1.151  0.4657  0.1029  0.1959
  338MPD2    C5 5072   3.824   3.971   1.153 -0.1794 -0.3455  1.2680
  338MPD2     H 5073   3.653   3.705   0.921  0.7212 -1.4917  1.0728
  338MPD2    H1 5074   3.636   4.020   1.224 -1.4148 -0.8782 -0.3697
  338MPD2    H2 5075   4.007   3.920   1.067  0.0341  1.1417  2.0400
  338MPD2    H3 5076   3.871   4.030   1.231 -0.3440  0.9706  0.3599
  338MPD2     N 5077   3.488   3.876   1.044  0.4773  0.5075  0.1090
  338MPD2    H5 5078   3.442   3.814   0.978  1.3593 -0.1427  0.1114
  338MPD2    N1 5079   3.918   3.737   0.886  0.0008  0.0795 -1.0145
  338MPD2    H7 5080   3.873   3.670   0.824  0.1964 -1.7817  0.8444
  339TMC3    C1 5081   3.267   3.927   1.070 -0.2070 -0.4301 -0.3610
  339TMC3    C2 5082   3.170   3.871   1.158 -0.2798  0.1997 -0.3470
  339TMC3    C3 5083   3.058   3.827   1.102 -0.9162 -0.5311 -0.0552
  339TMC3    C4 5084   3.263   3.908   0.934 -0.3656  0.1989 -0.6487
  339TMC3    C5 5085   3.143   3.856   0.887 -0.3109 -0.5760  0.2445
  339TMC3    C6 5086   3.042   3.819   0.972 -0.3575  0.5726  0.4287
  339TMC3     C 5087   3.398   3.945   1.121  1.2003  0.0973 -0.6273
  339TMC3     O 5088   3.413   4.011   1.218 -0.0500 -0.4449 -0.0181
  339TMC3     H 5089   3.178   3.888   1.264  0.0776 -0.9275 -0.1910
  339TMC3    H1 5090   3.328   3.969   0.872  0.1450 -0.7825 -1.0854
  339TMC3    H2 5091   2.957   3.771   0.925 -0.0699  0.8426 -0.3736
  339TMC3    C7 5092   3.159   3.801   0.754 -0.5020 -0.1842 -0.6103
  339TMC3    C8 5093   2.981   3.727   1.169 -0.2423  0.1764  0.5090
  339TMC3    O1 5094   3.275   3.771   0.724  0.0182  0.5401 -0.3408
  339TMC3    O2 5095   2.867   3.701   1.136  0.3253  0.6953 -0.2913
  340MPD2     C 5096   4.320   1.725   9.937 -0.6593 -0.5540  0.8949
  340MPD2    C1 5097   4.346   1.640  10.035 -0.2412 -0.6323 -0.1761
  340MPD2    C2 5098   4.346   1.697  10.163 -0.2201 -0.6687 -0.0997
  340MPD2    C3 5099   4.309   1.830  10.184 -0.1578  0.0448  0.4968
  340MPD2    C4 5100   4.276   1.902  10.073 -0.2125  0.7138  0.6533
  340MPD2    C5 5101   4.285   1.852   9.946 -0.2312  0.0829  0.1911
  340MPD2     H 5102   4.372   1.645  10.254 -1.5072 -2.2061 -0.6102
  340MPD2    H1 5103   4.244   2.006  10.078  0.4707  1.0295 -1.6293
  340MPD2    H2 5104   4.334   1.695   9.834 -0.4062  0.7717  0.5464
  340MPD2    H3 5105   4.283   1.919   9.862  2.0083  0.0489  0.1103
  340MPD2     N 5106   4.305   1.894  10.306 -0.5103  0.1777 -0.0387
  340MPD2    H5 5107   4.313   1.995  10.314 -3.2485  0.4476 -0.6221
  340MPD2    N1 5108   4.385   1.508  10.012 -0.1911 -0.3374 -0.1447
  340MPD2    H7 5109   4.409   1.480   9.917  0.5710  0.2348 -0.1223
  341TMC3    C1 5110   4.463   1.288  10.062  0.5715 -0.0357 -0.0215
  341TMC3    C2 5111   4.441   1.177  10.143  0.1397 -0.4525 -0.0558
  341TMC3    C3 5112   4.531   1.071  10.132 -0.2213  0.8637  0.3944
  341TMC3    C4 5113   4.569   1.289   9.971  0.6634 -0.3213  0.5406
  341TMC3    C5 5114   4.646   1.183   9.951 -1.2900  0.1398  0.1191
  341TMC3    C6 5115   4.626   1.074  10.033 -0.2709 -0.8802 -0.0327
  341TMC3     C 5116   4.390   1.409  10.106  0.1256  0.1751  0.4632
  341TMC3     O 5117   4.350   1.403  10.223  0.3167  0.1678  0.2570
  341TMC3     H 5118   4.365   1.166  10.219  2.2244  2.6283  2.4907
  341TMC3    H1 5119   4.587   1.373   9.905  1.5859  0.0978  1.3201
  341TMC3    H2 5120   4.697   0.993  10.036  0.3085 -0.4316 -1.5860
  341TMC3    C7 5121   0.053   1.182   9.877  0.2254  0.2342 -0.9172
  341TMC3    C8 5122   4.454   0.951  10.133  0.3364 -0.4378 -0.4887
  341TMC3    O1 5123   0.120   1.083   9.873 -0.6238 -0.0288  0.0828
  341TMC3    O2 5124   4.337   0.950  10.175  0.2847 -0.1543 -0.1049
  342MPD2     C 5125   2.415   0.387  16.957  0.2606 -0.1476  0.4294
  342MPD2    C1 5126   2.412   0.323  17.078  0.1351 -0.4824 -0.0893
  342MPD2    C2 5127   2.374   0.396  17.193 -0.1717 -0.0045 -0.6477
  342MPD2    C3 5128   2.361   0.533  17.185  0.7061  0.2074  0.0568
  342MPD2    C4 5129   2.363   0.589  17.058  0.0673 -0.1709  0.7873
  342MPD2    C5 5130   2.393   0.519  16.949 -0.3223 -0.1381 -0.1413
  342MPD2     H 5131   2.379   0.351  17.292  1.9414 -1.0917 -1.2532
  342MPD2    H1 5132   2.338   0.694  17.045 -1.4701 -0.4703  1.2576
  342MPD2    H2 5133   2.422   0.334  16.862  1.7810  1.8354 -0.5478
  342MPD2    H3 5134   2.386   0.561  16.850  0.7700  0.1018 -0.1218
  342MPD2     N 5135   2.326   0.610  17.295 -0.2422 -0.1327 -0.1902
  342MPD2    H5 5136   2.319   0.710  17.278  2.3673 -0.2102 -1.8308
  342MPD2    N1 5137   2.425   0.181  17.087 -0.7274 -0.0889 -0.2224
  342MPD2    H7 5138   2.415   0.146  17.182  0.7530  2.0542  0.7316
  343TMC3    C1 5139   2.478   4.686  17.034  0.4890 -0.0947  0.9027
  343TMC3    C2 5140   2.571   4.600  16.983  0.4464  0.4598  1.0055
  343TMC3    C3 5141   2.584   4.470  17.026 -0.0522  0.4180  0.9707
  343TMC3    C4 5142   2.390   4.644  17.127  0.6378  0.0067  0.0455
  343TMC3    C5 5143   2.396   4.510  17.168 -0.0536  0.8372 -0.3235
  343TMC3    C6 5144   2.493   4.422  17.123 -0.0595  0.1025  0.0523
  343TMC3     C 5145   2.487   0.103  16.995 -0.0583 -0.5684 -0.4460
  343TMC3     O 5146   2.552   0.126  16.892 -0.3022  0.6654  0.3636
  343TMC3     H 5147   2.661   4.638  16.936 -0.9246  3.7130  1.0222
  343TMC3    H1 5148   2.304   4.705  17.150  1.4478  0.5461  1.6480
  343TMC3    H2 5149   2.495   4.322  17.163  0.0388 -0.2193 -0.7603
  343TMC3    C7 5150   2.327   4.488  17.290  0.6285 -0.1030  0.0640
  343TMC3    C8 5151   2.720   4.440  17.063 -0.4988 -0.1672 -0.3354
  343TMC3    O1 5152   2.309   4.575  17.375  0.6409 -0.1967 -0.1218
  343TMC3    O2 5153   2.785   4.529  17.110 -0.5984 -0.0729  0.2631
  344MPD2     C 5154   3.533   4.543  10.871 -0.3116  0.4504 -0.2723
  344MPD2    C1 5155   3.493   4.472  10.762 -0.0121 -0.4076  0.4292
  344MPD2    C2 5156   3.513   4.532  10.641  0.1985  0.9692  0.4160
  344MPD2    C3 5157   3.592   4.634  10.616 -0.2075 -0.5637 -0.0629
  344MPD2    C4 5158   3.653   4.697  10.724 -0.7779  0.2473  0.2602
  344MPD2    C5 5159   3.612   4.657  10.850  0.4786 -0.7560  0.0305
  344MPD2     H 5160   3.467   4.480  10.558  1.0296  0.3158  0.3673
  344MPD2    H1 5161   3.712   0.066  10.722 -0.5131  0.0026 -2.9190
  344MPD2    H2 5162   3.536   4.505  10.972  2.6712  0.2566 -0.4329
  344MPD2    H3 5163   3.639   4.716  10.938  1.7753  0.6480 -1.3056
  344MPD2     N 5164   3.621   4.696  10.489  0.2395 -0.6115 -0.7175
  344MPD2    H5 5165   3.685   0.054  10.488  0.8013 -1.0344  3.3275
  344MPD2    N1 5166   3.432   4.344  10.768 -0.3367  0.4082 -0.3715
  344MPD2    H7 5167   3.401   4.301  10.682 -0.7911  0.9709 -0.4887
  345TMC3    C1 5168   3.638   0.024  10.270 -0.3279 -0.4303 -0.9903
  345TMC3    C2 5169   3.763   0.066  10.308 -0.4314 -0.4273  0.6578
  345TMC3    C3 5170   3.815   0.176  10.245 -0.1492 -0.1498 -0.4976
  345TMC3    C4 5171   3.558   0.093  10.182  0.5595 -0.2659 -0.3079
  345TMC3    C5 5172   3.617   0.203  10.130  0.2490 -0.4622 -0.1021
  345TMC3    C6 5173   3.746   0.251  10.156 -0.4687  0.8864 -0.2192
  345TMC3     C 5174   3.573   4.661  10.363 -0.1658 -0.4549 -0.0764
  345TMC3     O 5175   3.483   4.582  10.330 -0.2976 -0.4888 -0.3246
  345TMC3     H 5176   3.828   0.015  10.377  0.4150  0.3103  0.4107
  345TMC3    H1 5177   3.453   0.067  10.169  0.4181  1.0688 -1.7097
  345TMC3    H2 5178   3.785   0.328  10.090  0.6195 -1.5409 -2.3801
  345TMC3    C7 5179   3.543   0.315  10.088  0.4142 -0.1912  0.2925
  345TMC3    C8 5180   3.950   0.224  10.272  0.0253 -0.7081  0.8702
  345TMC3    O1 5181   3.579   0.431  10.123  0.4442 -0.0409  0.5205
  345TMC3    O2 5182   4.034   0.144  10.307  0.4621 -0.0862  0.3885
  346MPD2     C 5183   3.402   0.968  14.216  0.6614  0.4478  0.2303
  346MPD2    C1 5184   3.477   1.080  14.197  0.4359 -0.0915  0.0499
  346MPD2    C2 5185   3.522   1.151  14.311 -0.0722  0.3344 -0.1180
  346MPD2    C3 5186   3.504   1.101  14.441  0.8121  0.4240  0.2189
  346MPD2    C4 5187   3.423   0.992  14.454 -0.0083 -0.1029 -0.2412
  346MPD2    C5 5188   3.373   0.926  14.348 -0.4260 -0.3603 -0.3193
  346MPD2     H 5189   3.586   1.238  14.310  0.2816  0.0589 -1.5127
  346MPD2    H1 5190   3.410   0.932  14.543 -0.9746  0.1833 -0.1909
  346MPD2    H2 5191   3.361   0.905  14.138 -0.3196 -2.5184  3.1840
  346MPD2    H3 5192   3.321   0.832  14.360 -0.0698 -0.4950  0.1925
  346MPD2     N 5193   3.569   1.154  14.558 -0.5761 -1.0611  0.0919
  346MPD2    H5 5194   3.647   1.216  14.541 -1.8190  0.5940  0.4379
  346MPD2    N1 5195   3.522   1.124  14.072  0.5067 -0.4453 -0.3927
  346MPD2    H7 5196   3.546   1.222  14.081 -0.4037 -0.2836  0.2648
  347TMC3    C1 5197   3.635   1.218  14.774 -0.7714 -0.3442  0.1555
  347TMC3    C2 5198   3.761   1.250  14.721 -0.0353  0.5957  0.2831
  347TMC3    C3 5199   3.848   1.309  14.813 -0.2515 -0.0731  0.3358
  347TMC3    C4 5200   3.604   1.245  14.904  0.0546  0.2934 -0.0154
  347TMC3    C5 5201   3.699   1.296  14.981  0.1040 -0.1111 -0.2110
  347TMC3    C6 5202   3.816   1.345  14.940 -0.9922  0.5704 -0.0053
  347TMC3     C 5203   3.538   1.141  14.691 -0.0238  0.4540  0.1088
  347TMC3     O 5204   3.444   1.078  14.744 -0.3222  0.5061  0.5224
  347TMC3     H 5205   3.811   1.211  14.633 -0.0838  1.1287  0.0196
  347TMC3    H1 5206   3.517   1.201  14.951  1.7983 -2.1888  0.8848
  347TMC3    H2 5207   3.890   1.386  15.008  1.4348 -0.4291 -2.0539
  347TMC3    C7 5208   3.650   1.339  15.111  0.5541  0.3722  0.0960
  347TMC3    C8 5209   3.985   1.308  14.767 -0.1625  0.8651 -0.3503
  347TMC3    O1 5210   3.529   1.352  15.120 -0.0258 -0.1681  0.0572
  347TMC3    O2 5211   4.027   1.230  14.684  0.0726  0.4549 -0.1788
  348MPD2     C 5212   1.746   0.007  11.504 -0.3855 -0.3918 -0.7304
  348MPD2    C1 5213   1.757   0.091  11.613 -0.0860 -0.5121  0.0230
  348MPD2    C2 5214   1.708   0.218  11.601 -0.0485  0.8008 -0.6267
  348MPD2    C3 5215   1.649   0.257  11.478 -0.5452  0.0856 -0.4041
  348MPD2    C4 5216   1.632   0.164  11.379  0.1935 -0.8602 -0.0030
  348MPD2    C5 5217   1.678   0.039  11.392  0.0245  0.1571  0.1631
  348MPD2     H 5218   1.713   0.282  11.688  0.9317  0.4830 -0.4526
  348MPD2    H1 5219   1.575   0.190  11.290  1.2713  1.9503  0.1335
  348MPD2    H2 5220   1.793   4.631  11.515  0.4897 -0.1918 -2.7829
  348MPD2    H3 5221   1.668   4.679  11.320  0.6297 -0.5055  0.8166
  348MPD2     N 5222   1.588   0.386  11.454  0.1723  0.6613  0.1143
  348MPD2    H5 5223   1.539   0.400  11.366  0.5838 -1.0925 -0.4002
  348MPD2    N1 5224   1.836   0.074  11.731  0.4592 -0.5258  0.0179
  348MPD2    H7 5225   1.838   0.150  11.799 -0.9439 -0.9483  0.5319
  349TMC3    C1 5226   1.966   4.707  11.896 -0.1757 -0.2262  0.1233
  349TMC3    C2 5227   2.102   4.667  11.899  0.2296  0.3301 -0.8085
  349TMC3    C3 5228   2.189   0.037  11.956 -1.0279  0.3744 -0.4167
  349TMC3    C4 5229   1.928   0.109  11.947 -0.3117 -0.1121 -0.2448
  349TMC3    C5 5230   2.026   0.197  11.988 -0.3400 -0.4269  0.0897
  349TMC3    C6 5231   2.157   0.165  11.994 -0.6384  0.6578  0.0332
  349TMC3     C 5232   1.887   4.674  11.780  0.5117  0.1976 -0.6864
  349TMC3     O 5233   1.926   4.575  11.718 -0.1980 -0.5664 -0.2084
  349TMC3     H 5234   2.123   4.564  11.875  0.1384  0.1055  0.0574
  349TMC3    H1 5235   1.822   0.130  11.961  0.1229  1.5521  0.5120
  349TMC3    H2 5236   2.236   0.233  12.021  0.3718 -0.8001  0.7364
  349TMC3    C7 5237   1.985   0.325  11.934 -0.4319  0.2872  0.6131
  349TMC3    C8 5238   2.275   4.696  12.053 -0.7884 -0.2321  0.0418
  349TMC3    O1 5239   1.884   0.323  11.866  0.2893  0.3455  0.3475
  349TMC3    O2 5240   2.287   0.037  12.157  0.1919 -0.2530 -0.5083
  350MPD2     C 5241   0.815   3.960   9.417 -0.3245 -0.8917 -0.3124
  350MPD2    C1 5242   0.888   3.857   9.464 -0.0189 -0.5296 -0.0111
  350MPD2    C2 5243   1.025   3.848   9.442  0.1179  0.0158  0.3498
  350MPD2    C3 5244   1.096   3.952   9.391 -0.2895 -0.5556  0.0881
  350MPD2    C4 5245   1.021   4.062   9.347  0.1338  0.2354  0.6197
  350MPD2    C5 5246   0.886   4.065   9.363 -0.1626 -0.0314 -0.3011
  350MPD2     H 5247   1.083   3.760   9.467 -1.7071 -0.9947  1.0629
  350MPD2    H1 5248   1.066   4.139   9.285  0.8318 -2.0043 -1.6811
  350MPD2    H2 5249   0.709   3.975   9.434 -0.5486 -0.8848 -1.6961
  350MPD2    H3 5250   0.827   4.143   9.317  0.2330  0.5657  0.2188
  350MPD2     N 5251   1.239   3.934   9.392 -0.1994 -0.5911  0.0999
  350MPD2    H5 5252   1.275   3.857   9.448  1.8124  0.1251 -0.1791
  350MPD2    N1 5253   0.826   3.750   9.524 -0.9336 -0.0826 -0.0850
  350MPD2    H7 5254   0.886   3.682   9.571  1.1535  0.7129 -1.5744
  351TMC3    C1 5255   0.667   3.579   9.564 -0.0654  0.2237 -0.2012
  351TMC3    C2 5256   0.763   3.487   9.598  0.4164  0.9591 -0.5532
  351TMC3    C3 5257   0.720   3.363   9.625 -0.4382  0.0937 -0.4092
  351TMC3    C4 5258   0.533   3.557   9.574  0.8292 -0.1138  0.0490
  351TMC3    C5 5259   0.495   3.428   9.604 -0.1127 -0.3278 -0.1575
  351TMC3    C6 5260   0.587   3.324   9.621  0.7968 -0.3515  0.2885
  351TMC3     C 5261   0.692   3.711   9.509  0.1093 -0.1374  0.6702
  351TMC3     O 5262   0.609   3.758   9.434  0.2396  0.1131 -0.9428
  351TMC3     H 5263   0.865   3.513   9.573  0.1455  0.7406 -1.8859
  351TMC3    H1 5264   0.471   3.645   9.579  1.5278  0.5767 -3.3719
  351TMC3    H2 5265   0.553   3.222   9.630 -0.1046 -0.2119 -1.4262
  351TMC3    C7 5266   0.353   3.402   9.609 -0.2528  0.3465  0.5363
  351TMC3    C8 5267   0.834   3.273   9.652  0.1921 -0.0084  1.2218
  351TMC3    O1 5268   0.285   3.498   9.576 -0.4268 -0.4089  0.3977
  351TMC3    O2 5269   0.814   3.156   9.629 -0.2885  0.1490  0.4559
  352MPD2     C 5270   3.828   0.931   0.976 -0.0665  0.4694 -0.0985
  352MPD2    C1 5271   3.773   1.029   1.060  1.4316  0.0187  0.0091
  352MPD2    C2 5272   3.760   1.003   1.198  0.0949 -0.0165 -0.0257
  352MPD2    C3 5273   3.792   0.876   1.250 -0.3252 -0.0712  0.0114
  352MPD2    C4 5274   3.843   0.779   1.164  0.5426  0.6189  0.0953
  352MPD2    C5 5275   3.863   0.812   1.034 -0.3775 -0.0629 -0.2411
  352MPD2     H 5276   3.728   1.086   1.260 -0.8748 -1.1643  1.0199
  352MPD2    H1 5277   3.884   0.683   1.194 -1.9289 -1.4639 -3.1149
  352MPD2    H2 5278   3.846   0.941   0.869  0.1279 -1.2140 -0.2322
  352MPD2    H3 5279   3.916   0.738   0.976  2.3532  1.2539  0.5890
  352MPD2     N 5280   3.786   0.856   1.387  0.1901 -0.4559  0.5541
  352MPD2    H5 5281   3.825   0.768   1.419  2.4038 -0.2731 -1.6869
  352MPD2    N1 5282   3.735   1.150   0.998  0.1022 -0.2877  0.5058
  352MPD2    H7 5283   3.751   1.178   0.902  1.4542  0.2333  0.8946
  353TMC3    C1 5284   3.696   0.845   1.589  0.7547 -0.1997  0.4350
  353TMC3    C2 5285   3.805   0.774   1.626  0.4467 -1.1418  0.4802
  353TMC3    C3 5286   3.792   0.683   1.721 -0.0509 -0.1959 -0.1789
  353TMC3    C4 5287   3.577   0.835   1.651  0.4836 -0.9738 -0.6437
  353TMC3    C5 5288   3.563   0.743   1.746 -0.2859 -0.4790  0.2636
  353TMC3    C6 5289   3.668   0.660   1.775  0.0659  0.3193  0.0959
  353TMC3     C 5290   3.701   0.925   1.474  0.1517  0.6759 -0.1268
  353TMC3     O 5291   3.611   1.008   1.453 -0.1275  0.4554  0.3859
  353TMC3     H 5292   3.903   0.782   1.581 -0.0337  0.1794 -0.3267
  353TMC3    H1 5293   3.497   0.900   1.621  1.3518  0.5886  0.3947
  353TMC3    H2 5294   3.655   0.589   1.855 -0.3985 -0.4973 -0.6981
  353TMC3    C7 5295   3.439   0.669   1.720 -0.2710 -0.9951  0.1783
  353TMC3    C8 5296   3.906   0.596   1.731  0.1131 -0.3982 -0.0948
  353TMC3    O1 5297   3.390   0.678   1.609  0.2527  0.0615 -0.1553
  353TMC3    O2 5298   4.016   0.638   1.692 -0.2881  0.0713  0.1325
  354TMC3    C1 5299   1.053   1.841  13.531  0.3086 -0.5201 -0.1869
  354TMC3    C2 5300   0.995   1.936  13.445 -0.4406 -0.3367 -0.0319
  354TMC3    C3 5301   1.081   2.001  13.360 -0.1222  0.1042 -0.2168
  354TMC3    C4 5302   1.185   1.815  13.536  0.3506 -0.3911  0.0533
  354TMC3    C5 5303   1.262   1.899  13.460 -0.1759 -0.6711 -0.2376
  354TMC3    C6 5304   1.214   1.995  13.373  0.5017  0.0578  0.1118
  354TMC3     C 5305   0.968   1.763  13.625 -0.1537 -0.2482  0.0332
  354TMC3     O 5306   0.997   1.657  13.671 -0.1350  0.2174 -0.2682
  354TMC3     H 5307   0.889   1.942  13.423 -0.0886 -1.0296 -1.8859
  354TMC3    H1 5308   1.225   1.765  13.623 -1.6442 -0.4676  0.9232
  354TMC3    H2 5309   1.278   2.068  13.325  0.6494  0.4219  0.8641
  354TMC3    C7 5310   1.403   1.908  13.493 -0.6462  0.5190  0.6459
  354TMC3    C8 5311   1.040   2.111  13.271  0.2778  0.2277  0.3902
  354TMC3    O1 5312   1.439   1.862  13.598  0.2795  0.4404  0.6913
  354TMC3    O2 5313   1.119   2.137  13.179  0.0423 -0.1452  0.6239
  355MPD2     C 5314   1.158   3.272  11.889 -0.9326  0.2191 -0.8926
  355MPD2    C1 5315   1.282   3.246  11.843 -0.1525 -0.6883  0.7447
  355MPD2    C2 5316   1.396   3.256  11.916 -0.0966  0.3273  0.0359
  355MPD2    C3 5317   1.391   3.267  12.056  0.0936 -0.1150 -0.4645
  355MPD2    C4 5318   1.263   3.284  12.106  0.4660  0.1911  0.2225
  355MPD2    C5 5319   1.151   3.312  12.021  0.2497  0.5590 -0.0488
  355MPD2     H 5320   1.494   3.252  11.869 -0.4495 -0.4481 -0.6242
  355MPD2    H1 5321   1.259   3.296  12.214 -1.3450 -1.4382  0.3532
  355MPD2    H2 5322   1.064   3.272  11.835 -0.4778 -1.9537 -1.6501
  355MPD2    H3 5323   1.055   3.341  12.063  0.5412 -0.0485  1.0377
  355MPD2     N 5324   1.510   3.249  12.133 -0.6435 -0.2650 -0.0956
  355MPD2    H5 5325   1.599   3.248  12.084  0.3371 -0.9364  1.6800
  355MPD2    N1 5326   1.289   3.222  11.704 -0.5194  0.2251 -0.5133
  355MPD2    H7 5327   1.213   3.243  11.641 -0.1290 -1.2436 -1.4531
  356TMC3    C1 5328   1.622   3.183  12.328  0.2793 -0.6607  0.0406
  356TMC3    C2 5329   1.725   3.138  12.244  0.2997  0.1018 -0.3457
  356TMC3    C3 5330   1.830   3.072  12.298 -0.0476  0.1669  0.7046
  356TMC3    C4 5331   1.633   3.173  12.458 -0.1470  0.1141 -0.6092
  356TMC3    C5 5332   1.735   3.095  12.509 -0.2317  0.3095 -0.2506
  356TMC3    C6 5333   1.828   3.032  12.427 -0.2557  0.0831 -0.2101
  356TMC3     C 5334   1.513   3.255  12.268  0.1529  0.3635 -0.4267
  356TMC3     O 5335   1.444   3.329  12.334 -0.0043  0.4987  0.0968
  356TMC3     H 5336   1.721   3.138  12.136  0.0534 -0.7908 -0.3393
  356TMC3    H1 5337   1.556   3.221  12.517 -0.2849 -1.2459  0.3146
  356TMC3    H2 5338   1.903   2.968  12.472  1.4454  1.7371 -0.6921
  356TMC3    C7 5339   1.727   3.050  12.647  0.2314  0.3850  0.3693
  356TMC3    C8 5340   1.943   3.053  12.209  0.2156 -0.6124 -0.0207
  356TMC3    O1 5341   1.806   2.961  12.683 -0.7662  0.7928  0.2566
  356TMC3    O2 5342   1.985   2.935  12.204 -0.0702  0.8445  0.1899
  357MPD2     C 5343   0.873   2.895   0.866  1.2874  0.0026 -0.2087
  357MPD2    C1 5344   0.984   2.866   0.942 -0.0328 -0.1408  0.0176
  357MPD2    C2 5345   0.981   2.900   1.080  0.4063 -0.7283 -0.0204
  357MPD2    C3 5346   0.861   2.944   1.144  0.1180  0.7034 -0.4749
  357MPD2    C4 5347   0.755   2.971   1.059  0.2596 -0.2970 -0.4872
  357MPD2    C5 5348   0.756   2.938   0.928  0.7854 -0.5329  0.3146
  357MPD2     H 5349   1.066   2.866   1.138 -0.8651  1.0058  2.8617
  357MPD2    H1 5350   0.667   3.022   1.098  0.8320 -1.3625  2.2128
  357MPD2    H2 5351   0.858   2.871   0.762 -3.2060 -1.9520  0.8858
  357MPD2    H3 5352   0.670   2.954   0.863  1.0032  0.9607  0.3897
  357MPD2     N 5353   0.840   2.946   1.277  0.6281 -0.2342 -0.6597
  357MPD2    H5 5354   0.746   2.941   1.313  1.0688 -0.1131  0.5129
  357MPD2    N1 5355   1.095   2.812   0.886  0.2159  0.3052  0.4200
  357MPD2    H7 5356   1.081   2.773   0.794 -1.1191  0.7452  0.4434
  358TMC3    C1 5357   1.290   2.699   0.908  0.2812  0.0412 -0.2070
  358TMC3    C2 5358   1.249   2.631   0.799  0.0760  0.5807  0.1689
  358TMC3    C3 5359   1.272   2.497   0.795 -0.9202  0.1747  0.5563
  358TMC3    C4 5360   1.342   2.637   1.021  0.0689  0.0057  0.6985
  358TMC3    C5 5361   1.365   2.501   1.010  0.5270 -0.0116  0.7342
  358TMC3    C6 5362   1.320   2.430   0.907 -0.7442  0.0551 -0.5762
  358TMC3     C 5363   1.221   2.827   0.934 -0.0063  0.3588  0.1311
  358TMC3     O 5364   1.282   2.901   1.011 -0.1539  0.3208 -0.5647
  358TMC3     H 5365   1.220   2.689   0.712  1.3896  1.0465  0.0453
  358TMC3    H1 5366   1.385   2.695   1.101  0.9972 -0.2269  0.3606
  358TMC3    H2 5367   1.372   2.336   0.896 -1.0894  0.1349 -2.9877
  358TMC3    C7 5368   1.461   2.435   1.107 -0.1916 -0.6438 -0.3681
  358TMC3    C8 5369   1.253   2.421   0.670 -0.0680 -0.0205 -0.2332
  358TMC3    O1 5370   1.520   2.340   1.066 -0.4924 -0.4310 -0.1931
  358TMC3    O2 5371   1.218   2.480   0.570 -0.7335 -0.2105 -0.5166
  359MPD2     C 5372   1.765   1.504  12.253  0.0512 -0.2066  0.0804
  359MPD2    C1 5373   1.781   1.412  12.155 -0.2668  0.0329  0.2254
  359MPD2    C2 5374   1.697   1.303  12.146  0.3741  0.2787 -0.5474
  359MPD2    C3 5375   1.590   1.293  12.235  0.0947 -0.5703  0.0765
  359MPD2    C4 5376   1.568   1.394  12.325 -0.1845 -0.1093  0.2790
  359MPD2    C5 5377   1.666   1.490  12.335  0.6221 -0.3966 -0.1043
  359MPD2     H 5378   1.715   1.232  12.065 -1.3634  0.8327 -1.4156
  359MPD2    H1 5379   1.483   1.391  12.393  1.2135  1.1781  2.0838
  359MPD2    H2 5380   1.830   1.589  12.268  1.5670 -1.5972  1.3279
  359MPD2    H3 5381   1.648   1.574  12.401 -1.1974  1.5440 -3.0597
  359MPD2     N 5382   1.499   1.186  12.236 -0.1665 -0.1412 -0.1261
  359MPD2    H5 5383   1.419   1.201  12.297  0.2818  1.2460  0.1265
  359MPD2    N1 5384   1.865   1.424  12.044  0.3559  0.2780 -0.1392
  359MPD2    H7 5385   1.870   1.346  11.979 -0.3828 -0.4913  0.7277
  360TMC3    C1 5386   1.991   1.529  11.887  0.3319  0.3739  0.4398
  360TMC3    C2 5387   2.120   1.573  11.870 -0.0207 -0.9866  0.0818
  360TMC3    C3 5388   2.156   1.587  11.738  0.2629 -0.1125  0.5623
  360TMC3    C4 5389   1.905   1.496  11.787  0.0265 -0.1266 -0.5731
  360TMC3    C5 5390   1.939   1.521  11.658  0.3245 -0.1362  0.2641
  360TMC3    C6 5391   2.067   1.575  11.634 -0.5261 -0.5449 -0.2426
  360TMC3     C 5392   1.937   1.533  12.021 -0.2839  0.0487  0.5373
  360TMC3     O 5393   1.976   1.633  12.085  0.3997 -0.3994 -0.1076
  360TMC3     H 5394   2.188   1.570  11.954  1.9334  1.1781 -1.4359
  360TMC3    H1 5395   1.804   1.471  11.818  0.8188 -1.5580  0.8221
  360TMC3    H2 5396   2.095   1.600  11.533 -1.7290 -1.3031 -0.7653
  360TMC3    C7 5397   1.843   1.546  11.552 -0.8285  0.8259  0.2953
  360TMC3    C8 5398   2.292   1.633  11.708 -0.8271  0.3737 -0.2633
  360TMC3    O1 5399   1.865   1.638  11.473 -0.5344 -0.4390 -0.4370
  360TMC3    O2 5400   2.363   1.665  11.804  0.3169  0.2262  0.2390
  361MPD2     C 5401   3.547   0.605  16.794 -0.5565 -0.2443 -0.3209
  361MPD2    C1 5402   3.492   0.592  16.916 -0.0100 -0.3237  0.2173
  361MPD2    C2 5403   3.545   0.512  17.017 -0.2109  0.0075 -0.2096
  361MPD2    C3 5404   3.653   0.427  16.980  0.1601 -0.3899 -0.5337
  361MPD2    C4 5405   3.697   0.432  16.844 -0.2065  0.2798 -0.1362
  361MPD2    C5 5406   3.658   0.528  16.757  0.0413  0.2674 -0.2094
  361MPD2     H 5407   3.495   0.509  17.113 -0.2841 -0.9696 -0.2777
  361MPD2    H1 5408   3.769   0.359  16.809 -0.2172  0.1492  0.1091
  361MPD2    H2 5409   3.513   0.673  16.717 -0.2002  0.1740 -0.1053
  361MPD2    H3 5410   3.680   0.519  16.651  1.0187  1.2232 -0.0936
  361MPD2     N 5411   3.686   0.323  17.067 -0.5876 -0.5592  0.6199
  361MPD2    H5 5412   3.735   0.244  17.026  0.3969  0.5376 -0.3109
  361MPD2    N1 5413   3.367   0.656  16.928  0.0061  0.3075  0.4389
  361MPD2    H7 5414   3.324   0.703  16.849  0.2815  0.0584  0.1414
  362TMC3    C1 5415   3.158   0.733  17.014  0.5470 -0.3432  0.1790
  362TMC3    C2 5416   3.086   0.780  17.123  0.1496 -0.6768 -0.0998
  362TMC3    C3 5417   2.965   0.835  17.109  0.1788  1.1677  0.6330
  362TMC3    C4 5418   3.099   0.739  16.891 -0.3159 -0.3931 -0.2616
  362TMC3    C5 5419   2.976   0.794  16.881  0.6493  0.3179 -0.2489
  362TMC3    C6 5420   2.905   0.838  16.986 -0.0822  0.2026 -0.1209
  362TMC3     C 5421   3.296   0.688  17.038  0.1169 -0.1337  0.6080
  362TMC3     O 5422   3.321   0.660  17.155 -0.0186  0.8252  0.3958
  362TMC3     H 5423   3.130   0.798  17.220  0.2869 -1.3496 -0.0396
  362TMC3    H1 5424   3.146   0.689  16.807 -1.9872 -1.3124 -0.6550
  362TMC3    H2 5425   2.808   0.884  16.976 -0.1708  0.0551  0.0598
  362TMC3    C7 5426   2.921   0.827  16.745 -0.3847  0.1763  0.8778
  362TMC3    C8 5427   2.948   0.960  17.187 -0.2093 -0.8852  0.1665
  362TMC3    O1 5428   2.805   0.850  16.744 -0.9198 -0.1666 -0.6098
  362TMC3    O2 5429   3.049   1.015  17.225 -0.0262  0.1103  0.2086
  363TMC3    C1 5430   1.515   3.054   8.900 -0.2220  0.4188  0.4173
  363TMC3    C2 5431   1.539   3.005   9.029  0.1418  0.2777  0.2777
  363TMC3    C3 5432   1.438   3.028   9.121 -0.2840 -0.2442 -0.4305
  363TMC3    C4 5433   1.394   3.115   8.870 -1.1773  0.3284  0.6026
  363TMC3    C5 5434   1.291   3.122   8.965 -0.0829  0.6722 -0.2772
  363TMC3    C6 5435   1.314   3.086   9.096 -0.2351  0.3018  0.1030
  363TMC3     C 5436   1.588   2.995   8.792 -0.2109 -0.7467  0.8822
  363TMC3     O 5437   1.565   3.038   8.682  0.1943 -0.9291  0.1748
  363TMC3     H 5438   1.636   2.969   9.063  0.2749 -1.3375 -1.8294
  363TMC3    H1 5439   1.384   3.154   8.770 -0.5382  0.9632  0.7782
  363TMC3    H2 5440   1.247   3.127   9.171 -1.2180 -0.5396 -0.3238
  363TMC3    C7 5441   1.173   3.208   8.957 -0.7901  0.0132  0.4768
  363TMC3    C8 5442   1.467   3.002   9.266 -0.5870  0.5228  0.0350
  363TMC3    O1 5443   1.067   3.153   8.995  0.1283 -0.0017 -0.2782
  363TMC3    O2 5444   1.387   3.051   9.346 -0.3576 -0.0389  0.2422
  364MPD2     C 5445   0.609   2.817  10.796 -0.0673  0.2050  0.1979
  364MPD2    C1 5446   0.639   2.786  10.665  0.0360 -0.3296 -0.3658
  364MPD2    C2 5447   0.603   2.658  10.614 -0.3275  0.5375  0.4586
  364MPD2    C3 5448   0.536   2.571  10.699  0.1017  0.3999 -0.3561
  364MPD2    C4 5449   0.510   2.607  10.831  0.0251  0.7384 -0.1787
  364MPD2    C5 5450   0.547   2.728  10.878  0.1316  0.1671  0.4099
  364MPD2     H 5451   0.625   2.632  10.511 -1.9438  3.1735 -0.5535
  364MPD2    H1 5452   0.459   2.538  10.898 -0.7684  0.8585 -0.6532
  364MPD2    H2 5453   0.648   2.909  10.838  0.9968 -0.8037  1.3855
  364MPD2    H3 5454   0.522   2.757  10.979 -1.3064  0.6455 -0.0778
  364MPD2     N 5455   0.501   2.437  10.671  0.0570  0.7737 -0.4696
  364MPD2    H5 5456   0.462   2.381  10.746 -2.9052  2.1530 -0.9689
  364MPD2    N1 5457   0.722   2.866  10.588 -0.6105  0.5249 -0.0381
  364MPD2    H7 5458   0.770   2.941  10.638 -0.3541  0.7566 -0.6337
  365TMC3    C1 5459   0.849   2.959  10.420 -0.1540 -0.4208  0.3890
  365TMC3    C2 5460   0.941   2.916  10.330  0.4901 -0.1464 -0.2476
  365TMC3    C3 5461   0.977   3.003  10.231  0.3287  0.3817  0.2503
  365TMC3    C4 5462   0.797   3.080  10.429  1.0409  0.0090 -0.3558
  365TMC3    C5 5463   0.850   3.163  10.333 -0.1355  0.1484  0.1866
  365TMC3    C6 5464   0.931   3.128  10.232  1.0873 -0.8951 -0.4430
  365TMC3     C 5465   0.776   2.849  10.465  0.5794  0.9022  0.3481
  365TMC3     O 5466   0.757   2.764  10.381 -0.2584  0.8367 -0.4430
  365TMC3     H 5467   0.975   2.813  10.328  4.1188  1.0441  0.5464
  365TMC3    H1 5468   0.728   3.108  10.508  0.9523 -4.0480  0.9952
  365TMC3    H2 5469   0.951   3.193  10.148  1.8706 -1.0573 -0.3781
  365TMC3    C7 5470   0.797   3.296  10.330 -0.1750 -0.0969 -0.2946
  365TMC3    C8 5471   0.988   2.951  10.098  0.4067 -0.8404  1.0273
  365TMC3    O1 5472   0.877   3.384  10.300  0.0224  0.0612  0.1215
  365TMC3    O2 5473   0.913   3.006  10.017 -0.2529 -0.2439  0.0956
  366MPD2     C 5474   3.459   3.154  15.962  0.4759  0.0471  0.6863
  366MPD2    C1 5475   3.560   3.223  15.895  0.3784  0.2025  0.8259
  366MPD2    C2 5476   3.658   3.150  15.827  0.8689 -0.3068 -0.4130
  366MPD2    C3 5477   3.659   3.012  15.834 -1.4187  0.3981 -0.0169
  366MPD2    C4 5478   3.560   2.941  15.900  0.7968 -0.1760 -0.7675
  366MPD2    C5 5479   3.460   3.017  15.961  0.2602 -0.2605  0.6994
  366MPD2     H 5480   3.726   3.200  15.759  0.4528  3.0741  1.6540
  366MPD2    H1 5481   3.552   2.833  15.897 -0.3607 -0.1465  1.6676
  366MPD2    H2 5482   3.372   3.210  15.992 -0.2217 -1.1372  0.8805
  366MPD2    H3 5483   3.370   2.967  15.995 -0.2631 -0.3630 -0.8296
  366MPD2     N 5484   3.772   2.944  15.783 -0.0839 -0.1094 -0.1071
  366MPD2    H5 5485   3.841   3.001  15.734 -0.8423  1.0059  0.1317
  366MPD2    N1 5486   3.549   3.358  15.881 -0.2448  0.5032 -0.0896
  366MPD2    H7 5487   3.632   3.409  15.850  1.1781 -1.8071 -0.0732
  367TMC3    C1 5488   3.477   3.564  15.855  0.1284 -0.2705  0.0043
  367TMC3    C2 5489   3.589   3.603  15.914  0.8352  0.6227  0.6983
  367TMC3    C3 5490   3.629   3.733  15.889 -0.3976  0.1855 -0.1783
  367TMC3    C4 5491   3.414   3.633  15.748  0.3630  0.0230  0.5958
  367TMC3    C5 5492   3.464   3.755  15.717 -0.1489 -0.0659  0.1907
  367TMC3    C6 5493   3.569   3.807  15.791 -0.4422  0.5487  0.1361
  367TMC3     C 5494   3.436   3.433  15.888 -0.2160 -0.7410  0.5980
  367TMC3     O 5495   3.314   3.405  15.878 -1.0051  0.4808 -0.2736
  367TMC3     H 5496   3.618   3.547  16.003  0.3677  0.4857  0.7614
  367TMC3    H1 5497   3.342   3.584  15.684 -0.2366 -0.1262  1.3856
  367TMC3    H2 5498   3.611   3.904  15.767 -3.7712  1.4450 -1.9383
  367TMC3    C7 5499   3.432   3.824  15.594 -0.6370 -0.6529  0.6699
  367TMC3    C8 5500   3.722   3.798  15.985  0.2300  0.0819 -0.3797
  367TMC3    O1 5501   3.531   3.872  15.544  0.1106  0.1427 -0.1498
  367TMC3    O2 5502   3.777   3.733  16.071 -0.0786  0.3019  0.3884
  368MPD2     C 5503   0.587   0.644  13.615  0.6173 -0.4577 -0.3114
  368MPD2    C1 5504   0.534   0.681  13.492  0.1339 -0.0654  0.3262
  368MPD2    C2 5505   0.611   0.673  13.387 -0.2780  0.1717 -0.8063
  368MPD2    C3 5506   0.740   0.609  13.392 -0.5370  0.4014 -0.3717
  368MPD2    C4 5507   0.785   0.566  13.517  1.3435  0.2832  0.6563
  368MPD2    C5 5508   0.707   0.582  13.627  0.5419 -0.5180 -0.3858
  368MPD2     H 5509   0.580   0.726  13.298  0.9421 -2.0827 -2.5736
  368MPD2    H1 5510   0.886   0.529  13.532  2.3596  0.4978 -5.5131
  368MPD2    H2 5511   0.540   0.660  13.712  1.0788 -0.1928 -0.1350
  368MPD2    H3 5512   0.740   0.560  13.728 -0.7062  1.9325  0.5528
  368MPD2     N 5513   0.825   0.611  13.279  0.2770  0.3322  0.1578
  368MPD2    H5 5514   0.785   0.640  13.191  3.1014 -0.7813 -1.4904
  368MPD2    N1 5515   0.420   0.764  13.482  0.4366 -0.1595  0.0127
  368MPD2    H7 5516   0.396   0.799  13.390 -1.5953  0.1256  0.6296
  369TMC3    C1 5517   0.215   0.857  13.535  0.2552 -0.4133  0.5905
  369TMC3    C2 5518   0.238   0.972  13.464  0.0574 -0.4206  0.3846
  369TMC3    C3 5519   0.131   1.031  13.398  0.2863 -0.1431  0.9942
  369TMC3    C4 5520   0.097   0.811  13.564 -0.0753  0.1549  0.2250
  369TMC3    C5 5521   4.713   0.863  13.493  0.3064  0.4585 -0.2965
  369TMC3    C6 5522   0.005   0.977  13.406  0.3760 -0.2021 -0.6998
  369TMC3     C 5523   0.334   0.786  13.582 -0.3877 -0.3569 -0.4337
  369TMC3     O 5524   0.324   0.719  13.689 -0.5783  0.3099  0.0921
  369TMC3     H 5525   0.339   1.010  13.473 -0.0021 -0.5674  1.6413
  369TMC3    H1 5526   0.087   0.721  13.623  0.6233 -0.7694 -1.0776
  369TMC3    H2 5527   4.637   1.028  13.372  0.4929  1.1537  1.0184
  369TMC3    C7 5528   4.585   0.808  13.522  0.1131 -0.4274 -0.3985
  369TMC3    C8 5529   0.142   1.154  13.334 -0.0932  0.1808  0.2346
  369TMC3    O1 5530   4.569   0.743  13.625  0.5060 -0.1754  0.1235
  369TMC3    O2 5531   0.052   1.177  13.254  0.3980  0.0188  0.2094
  370TMC3    C1 5532   4.427   1.146  16.579  0.4026 -0.6963  0.0518
  370TMC3    C2 5533   4.351   1.065  16.657  0.1429 -0.5244 -0.6704
  370TMC3    C3 5534   4.308   0.943  16.598  0.1286 -0.0184  0.3425
  370TMC3    C4 5535   4.472   1.114  16.457 -0.0470 -0.0083 -0.1107
  370TMC3    C5 5536   4.421   1.002  16.400 -0.5578 -0.1746 -0.8864
  370TMC3    C6 5537   4.343   0.907  16.468  0.9088 -0.3811 -0.9515
  370TMC3     C 5538   4.522   1.218  16.650 -0.0171 -0.4694  0.3543
  370TMC3     O 5539   4.554   1.173  16.759 -0.2749 -0.6332  0.1951
  370TMC3     H 5540   4.321   1.095  16.757  0.8703 -1.6550 -0.1057
  370TMC3    H1 5541   4.525   1.184  16.393 -0.5976  1.6159  1.2207
  370TMC3    H2 5542   4.299   0.815  16.432 -4.1602  1.9020 -0.6080
  370TMC3    C7 5543   4.463   0.966  16.269  0.6699 -0.7141 -0.1112
  370TMC3    C8 5544   4.291   0.831  16.687 -0.2984 -0.4156  0.3152
  370TMC3    O1 5545   4.502   1.055  16.198 -0.0325  0.9141 -0.2812
  370TMC3    O2 5546   4.298   0.715  16.638  0.0358  0.6831 -0.4894
  371TMC3    C1 5547   1.098   4.070  15.900  0.5592  0.0798  0.4936
  371TMC3    C2 5548   0.961   4.062  15.893  0.0645 -0.1158  0.2231
  371TMC3    C3 5549   0.894   4.176  15.912  0.0607 -0.1306  0.1747
  371TMC3    C4 5550   1.163   4.185  15.945 -0.3871  0.2356  0.4937
  371TMC3    C5 5551   1.083   4.291  15.973 -0.4725  0.9305  0.3482
  371TMC3    C6 5552   0.947   4.286  15.961  0.1719  0.2103 -0.3350
  371TMC3     C 5553   1.166   3.944  15.914  0.2048 -0.5228 -0.3147
  371TMC3     O 5554   1.287   3.944  15.905  0.5817  0.4286  0.2855
  371TMC3     H 5555   0.907   3.973  15.861 -0.7307  1.1106 -1.8322
  371TMC3    H1 5556   1.270   4.187  15.959 -0.4961  0.2087  1.3611
  371TMC3    H2 5557   0.887   4.376  15.967 -2.7947 -1.9123  1.5272
  371TMC3    C7 5558   1.138   4.421  15.994  0.1119  0.5287 -0.2031
  371TMC3    C8 5559   0.748   4.168  15.894  0.2605  0.2468  0.1088
  371TMC3    O1 5560   1.055   4.508  16.027 -0.0998 -0.3055 -0.1856
  371TMC3    O2 5561   0.705   4.069  15.832 -0.1979 -0.0425 -0.0432
  372MPD2     C 5562   0.465   0.887  13.977  0.0904  0.5021 -0.8492
  372MPD2    C1 5563   0.568   0.800  14.007 -0.3423 -0.2017 -0.0365
  372MPD2    C2 5564   0.541   0.670  14.015  0.2884 -0.2040 -0.0670
  372MPD2    C3 5565   0.416   0.618  14.004  0.5435  0.2796  0.9117
  372MPD2    C4 5566   0.310   0.704  13.989  0.3273 -1.2549 -0.1900
  372MPD2    C5 5567   0.332   0.836  13.974 -0.0201 -0.1484  0.6792
  372MPD2     H 5568   0.618   0.594  14.028  0.0598 -0.5520 -0.7005
  372MPD2    H1 5569   0.207   0.671  13.999 -0.0845 -0.2473 -1.1184
  372MPD2    H2 5570   0.493   0.990  13.963 -0.5777  1.0648  2.0287
  372MPD2    H3 5571   0.243   0.897  13.960 -1.2929 -2.2559 -0.4379
  372MPD2     N 5572   0.407   0.473  14.014 -0.0507 -0.1327 -0.6327
  372MPD2    H5 5573   0.489   0.415  13.997 -0.0998  0.1701 -1.9197
  372MPD2    N1 5574   0.708   0.828  13.999  0.3073  0.2381  0.3950
  372MPD2    H7 5575   0.763   0.745  14.022 -1.4940 -0.7981  0.9212
  373TMC3    C1 5576   0.306   0.270  14.045 -0.0760  0.4398  0.1128
  373TMC3    C2 5577   0.270   0.203  14.161  0.2481 -0.0133  0.0553
  373TMC3    C3 5578   0.325   0.079  14.182 -0.2764 -0.2368 -0.3947
  373TMC3    C4 5579   0.386   0.217  13.954 -0.1861 -0.1679  0.4316
  373TMC3    C5 5580   0.442   0.094  13.986  1.0212  0.1262 -0.3604
  373TMC3    C6 5581   0.404   0.016  14.095 -0.8931  0.1680  0.0559
  373TMC3     C 5582   0.285   0.411  14.031 -0.1146 -0.0087  0.5520
  373TMC3     O 5583   0.182   0.455  14.077  0.1134 -0.3440  0.0945
  373TMC3     H 5584   0.203   0.249  14.232  1.2536 -0.7870  1.5091
  373TMC3    H1 5585   0.404   0.273  13.863 -2.5653  1.8124  1.1924
  373TMC3    H2 5586   0.445   4.639  14.116 -0.8319 -0.5227 -3.1780
  373TMC3    C7 5587   0.503   0.022  13.876 -0.0648  0.4953 -0.3747
  373TMC3    C8 5588   0.352   0.039  14.317  0.3207 -0.2825  0.1384
  373TMC3    O1 5589   0.504   0.060  13.760  0.3857 -0.2267 -0.4116
  373TMC3    O2 5590   0.454   4.697  14.345  0.1004 -0.0564 -0.1725
  374TMC3    C1 5591   1.045   0.762   9.370 -0.3292  0.3950  0.3842
  374TMC3    C2 5592   1.041   0.855   9.468  1.1574  0.1754 -0.0113
  374TMC3    C3 5593   1.035   0.985   9.427  0.7990  0.7285  1.1430
  374TMC3    C4 5594   1.058   0.787   9.234  0.7240  0.0038  0.2561
  374TMC3    C5 5595   1.068   0.921   9.205 -0.3578 -0.0059 -0.9137
  374TMC3    C6 5596   1.053   1.024   9.296  0.2618 -0.1616 -0.2752
  374TMC3     C 5597   1.022   0.625   9.425  0.5623  0.1087  0.3993
  374TMC3     O 5598   1.071   0.606   9.538  0.7911 -0.2423  0.7479
  374TMC3     H 5599   1.024   0.833   9.573 -1.0626  0.0688 -0.3948
  374TMC3    H1 5600   1.067   0.702   9.168 -0.7373  0.4922 -0.5699
  374TMC3    H2 5601   1.052   1.129   9.267 -3.2369 -0.3736 -1.0149
  374TMC3    C7 5602   1.069   0.965   9.065 -0.1923 -0.7455  0.4871
  374TMC3    C8 5603   1.050   1.090   9.524 -0.0952 -0.1393 -0.1699
  374TMC3    O1 5604   1.095   1.081   9.036  0.4168  0.0786 -0.0881
  374TMC3    O2 5605   1.024   1.205   9.491  0.2102  0.3162 -0.0118
  375MPD2     C 5606   0.888   1.588  17.560 -0.0112  0.1714  0.5066
  375MPD2    C1 5607   0.794   1.606  17.453  0.7418  0.3168  0.6195
  375MPD2    C2 5608   0.854   1.614  17.325  0.0569 -0.1649 -0.3707
  375MPD2    C3 5609   0.990   1.610  17.304 -0.2783  0.3118  0.4270
  375MPD2    C4 5610   1.074   1.577  17.409 -0.6044 -0.5830  0.1747
  375MPD2    C5 5611   1.020   1.562  17.534  0.7081 -0.8061 -0.1489
  375MPD2     H 5612   0.789   1.629  17.240 -1.9644  0.4273  1.2910
  375MPD2    H1 5613   1.182   1.575  17.399 -0.5055 -2.6736  1.6632
  375MPD2    H2 5614   0.855   1.573  17.662 -3.6536  1.2077 -0.5511
  375MPD2    H3 5615   1.088   1.537  17.615  0.6502 -1.1388 -0.2064
  375MPD2     N 5616   1.051   1.631  17.175  0.4741 -0.1583  0.1525
  375MPD2    H5 5617   1.151   1.647  17.182  0.9109 -2.1439 -1.6701
  375MPD2    N1 5618   0.655   1.611  17.461  0.6985 -0.0430 -0.3465
  375MPD2    H7 5619   0.608   1.623  17.372  2.2984  1.5268 -0.9725
  376TMC3    C1 5620   1.081   1.612  16.939  0.0856 -0.0389 -0.0810
  376TMC3    C2 5621   1.219   1.598  16.959 -0.0908  0.3524 -0.1799
  376TMC3    C3 5622   1.286   1.516  16.869 -0.3775 -0.1665  0.3554
  376TMC3    C4 5623   1.024   1.568  16.824  0.0845  0.6048 -0.1509
  376TMC3    C5 5624   1.096   1.489  16.737 -0.1285  0.2774 -0.3220
  376TMC3    C6 5625   1.225   1.457  16.763 -0.4577  0.5103 -0.1775
  376TMC3     C 5626   0.992   1.633  17.050 -0.6586 -0.2328 -0.5769
  376TMC3     O 5627   0.873   1.644  17.025  0.2773 -0.0178 -0.1662
  376TMC3     H 5628   1.272   1.652  17.037  1.9679 -1.1197 -0.5461
  376TMC3    H1 5629   0.924   1.595  16.790 -0.0573 -1.1688 -1.1653
  376TMC3    H2 5630   1.283   1.417  16.680  0.5493 -0.1878  0.8678
  376TMC3    C7 5631   1.045   1.458  16.603 -0.4498  0.1495 -0.0382
  376TMC3    C8 5632   1.430   1.513  16.850 -0.5849  0.0275 -0.8945
  376TMC3    O1 5633   0.979   1.549  16.555  0.0619  0.2373 -0.0992
  376TMC3    O2 5634   1.496   1.616  16.835 -0.5434 -0.2156 -0.3537
  377MPD2     C 5635   3.953   1.380  12.664  0.1010  0.6092 -0.5595
  377MPD2    C1 5636   4.069   1.311  12.681  0.0664  0.4262  0.0533
  377MPD2    C2 5637   4.070   1.213  12.784  0.6820 -0.4320  0.1269
  377MPD2    C3 5638   3.949   1.184  12.858 -0.3087  0.4152  0.3241
  377MPD2    C4 5639   3.844   1.263  12.848  0.0975  0.7001  0.2022
  377MPD2    C5 5640   3.841   1.361  12.744 -0.1918 -0.1124  0.8328
  377MPD2     H 5641   4.162   1.157  12.787  1.4100  0.7761  0.3398
  377MPD2    H1 5642   3.751   1.238  12.898 -0.4202 -1.4109 -1.8076
  377MPD2    H2 5643   3.959   1.452  12.583 -1.1111 -0.0542 -1.2414
  377MPD2    H3 5644   3.749   1.409  12.713 -0.5313 -0.1499  1.7970
  377MPD2     N 5645   3.946   1.081  12.951  0.3074 -0.1032  0.1131
  377MPD2    H5 5646   3.865   1.072  13.012 -0.1226  2.0903 -0.1327
  377MPD2    N1 5647   4.179   1.333  12.592 -0.4515 -0.7341  0.1941
  377MPD2    H7 5648   4.154   1.368  12.500 -1.4825  0.7712  1.0429
  378TMC3    C1 5649   4.436   1.266  12.303  0.1794  0.1922  0.2000
  378TMC3    C2 5650   4.350   1.305  12.396 -0.4547 -0.8522 -0.7626
  378TMC3    C3 5651   4.396   1.306  12.523  1.2027  0.2177 -0.4349
  378TMC3    C4 5652   4.571   1.233  12.336 -0.3347 -0.1075  0.1638
  378TMC3    C5 5653   4.609   1.247  12.464  0.1504  0.4707  0.6683
  378TMC3    C6 5654   4.523   1.279  12.561  0.3904 -0.5455  0.2140
  378TMC3     C 5655   4.386   1.263  12.165 -0.6632 -0.0753  0.1867
  378TMC3     O 5656   4.267   1.263  12.149  0.4755  0.0236 -0.4790
  378TMC3     H 5657   4.255   1.334  12.353 -0.4755 -1.1951 -0.9507
  378TMC3    H1 5658   4.626   1.193  12.251  1.8568 -0.2258  1.6454
  378TMC3    H2 5659   4.567   1.286  12.660  1.3213  1.2146 -0.3361
  378TMC3    C7 5660   0.028   1.224  12.507 -0.0422 -0.2403  0.2817
  378TMC3    C8 5661   4.308   1.323  12.634  0.2221  0.1686 -0.5593
  378TMC3    O1 5662   0.046   1.214  12.632  0.3753 -0.5090  0.3482
  378TMC3    O2 5663   4.351   1.313  12.747  0.3358 -0.2596  0.4729
  379MPD2     C 5664   0.256   3.954  16.455 -0.5342 -0.4168 -0.1729
  379MPD2    C1 5665   0.169   3.877  16.528  0.4506  0.0817  0.2628
  379MPD2    C2 5666   0.213   3.784  16.622  0.1762 -0.5438 -0.0624
  379MPD2    C3 5667   0.347   3.789  16.658 -0.2189 -0.4926  0.0975
  379MPD2    C4 5668   0.430   3.874  16.600 -0.0167  1.1356  0.3722
  379MPD2    C5 5669   0.385   3.951  16.496  0.3588  0.5601 -0.7037
  379MPD2     H 5670   0.140   3.715  16.663 -1.8774  1.4496 -0.4080
  379MPD2    H1 5671   0.537   3.868  16.619  0.5227  1.6941 -2.4506
  379MPD2    H2 5672   0.234   4.015  16.368 -1.7648  0.9562  1.1028
  379MPD2    H3 5673   0.453   4.017  16.445  0.9851  1.9255  1.8788
  379MPD2     N 5674   0.388   3.712  16.769  0.0919  0.1629 -0.0056
  379MPD2    H5 5675   0.489   3.707  16.783  0.3888  2.4074 -1.2582
  379MPD2    N1 5676   0.032   3.871  16.495  0.7820 -0.3203 -0.2074
  379MPD2    H7 5677   4.699   3.791  16.524  0.1513  0.0167 -0.4640
  380TMC3    C1 5678   4.558   3.917  16.382 -0.1425 -0.4181  0.4517
  380TMC3    C2 5679   4.556   3.796  16.322  0.0174  0.5485 -0.4842
  380TMC3    C3 5680   4.455   3.765  16.235 -0.1787  0.2636 -0.4979
  380TMC3    C4 5681   4.459   4.011  16.354  0.5927 -0.5538 -0.2333
  380TMC3    C5 5682   4.354   3.969  16.276  0.5401 -0.3690  0.3959
  380TMC3    C6 5683   4.346   3.844  16.218 -0.7800  0.2319 -0.9987
  380TMC3     C 5684   4.685   3.966  16.428  0.3069  0.5886  0.1439
  380TMC3     O 5685   4.718   4.081  16.406 -0.0690 -0.9132 -0.2049
  380TMC3     H 5686   4.637   3.726  16.337 -1.4943 -1.5239 -2.0115
  380TMC3    H1 5687   4.453   4.111  16.397  2.2073 -0.2276 -0.7614
  380TMC3    H2 5688   4.270   3.823  16.143  1.6238 -1.4128 -2.9672
  380TMC3    C7 5689   4.266   4.071  16.226  0.7194  0.5369  0.7100
  380TMC3    C8 5690   4.469   3.654  16.130 -0.2258  0.8974 -0.3154
  380TMC3    O1 5691   4.291   4.187  16.218  0.1280 -0.2359  0.3187
  380TMC3    O2 5692   4.548   3.562  16.163 -0.9221 -0.6818  0.1413
  381TMC3    C1 5693   4.439   0.140  16.449 -0.0142 -0.5070 -0.2583
  381TMC3    C2 5694   4.535   0.233  16.473 -0.0986 -0.0908 -0.4126
  381TMC3    C3 5695   4.498   0.338  16.548 -0.7284 -0.7451  0.0340
  381TMC3    C4 5696   4.314   0.144  16.512  0.2939 -0.4205 -0.8049
  381TMC3    C5 5697   4.279   0.250  16.596 -0.3421  0.3070  0.6784
  381TMC3    C6 5698   4.377   0.346  16.618 -0.5622  0.4204 -1.0980
  381TMC3     C 5699   4.472   0.051  16.348 -0.7114 -0.6313  0.0880
  381TMC3     O 5700   4.593   0.042  16.321  0.0058 -1.0859 -0.2730
  381TMC3     H 5701   4.636   0.221  16.433  0.6550 -1.3330  1.8683
  381TMC3    H1 5702   4.241   0.067  16.490  0.7112 -0.6330 -1.4395
  381TMC3    H2 5703   4.351   0.425  16.689 -1.4572 -0.1716 -0.7599
  381TMC3    C7 5704   4.228   0.195  16.723  0.1695 -0.4325  0.0527
  381TMC3    C8 5705   4.576   0.454  16.509 -0.5446  0.3851 -0.1226
  381TMC3    O1 5706   4.274   0.085  16.749  0.2319 -0.0624 -0.2102
  381TMC3    O2 5707   4.637   0.447  16.402 -0.6271  0.5980 -0.0503
  382MPD2     C 5708   3.150   3.110  17.098  0.4819  0.1912 -0.3387
  382MPD2    C1 5709   3.131   3.089  17.236  0.0890  0.3708  0.0283
  382MPD2    C2 5710   3.160   2.966  17.298 -0.0438  0.2670  0.1228
  382MPD2    C3 5711   3.202   2.858  17.218  0.2389  0.3414 -0.3059
  382MPD2    C4 5712   3.206   2.879  17.081 -0.6600  0.4395 -0.3989
  382MPD2    C5 5713   3.186   2.998  17.027  0.0734 -0.4034 -0.3027
  382MPD2     H 5714   3.143   2.949  17.403  0.3298  1.0026  0.3016
  382MPD2    H1 5715   3.235   2.806  17.007  0.2726 -0.1038  0.5017
  382MPD2    H2 5716   3.114   3.193  17.039 -1.0931 -1.0348 -1.0970
  382MPD2    H3 5717   3.194   3.004  16.919  0.8295  1.1242 -0.1782
  382MPD2     N 5718   3.213   2.731  17.274 -0.3418 -0.2032 -0.1714
  382MPD2    H5 5719   3.199   2.732  17.374 -0.7220 -1.7220 -0.2100
  382MPD2    N1 5720   3.102   3.197  17.322 -0.3661  0.3711  0.6002
  382MPD2    H7 5721   3.086   3.177  17.421 -2.9542 -0.6653 -0.0335
  383TMC3    C1 5722   3.216   2.502  17.291  0.0285  0.0564  0.1901
  383TMC3    C2 5723   3.114   2.435  17.239  0.6278 -0.0659  0.0725
  383TMC3    C3 5724   3.032   2.369  17.325  0.7272  0.3215 -0.8447
  383TMC3    C4 5725   3.236   2.511  17.429 -0.1105 -0.1289  0.1187
  383TMC3    C5 5726   3.156   2.434  17.506  0.5764 -0.3416  0.3803
  383TMC3    C6 5727   3.053   2.360  17.458  0.3858  0.2402 -0.4122
  383TMC3     C 5728   3.238   2.615  17.208 -0.8248  0.4395 -0.1052
  383TMC3     O 5729   3.273   2.593  17.092 -0.3455 -0.1243  0.2845
  383TMC3     H 5730   3.101   2.426  17.132  4.3845 -2.2781 -0.2032
  383TMC3    H1 5731   3.314   2.573  17.472 -0.9060  2.9640 -2.8434
  383TMC3    H2 5732   2.991   2.315  17.535 -1.3936  0.9028 -1.4622
  383TMC3    C7 5733   3.178   2.435  17.649  0.4891 -0.2973  0.3513
  383TMC3    C8 5734   2.909   2.318  17.267  0.0685 -0.6649  0.7772
  383TMC3    O1 5735   3.235   2.535   0.001  0.4747  0.3983 -0.7307
  383TMC3    O2 5736   2.891   2.341  17.149 -0.1158  0.6771  0.3926
  384MPD2     C 5737   0.108   4.592  12.078 -0.0504  0.0185  0.2083
  384MPD2    C1 5738   0.156   4.484  12.141  0.6963  0.2988  0.5805
  384MPD2    C2 5739   0.218   4.386  12.068 -0.4748  0.6926  0.0331
  384MPD2    C3 5740   0.228   4.392  11.930  0.5778 -0.4383  0.9431
  384MPD2    C4 5741   0.174   4.500  11.868 -0.2139 -0.8417  0.4319
  384MPD2    C5 5742   0.121   4.599  11.944  0.3155  0.4072 -0.0167
  384MPD2     H 5743   0.258   4.299  12.120 -0.5048 -0.1234 -1.2876
  384MPD2    H1 5744   0.184   4.515  11.761  0.2620 -1.1073  0.4342
  384MPD2    H2 5745   0.070   4.678  12.133 -1.3290  0.6921 -1.7437
  384MPD2    H3 5746   0.086   4.691  11.899 -0.0001  0.9681  1.3712
  384MPD2     N 5747   0.282   4.287  11.853  0.6304  0.2621 -0.3693
  384MPD2    H5 5748   0.284   4.300  11.752 -0.0995 -1.2363 -0.5703
  384MPD2    N1 5749   0.136   4.464  12.282 -0.2862  0.6739  0.3260
  384MPD2    H7 5750   0.171   4.373  12.311  1.6253  1.1584 -0.4388
  385TMC3    C1 5751   0.389   4.068  11.825 -0.7476 -0.1741 -0.2298
  385TMC3    C2 5752   0.291   4.024  11.748 -0.4749 -0.2847  0.0944
  385TMC3    C3 5753   0.279   3.890  11.710 -0.5540 -0.1779 -0.2130
  385TMC3    C4 5754   0.477   3.980  11.890 -0.0601 -0.1135  0.3123
  385TMC3    C5 5755   0.463   3.845  11.863 -0.0854 -0.9329  0.4476
  385TMC3    C6 5756   0.365   3.807  11.779 -0.7375 -0.0193 -1.0595
  385TMC3     C 5757   0.341   4.177  11.914 -0.6188  0.2534 -0.5988
  385TMC3     O 5758   0.389   4.166  12.026 -0.0641  0.8828  0.0840
  385TMC3     H 5759   0.219   4.101  11.722 -0.5838  0.2338  1.9472
  385TMC3    H1 5760   0.556   4.012  11.957  0.3596  1.6058 -0.9906
  385TMC3    H2 5761   0.358   3.699  11.773 -2.9580  0.2716 -3.4558
  385TMC3    C7 5762   0.465   3.769  11.992 -0.3703  0.9950 -0.1057
  385TMC3    C8 5763   0.155   3.838  11.669 -0.0723 -0.0051 -0.2459
  385TMC3    O1 5764   0.471   3.649  11.994 -0.2721 -0.2875  0.0104
  385TMC3    O2 5765   0.051   3.901  11.700 -0.2001 -0.1857  0.7012
  386TMC3    C1 5766   1.019   1.221  11.812  0.4060 -0.7941 -0.2372
  386TMC3    C2 5767   0.949   1.205  11.693  0.2406  0.3154 -0.2438
  386TMC3    C3 5768   0.826   1.257  11.686 -0.3651  0.5490  0.2793
  386TMC3    C4 5769   0.968   1.265  11.928  0.1127 -0.0268  0.4465
  386TMC3    C5 5770   0.825   1.290  11.925  0.3624  0.0939  0.7049
  386TMC3    C6 5771   0.765   1.291  11.805 -0.8108 -0.8179 -0.8370
  386TMC3     C 5772   1.151   1.174  11.815 -0.0846  0.6795 -0.0671
  386TMC3     O 5773   1.214   1.248  11.890  0.4779 -0.4266 -0.3314
  386TMC3     H 5774   0.991   1.175  11.597 -1.0017 -2.3983  0.0509
  386TMC3    H1 5775   1.029   1.278  12.017 -0.6189 -1.1476  1.1104
  386TMC3    H2 5776   0.660   1.319  11.808 -0.0508  2.1309 -1.6531
  386TMC3    C7 5777   0.756   1.336  12.039 -0.2189  0.4051 -0.7147
  386TMC3    C8 5778   0.738   1.256  11.564 -0.6432  0.8051  0.2297
  386TMC3    O1 5779   0.633   1.317  12.036 -0.4869  0.1217  0.4328
  386TMC3    O2 5780   0.628   1.304  11.581 -0.3976  0.0899 -0.2887
  387MPD2     C 5781   2.869   1.639   9.508 -0.6757 -0.0867 -0.1201
  387MPD2    C1 5782   2.995   1.668   9.560 -0.0715  0.2699  0.0220
  387MPD2    C2 5783   3.050   1.576   9.647 -0.8443 -0.4916 -0.1767
  387MPD2    C3 5784   2.988   1.458   9.673 -0.2432  0.2439  1.0435
  387MPD2    C4 5785   2.864   1.427   9.623 -0.1640  0.4314 -0.7077
  387MPD2    C5 5786   2.802   1.520   9.546  0.4770  0.3167  0.1685
  387MPD2     H 5787   3.150   1.600   9.682 -1.3051 -0.7535  1.3103
  387MPD2    H1 5788   2.811   1.338   9.655  1.6286 -0.3461  0.0984
  387MPD2    H2 5789   2.816   1.711   9.448  1.0617  2.5504  1.5011
  387MPD2    H3 5790   2.696   1.516   9.523  0.9842  1.1000 -2.2485
  387MPD2     N 5791   3.060   1.369   9.759 -0.1075 -0.1098  0.8550
  387MPD2    H5 5792   3.126   1.411   9.824 -1.7480  2.2273  1.0484
  387MPD2    N1 5793   3.076   1.777   9.513 -0.1042 -0.1039  0.3066
  387MPD2    H7 5794   3.170   1.786   9.552 -0.8720  1.3377  1.8408
  388TMC3    C1 5795   3.159   1.942   9.398  0.6391 -0.3825  0.4686
  388TMC3    C2 5796   3.172   2.078   9.369 -0.6250  0.1255  0.0489
  388TMC3    C3 5797   3.304   2.120   9.341  0.1991 -1.1996 -0.4110
  388TMC3    C4 5798   3.268   1.850   9.378 -0.9378  0.5422 -0.0372
  388TMC3    C5 5799   3.393   1.901   9.342  0.1575  0.0606  0.1344
  388TMC3    C6 5800   3.417   2.036   9.320 -0.0463  0.4241 -0.2595
  388TMC3     C 5801   3.036   1.880   9.436 -0.1403  0.7417  0.1794
  388TMC3     O 5802   2.926   1.937   9.418  0.7243 -0.4595 -0.3176
  388TMC3     H 5803   3.089   2.147   9.383 -0.7013  0.0336  0.0512
  388TMC3    H1 5804   3.255   1.745   9.354 -3.1421  0.9762 -0.7673
  388TMC3    H2 5805   3.516   2.077   9.303  0.0010 -0.8574 -3.1907
  388TMC3    C7 5806   3.499   1.812   9.357 -0.0642  0.1459 -0.0217
  388TMC3    C8 5807   3.322   2.261   9.333 -0.5325 -0.1475  0.2319
  388TMC3    O1 5808   3.592   1.814   9.276  0.6935  0.1207 -0.5394
  388TMC3    O2 5809   3.221   2.331   9.322 -0.2334  0.0873 -0.6276
  389MPD2     C 5810   2.638   4.497  11.106  0.0891  0.7343  0.6228
  389MPD2    C1 5811   2.557   4.401  11.048  0.2541  0.4128  0.1593
  389MPD2    C2 5812   2.510   4.303  11.124  0.2189 -0.7289 -0.4767
  389MPD2    C3 5813   2.553   4.298  11.254 -0.1838  0.3723 -0.0204
  389MPD2    C4 5814   2.625   4.400  11.315 -0.0106  0.0521 -0.6415
  389MPD2    C5 5815   2.672   4.498  11.238  0.4146 -0.5388  0.0717
  389MPD2     H 5816   2.465   4.217  11.076 -1.6318 -0.5682  0.9651
  389MPD2    H1 5817   2.641   4.411  11.422 -0.3213 -1.2496 -0.4654
  389MPD2    H2 5818   2.676   4.579  11.046 -0.7307 -0.1844 -1.1437
  389MPD2    H3 5819   2.718   4.588  11.277 -1.2379  0.1214  0.5151
  389MPD2     N 5820   2.507   4.195  11.345 -0.3724  0.1586  0.3550
  389MPD2    H5 5821   2.527   4.204  11.444  2.8164 -0.2350 -0.2543
  389MPD2    N1 5822   2.538   4.404  10.909  0.2633 -0.0388 -0.3201
  389MPD2    H7 5823   2.590   4.475  10.858 -0.6745  2.1089  1.6760
  390TMC3    C1 5824   2.328   4.066  11.421  0.8615  0.2412  0.0948
  390TMC3    C2 5825   2.224   3.978  11.391 -0.5414 -1.2212  0.5814
  390TMC3    C3 5826   2.115   3.971  11.464 -0.1238 -0.2697  0.0158
  390TMC3    C4 5827   2.318   4.150  11.530  0.2055  0.0426 -0.5264
  390TMC3    C5 5828   2.198   4.139  11.604  0.5008 -0.0749 -0.0670
  390TMC3    C6 5829   2.095   4.057  11.574  0.6533  0.3014 -0.0200
  390TMC3     C 5830   2.428   4.091  11.314 -0.5401 -0.5203  0.2185
  390TMC3     O 5831   2.409   4.035  11.207  0.0613 -0.0025 -0.5205
  390TMC3     H 5832   2.247   3.906  11.314  0.5416  0.2350 -0.4501
  390TMC3    H1 5833   2.400   4.214  11.561 -0.8717  1.6144 -0.8962
  390TMC3    H2 5834   2.018   4.039  11.648  1.2994 -0.4591  0.4647
  390TMC3    C7 5835   2.192   4.205  11.730 -0.5450 -0.1194 -0.9132
  390TMC3    C8 5836   1.993   3.910  11.415  0.2298 -0.0614 -0.4871
  390TMC3    O1 5837   2.300   4.221  11.786  0.5250 -0.0772 -0.2150
  390TMC3    O2 5838   2.006   3.818  11.338  0.0735 -0.8463 -0.2899
  391MPD2     C 5839   1.204   0.510  10.954  0.2078  0.2191 -0.0683
  391MPD2    C1 5840   1.270   0.626  10.993  0.5039  0.4495 -1.2072
  391MPD2    C2 5841   1.303   0.717  10.898  0.0551  0.1188  0.1770
  391MPD2    C3 5842   1.289   0.683  10.763 -0.0192  0.3101  0.1471
  391MPD2    C4 5843   1.230   0.566  10.724  0.9480  0.5340  0.5180
  391MPD2    C5 5844   1.184   0.478  10.818 -0.3144 -0.5673  0.6812
  391MPD2     H 5845   1.342   0.815  10.922  2.5750 -0.5895 -1.0261
  391MPD2    H1 5846   1.221   0.531  10.621 -0.8860 -0.3891  0.9762
  391MPD2    H2 5847   1.185   0.430  11.025 -0.8604  0.2389 -0.3224
  391MPD2    H3 5848   1.115   0.399  10.794  0.4433 -1.1035  0.2902
  391MPD2     N 5849   1.350   0.770  10.667 -0.1680  0.2884 -0.0854
  391MPD2    H5 5850   1.419   0.833  10.706  1.0763 -0.1905 -1.4555
  391MPD2    N1 5851   1.293   0.644  11.134  0.2866 -0.3040  0.0423
  391MPD2    H7 5852   1.260   0.568  11.193  2.2511 -1.2580 -0.1062
  392TMC3    C1 5853   1.413   0.859  10.449  0.0914  0.2876 -0.4763
  392TMC3    C2 5854   1.376   0.858  10.318  0.2261  1.0421 -0.7584
  392TMC3    C3 5855   1.419   0.962  10.233 -0.1207  0.4112 -0.0228
  392TMC3    C4 5856   1.503   0.950  10.500  0.0309 -0.1606 -0.3194
  392TMC3    C5 5857   1.548   1.050  10.420  0.6146  0.5215 -0.1319
  392TMC3    C6 5858   1.500   1.063  10.290  0.7989 -0.5312 -0.5544
  392TMC3     C 5859   1.334   0.764  10.534  0.0452 -0.4205 -0.5657
  392TMC3     O 5860   1.255   0.701  10.465 -0.5487 -0.4061 -0.0447
  392TMC3     H 5861   1.319   0.779  10.269  0.7513  1.0860 -1.4375
  392TMC3    H1 5862   1.540   0.944  10.602  0.0677  2.0887 -0.2049
  392TMC3    H2 5863   1.540   1.130  10.215  3.0547 -1.4652 -0.1776
  392TMC3    C7 5864   1.646   1.138  10.465  0.3943  0.5472  0.4338
  392TMC3    C8 5865   1.365   0.974  10.102 -0.9310  0.6700  0.2383
  392TMC3    O1 5866   1.696   1.100  10.570 -0.3342  0.0680  0.7951
  392TMC3    O2 5867   1.337   0.869  10.045  0.1344 -0.1393  0.2722
  393TMC3    C1 5868   0.808   3.872  10.071  0.4834 -0.2513 -0.1825
  393TMC3    C2 5869   0.780   3.906  10.200 -0.1037  0.6628 -0.1941
  393TMC3    C3 5870   0.874   3.867  10.301 -0.1442 -0.9200  0.7840
  393TMC3    C4 5871   0.929   3.816  10.043 -0.4904  0.4580 -0.5191
  393TMC3    C5 5872   1.026   3.800  10.142  1.0214  0.2944 -0.3838
  393TMC3    C6 5873   1.002   3.822  10.267  0.0052 -0.1981 -0.0766
  393TMC3     C 5874   0.724   3.894   9.957 -0.3204 -0.1287 -0.5289
  393TMC3     O 5875   0.784   3.913   9.853  0.5182  0.1571  0.3462
  393TMC3     H 5876   0.680   3.932  10.232  0.6876  0.4172  2.5234
  393TMC3    H1 5877   0.952   3.791   9.940 -0.3412 -0.0898 -0.3515
  393TMC3    H2 5878   1.082   3.823  10.340 -1.5866  0.4340  1.6616
  393TMC3    C7 5879   1.152   3.726  10.117 -0.5334 -0.0404 -0.5173
  393TMC3    C8 5880   0.850   3.914  10.432  0.8151  0.5748 -0.3594
  393TMC3    O1 5881   1.210   3.691  10.217 -0.4285  0.0388 -0.1231
  393TMC3    O2 5882   0.769   4.005  10.459  0.2535  0.5446  0.3317
  394TMC3    C1 5883   2.486   4.322  10.693 -0.9011 -0.0479 -0.3346
  394TMC3    C2 5884   2.385   4.275  10.612 -1.3446  0.4514 -0.2163
  394TMC3    C3 5885   2.393   4.302  10.478  0.3180  0.1086  0.7535
  394TMC3    C4 5886   2.598   4.382  10.640 -0.3305  0.1836 -0.5126
  394TMC3    C5 5887   2.607   4.401  10.506  0.4646 -0.9302 -0.2102
  394TMC3    C6 5888   2.504   4.373  10.428 -0.4200  0.0285  0.2041
  394TMC3     C 5889   2.466   4.311  10.838  0.4118 -0.3046  0.1657
  394TMC3     O 5890   2.385   4.230  10.881 -0.3786 -0.0775  0.0588
  394TMC3     H 5891   2.304   4.216  10.653 -0.7503  0.1660  0.5503
  394TMC3    H1 5892   2.675   4.420  10.706  2.5509 -1.5961 -2.8741
  394TMC3    H2 5893   2.504   4.408  10.326 -0.5408  1.2718  0.6259
  394TMC3    C7 5894   2.712   4.483  10.454 -0.1104  0.0762 -0.3595
  394TMC3    C8 5895   2.318   4.223  10.387  1.1286 -0.2069  0.6181
  394TMC3    O1 5896   2.680   4.556  10.365  0.3323  0.0766 -0.4580
  394TMC3    O2 5897   2.206   4.180  10.429 -0.1259  0.4452 -0.0800
  395TMC3    C1 5898   2.045   1.277  14.466  0.2561  0.5814 -0.6473
  395TMC3    C2 5899   1.924   1.233  14.510  0.7374  0.0085 -0.1521
  395TMC3    C3 5900   1.878   1.289  14.629  0.6206  0.3633 -0.2286
  395TMC3    C4 5901   2.118   1.371  14.535  0.8991  0.8088 -0.6184
  395TMC3    C5 5902   2.071   1.426  14.652  0.3360  0.5982 -0.9526
  395TMC3    C6 5903   1.946   1.384  14.700  0.0056 -0.0582 -0.5093
  395TMC3     C 5904   2.120   1.200  14.369 -0.4055  0.6461 -0.5012
  395TMC3     O 5905   2.206   1.255  14.301  0.5673 -0.4408 -0.1073
  395TMC3     H 5906   1.876   1.146  14.467 -0.8295  1.0888 -0.5943
  395TMC3    H1 5907   2.219   1.399  14.508  1.1379 -0.0324 -0.5827
  395TMC3    H2 5908   1.904   1.425  14.791  0.5182  1.6150 -1.0351
  395TMC3    C7 5909   2.156   1.509  14.740 -0.4848  0.4850 -0.4001
  395TMC3    C8 5910   1.832   1.184  14.722  0.1725 -0.3459  0.0086
  395TMC3    O1 5911   2.090   1.593  14.803  0.1476 -0.2892 -0.4113
  395TMC3    O2 5912   1.908   1.167  14.822  0.6359  0.2031  0.0845
  396MPD2     C 5913   2.068   2.165  17.349 -0.5075 -0.0140 -0.3880
  396MPD2    C1 5914   2.016   2.203  17.221  0.5744  0.6601  0.2034
  396MPD2    C2 5915   2.030   2.333  17.179  0.0117 -0.1332 -0.0979
  396MPD2    C3 5916   2.113   2.419  17.248  0.5625  0.1041  0.1442
  396MPD2    C4 5917   2.173   2.379  17.367  0.3200 -0.8782 -0.1498
  396MPD2    C5 5918   2.136   2.255  17.417  0.0799 -0.4344 -0.4241
  396MPD2     H 5919   1.972   2.368  17.095 -0.1947 -1.7436 -0.6203
  396MPD2    H1 5920   2.231   2.451  17.423 -1.8837  0.8072 -0.0543
  396MPD2    H2 5921   2.047   2.070  17.397 -0.8371 -0.3729 -1.2314
  396MPD2    H3 5922   2.178   2.228  17.513 -0.1589  2.2781  0.4468
  396MPD2     N 5923   2.131   2.549  17.187 -0.7019  0.5210  0.0151
  396MPD2    H5 5924   2.071   2.567  17.107  1.7026  0.5941 -1.7563
  396MPD2    N1 5925   1.940   2.101  17.156 -0.9074 -0.1754 -0.1612
  396MPD2    H7 5926   1.930   2.011  17.203 -0.2398  0.2222  0.7568
  397TMC3    C1 5927   1.794   1.994  17.004  0.2528  0.7114 -0.5476
  397TMC3    C2 5928   1.752   1.988  16.873  0.7566 -0.5367  0.1392
  397TMC3    C3 5929   1.634   1.926  16.847 -0.3616  0.9758  0.0937
  397TMC3    C4 5930   1.705   1.960  17.102  0.4181 -0.2457  0.3964
  397TMC3    C5 5931   1.581   1.919  17.068  0.2891 -0.0214  0.2279
  397TMC3    C6 5932   1.533   1.903  16.941 -0.3579 -1.2389  0.3310
  397TMC3     C 5933   1.879   2.113  17.032  0.1763  0.1224  0.2108
  397TMC3     O 5934   1.876   2.200  16.947  0.2689 -0.4946  0.0374
  397TMC3     H 5935   1.825   2.015  16.798 -1.3856 -1.2308 -2.1719
  397TMC3    H1 5936   1.738   1.973  17.204  0.3236 -0.9417  0.5140
  397TMC3    H2 5937   1.432   1.873  16.915 -0.1110 -2.2249  0.5140
  397TMC3    C7 5938   1.486   1.903  17.178 -0.1996  0.7737 -0.7348
  397TMC3    C8 5939   1.585   1.943  16.715 -0.3088  0.1262  0.4705
  397TMC3    O1 5940   1.384   1.845  17.136  0.5097 -0.3674 -0.0293
  397TMC3    O2 5941   1.621   2.038  16.646  0.2585  0.2311  0.2513
  398MPD2     C 5942   4.400   3.731   0.388 -0.3859 -0.1558  0.0565
  398MPD2    C1 5943   4.458   3.707   0.507  0.4045 -0.6147 -0.2372
  398MPD2    C2 5944   4.435   3.792   0.615 -0.7401 -0.0563 -0.4367
  398MPD2    C3 5945   4.343   3.897   0.607  0.3035 -0.3990 -0.2403
  398MPD2    C4 5946   4.276   3.919   0.482  0.2919  0.1449 -0.0819
  398MPD2    C5 5947   4.306   3.832   0.379  0.0031  0.3804  0.1546
  398MPD2     H 5948   4.494   3.775   0.705  1.7097  2.0701 -1.6342
  398MPD2    H1 5949   4.192   3.986   0.471  1.1577  1.2835  0.1682
  398MPD2    H2 5950   4.411   3.669   0.300  3.1782  2.0115 -1.0128
  398MPD2    H3 5951   4.252   3.846   0.286  0.2494 -0.3508 -0.0942
  398MPD2     N 5952   4.315   3.975   0.716  0.4998  0.1849  0.5773
  398MPD2    H5 5953   4.358   3.945   0.803  2.3796 -1.5494 -0.9501
  398MPD2    N1 5954   4.533   3.591   0.532 -0.2233 -0.0364  0.2570
  398MPD2    H7 5955   4.592   3.595   0.614  0.5424  2.4504 -0.4473
  399TMC3    C1 5956   4.640   3.385   0.510  0.2487  0.0363  0.1843
  399TMC3    C2 5957   0.034   3.427   0.580 -0.3432  0.2230  0.1099
  399TMC3    C3 5958   0.123   3.340   0.632 -0.0050  0.4494 -0.4050
  399TMC3    C4 5959   4.616   3.253   0.495 -0.1646  1.1194  0.1310
  399TMC3    C5 5960   4.706   3.162   0.552  0.1785 -0.0939 -0.3529
  399TMC3    C6 5961   0.099   3.205   0.618 -0.0404 -0.1252  0.0722
  399TMC3     C 5962   4.546   3.480   0.453 -0.0075  0.2899  0.4061
  399TMC3     O 5963   4.488   3.437   0.356 -0.4060  0.3919 -0.2311
  399TMC3     H 5964   0.042   3.535   0.578  2.6725  0.0131  0.4207
  399TMC3    H1 5965   4.524   3.217   0.449  1.4545 -1.5950 -0.9551
  399TMC3    H2 5966   0.163   3.130   0.663 -2.6755 -2.5663 -0.1946
  399TMC3    C7 5967   4.656   3.037   0.589 -0.5026 -0.3150 -0.3945
  399TMC3    C8 5968   0.253   3.382   0.673  0.4218  0.5381 -0.3993
  399TMC3    O1 5969   0.009   2.944   0.594 -0.3280 -0.2708 -0.1954
  399TMC3    O2 5970   0.339   3.293   0.686  0.0873 -0.4743  0.6320
  400TMC3    C1 5971   2.820   1.985  17.017  0.2820  0.1134  0.1155
  400TMC3    C2 5972   2.729   1.910  16.950  0.5891 -0.0453 -0.1925
  400TMC3    C3 5973   2.685   1.950  16.827 -0.8690  0.4061  0.3403
  400TMC3    C4 5974   2.857   2.100  16.963 -0.6459 -0.3422  0.7419
  400TMC3    C5 5975   2.812   2.136  16.840  0.6172  0.2486  0.0177
  400TMC3    C6 5976   2.724   2.065  16.763 -0.6854  0.1692  0.4359
  400TMC3     C 5977   2.892   1.933  17.128 -0.2566  0.5783 -0.1631
  400TMC3     O 5978   2.835   1.853  17.201  0.3323  0.0853 -0.3828
  400TMC3     H 5979   2.688   1.824  17.000  0.9892 -0.7403 -1.0571
  400TMC3    H1 5980   2.935   2.160  17.010  0.1569 -2.0234  1.5886
  400TMC3    H2 5981   2.675   2.107  16.676 -0.1298 -0.7225 -0.3125
  400TMC3    C7 5982   2.868   2.238  16.767 -0.0047  0.4480  0.2173
  400TMC3    C8 5983   2.575   1.883  16.760  0.7066 -0.6767 -0.1015
  400TMC3    O1 5984   2.874   2.221  16.645 -0.6215 -0.4465 -0.4311
  400TMC3    O2 5985   2.565   1.885  16.638  0.7089 -0.1380  0.5842
  401MPD2     C 5986   1.432   0.429   0.111 -0.2524  0.5949  0.1854
  401MPD2    C1 5987   1.456   0.379   0.233  0.1724 -0.0550  0.8983
  401MPD2    C2 5988   1.443   0.248   0.259  0.2812 -0.1156  0.1050
  401MPD2    C3 5989   1.372   0.164   0.178 -0.2611  0.8328 -0.4781
  401MPD2    C4 5990   1.344   0.210   0.052 -0.1369  0.0722 -0.9467
  401MPD2    C5 5991   1.380   0.340   0.015 -0.3708 -0.4148 -0.0036
  401MPD2     H 5992   1.461   0.209   0.358 -0.7457 -1.9003 -0.4001
  401MPD2    H1 5993   1.296   0.153  17.661  0.2216  0.2122 -1.2658
  401MPD2    H2 5994   1.446   0.535   0.091 -1.1151  0.9103  1.2495
  401MPD2    H3 5995   1.360   0.374  17.601  1.1590  0.0118 -0.1736
  401MPD2     N 5996   1.333   0.038   0.231  0.0550  0.9472 -0.7007
  401MPD2    H5 5997   1.352   0.027   0.330 -0.1356 -0.7082 -0.8530
  401MPD2    N1 5998   1.520   0.445   0.338  0.5805  0.7597  0.1577
  401MPD2    H7 5999   1.538   0.385   0.417 -0.6177 -0.2983 -0.3636
  402TMC3    C1 6000   1.241   4.550   0.263 -0.5063  0.1559  0.3267
  402TMC3    C2 6001   1.173   4.593   0.377  0.1633 -0.2737  0.3388
  402TMC3    C3 6002   1.146   4.499   0.472  0.2428  0.0258  0.9240
  402TMC3    C4 6003   1.291   4.424   0.247 -0.1815 -0.7116  0.2969
  402TMC3    C5 6004   1.260   4.337   0.339 -0.4568 -0.0844 -0.1303
  402TMC3    C6 6005   1.184   4.371   0.451  0.6611  0.1978 -0.6018
  402TMC3     C 6006   1.278   4.651   0.166  0.1309  0.0554 -0.2920
  402TMC3     O 6007   1.283   4.616   0.047  0.5469  0.5314 -0.1428
  402TMC3     H 6008   1.146   4.697   0.390  0.0521 -0.3103  0.4016
  402TMC3    H1 6009   1.366   4.394   0.175  0.8968  1.0944  0.6724
  402TMC3    H2 6010   1.167   4.305   0.536  0.6392  0.3102 -0.5191
  402TMC3    C7 6011   1.347   4.231   0.353 -0.1816  0.3640  0.4259
  402TMC3    C8 6012   1.197   4.542   0.603 -0.1122 -0.8924 -0.3946
  402TMC3    O1 6013   1.369   4.144   0.272 -0.4105 -0.4866 -0.6488
  402TMC3    O2 6014   1.296   4.489   0.643  0.0525 -0.8243 -0.7519
  403MPD2     C 6015   0.363   3.498  13.601 -0.6734 -0.0556  0.1375
  403MPD2    C1 6016   0.274   3.480  13.704  0.0029  0.3547 -0.3056
  403MPD2    C2 6017   0.317   3.427  13.825  0.0217  0.3766  0.2347
  403MPD2    C3 6018   0.451   3.396  13.847  0.0097 -0.5868  0.6615
  403MPD2    C4 6019   0.546   3.426  13.743  0.4158  0.6367  0.2067
  403MPD2    C5 6020   0.496   3.481  13.629 -0.0535  0.4778 -0.2797
  403MPD2     H 6021   0.245   3.403  13.903 -1.6623  0.9097 -1.1699
  403MPD2    H1 6022   0.653   3.423  13.756  0.5844  1.0388 -1.0921
  403MPD2    H2 6023   0.336   3.534  13.502 -1.5573  2.5695  1.3324
  403MPD2    H3 6024   0.569   3.513  13.555 -0.0321 -1.2940 -1.0239
  403MPD2     N 6025   0.493   3.350  13.982  0.1376 -0.2995 -0.0417
  403MPD2    H5 6026   0.420   3.339  14.051 -0.7764  2.6873 -0.5239
  403MPD2    N1 6027   0.136   3.501  13.688  0.2626 -0.0039  0.7717
  403MPD2    H7 6028   0.109   3.531  13.595  0.9433  1.3208  1.0007
  404TMC3    C1 6029   4.637   3.497  13.721  0.4954  0.4374 -0.3387
  404TMC3    C2 6030   4.558   3.390  13.756  0.0286  0.2767  0.4642
  404TMC3    C3 6031   4.466   3.332  13.668 -0.1029  1.2078 -0.1543
  404TMC3    C4 6032   4.634   3.529  13.589 -0.0826 -0.0605 -0.4318
  404TMC3    C5 6033   4.541   3.472  13.502 -0.1052  0.2841  1.0905
  404TMC3    C6 6034   4.463   3.367  13.534 -0.1010  0.2437  0.0470
  404TMC3     C 6035   0.046   3.496  13.785 -0.2178  0.1743 -0.1360
  404TMC3     O 6036   0.036   3.469  13.906  0.1572 -0.0802  0.2042
  404TMC3     H 6037   4.570   3.335  13.849  1.3990 -0.4554 -0.1428
  404TMC3    H1 6038   4.694   3.613  13.556  0.5174 -0.6634 -0.8875
  404TMC3    H2 6039   4.404   3.303  13.470  0.5478 -1.7742  1.4719
  404TMC3    C7 6040   4.534   3.547  13.381 -0.0073  0.2119  0.6258
  404TMC3    C8 6041   4.390   3.207  13.697 -1.2151  0.4496 -0.8574
  404TMC3    O1 6042   4.581   3.656  13.382 -0.0710  0.3058  0.5214
  404TMC3    O2 6043   4.371   3.128  13.604 -0.3954 -0.6557  1.0567
  405MPD2     C 6044   0.049   3.473  15.144 -0.2504  0.4239 -0.3721
  405MPD2    C1 6045   4.656   3.456  15.065  0.2797 -0.2351  0.2246
  405MPD2    C2 6046   4.665   3.494  14.934  0.0685 -0.0170 -0.4864
  405MPD2    C3 6047   0.056   3.574  14.891  0.1129  0.0160 -0.4677
  405MPD2    C4 6048   0.170   3.582  14.970 -0.4103 -0.7115  0.6118
  405MPD2    C5 6049   0.168   3.524  15.092  0.0490 -0.0221  0.0987
  405MPD2     H 6050   4.577   3.489  14.871  0.5588  0.6706 -1.2325
  405MPD2    H1 6051   0.264   3.620  14.931 -0.7584  0.3270  0.7720
  405MPD2    H2 6052   0.043   3.439  15.247  2.8706 -0.3882 -0.4866
  405MPD2    H3 6053   0.258   3.538  15.150 -0.3743  1.8740  0.2909
  405MPD2     N 6054   0.047   3.643  14.770 -0.0045  0.0261 -0.2961
  405MPD2    H5 6055   4.679   3.637  14.722 -0.6964 -0.8888  1.1227
  405MPD2    N1 6056   4.532   3.417  15.125  0.3979 -0.3226 -0.2678
  405MPD2    H7 6057   4.528   3.421  15.226  1.2017  2.0008 -0.3407
  406TMC3    C1 6058   0.095   4.025  14.506 -0.6516  0.7161 -0.1307
  406TMC3    C2 6059   4.688   4.013  14.463  0.4352 -0.4692 -0.3397
  406TMC3    C3 6060   4.601   3.918  14.515  0.2667 -0.3865  0.2897
  406TMC3    C4 6061   0.163   3.920  14.569 -0.3123  0.8436  0.6089
  406TMC3    C5 6062   0.079   3.825  14.624 -1.0993  0.7139 -0.8018
  406TMC3    C6 6063   4.660   3.830  14.608 -0.0270 -0.0182 -0.5878
  406TMC3     C 6064   0.140   4.157  14.537 -0.3439  0.4696  1.2546
  406TMC3     O 6065   0.258   4.179  14.560 -0.3214  0.2417 -0.0709
  406TMC3     H 6066   4.638   4.087  14.402  1.0543 -1.0447 -1.5358
  406TMC3    H1 6067   0.261   3.938  14.612  0.0825 -0.3478  0.2169
  406TMC3    H2 6068   4.592   3.780  14.677  0.6216  0.0774  0.1261
  406TMC3    C7 6069   0.135   3.734  14.718 -0.4320 -0.1146 -0.4207
  406TMC3    C8 6070   4.473   3.973  14.544  0.2272  0.4072  0.0966
  406TMC3    O1 6071   0.249   3.756  14.753 -0.1369 -0.1304  0.0021
  406TMC3    O2 6072   4.457   4.093  14.544  0.0476  0.0124  0.3973
  407MPD2     C 6073   2.562   0.921   9.523  0.0227  0.3764 -0.0949
  407MPD2    C1 6074   2.645   1.013   9.584 -0.3868  0.0353 -1.1604
  407MPD2    C2 6075   2.606   1.098   9.679  0.6573  0.0377 -0.1330
  407MPD2    C3 6076   2.474   1.097   9.721 -0.0934 -0.2519  0.2363
  407MPD2    C4 6077   2.392   1.001   9.667 -0.2040 -0.2603  0.4361
  407MPD2    C5 6078   2.435   0.920   9.559  0.6213 -0.2538 -0.0127
  407MPD2     H 6079   2.669   1.175   9.721 -0.3214  1.1025 -0.6311
  407MPD2    H1 6080   2.287   0.997   9.695 -0.3363 -0.2678 -0.0561
  407MPD2    H2 6081   2.578   0.853   9.440 -0.4994 -0.8000  0.7638
  407MPD2    H3 6082   2.377   0.834   9.527 -0.0526  0.3222 -0.3400
  407MPD2     N 6083   2.423   1.177   9.824  0.4622  0.3432  0.1973
  407MPD2    H5 6084   2.328   1.211   9.817  0.8331  1.2881 -0.3046
  407MPD2    N1 6085   2.784   1.029   9.548 -0.1323 -0.4558 -0.3569
  407MPD2    H7 6086   2.844   1.094   9.597 -0.9698  0.5517 -0.6623
  408TMC3    C1 6087   2.991   0.990   9.432  0.6277 -0.5607  0.5946
  408TMC3    C2 6088   3.084   0.888   9.435 -0.4193  0.0188  0.5161
  408TMC3    C3 6089   3.215   0.929   9.438 -0.4017  0.3908 -0.4168
  408TMC3    C4 6090   3.027   1.123   9.431 -0.1168  0.0147  0.2354
  408TMC3    C5 6091   3.160   1.156   9.419 -0.3341  0.0459 -0.2210
  408TMC3    C6 6092   3.259   1.058   9.432  0.8057  0.4521 -0.4827
  408TMC3     C 6093   2.855   0.954   9.457 -0.1443  0.1333  0.2247
  408TMC3     O 6094   2.817   0.851   9.400 -0.0622 -0.6235 -0.6581
  408TMC3     H 6095   3.054   0.784   9.440 -0.7092  0.1038  0.5443
  408TMC3    H1 6096   2.948   1.196   9.416  1.4456  1.8661  1.1443
  408TMC3    H2 6097   3.362   1.076   9.404  0.4297  1.5091 -1.1939
  408TMC3    C7 6098   3.200   1.273   9.340  0.6958 -0.3437  0.5817
  408TMC3    C8 6099   3.316   0.821   9.421 -0.4682  0.0949 -0.3648
  408TMC3    O1 6100   3.316   1.277   9.297 -0.0003 -0.2124  0.3382
  408TMC3    O2 6101   3.279   0.716   9.367  0.9238 -0.2841  0.4329
  409MPD2     C 6102   1.922   1.476  16.886 -0.1039 -0.8490 -0.1738
  409MPD2    C1 6103   1.968   1.559  16.990 -0.7059  0.3303  0.0590
  409MPD2    C2 6104   2.021   1.686  16.962 -0.4033 -0.1141  0.1851
  409MPD2    C3 6105   2.026   1.728  16.835  0.1817 -0.7470 -0.1389
  409MPD2    C4 6106   1.975   1.650  16.738  0.3389  1.3125  0.8790
  409MPD2    C5 6107   1.928   1.525  16.758  0.2256 -0.0225 -0.2260
  409MPD2     H 6108   2.056   1.741  17.048 -0.3633  1.0512 -0.5777
  409MPD2    H1 6109   1.991   1.674  16.633 -1.1354  0.0411  0.3691
  409MPD2    H2 6110   1.891   1.374  16.907  1.4385 -1.4898 -1.0438
  409MPD2    H3 6111   1.897   1.464  16.673 -2.1352  0.2238  0.4667
  409MPD2     N 6112   2.083   1.852  16.812  0.2258  0.3152  0.0928
  409MPD2    H5 6113   2.087   1.888  16.717 -0.6471 -0.3197 -0.1816
  409MPD2    N1 6114   1.981   1.507  17.122  0.4635  0.2493 -0.0010
  409MPD2    H7 6115   2.018   1.569  17.194  0.5020  1.0486 -0.7095
  410TMC3    C1 6116   2.214   2.048  16.838 -0.9986  0.2063 -0.6889
  410TMC3    C2 6117   2.250   2.151  16.926 -0.2300  0.7311 -0.7995
  410TMC3    C3 6118   2.344   2.234  16.890 -0.2385 -0.7276 -0.1847
  410TMC3    C4 6119   2.254   2.041  16.708 -0.7448 -0.4947 -0.6957
  410TMC3    C5 6120   2.350   2.130  16.677 -0.2650 -0.0902  0.8273
  410TMC3    C6 6121   2.394   2.224  16.761 -0.2623  0.3182 -0.6723
  410TMC3     C 6122   2.159   1.931  16.895  0.1432 -0.5034 -0.4686
  410TMC3     O 6123   2.170   1.931  17.018  0.5761  0.0221 -0.3268
  410TMC3     H 6124   2.200   2.161  17.022  1.0665  1.5054 -0.2161
  410TMC3    H1 6125   2.219   1.965  16.639  0.4130 -1.5000 -0.1784
  410TMC3    H2 6126   2.484   2.275  16.728  0.3897  0.0550  0.7016
  410TMC3    C7 6127   2.375   2.151  16.536  0.4333 -0.4539 -0.1144
  410TMC3    C8 6128   2.445   2.274  16.989 -0.3751  0.5789 -0.2695
  410TMC3    O1 6129   2.358   2.057  16.463  0.1896 -0.1475  0.3841
  410TMC3    O2 6130   2.535   2.351  16.947 -0.9772 -0.6038 -0.0492
  411MPD2     C 6131   2.207   2.181  14.824 -0.5230 -0.0890  0.1417
  411MPD2    C1 6132   2.137   2.194  14.707 -0.7364  0.0547  0.0779
  411MPD2    C2 6133   2.095   2.076  14.646 -0.1389  0.8819  0.6140
  411MPD2    C3 6134   2.120   1.947  14.699 -0.3088  0.5558 -0.2612
  411MPD2    C4 6135   2.195   1.944  14.817  0.2063  0.1982  0.0039
  411MPD2    C5 6136   2.236   2.055  14.875 -0.1369 -0.4099 -0.2308
  411MPD2     H 6137   2.050   2.085  14.548 -1.3450  0.6431  1.1486
  411MPD2    H1 6138   2.210   1.851  14.871  0.0314  0.3194  0.2634
  411MPD2    H2 6139   2.259   2.262  14.873 -1.5251  1.0162 -0.5982
  411MPD2    H3 6140   2.287   2.061  14.970 -0.4842 -0.5844 -0.0336
  411MPD2     N 6141   2.072   1.828  14.651 -0.1119  0.0808  0.4050
  411MPD2    H5 6142   2.072   1.746  14.711 -2.4071 -2.1873 -2.6912
  411MPD2    N1 6143   2.090   2.324  14.670 -0.1880  0.0986 -0.0670
  411MPD2    H7 6144   2.119   2.399  14.731  0.4230 -1.4280  1.5182
  412TMC3    C1 6145   1.955   1.690  14.515  0.2497  0.2984  0.7850
  412TMC3    C2 6146   1.835   1.675  14.575  0.3174 -0.6519  0.3603
  412TMC3    C3 6147   1.753   1.586  14.511 -0.1006  0.4878 -0.1273
  412TMC3    C4 6148   1.978   1.639  14.393  0.0400  0.4991 -0.0281
  412TMC3    C5 6149   1.891   1.559  14.327  0.0545  0.1869 -0.2601
  412TMC3    C6 6150   1.779   1.516  14.400 -0.4224 -0.4969 -0.2760
  412TMC3     C 6151   2.013   1.817  14.530 -0.0564  0.1333  0.8052
  412TMC3     O 6152   2.018   1.883  14.424 -0.2040  0.5083  0.0704
  412TMC3     H 6153   1.808   1.743  14.654 -2.9529  1.4533 -2.5589
  412TMC3    H1 6154   2.070   1.654  14.338  0.8090  0.3348  1.2131
  412TMC3    H2 6155   1.705   1.453  14.351 -0.3446 -0.2089 -0.7657
  412TMC3    C7 6156   1.853   1.610  14.197  0.0742 -0.2817  0.4682
  412TMC3    C8 6157   1.612   1.620  14.505 -0.1978 -1.0528  0.2590
  412TMC3    O1 6158   1.772   1.539  14.142 -0.0049 -0.9564  0.1619
  412TMC3    O2 6159   1.541   1.534  14.456  0.0690 -0.1114  0.3469
  413MPD2     C 6160   4.346   0.579  15.182  0.5697  0.6234 -0.8155
  413MPD2    C1 6161   4.308   0.469  15.117 -0.8000 -0.3639 -0.1578
  413MPD2    C2 6162   4.398   0.364  15.101 -0.0922 -0.2480 -0.0576
  413MPD2    C3 6163   4.512   0.363  15.169  0.6728  0.6915  0.1412
  413MPD2    C4 6164   4.555   0.478  15.221 -0.7714  0.0320  0.0215
  413MPD2    C5 6165   4.476   0.588  15.221 -0.0708  0.0467  0.3478
  413MPD2     H 6166   4.359   0.281  15.041  2.1572 -0.3752 -1.3190
  413MPD2    H1 6167   4.655   0.478  15.262 -0.8990  0.7457  0.3320
  413MPD2    H2 6168   4.288   0.670  15.188 -0.7905 -0.0931 -2.9424
  413MPD2    H3 6169   4.498   0.678  15.278 -2.0165  0.7540 -0.0472
  413MPD2     N 6170   4.589   0.244  15.173 -0.5481  0.1618 -0.1119
  413MPD2    H5 6171   4.563   0.174  15.104  1.5710  0.0221 -0.7554
  413MPD2    N1 6172   4.176   0.474  15.063  0.0981 -0.4480  0.2342
  413MPD2    H7 6173   4.130   0.565  15.074 -0.3311 -0.4027 -1.9490
  414TMC3    C1 6174   0.063   0.105  15.212  0.3558 -0.3967  0.4270
  414TMC3    C2 6175   0.002   4.721  15.156  0.5608 -0.0925 -0.2404
  414TMC3    C3 6176   0.080   4.619  15.119  0.7724  0.3478  0.8131
  414TMC3    C4 6177   0.193   0.110  15.232  0.4328  0.1849  0.8535
  414TMC3    C5 6178   0.270   0.008  15.184 -0.7459 -0.1689 -0.5030
  414TMC3    C6 6179   0.217   4.621  15.126  0.3989 -0.1030 -0.2741
  414TMC3     C 6180   4.713   0.231  15.237 -0.1691 -0.4099  0.2034
  414TMC3     O 6181   0.040   0.302  15.324 -0.0092 -0.3741  0.1040
  414TMC3     H 6182   4.617   4.721  15.134  0.0345  2.4217  2.3193
  414TMC3    H1 6183   0.246   0.199  15.263 -1.8492  2.1480 -0.9202
  414TMC3    H2 6184   0.271   4.528  15.120 -0.3073 -0.3303 -3.0324
  414TMC3    C7 6185   0.382   4.711  15.274  0.5263 -0.9002 -0.6058
  414TMC3    C8 6186   0.016   4.496  15.077  0.1777 -0.2903 -0.0969
  414TMC3    O1 6187   0.367   0.038  15.382 -0.2605 -0.0426  0.0402
  414TMC3    O2 6188   4.627   4.473  15.124  0.6078  0.0837 -0.3358
  415TMC3    C1 6189   0.106   3.528   9.907 -0.4138  0.0308 -0.1545
  415TMC3    C2 6190   0.115   3.613   9.802 -0.3588 -0.2172 -0.4096
  415TMC3    C3 6191   0.003   3.625   9.718  0.4438 -0.0133  0.2390
  415TMC3    C4 6192   4.702   3.471   9.938  0.7452  0.0615 -0.2889
  415TMC3    C5 6193   4.601   3.497   9.855 -0.2867  0.3229  0.3803
  415TMC3    C6 6194   4.603   3.574   9.746  0.0442 -0.2986 -0.2829
  415TMC3     C 6195   0.222   3.441   9.944 -0.0782  0.1849  0.2752
  415TMC3     O 6196   0.209   3.319   9.962 -0.0379 -0.0660 -0.2947
  415TMC3     H 6197   0.212   3.649   9.772  0.4468 -2.0779 -0.0381
  415TMC3    H1 6198   4.686   3.415  10.029  1.7296  0.0060 -0.1523
  415TMC3    H2 6199   4.512   3.581   9.687 -1.3097  0.3192  1.8839
  415TMC3    C7 6200   4.479   3.424   9.880  0.8067 -0.4300  1.1701
  415TMC3    C8 6201   0.005   3.717   9.605 -0.6609 -0.3808 -0.8467
  415TMC3    O1 6202   4.381   3.488   9.843  0.6457  0.7398  0.4768
  415TMC3    O2 6203   4.623   3.770   9.581  0.5368  0.2688  0.0417
  416MPD2     C 6204   1.891   2.401  11.250  0.3338  0.0486 -0.2703
  416MPD2    C1 6205   1.809   2.334  11.328 -0.6727 -0.8191  0.1435
  416MPD2    C2 6206   1.730   2.239  11.269 -0.1932 -0.3840 -0.1402
  416MPD2    C3 6207   1.738   2.204  11.136  0.1443  0.2517  0.4423
  416MPD2    C4 6208   1.820   2.281  11.055 -0.1745  0.3678 -0.0730
  416MPD2    C5 6209   1.903   2.376  11.116 -0.2756  0.1741  0.2246
  416MPD2     H 6210   1.665   2.176  11.329  0.1416 -0.6831 -0.0909
  416MPD2    H1 6211   1.838   2.253  10.952 -0.1960  0.9878 -0.2485
  416MPD2    H2 6212   1.958   2.467  11.305  2.4119 -0.4396 -2.2058
  416MPD2    H3 6213   1.971   2.432  11.052  0.2911 -0.6489  0.1039
  416MPD2     N 6214   1.656   2.096  11.086 -0.6155  0.0143  0.1622
  416MPD2    H5 6215   1.596   2.035  11.140 -0.7074  0.3663  0.4551
  416MPD2    N1 6216   1.807   2.365  11.468 -0.5775 -0.1825  0.2220
  416MPD2    H7 6217   1.878   2.427  11.505 -1.2174 -0.5147  1.9981
  417TMC3    C1 6218   1.679   2.435  11.652 -0.0321  0.8843  0.1756
  417TMC3    C2 6219   1.614   2.393  11.761 -0.3120 -0.5824  0.2383
  417TMC3    C3 6220   1.558   2.490  11.835 -0.2209  0.3552 -0.7378
  417TMC3    C4 6221   1.701   2.567  11.617 -0.0512 -0.6218  0.4290
  417TMC3    C5 6222   1.630   2.663  11.692 -0.7008  0.3567  0.1860
  417TMC3    C6 6223   1.559   2.624  11.801 -0.3494 -0.5844  0.7654
  417TMC3     C 6224   1.701   2.334  11.551  0.2797 -0.6116 -0.7655
  417TMC3     O 6225   1.644   2.228  11.553 -0.1595 -0.3521  0.3424
  417TMC3     H 6226   1.620   2.288  11.786 -3.1610 -0.5462  1.0065
  417TMC3    H1 6227   1.741   2.588  11.519 -2.7362 -1.2006 -0.7866
  417TMC3    H2 6228   1.515   2.699  11.866 -2.4258 -1.5193  0.4395
  417TMC3    C7 6229   1.573   2.772  11.609 -0.4191  0.7740  0.2261
  417TMC3    C8 6230   1.490   2.466  11.963  0.4581 -0.1215  0.1516
  417TMC3    O1 6231   1.635   2.805  11.512 -0.0541  0.2383  0.8002
  417TMC3    O2 6232   1.386   2.523  11.986  0.0048 -0.0776  0.8875
  418TMC3    C1 6233   4.356   4.357   0.944  0.7043  0.1688  0.2303
  418TMC3    C2 6234   4.280   4.308   0.841  0.0044  0.0526 -0.0884
  418TMC3    C3 6235   4.269   4.165   0.838  0.7958 -0.3728  0.3361
  418TMC3    C4 6236   4.406   4.288   1.050 -0.5702 -0.3523 -0.7611
  418TMC3    C5 6237   4.386   4.150   1.049 -0.1721  0.3229  0.1145
  418TMC3    C6 6238   4.324   4.091   0.944  0.0509  0.5745  0.2644
  418TMC3     C 6239   4.417   4.484   0.909  0.9076  0.8783 -0.4359
  418TMC3     O 6240   4.347   4.573   0.857 -0.0141 -0.1874 -0.1426
  418TMC3     H 6241   4.249   4.382   0.768  0.8670  0.6108  0.1030
  418TMC3    H1 6242   4.454   4.333   1.136 -3.4949 -0.9507  1.1950
  418TMC3    H2 6243   4.309   3.984   0.953  1.1438  0.3090 -1.1371
  418TMC3    C7 6244   4.459   4.068   1.142 -0.3138  0.2770 -0.5358
  418TMC3    C8 6245   4.255   4.101   0.712 -0.2976 -0.1368  0.0420
  418TMC3    O1 6246   4.481   3.953   1.105  0.0717  0.0976 -0.0802
  418TMC3    O2 6247   4.213   4.167   0.616 -0.2922  0.2051 -0.2411
  419MPD2     C 6248   4.048   2.070  12.825  0.4990  0.2411  0.9614
  419MPD2    C1 6249   4.006   2.203  12.799 -0.6963  0.1949 -0.1819
  419MPD2    C2 6250   3.934   2.265  12.898 -0.7130  0.3884  1.1786
  419MPD2    C3 6251   3.925   2.216  13.022  0.3916 -0.1213 -0.0682
  419MPD2    C4 6252   3.965   2.086  13.048 -0.2645 -0.3317 -0.0815
  419MPD2    C5 6253   4.023   2.012  12.947  1.2400  0.1183 -0.7387
  419MPD2     H 6254   3.881   2.356  12.872 -0.2104  0.2810 -0.2625
  419MPD2    H1 6255   3.953   2.035  13.143 -1.8831 -0.6174 -0.4391
  419MPD2    H2 6256   4.094   1.999  12.756  0.9279 -0.7695  2.2805
  419MPD2    H3 6257   4.058   1.912  12.972  1.3073  0.6013  1.1351
  419MPD2     N 6258   3.856   2.290  13.119 -0.3427 -0.2186 -0.2831
  419MPD2    H5 6259   3.801   2.370  13.090 -2.4680 -1.0575  1.4134
  419MPD2    N1 6260   4.004   2.257  12.667 -0.2663  0.2553 -0.0883
  419MPD2    H7 6261   3.975   2.353  12.648  2.0826  0.6402 -1.6605
  420TMC3    C1 6262   3.767   2.338  13.336 -0.4488 -0.0364  0.7672
  420TMC3    C2 6263   3.644   2.370  13.290 -0.6148 -0.5560  0.0702
  420TMC3    C3 6264   3.565   2.443  13.376  0.5366 -0.0397  0.4188
  420TMC3    C4 6265   3.811   2.359  13.459  0.9898  0.8632  0.4352
  420TMC3    C5 6266   3.730   2.434  13.540  0.8993 -0.3894  0.5780
  420TMC3    C6 6267   3.610   2.472  13.503 -0.1995  0.2429 -0.1996
  420TMC3     C 6268   3.867   2.265  13.253 -0.1129 -0.2871 -0.5154
  420TMC3     O 6269   3.937   2.183  13.314 -0.0839  0.0002  0.0168
  420TMC3     H 6270   3.616   2.325  13.196 -0.7986  1.3089 -0.7644
  420TMC3    H1 6271   3.910   2.332  13.494  0.6311 -2.2488 -0.9268
  420TMC3    H2 6272   3.551   2.535  13.568 -0.5177  0.5743 -0.8057
  420TMC3    C7 6273   3.748   2.408  13.686 -0.2348  0.3168  0.2867
  420TMC3    C8 6274   3.464   2.523  13.305 -0.7826  0.1548 -0.1136
  420TMC3    O1 6275   3.813   2.310  13.723 -0.1337 -0.0843  0.2815
  420TMC3    O2 6276   3.468   2.525  13.186 -0.0980 -0.2907 -0.3929
  421TMC3    C1 6277   0.644   3.314  14.170 -0.3071 -0.0496  0.1698
  421TMC3    C2 6278   0.561   3.388  14.251  0.1311  0.7999 -0.7083
  421TMC3    C3 6279   0.593   3.419  14.376  0.9634  0.3199 -0.4367
  421TMC3    C4 6280   0.765   3.278  14.208  0.4046 -0.3217  0.1723
  421TMC3    C5 6281   0.783   3.282  14.345  0.6406 -0.1183 -1.1367
  421TMC3    C6 6282   0.710   3.365  14.430  0.5907 -0.1372  0.2711
  421TMC3     C 6283   0.624   3.323  14.023 -0.1183  0.3260 -0.1257
  421TMC3     O 6284   0.717   3.302  13.949 -0.1991  0.1361 -0.4718
  421TMC3     H 6285   0.475   3.442  14.213  0.3402  2.0118  0.5356
  421TMC3    H1 6286   0.826   3.219  14.141  0.2448 -0.9180  0.5506
  421TMC3    H2 6287   0.743   3.394  14.529 -2.2354 -0.9147  1.4508
  421TMC3    C7 6288   0.913   3.235  14.394  0.5200 -0.0512  0.3878
  421TMC3    C8 6289   0.544   3.549  14.426 -0.5946 -1.2854  0.3625
  421TMC3    O1 6290   1.006   3.253  14.319 -0.0265 -0.1135  0.0286
  421TMC3    O2 6291   0.425   3.559  14.415  0.4007  0.6752  0.3216
  422TMC3    C1 6292   2.730   0.395  12.515  0.3735 -0.1796  0.0843
  422TMC3    C2 6293   2.723   0.475  12.628 -0.4098 -0.7430 -0.4068
  422TMC3    C3 6294   2.647   0.431  12.734 -0.9690  0.1229 -0.4560
  422TMC3    C4 6295   2.651   0.286  12.497 -0.5845  0.7596 -0.1832
  422TMC3    C5 6296   2.572   0.251  12.608  0.0378  0.1218 -0.5571
  422TMC3    C6 6297   2.565   0.322  12.722 -0.6935  0.4702 -0.0013
  422TMC3     C 6298   2.826   0.441  12.407 -0.2348 -0.2770  0.1134
  422TMC3     O 6299   2.928   0.497  12.447  0.4839 -0.5043 -0.2593
  422TMC3     H 6300   2.779   0.568  12.630 -1.0979 -0.2960 -1.7288
  422TMC3    H1 6301   2.670   0.214  12.417  0.1474 -0.1847  0.8436
  422TMC3    H2 6302   2.510   0.298  12.813 -2.0396 -1.8027 -1.4023
  422TMC3    C7 6303   2.478   0.137  12.588 -0.1413 -0.3401  0.4746
  422TMC3    C8 6304   2.673   0.489  12.862  0.1704 -0.2108 -0.7341
  422TMC3    O1 6305   2.509   0.055  12.500 -0.4795 -0.2390 -0.1475
  422TMC3    O2 6306   2.787   0.538  12.869  0.2000  0.1934 -0.1329
  423MPD2     C 6307   4.037   1.582   0.569 -0.3116 -0.1267  0.2182
  423MPD2    C1 6308   3.938   1.491   0.607 -0.0010  0.2812 -0.2826
  423MPD2    C2 6309   3.911   1.385   0.528 -1.4178 -0.1628 -0.0110
  423MPD2    C3 6310   3.978   1.367   0.411 -0.5467  0.3871 -0.8268
  423MPD2    C4 6311   4.071   1.458   0.377 -0.3476 -1.0820 -0.2085
  423MPD2    C5 6312   4.113   1.563   0.456 -0.1442  0.1233  0.0305
  423MPD2     H 6313   3.833   1.316   0.558 -0.4329 -0.8617  0.9426
  423MPD2    H1 6314   4.118   1.439   0.281 -0.8261 -1.8116 -0.3033
  423MPD2    H2 6315   4.066   1.663   0.635  0.3113  0.3668 -0.6680
  423MPD2    H3 6316   4.191   1.632   0.427 -0.1691  0.0052 -0.3173
  423MPD2     N 6317   3.977   1.244   0.338 -1.1532  0.6338  0.7296
  423MPD2    H5 6318   4.039   1.240   0.258 -0.2924  1.0898  1.3772
  423MPD2    N1 6319   3.870   1.499   0.732 -0.0199  0.4966  0.2731
  423MPD2    H7 6320   3.816   1.414   0.746 -0.8796  1.4799  2.8091
  424TMC3    C1 6321   3.814   1.552   0.942 -0.4091 -0.0932 -0.3243
  424TMC3    C2 6322   3.781   1.421   0.948 -0.0992 -0.0605  1.0317
  424TMC3    C3 6323   3.673   1.381   1.018  0.0266  0.0809 -1.1410
  424TMC3    C4 6324   3.736   1.645   1.003 -0.0659  0.5203 -0.7950
  424TMC3    C5 6325   3.619   1.603   1.057 -0.5257 -0.1477 -0.9238
  424TMC3    C6 6326   3.591   1.472   1.080 -1.0215 -0.4605 -0.3974
  424TMC3     C 6327   3.883   1.597   0.828 -0.4369 -0.3901 -0.7228
  424TMC3     O 6328   3.937   1.704   0.811  0.1464  0.1934 -0.3100
  424TMC3     H 6329   3.853   1.344   0.924  1.3626  1.8890 -0.8019
  424TMC3    H1 6330   3.758   1.751   0.998 -0.7898  0.7379  0.6968
  424TMC3    H2 6331   3.496   1.438   1.121 -1.5390 -0.5635 -1.6735
  424TMC3    C7 6332   3.515   1.702   1.081  0.1073  0.0375 -0.1873
  424TMC3    C8 6333   3.662   1.248   1.068  1.1311  0.4613  0.5333
  424TMC3    O1 6334   3.514   1.802   1.013 -0.1882 -0.6957  0.1548
  424TMC3    O2 6335   3.614   1.249   1.181  0.6255 -0.5108 -0.5128
  425MPD2     C 6336   3.066   0.863  17.638  0.5534  0.1363 -0.4383
  425MPD2    C1 6337   3.004   0.773  17.554  0.3599  1.8700  0.2898
  425MPD2    C2 6338   2.866   0.780  17.541 -0.3071  0.2595  0.0746
  425MPD2    C3 6339   2.793   0.875  17.602  0.4331 -0.0246  0.4298
  425MPD2    C4 6340   2.859   0.975  17.672  0.4196  0.3081 -0.2460
  425MPD2    C5 6341   2.994   0.963   0.013  0.7861 -0.0946  0.1841
  425MPD2     H 6342   2.804   0.703  17.496 -0.7260  1.1435 -0.8316
  425MPD2    H1 6343   2.798   1.057   0.022  1.8438  1.1974  0.1376
  425MPD2    H2 6344   3.172   0.862  17.660  0.5723  1.6597 -0.4170
  425MPD2    H3 6345   3.041   1.026   0.088  1.2020  2.3065 -2.1002
  425MPD2     N 6346   2.656   0.853  17.588 -0.3298  0.2255 -0.0379
  425MPD2    H5 6347   2.641   0.784  17.515  0.8516  0.7027 -0.7299
  425MPD2    N1 6348   3.077   0.664  17.501 -0.2308  0.3295  0.1980
  425MPD2    H7 6349   3.176   0.655  17.523  0.1256 -0.3560 -1.7677
  426TMC3    C1 6350   3.122   0.479  17.373  0.7496  0.0195  0.0470
  426TMC3    C2 6351   3.130   0.433  17.242 -0.1436 -0.2042 -0.5053
  426TMC3    C3 6352   3.234   0.349  17.223 -0.0100 -0.2343  0.9445
  426TMC3    C4 6353   3.200   0.440  17.476  0.5119  0.0991  0.1141
  426TMC3    C5 6354   3.293   0.342  17.444 -0.3847 -0.1683 -1.1772
  426TMC3    C6 6355   3.311   0.292  17.321  0.3957  0.4940  0.0116
  426TMC3     C 6356   3.030   0.585  17.401  0.4031  0.9547  0.4467
  426TMC3     O 6357   2.927   0.597  17.337  0.6745  0.3738  0.1173
  426TMC3     H 6358   3.095   0.494  17.159  0.1102  0.6125 -0.0156
  426TMC3    H1 6359   3.169   0.471  17.576  0.3793  0.1336  0.0614
  426TMC3    H2 6360   3.375   0.208  17.295 -1.7789 -0.6525 -1.6905
  426TMC3    C7 6361   3.359   0.265  17.550  0.0693  0.7161 -0.7869
  426TMC3    C8 6362   3.227   0.268  17.101 -0.4037 -0.4727 -0.2695
  426TMC3    O1 6363   3.452   0.201  17.505 -0.1332 -0.2316  0.2296
  426TMC3    O2 6364   3.330   0.224  17.057 -0.4880  0.1196 -0.2378
  427MPD2     C 6365   1.410   2.313  14.771  0.4017 -0.1054 -0.0742
  427MPD2    C1 6366   1.451   2.324  14.897  0.5005  0.2104  0.0175
  427MPD2    C2 6367   1.354   2.343  14.995  0.3560 -0.2606 -0.7119
  427MPD2    C3 6368   1.216   2.346  14.962  0.5566 -0.2139  0.4502
  427MPD2    C4 6369   1.181   2.340  14.831  0.1386  0.5980 -0.2435
  427MPD2    C5 6370   1.278   2.324  14.740 -0.5633  0.0982 -0.1416
  427MPD2     H 6371   1.379   2.345  15.101 -0.4370  1.2663 -0.5520
  427MPD2    H1 6372   1.080   2.349  14.792  0.7532  1.8893 -1.5311
  427MPD2    H2 6373   1.480   2.291  14.691  0.7643 -1.7303  0.6871
  427MPD2    H3 6374   1.249   2.307  14.637 -0.2478 -1.4584  0.0247
  427MPD2     N 6375   1.114   2.353  15.061  0.3363 -0.0263 -0.3670
  427MPD2    H5 6376   1.021   2.365  15.022 -0.2946  0.3285  1.2547
  427MPD2    N1 6377   1.590   2.295  14.937  0.5403 -0.6447 -0.0889
  427MPD2    H7 6378   1.609   2.300  15.037  1.3921 -2.0972 -0.1733
  428TMC3    C1 6379   1.808   2.209  14.919 -0.2328 -0.7363  0.2999
  428TMC3    C2 6380   1.833   2.073  14.907 -0.5545 -0.0617 -0.7061
  428TMC3    C3 6381   1.904   2.012  15.009 -0.5539 -0.3968  0.2500
  428TMC3    C4 6382   1.850   2.286  15.016  0.0764  0.6489 -0.1687
  428TMC3    C5 6383   1.936   2.226  15.107 -0.2432 -0.2578 -0.1985
  428TMC3    C6 6384   1.959   2.089  15.109 -0.6807  0.0224 -0.2441
  428TMC3     C 6385   1.695   2.267  14.852 -0.1834 -0.0270  0.0601
  428TMC3     O 6386   1.688   2.268  14.731  0.2977 -0.1632 -0.0792
  428TMC3     H 6387   1.777   2.018  14.832 -3.0533 -0.4281  1.4061
  428TMC3    H1 6388   1.814   2.387  15.035 -1.4976  0.3247 -1.3365
  428TMC3    H2 6389   2.011   2.043  15.192  1.0168 -0.5781 -1.6353
  428TMC3    C7 6390   2.004   2.308  15.210 -0.4675 -0.0393  0.0785
  428TMC3    C8 6391   1.906   1.870  15.014 -0.1314 -0.3490 -0.4271
  428TMC3    O1 6392   2.054   2.253  15.306  0.4380  0.1945  0.4173
  428TMC3    O2 6393   1.997   1.815  15.073 -0.1364  0.5198  0.3392
  429MPD2     C 6394   2.404   2.837   0.049 -0.1245  0.0340  0.7400
  429MPD2    C1 6395   2.488   2.754  17.663  0.0838 -0.3259  0.2328
  429MPD2    C2 6396   2.574   2.800  17.573 -0.2911  0.0610  0.5266
  429MPD2    C3 6397   2.579   2.933  17.541 -0.5224 -0.1674 -0.6618
  429MPD2    C4 6398   2.495   3.020  17.607 -0.3855 -0.0477 -0.3029
  429MPD2    C5 6399   2.408   2.970   0.014 -0.9446  0.3739  0.4365
  429MPD2     H 6400   2.632   2.731  17.514  0.3776  0.8282  0.2841
  429MPD2    H1 6401   2.487   3.128  17.601  3.2745  0.2037 -0.3936
  429MPD2    H2 6402   2.332   2.808   0.125  1.3867  0.1878  2.2176
  429MPD2    H3 6403   2.341   3.039   0.063 -0.6711  0.8378  0.1676
  429MPD2     N 6404   2.651   2.975  17.433  0.4682  0.7377 -0.6425
  429MPD2    H5 6405   2.705   2.902  17.387 -0.1946 -1.2291  1.7113
  429MPD2    N1 6406   2.487   2.613   0.001  0.2538  0.0027 -0.1610
  429MPD2    H7 6407   2.564   2.557  17.655 -0.5841 -1.9670  1.1916
  430TMC3    C1 6408   2.733   3.088  17.258 -0.1440 -0.0388 -0.0772
  430TMC3    C2 6409   2.718   3.188  17.171  0.3075 -0.2965 -0.6344
  430TMC3    C3 6410   2.747   3.166  17.044  0.8870  0.3938  0.2031
  430TMC3    C4 6411   2.804   2.969  17.221 -0.1611 -0.2793 -0.9047
  430TMC3    C5 6412   2.852   2.968  17.097  0.2032 -0.8191  0.9238
  430TMC3    C6 6413   2.827   3.068  17.001 -1.0561 -0.1010  0.8392
  430TMC3     C 6414   2.664   3.103  17.387 -0.1418 -0.4566  0.7580
  430TMC3     O 6415   2.607   3.205  17.417  0.2535  0.3819  0.2472
  430TMC3     H 6416   2.649   3.268  17.195  0.2765  0.1579 -2.2558
  430TMC3    H1 6417   2.836   2.888  17.286  0.0987 -0.1551 -0.8749
  430TMC3    H2 6418   2.842   3.055  16.895  3.2854  2.0474  1.1875
  430TMC3    C7 6419   2.885   2.834  17.044 -0.4420  0.1832 -0.2216
  430TMC3    C8 6420   2.636   3.187  16.961  0.3129  0.1150 -0.2170
  430TMC3    O1 6421   2.884   2.747  17.128 -0.5103  0.1309 -0.5258
  430TMC3    O2 6422   2.600   3.083  16.911 -0.1244  0.3368  0.4655
  431MPD2     C 6423   3.604   2.975  12.527  0.4995  0.3554  0.0261
  431MPD2    C1 6424   3.741   2.961  12.519 -0.3101  0.2260 -0.0791
  431MPD2    C2 6425   3.786   2.833  12.507  0.4151 -0.7350 -0.2126
  431MPD2    C3 6426   3.705   2.722  12.477  0.0451  0.1465  0.2650
  431MPD2    C4 6427   3.566   2.740  12.494 -0.0032  0.0344  0.5689
  431MPD2    C5 6428   3.520   2.867  12.526  0.3641  0.5641 -0.2433
  431MPD2     H 6429   3.892   2.811  12.510  0.4125 -0.7747 -0.4217
  431MPD2    H1 6430   3.495   2.659  12.480 -1.9019  1.9784 -1.0647
  431MPD2    H2 6431   3.563   3.075  12.524 -2.7520 -0.9910  0.4618
  431MPD2    H3 6432   3.414   2.884  12.517  0.1007  0.5658  2.9192
  431MPD2     N 6433   3.756   2.600  12.431 -0.3385  0.2712  0.3494
  431MPD2    H5 6434   3.699   2.516  12.438  1.4065 -0.8898  0.7008
  431MPD2    N1 6435   3.832   3.069  12.529  0.3490  0.3414 -1.0235
  431MPD2    H7 6436   3.783   3.157  12.536 -1.6953 -0.9170  0.3640
  432TMC3    C1 6437   3.913   2.454  12.323  0.1627  0.0102  0.2573
  432TMC3    C2 6438   3.995   2.434  12.213 -0.0896 -0.0891  0.6958
  432TMC3    C3 6439   4.082   2.324  12.210  0.7210  0.0648  0.0483
  432TMC3    C4 6440   3.926   2.378  12.432  0.2515 -0.1015  0.4077
  432TMC3    C5 6441   4.022   2.280  12.438  0.1555  0.8736 -0.2198
  432TMC3    C6 6442   4.090   2.244  12.320  0.1458  0.2865  0.3297
  432TMC3     C 6443   3.863   2.591  12.345 -0.0081 -0.9027 -0.8815
  432TMC3     O 6444   3.913   2.684  12.279 -0.2863  0.2474  0.0397
  432TMC3     H 6445   3.988   2.508  12.134 -1.4414  0.1062  1.0045
  432TMC3    H1 6446   3.861   2.391  12.518 -0.2238 -0.7190  0.1401
  432TMC3    H2 6447   4.181   2.185  12.322  0.0051  0.1292  2.1481
  432TMC3    C7 6448   4.031   2.193  12.550  0.1526  0.0920  0.2071
  432TMC3    C8 6449   4.150   2.302  12.084  0.5632 -0.3070 -0.0841
  432TMC3    O1 6450   4.072   2.083  12.526 -0.6369  0.2014 -0.6055
  432TMC3    O2 6451   4.166   2.187  12.050  0.4049 -0.1264  0.3411
  433MPD2     C 6452   2.220   0.870  10.424 -0.1271  0.2241 -0.6777
  433MPD2    C1 6453   2.306   0.801  10.508 -0.0975 -0.0000  0.0715
  433MPD2    C2 6454   2.361   0.866  10.614  0.0768 -0.1405 -0.0472
  433MPD2    C3 6455   2.314   0.987  10.658  0.2939  0.4678 -0.4161
  433MPD2    C4 6456   2.218   1.049  10.580  1.1005  0.0040  0.5763
  433MPD2    C5 6457   2.168   0.985  10.467  0.1056 -0.4044 -0.4407
  433MPD2     H 6458   2.445   0.822  10.666  0.5267  0.1699 -0.5217
  433MPD2    H1 6459   2.176   1.149  10.592 -0.2849 -0.3554 -1.3108
  433MPD2    H2 6460   2.185   0.821  10.333 -0.0975 -0.1806 -0.4740
  433MPD2    H3 6461   2.094   1.033  10.404 -0.0291 -0.6911 -0.4988
  433MPD2     N 6462   2.382   1.049  10.759  0.0972  0.3982 -0.5371
  433MPD2    H5 6463   2.442   1.000  10.826  0.1625 -1.5786 -2.0314
  433MPD2    N1 6464   2.369   0.683  10.462 -0.0508  0.4312 -0.2511
  433MPD2    H7 6465   2.356   0.647  10.368 -2.2246  0.0792  0.1733
  434TMC3    C1 6466   2.591   0.594  10.478 -0.2831  0.1877  0.5133
  434TMC3    C2 6467   2.683   0.511  10.540 -0.0635  0.5419  0.4340
  434TMC3    C3 6468   2.816   0.533  10.514 -0.0776  1.0821  0.1150
  434TMC3    C4 6469   2.630   0.681  10.382 -0.0415  0.1440 -0.3018
  434TMC3    C5 6470   2.763   0.675  10.343 -0.5444 -0.3853 -0.0706
  434TMC3    C6 6471   2.857   0.604  10.407 -0.4059  0.5095  0.3298
  434TMC3     C 6472   2.458   0.611  10.536 -0.3189  0.3058 -0.1131
  434TMC3     O 6473   2.456   0.601  10.656  0.0542 -1.1021 -0.3057
  434TMC3     H 6474   2.658   0.445  10.622  2.6280 -2.0546 -0.8501
  434TMC3    H1 6475   2.561   0.750  10.335  1.7512  1.0617 -1.6031
  434TMC3    H2 6476   2.957   0.601  10.364 -0.8931  0.0745 -0.7802
  434TMC3    C7 6477   2.801   0.713  10.211  0.3093  0.4065  0.7520
  434TMC3    C8 6478   2.910   0.474  10.602 -0.4178 -0.2849 -0.0227
  434TMC3    O1 6479   2.893   0.790  10.202  0.1356 -0.3068  0.2039
  434TMC3    O2 6480   2.868   0.380  10.669 -0.3075 -0.0017 -0.3734
  435MPD2     C 6481   4.337   1.499  15.908 -0.3155  0.2845  0.9542
  435MPD2    C1 6482   4.296   1.377  15.967  0.1171  0.0470  0.3320
  435MPD2    C2 6483   4.396   1.277  15.988 -0.1239 -0.1943  0.7391
  435MPD2    C3 6484   4.522   1.288  15.936  0.7336 -0.7286 -0.6385
  435MPD2    C4 6485   4.558   1.407  15.867  0.3725  0.2578  0.3289
  435MPD2    C5 6486   4.466   1.514  15.872 -0.8517  0.1863 -0.2975
  435MPD2     H 6487   4.374   1.185  16.041 -0.5765  0.8052  2.2832
  435MPD2    H1 6488   4.657   1.428  15.829 -0.4511  0.8432 -1.4918
  435MPD2    H2 6489   4.269   1.580  15.886  0.5667  0.9883  0.8292
  435MPD2    H3 6490   4.497   1.607  15.826  0.8810 -1.2834 -2.0978
  435MPD2     N 6491   4.617   1.193  15.968 -0.7572  0.4887 -0.4043
  435MPD2    H5 6492   4.594   1.131  16.044  2.0963 -2.1929 -1.7064
  435MPD2    N1 6493   4.165   1.356  16.033  0.0719 -0.5423 -0.4983
  435MPD2    H7 6494   4.163   1.272  16.089 -3.0936  1.1260  1.8592
  436TMC3    C1 6495   3.841   1.398  16.285  0.0969 -0.4280  0.6196
  436TMC3    C2 6496   3.953   1.384  16.202  0.2040 -0.6539  0.0488
  436TMC3    C3 6497   3.940   1.402  16.063  0.1975  0.6212  0.5690
  436TMC3    C4 6498   3.716   1.435  16.241  0.2476  0.0778 -0.2105
  436TMC3    C5 6499   3.708   1.460  16.103 -0.3568 -0.1140  0.2144
  436TMC3    C6 6500   3.818   1.445  16.010 -0.4888 -0.1122 -0.5584
  436TMC3     C 6501   3.870   1.383  16.429  0.1000  0.9433  0.4464
  436TMC3     O 6502   3.979   1.340  16.458 -0.0650 -0.5753  0.1310
  436TMC3     H 6503   4.047   1.349  16.243 -0.5945 -0.1368  2.3574
  436TMC3    H1 6504   3.628   1.442  16.305 -0.9305  0.8322 -1.9072
  436TMC3    H2 6505   3.814   1.467  15.904  0.1107 -2.2855 -1.0379
  436TMC3    C7 6506   3.611   1.553  16.067  0.4832 -0.0494  0.1583
  436TMC3    C8 6507   4.058   1.422  15.987 -0.2039  0.1897 -0.2793
  436TMC3    O1 6508   3.610   1.586  15.949  0.2810 -0.1594  0.3074
  436TMC3    O2 6509   4.044   1.476  15.876  0.3086  0.1846  0.0452
  437TMC3    C1 6510   2.935   3.392  12.858 -0.0619  0.1513 -0.1396
  437TMC3    C2 6511   2.809   3.377  12.795  0.1699 -0.3834  0.1953
  437TMC3    C3 6512   2.800   3.419  12.667  0.4843  0.3589  0.3747
  437TMC3    C4 6513   3.045   3.453  12.797 -0.1169 -0.4486  0.2539
  437TMC3    C5 6514   3.024   3.491  12.670  0.4491  0.2870  0.1789
  437TMC3    C6 6515   2.905   3.477  12.602 -0.1421 -0.1324  0.4150
  437TMC3     C 6516   2.948   3.336  12.996  0.4360  0.0119  0.5701
  437TMC3     O 6517   2.843   3.288  13.043 -0.0609 -0.5820  0.1344
  437TMC3     H 6518   2.721   3.343  12.849  1.1101 -0.8403  1.4291
  437TMC3    H1 6519   3.127   3.491  12.858 -0.6793  2.0263 -0.5023
  437TMC3    H2 6520   2.892   3.508  12.499  0.3536 -0.3157  0.2983
  437TMC3    C7 6521   3.125   3.582  12.603 -0.2905 -0.4959 -0.2625
  437TMC3    C8 6522   2.673   3.427  12.596 -0.9195 -0.1715 -0.2252
  437TMC3    O1 6523   3.081   3.644  12.509  0.3237 -0.0188  0.8485
  437TMC3    O2 6524   2.674   3.445  12.475  0.6792  0.7626 -0.1406
  438MPD2     C 6525   0.645   3.809  17.260 -0.1734 -0.0265  0.0914
  438MPD2    C1 6526   0.710   3.703  17.305  0.3805 -0.2778  1.0391
  438MPD2    C2 6527   0.680   3.645  17.427  0.4294 -0.0452  0.1102
  438MPD2    C3 6528   0.576   3.701  17.500  0.4794 -0.4375  0.5007
  438MPD2    C4 6529   0.504   3.802  17.449  0.2581 -0.3518 -0.0245
  438MPD2    C5 6530   0.538   3.865  17.332  0.6683  0.3757  0.2660
  438MPD2     H 6531   0.728   3.549  17.446  1.0168 -0.1377 -1.8355
  438MPD2    H1 6532   0.422   3.850  17.501  2.6713  0.7078  2.8162
  438MPD2    H2 6533   0.675   3.860  17.169  0.6565 -0.4483  0.1299
  438MPD2    H3 6534   0.485   3.954  17.299 -1.5981 -0.6538  1.1202
  438MPD2     N 6535   0.532   3.643  17.626 -0.6745 -0.2588  0.1195
  438MPD2    H5 6536   0.451   3.685  17.671  0.1537 -0.2628  1.5905
  438MPD2    N1 6537   0.816   3.642  17.236 -0.5044  0.1854 -0.3738
  438MPD2    H7 6538   0.870   3.580  17.296 -0.5317  0.8744  0.3783
  439TMC3    C1 6539   0.972   3.599  17.065 -0.2152 -0.2240 -0.1756
  439TMC3    C2 6540   0.980   3.557  16.938 -0.0307 -0.0693 -0.6849
  439TMC3    C3 6541   1.080   3.473  16.898  0.4276 -0.6611  0.7271
  439TMC3    C4 6542   1.066   3.577  17.157 -0.2714 -0.6441 -0.1718
  439TMC3    C5 6543   1.173   3.504  17.109 -0.2110 -0.4447 -0.0751
  439TMC3    C6 6544   1.180   3.440  16.988  0.4016 -0.4869  0.5550
  439TMC3     C 6545   0.848   3.658  17.103 -0.7366  0.4769  0.0169
  439TMC3     O 6546   0.785   3.712  17.015 -0.1482 -0.0748  0.1375
  439TMC3     H 6547   0.885   3.554  16.886  0.1449 -1.2599 -0.9402
  439TMC3    H1 6548   1.070   3.621  17.256 -2.0704  0.7296 -0.7030
  439TMC3    H2 6549   1.271   3.391  16.957  0.6274  1.5431 -1.9471
  439TMC3    C7 6550   1.305   3.544  17.167 -0.1603 -0.1510 -0.2808
  439TMC3    C8 6551   1.095   3.436  16.762 -0.4025  0.1157 -0.2564
  439TMC3    O1 6552   1.394   3.464  17.168  0.0759 -0.2196 -0.2850
  439TMC3    O2 6553   1.173   3.347  16.740  0.5539  0.0663  0.0493
  440MPD2     C 6554   4.078   4.425  15.685 -0.0883  0.0871 -0.9802
  440MPD2    C1 6555   4.183   4.432  15.595 -0.2797 -0.7419 -0.1449
  440MPD2    C2 6556   4.200   4.332  15.502 -0.5069  0.3044 -0.3063
  440MPD2    C3 6557   4.124   4.215  15.505 -1.2428  0.3734  0.1765
  440MPD2    C4 6558   4.026   4.209  15.598  0.0669 -0.1743  0.1891
  440MPD2    C5 6559   4.003   4.309  15.686  0.7094  0.7585  0.3014
  440MPD2     H 6560   4.280   4.347  15.431  0.2385 -1.2310  0.2027
  440MPD2    H1 6561   3.942   4.141  15.584 -1.0836  1.3887 -0.4408
  440MPD2    H2 6562   4.039   4.510  15.740  0.8579  0.3709 -0.7465
  440MPD2    H3 6563   3.915   4.304  15.749  0.3947  0.0894 -0.1951
  440MPD2     N 6564   4.144   4.103  15.421 -0.7168 -0.1999  0.3712
  440MPD2    H5 6565   4.096   4.014  15.434  0.5394 -1.0821 -0.9683
  440MPD2    N1 6566   4.282   4.532  15.585 -0.1818 -0.5740  0.4427
  440MPD2    H7 6567   4.353   4.524  15.513  0.1382  0.6261  0.6183
  441TMC3    C1 6568   4.264   3.973  15.264  0.2562 -0.3241  0.4620
  441TMC3    C2 6569   4.318   3.978  15.135 -0.0784  0.7794  0.3444
  441TMC3    C3 6570   4.384   3.867  15.090 -0.1541  0.3305 -0.2224
  441TMC3    C4 6571   4.296   3.882  15.356 -0.3564  0.0757  0.4689
  441TMC3    C5 6572   4.378   3.783  15.309  0.1418 -0.4146 -0.2015
  441TMC3    C6 6573   4.404   3.768  15.179 -0.0172  0.3082 -0.0022
  441TMC3     C 6574   4.232   4.100  15.317  0.1304 -0.1465  0.2249
  441TMC3     O 6575   4.283   4.195  15.258 -0.5028 -0.8840  1.0502
  441TMC3     H 6576   4.299   4.059  15.065 -3.1296 -0.9854 -0.8619
  441TMC3    H1 6577   4.280   3.889  15.463  1.4835  1.1005  0.6854
  441TMC3    H2 6578   4.472   3.688  15.153 -0.4459  0.1498 -0.6273
  441TMC3    C7 6579   4.445   3.693  15.405  0.3840  0.0120 -0.2092
  441TMC3    C8 6580   4.502   3.887  15.003  0.3663  1.2116  1.0150
  441TMC3    O1 6581   4.500   3.596  15.355  0.0833  0.4142 -0.3212
  441TMC3    O2 6582   4.562   3.793  14.955  0.1467  0.0981 -0.2909
  442MPD2     C 6583   2.357   0.183  16.210 -0.2721 -0.0513 -0.3726
  442MPD2    C1 6584   2.353   0.175  16.347  0.0527  0.0648  0.3416
  442MPD2    C2 6585   2.386   0.053  16.401  0.3267  0.3730  0.1019
  442MPD2    C3 6586   2.430   4.668  16.327 -0.8863 -0.0123 -1.0581
  442MPD2    C4 6587   2.441   4.683  16.188 -0.8260  0.1952 -0.0634
  442MPD2    C5 6588   2.394   0.078  16.129 -0.5079 -0.2662  0.7141
  442MPD2     H 6589   2.389   0.039  16.509 -0.8760  0.8084  0.1917
  442MPD2    H1 6590   2.472   4.600  16.126  0.4695  1.6720 -1.3842
  442MPD2    H2 6591   2.322   0.274  16.163 -2.3917 -0.3158  0.6884
  442MPD2    H3 6592   2.406   0.104  16.025  0.3655 -0.8368  0.6767
  442MPD2     N 6593   2.480   4.548  16.383 -0.7186  0.5347  0.0673
  442MPD2    H5 6594   2.514   4.481  16.315  1.7189 -0.1088  1.9496
  442MPD2    N1 6595   2.311   0.277  16.431 -0.1190 -0.4905 -0.6518
  442MPD2    H7 6596   2.315   0.248  16.528 -0.5741 -2.2045 -1.1394
  443TMC3    C1 6597   2.205   0.486  16.488  0.4150 -0.4057  0.0225
  443TMC3    C2 6598   2.129   0.593  16.444 -0.3649  0.4394  0.5162
  443TMC3    C3 6599   2.030   0.644  16.525 -0.8080  0.2969  0.2305
  443TMC3    C4 6600   2.201   0.440  16.620 -0.2258  0.7798  0.3595
  443TMC3    C5 6601   2.114   0.502  16.701  0.9468  0.5375  0.2742
  443TMC3    C6 6602   2.025   0.606  16.661  0.4884  0.2909  0.3149
  443TMC3     C 6603   2.270   0.406  16.388 -0.0613 -0.1921 -0.4974
  443TMC3     O 6604   2.270   0.456  16.275 -0.6856 -0.4921  0.7686
  443TMC3     H 6605   2.137   0.633  16.344 -0.0313  0.2041  0.4505
  443TMC3    H1 6606   2.271   0.362  16.650 -0.6258  1.1071  2.1342
  443TMC3    H2 6607   1.944   0.634  16.728 -0.4322  1.6644 -1.3660
  443TMC3    C7 6608   2.089   0.456  16.832  0.1617  0.3134 -0.5786
  443TMC3    C8 6609   1.900   0.686  16.471 -0.0609  0.0815  0.6032
  443TMC3    O1 6610   2.118   0.339  16.858  0.3334 -0.3765  0.3529
  443TMC3    O2 6611   1.797   0.659  16.533 -0.5291 -0.4377 -0.4048
  444MPD2     C 6612   2.994   4.338  17.093 -0.1040 -0.3071  0.1849
  444MPD2    C1 6613   2.885   4.259  17.058 -0.4002  0.2814  0.4883
  444MPD2    C2 6614   2.907   4.122  17.054 -0.0269 -0.3846  0.5361
  444MPD2    C3 6615   3.029   4.064  17.081 -0.7990  0.5248 -0.5368
  444MPD2    C4 6616   3.132   4.150  17.128 -0.0836  0.4512 -0.4109
  444MPD2    C5 6617   3.113   4.278  17.131  0.4040 -0.4477 -0.8441
  444MPD2     H 6618   2.827   4.057  17.021 -0.1647 -0.3585  0.8211
  444MPD2    H1 6619   3.226   4.107  17.157 -0.6403 -0.9257 -0.6440
  444MPD2    H2 6620   2.995   4.446  17.100 -1.2897 -0.4734  2.8077
  444MPD2    H3 6621   3.193   4.345  17.164  0.0480 -1.0062  1.1534
  444MPD2     N 6622   3.044   3.921  17.070 -0.0253  0.5068  0.1109
  444MPD2    H5 6623   2.960   3.876  17.036  0.9489 -0.0096 -1.6164
  444MPD2    N1 6624   2.758   4.309  17.039 -0.2009 -0.2261 -0.1295
  444MPD2    H7 6625   2.686   4.241  17.015  0.3793 -1.3062  1.2047
  445TMC3    C1 6626   3.149   3.718  17.080  0.4508  0.1448  0.9367
  445TMC3    C2 6627   3.093   3.675  16.960 -0.2103 -0.6677 -0.1710
  445TMC3    C3 6628   3.134   3.555  16.912  0.3996  0.1877 -0.1498
  445TMC3    C4 6629   3.249   3.653  17.145 -0.2769  0.0051  0.2553
  445TMC3    C5 6630   3.286   3.539  17.084  0.0741 -0.0797  0.6867
  445TMC3    C6 6631   3.226   3.481  16.977  0.0996 -0.1959  0.3620
  445TMC3     C 6632   3.159   3.859  17.094  0.1625  0.4497 -0.1646
  445TMC3     O 6633   3.267   3.898  17.129 -0.6225 -0.0294  0.1950
  445TMC3     H 6634   3.024   3.742  16.912 -1.8818 -0.3334  2.6662
  445TMC3    H1 6635   3.299   3.701  17.229 -1.6387 -0.7052  1.4629
  445TMC3    H2 6636   3.249   3.379  16.950 -0.1251  0.2872 -1.6201
  445TMC3    C7 6637   3.424   3.501  17.099  0.5206 -1.0460  0.1575
  445TMC3    C8 6638   3.057   3.480  16.810  0.5443  0.4773 -0.1324
  445TMC3    O1 6639   3.472   3.424  17.017 -0.0685  0.4251 -0.2216
  445TMC3    O2 6640   3.081   3.361  16.793  0.1098  0.2242 -0.3214
  446MPD2     C 6641   2.396   0.099  10.958 -0.3867  0.0622 -0.6944
  446MPD2    C1 6642   2.342   0.182  10.864  0.2297  0.4086  0.3395
  446MPD2    C2 6643   2.401   0.303  10.835  0.0735  0.2867 -0.3395
  446MPD2    C3 6644   2.519   0.350  10.898 -0.4166 -0.5176 -0.6242
  446MPD2    C4 6645   2.567   0.265  11.003  0.0231 -0.5253  0.4897
  446MPD2    C5 6646   2.513   0.140  11.019 -0.1956 -0.0897  0.0976
  446MPD2     H 6647   2.366   0.365  10.753 -1.8622 -0.6239 -0.1813
  446MPD2    H1 6648   2.645   0.290  11.073 -0.1404  1.7217 -0.1247
  446MPD2    H2 6649   2.367   4.721  10.991 -1.8730  0.5435 -0.5480
  446MPD2    H3 6650   2.536   0.075  11.103 -1.3713  1.5362  1.6801
  446MPD2     N 6651   2.590   0.470  10.865  0.0842 -0.1669 -0.1978
  446MPD2    H5 6652   2.541   0.533  10.802  1.6091  0.2079 -1.0159
  446MPD2    N1 6653   2.227   0.145  10.792 -0.5243 -0.2223 -0.1552
  446MPD2    H7 6654   2.201   0.209  10.717 -1.0921 -0.8212 -0.4763
  447TMC3    C1 6655   2.758   0.645  10.920 -0.0060  1.0260  0.1196
  447TMC3    C2 6656   2.730   0.722  10.806  0.3888 -0.3640 -0.1544
  447TMC3    C3 6657   2.814   0.830  10.782  0.6754 -0.4444 -0.1316
  447TMC3    C4 6658   2.860   0.674  11.004 -0.5568  0.4009 -0.6084
  447TMC3    C5 6659   2.952   0.763  10.960  0.4426 -0.4827  0.8941
  447TMC3    C6 6660   2.938   0.842  10.849 -1.0412  0.0830  0.0871
  447TMC3     C 6661   2.710   0.505  10.922  0.1670  0.4424 -0.3084
  447TMC3     O 6662   2.794   0.425  10.972 -0.0612 -0.4835 -0.0145
  447TMC3     H 6663   2.634   0.716  10.755  0.1156 -0.4115  0.3629
  447TMC3    H1 6664   2.882   0.599  11.079  0.8316  2.1576  0.7572
  447TMC3    H2 6665   3.011   0.913  10.811 -2.0906  1.1786  0.1318
  447TMC3    C7 6666   3.061   0.789  11.046 -0.6875 -1.1453 -0.5667
  447TMC3    C8 6667   2.775   0.933  10.691  0.8546  0.0132  0.0062
  447TMC3    O1 6668   3.040   0.757  11.160 -0.1013  0.0519  0.9138
  447TMC3    O2 6669   2.700   0.899  10.602 -0.1108  0.7485  0.7097
  448TMC3    C1 6670   1.281   1.219  17.531  0.2310 -0.7760 -0.1378
  448TMC3    C2 6671   1.232   1.136  17.432  0.9030  0.2083 -0.1557
  448TMC3    C3 6672   1.185   1.009  17.463 -0.0965 -0.1977 -0.9460
  448TMC3    C4 6673   1.265   1.185  17.659  0.0888  0.4394 -0.5025
  448TMC3    C5 6674   1.210   1.066  17.679  0.3061  0.6685 -0.0262
  448TMC3    C6 6675   1.159   0.981  17.588 -0.3655 -0.7369 -0.1523
  448TMC3     C 6676   1.364   1.341  17.517  0.2650  0.3034 -0.2339
  448TMC3     O 6677   1.369   1.428  17.606  0.3049  0.5916 -0.1456
  448TMC3     H 6678   1.213   1.172  17.332  2.4594 -0.4034 -0.6704
  448TMC3    H1 6679   1.310   1.237   0.055  0.8560  0.0453 -0.6616
  448TMC3    H2 6680   1.107   0.891  17.619 -1.4990 -0.1195 -0.2288
  448TMC3    C7 6681   1.236   1.017   0.131  0.0721 -0.2006 -0.0864
  448TMC3    C8 6682   1.137   0.922  17.360 -0.8350  0.7656  0.1111
  448TMC3    O1 6683   1.340   1.054   0.186 -0.1678  0.3429  0.6074
  448TMC3    O2 6684   1.073   0.988  17.276  0.8388 -0.2845  0.7340
  449MPD2     C 6685   1.969   4.046  14.068  0.2066 -0.2399  0.5232
  449MPD2    C1 6686   1.989   3.913  14.040  0.2602  0.1073 -0.1766
  449MPD2    C2 6687   2.088   3.837  14.100 -0.7780  0.3177  0.1117
  449MPD2    C3 6688   2.173   3.901  14.191 -0.3503  0.5920  0.3900
  449MPD2    C4 6689   2.155   4.031  14.223  0.1017  0.6273  0.2252
  449MPD2    C5 6690   2.055   4.104  14.158  0.1933 -0.3153  0.1531
  449MPD2     H 6691   2.111   3.735  14.069  0.7961  1.3398 -2.0496
  449MPD2    H1 6692   2.225   4.079  14.290 -0.1450  2.1837 -0.6348
  449MPD2    H2 6693   1.896   4.102  14.010  0.7831  0.8694  0.8774
  449MPD2    H3 6694   2.063   4.210  14.178  2.4369 -0.6272  0.9200
  449MPD2     N 6695   2.265   3.815  14.250  0.3755 -0.7683 -0.5075
  449MPD2    H5 6696   2.285   3.725  14.208  0.9835 -2.4002  3.2119
  449MPD2    N1 6697   1.912   3.840  13.943  0.0044  0.2426 -0.2488
  449MPD2    H7 6698   1.932   3.741  13.930 -1.2159 -0.0645  0.2555
  450TMC3    C1 6699   1.761   3.764  13.797  0.3748 -0.9381  0.3097
  450TMC3    C2 6700   1.788   3.722  13.667  0.6267 -0.3642  0.5442
  450TMC3    C3 6701   1.720   3.610  13.632 -0.3861  0.5533 -0.2431
  450TMC3    C4 6702   1.696   3.689  13.888 -0.7750  0.0778 -0.4469
  450TMC3    C5 6703   1.648   3.558  13.853 -0.3167 -0.2854 -0.4035
  450TMC3    C6 6704   1.655   3.520  13.721 -0.3727  0.5721  0.4323
  450TMC3     C 6705   1.824   3.886  13.851 -0.2053  0.3675  0.0596
  450TMC3     O 6706   1.764   3.995  13.841 -0.3643 -0.3907  0.1205
  450TMC3     H 6707   1.830   3.791  13.595 -1.6766  0.0697 -0.3770
  450TMC3    H1 6708   1.673   3.726  13.987  0.3039  0.6831 -0.4323
  450TMC3    H2 6709   1.611   3.425  13.695  2.8460 -0.1905 -2.1496
  450TMC3    C7 6710   1.695   3.446  13.936  0.7798 -0.3293  0.5364
  450TMC3    C8 6711   1.767   3.536  13.519 -0.3691 -0.4373  0.7271
  450TMC3    O1 6712   1.694   3.329  13.881  0.0699 -0.7222  0.1669
  450TMC3    O2 6713   1.697   3.454  13.460 -0.9534  0.6746 -0.0382
  451MPD2     C 6714   3.133   2.109   1.779 -0.2292 -0.3345  0.2858
  451MPD2    C1 6715   3.188   2.180   1.674 -0.2951 -0.4857  0.0247
  451MPD2    C2 6716   3.286   2.115   1.596  0.3635  0.4606  0.2308
  451MPD2    C3 6717   3.320   1.985   1.629  0.1410 -0.3592 -0.3765
  451MPD2    C4 6718   3.261   1.924   1.735  0.2871 -0.2491 -0.3042
  451MPD2    C5 6719   3.166   1.982   1.808  0.5165  0.3595 -0.0246
  451MPD2     H 6720   3.323   2.159   1.504 -0.5722 -0.5015 -0.6081
  451MPD2    H1 6721   3.278   1.820   1.759  0.6875 -0.3075 -0.8292
  451MPD2    H2 6722   3.059   2.151   1.846 -0.5732  0.1301 -0.3881
  451MPD2    H3 6723   3.118   1.932   1.891  1.6019  0.5496  0.7155
  451MPD2     N 6724   3.441   1.928   1.581  0.7008  0.0692  0.1242
  451MPD2    H5 6725   3.453   1.830   1.606 -1.3262 -0.3104 -0.3766
  451MPD2    N1 6726   3.131   2.305   1.642  0.3791 -0.2149  0.2133
  451MPD2    H7 6727   3.047   2.322   1.697 -0.0446  1.9140 -1.0785
  452TMC3    C1 6728   3.647   1.913   1.483  0.1203  0.4021 -0.6418
  452TMC3    C2 6729   3.695   1.846   1.589  0.4991 -0.1937 -0.5438
  452TMC3    C3 6730   3.818   1.785   1.584 -0.2261  0.1323 -0.8964
  452TMC3    C4 6731   3.722   1.921   1.369  0.1093 -0.0296 -0.4227
  452TMC3    C5 6732   3.843   1.855   1.358 -0.2178  0.3811  0.2755
  452TMC3    C6 6733   3.894   1.781   1.466 -0.2607 -0.0981  0.0543
  452TMC3     C 6734   3.526   1.992   1.496  0.2626  0.3349 -0.4614
  452TMC3     O 6735   3.515   2.092   1.430 -0.6223 -0.0307 -0.0662
  452TMC3     H 6736   3.649   1.867   1.685 -1.8971  1.9001 -2.1447
  452TMC3    H1 6737   3.686   1.985   1.289  0.8568  0.3106 -0.4865
  452TMC3    H2 6738   3.975   1.710   1.449 -2.0667 -2.1493 -0.0209
  452TMC3    C7 6739   3.935   1.885   1.243  0.0373 -0.2661  0.1596
  452TMC3    C8 6740   3.861   1.703   1.700 -0.0845  0.4168  0.5023
  452TMC3    O1 6741   3.916   1.988   1.176 -0.4832  0.1972 -0.1227
  452TMC3    O2 6742   3.763   1.661   1.765  0.2417  0.1931 -0.0658
  453TMC3    C1 6743   4.617   0.279  11.440  0.6005  0.5999 -0.0951
  453TMC3    C2 6744   4.495   0.315  11.492 -0.0445 -0.2040 -0.7520
  453TMC3    C3 6745   4.397   0.349  11.397  0.2553  0.4749  0.4982
  453TMC3    C4 6746   4.640   0.271  11.305 -0.3210  0.2538 -0.4275
  453TMC3    C5 6747   4.531   0.299  11.221 -0.4887  0.4415  0.0169
  453TMC3    C6 6748   4.416   0.343  11.267 -0.1192  0.0765  0.3633
  453TMC3     C 6749   0.007   0.242  11.533 -0.6662 -0.5191  0.2254
  453TMC3     O 6750   0.110   0.212  11.478 -0.3374 -0.3556  0.7112
  453TMC3     H 6751   4.485   0.338  11.598 -1.1761  2.1429 -1.3671
  453TMC3    H1 6752   0.014   0.227  11.278 -1.7569 -3.3381  0.3768
  453TMC3    H2 6753   4.338   0.359  11.194  0.6771  1.0225 -0.2759
  453TMC3    C7 6754   4.530   0.241  11.092 -0.8205 -0.3805 -0.1136
  453TMC3    C8 6755   4.259   0.352  11.445 -0.3167  0.4575  0.4811
  453TMC3    O1 6756   4.421   0.218  11.041 -0.0910  0.5092  0.0196
  453TMC3    O2 6757   4.179   0.406  11.370 -0.1081  0.1118 -0.0923
  454MPD2     C 6758   3.812   3.851  16.907 -0.3481 -0.2165 -0.0387
  454MPD2    C1 6759   3.766   3.964  16.855  0.0727  0.0374  0.2142
  454MPD2    C2 6760   3.719   4.064  16.939  0.4723 -0.0266  0.0351
  454MPD2    C3 6761   3.711   4.043  17.076 -0.2844 -0.2456  0.1079
  454MPD2    C4 6762   3.754   3.923  17.128 -0.2171  0.0873 -0.3577
  454MPD2    C5 6763   3.809   3.830  17.043 -0.1364 -0.6651 -0.0170
  454MPD2     H 6764   3.694   4.159  16.893 -0.2239 -1.1307 -1.8431
  454MPD2    H1 6765   3.744   3.899  17.234  2.6387  3.2481  0.6489
  454MPD2    H2 6766   3.860   3.781  16.840 -2.6832 -0.4177 -1.5281
  454MPD2    H3 6767   3.862   3.742  17.076  0.2634  0.1968  1.5990
  454MPD2     N 6768   3.655   4.139  17.165  0.1036  0.2605 -0.3892
  454MPD2    H5 6769   3.674   4.116  17.262 -0.3062  2.7141  0.2759
  454MPD2    N1 6770   3.747   3.979  16.715  0.0480 -0.8317  0.1393
  454MPD2    H7 6771   3.734   4.076  16.691 -2.0002 -0.8173  1.2491
  455TMC3    C1 6772   3.517   4.260  17.020  0.2178  0.1730  0.1586
  455TMC3    C2 6773   3.492   4.378  16.952  1.0881 -0.4592  0.5105
  455TMC3    C3 6774   3.384   4.387  16.872  0.2615 -0.2077 -0.0921
  455TMC3    C4 6775   3.438   4.146  16.984 -0.1463 -0.0359  0.0480
  455TMC3    C5 6776   3.340   4.155  16.892  0.8229  0.7913 -0.3283
  455TMC3    C6 6777   3.305   4.278  16.843 -0.2671  0.1448 -0.1533
  455TMC3     C 6778   3.602   4.265  17.134 -0.2085 -0.6299  0.2431
  455TMC3     O 6779   3.598   4.363  17.203 -0.4048  0.3994 -0.4366
  455TMC3     H 6780   3.539   4.466  16.993 -0.2467  0.9830 -1.0928
  455TMC3    H1 6781   3.456   4.056  17.042  1.1252  0.3604  0.2600
  455TMC3    H2 6782   3.221   4.282  16.774  0.2508 -1.5867 -0.8988
  455TMC3    C7 6783   3.308   4.043  16.816 -0.1630 -0.5298 -0.0686
  455TMC3    C8 6784   3.332   4.520  16.873 -0.0525  0.6438  0.1673
  455TMC3    O1 6785   3.207   4.056  16.749  0.9282 -0.2825 -0.3582
  455TMC3    O2 6786   3.410   4.605  16.911 -0.6222 -0.4116  0.4792
  456MPD2     C 6787   1.227   4.135  16.793  0.2828  0.2216  0.0768
  456MPD2    C1 6788   1.327   4.133  16.888 -0.0349  0.1962  0.2628
  456MPD2    C2 6789   1.328   4.229  16.986  0.5401  0.2233  0.0817
  456MPD2    C3 6790   1.242   4.337  16.988  0.1387  0.3640 -0.3124
  456MPD2    C4 6791   1.149   4.342  16.889 -0.1277 -0.4282  0.2807
  456MPD2    C5 6792   1.139   4.243  16.800  0.6656  0.4017 -0.5389
  456MPD2     H 6793   1.401   4.217  17.065  1.3683  0.0349 -0.7039
  456MPD2    H1 6794   1.068   4.414  16.891  0.4117  0.1563  1.4965
  456MPD2    H2 6795   1.217   4.064  16.712  0.6455  1.0755 -0.7213
  456MPD2    H3 6796   1.052   4.249  16.735 -0.6124  0.1332  1.1596
  456MPD2     N 6797   1.270   4.443  17.075 -0.6753 -0.3788  0.6766
  456MPD2    H5 6798   1.350   4.426  17.134 -0.7370  2.5356  1.5881
  456MPD2    N1 6799   1.422   4.037  16.871  0.3381  0.0671  0.2812
  456MPD2    H7 6800   1.404   3.970  16.797 -0.0255 -1.1595  1.4906
  457TMC3    C1 6801   1.287   4.662  17.154 -0.1599 -0.3635 -0.2169
  457TMC3    C2 6802   1.248   0.071  17.160  0.8296  0.1973 -0.5495
  457TMC3    C3 6803   1.307   0.154  17.250 -0.2482 -0.5482 -0.2212
  457TMC3    C4 6804   1.379   4.616  17.247 -0.2355 -0.0889 -0.9484
  457TMC3    C5 6805   1.422   4.703  17.350 -0.0388 -0.2075 -0.2061
  457TMC3    C6 6806   1.387   0.116  17.353 -0.0753 -0.4231  0.5096
  457TMC3     C 6807   1.217   4.571  17.069 -0.3671 -0.2748 -0.3993
  457TMC3     O 6808   1.142   4.622  16.987 -0.1406  0.0634  0.0391
  457TMC3     H 6809   1.168   0.102  17.094  0.3281 -0.4305 -0.2338
  457TMC3    H1 6810   1.426   4.519  17.236 -0.6477 -0.2538 -1.2348
  457TMC3    H2 6811   1.425   0.183  17.429  0.6333 -0.1532 -0.0821
  457TMC3    C7 6812   1.497   4.637  17.455  0.4870 -0.0984  0.2132
  457TMC3    C8 6813   1.241   0.284  17.277  0.8525  0.5124  0.3205
  457TMC3    O1 6814   1.501   4.516  17.455  0.4124  0.2679  0.5295
  457TMC3    O2 6815   1.216   0.318  17.394 -0.1373 -1.1652  0.1816
  458MPD2     C 6816   3.574   3.813  12.511 -0.7825 -0.4192 -0.6349
  458MPD2    C1 6817   3.593   3.723  12.606 -0.1916 -0.5784  0.4727
  458MPD2    C2 6818   3.485   3.640  12.645 -0.3085  0.0329  0.4382
  458MPD2    C3 6819   3.361   3.657  12.597  0.4061  0.1966  0.2223
  458MPD2    C4 6820   3.345   3.749  12.494 -0.4155 -0.0905  0.5220
  458MPD2    C5 6821   3.455   3.820  12.446  0.3206  0.0206  0.2020
  458MPD2     H 6822   3.489   3.574  12.730  1.4484  1.7773  1.7030
  458MPD2    H1 6823   3.250   3.759  12.442 -0.6175  0.0368  0.9141
  458MPD2    H2 6824   3.646   3.886  12.476 -0.7872  0.2826  0.8322
  458MPD2    H3 6825   3.440   3.884  12.359 -1.5314 -1.4393 -0.5547
  458MPD2     N 6826   3.261   3.571  12.644 -0.6908 -0.0322 -0.1967
  458MPD2    H5 6827   3.293   3.499  12.708 -1.2705  1.2519  1.5370
  458MPD2    N1 6828   3.723   3.724  12.658 -0.5881 -0.4913  0.5855
  458MPD2    H7 6829   3.783   3.804  12.640 -0.4014 -0.8678 -0.4327
  459TMC3    C1 6830   3.877   3.687  12.831 -0.1302  1.1140  0.6397
  459TMC3    C2 6831   3.962   3.784  12.773  0.1869  0.1340  0.2031
  459TMC3    C3 6832   4.082   3.792  12.825 -0.3304  0.1453  0.0846
  459TMC3    C4 6833   3.902   3.610  12.944  0.3375  0.0274 -0.1979
  459TMC3    C5 6834   4.026   3.632  13.001  0.1053  0.7305  0.3132
  459TMC3    C6 6835   4.115   3.720  12.941  0.0739  0.0626  0.1054
  459TMC3     C 6836   3.762   3.634  12.756  0.1453 -0.0647 -0.3909
  459TMC3     O 6837   3.713   3.525  12.793 -0.3321 -0.1302 -0.4237
  459TMC3     H 6838   3.952   3.813  12.670  0.7781  2.9395  0.9379
  459TMC3    H1 6839   3.828   3.554  12.999 -0.3363 -1.1084 -2.2810
  459TMC3    H2 6840   4.216   3.725  12.981 -0.3363 -0.1503  1.1632
  459TMC3    C7 6841   4.049   3.559  13.121 -0.7520  0.3799  0.1372
  459TMC3    C8 6842   4.157   3.906  12.788  0.8877  0.0526 -0.0006
  459TMC3    O1 6843   3.980   3.461  13.139 -0.2833 -0.0641  0.2279
  459TMC3    O2 6844   4.281   3.901  12.807  0.0761  0.3405 -0.5455
  460MPD2     C 6845   2.855   1.294  10.737  0.1038  0.5971 -0.4856
  460MPD2    C1 6846   2.802   1.182  10.673  0.1539  0.2118 -0.2428
  460MPD2    C2 6847   2.711   1.203  10.568 -0.2516  0.1758  0.2334
  460MPD2    C3 6848   2.687   1.330  10.525  0.6228 -0.4227 -0.0718
  460MPD2    C4 6849   2.728   1.442  10.592  0.2455  0.8266 -0.3073
  460MPD2    C5 6850   2.807   1.421  10.697  0.6671  0.0644 -0.5513
  460MPD2     H 6851   2.662   1.123  10.514  0.1772  0.0826 -0.0226
  460MPD2    H1 6852   2.701   1.545  10.571  0.9794  0.9066 -0.8519
  460MPD2    H2 6853   2.913   1.290  10.828 -0.2948  0.2419 -0.2461
  460MPD2    H3 6854   2.843   1.505  10.757  0.1794 -1.2800  1.6343
  460MPD2     N 6855   2.609   1.344  10.407  0.1900  0.8686  0.6900
  460MPD2    H5 6856   2.567   1.259  10.370  0.4134  0.0450  2.3701
  460MPD2    N1 6857   2.821   1.056  10.734 -0.7527  0.4601 -0.0636
  460MPD2    H7 6858   2.892   1.065  10.807 -0.3716 -0.3137 -0.3376
  461TMC3    C1 6859   2.532   1.441  10.205  0.1877  0.0717  0.1756
  461TMC3    C2 6860   2.522   1.317  10.140  0.3156 -0.5789  0.7261
  461TMC3    C3 6861   2.462   1.323  10.019 -0.1876  0.5426  0.5761
  461TMC3    C4 6862   2.489   1.558  10.152  0.4044  0.2688 -0.5169
  461TMC3    C5 6863   2.424   1.559  10.032  0.2763  0.6548  0.2740
  461TMC3    C6 6864   2.416   1.440   9.962 -0.3117  0.8745  0.3264
  461TMC3     C 6865   2.602   1.461  10.327  0.8019  0.4160  0.0843
  461TMC3     O 6866   2.643   1.573  10.356  0.1235 -0.2215 -0.4741
  461TMC3     H 6867   2.558   1.222  10.178 -1.3031 -1.6894 -0.5302
  461TMC3    H1 6868   2.503   1.654  10.200  1.2521 -0.8186  1.4177
  461TMC3    H2 6869   2.362   1.434   9.868  2.6091 -1.2587 -1.2161
  461TMC3    C7 6870   2.344   1.670   9.985 -0.5544  0.2057  0.5558
  461TMC3    C8 6871   2.508   1.224   9.922 -0.7133  0.9501  0.1015
  461TMC3    O1 6872   2.299   1.671   9.870  0.2227 -0.2261  0.4843
  461TMC3    O2 6873   2.625   1.196   9.945  0.0051 -0.3160 -0.5960
  462TMC3    C1 6874   2.912   2.172   0.653 -0.0465 -0.1711 -0.0689
  462TMC3    C2 6875   2.988   2.058   0.657 -0.5753 -0.1154  0.3255
  462TMC3    C3 6876   2.935   1.949   0.597 -0.1867  0.0179 -0.0957
  462TMC3    C4 6877   2.787   2.168   0.598 -0.0291  0.5646 -0.4339
  462TMC3    C5 6878   2.730   2.048   0.563 -0.2098 -0.6945  0.7273
  462TMC3    C6 6879   2.810   1.941   0.548  0.8541  0.2937 -1.1570
  462TMC3     C 6880   2.956   2.292   0.715  0.0240 -0.0843  0.6557
  462TMC3     O 6881   2.909   2.401   0.692 -0.5397  0.4129  0.1854
  462TMC3     H 6882   3.089   2.054   0.696 -0.6037 -2.7363  0.1152
  462TMC3    H1 6883   2.730   2.260   0.590 -1.0060 -0.0521 -0.4454
  462TMC3    H2 6884   2.769   1.842   0.531  1.2198 -0.3074  1.3982
  462TMC3    C7 6885   2.587   2.030   0.533 -0.1958 -0.0861 -0.2870
  462TMC3    C8 6886   3.021   1.829   0.603 -0.1579 -0.0745 -0.2398
  462TMC3    O1 6887   2.555   1.917   0.502  0.1777  0.2127  0.0797
  462TMC3    O2 6888   3.080   1.794   0.703  0.1754 -0.4016 -0.0046
  463MPD2     C 6889   3.754   1.030   1.907  0.4637  0.3182  0.5307
  463MPD2    C1 6890   3.680   0.936   1.978 -0.2396 -0.4586  0.3368
  463MPD2    C2 6891   3.747   0.835   2.036 -0.4900  0.0054  0.1722
  463MPD2    C3 6892   3.884   0.816   2.013 -0.1448 -0.0268  0.0357
  463MPD2    C4 6893   3.957   0.914   1.943 -0.0694 -0.0077  0.3799
  463MPD2    C5 6894   3.889   1.014   1.885 -0.5220  0.1406  0.3812
  463MPD2     H 6895   3.691   0.754   2.082  0.4071 -0.9330 -0.3823
  463MPD2    H1 6896   4.058   0.893   1.910 -0.4968  1.7617 -2.0946
  463MPD2    H2 6897   3.713   1.124   1.873 -1.4105 -0.6510  0.1362
  463MPD2    H3 6898   3.944   1.094   1.838 -0.1540 -0.6642 -0.5709
  463MPD2     N 6899   3.958   0.695   2.045 -0.4113 -0.1708  0.1727
  463MPD2    H5 6900   4.056   0.695   2.018 -0.5662  1.1032 -0.3558
  463MPD2    N1 6901   3.536   0.933   1.991 -0.5802 -0.1127 -0.1997
  463MPD2    H7 6902   3.491   0.848   2.025 -1.9518  0.4013 -0.7248
  464TMC3    C1 6903   3.312   1.031   1.957 -0.6480 -0.6958 -0.3359
  464TMC3    C2 6904   3.251   1.137   1.904  0.6153 -0.4172 -0.0242
  464TMC3    C3 6905   3.113   1.133   1.879 -0.3772 -0.1695 -0.9098
  464TMC3    C4 6906   3.246   0.922   1.999 -0.6689 -0.0163  0.5117
  464TMC3    C5 6907   3.106   0.921   1.985 -0.1777 -0.1071 -1.6737
  464TMC3    C6 6908   3.052   1.018   1.912 -0.6374  0.0513  0.1443
  464TMC3     C 6909   3.461   1.039   1.959 -0.8788  0.3666 -0.4315
  464TMC3     O 6910   3.503   1.153   1.960 -0.7751  0.5256 -0.7842
  464TMC3     H 6911   3.301   1.229   1.873  2.1881 -1.2082  0.1957
  464TMC3    H1 6912   3.294   0.826   2.011  0.3614  0.3923 -0.3618
  464TMC3    H2 6913   2.945   1.007   1.896 -0.5465  0.2241 -0.5770
  464TMC3    C7 6914   3.029   0.820   2.047  0.5058  0.1945 -0.8938
  464TMC3    C8 6915   3.060   1.224   1.786 -0.1497  0.3126  0.6986
  464TMC3    O1 6916   3.088   0.766   2.143 -0.6967 -0.3278  0.1575
  464TMC3    O2 6917   3.134   1.311   1.749  0.4033 -0.5455  0.2911
  465MPD2     C 6918   0.973   4.275  17.170 -0.1248 -0.0038 -0.5475
  465MPD2    C1 6919   0.877   4.378  17.170  0.0429 -0.2293 -0.2109
  465MPD2    C2 6920   0.763   4.357  17.095  0.5313  0.2537  0.0656
  465MPD2    C3 6921   0.740   4.231  17.039  0.4887 -1.3234  0.2344
  465MPD2    C4 6922   0.838   4.135  17.037  0.5600 -0.0050  0.0073
  465MPD2    C5 6923   0.952   4.161  17.101 -0.3959  0.3362  0.0402
  465MPD2     H 6924   0.683   4.429  17.099 -0.1404 -0.6154  2.0312
  465MPD2    H1 6925   0.830   4.044  16.978  2.2320  0.1496 -0.4566
  465MPD2    H2 6926   1.064   4.285  17.228 -0.3674 -1.9886  0.1400
  465MPD2    H3 6927   1.036   4.092  17.091  0.6339  1.3177  2.0834
  465MPD2     N 6928   0.613   4.214  16.973 -1.3288  0.3613  0.9558
  465MPD2    H5 6929   0.542   4.284  16.993 -1.1575  0.6764  0.4622
  465MPD2    N1 6930   0.896   4.499  17.232 -0.1592 -0.5173 -0.2807
  465MPD2    H7 6931   0.808   4.550  17.234  0.1881  0.1558 -2.0643
  466TMC3    C1 6932   0.217   4.019  16.940 -0.1525  0.3032  1.0502
  466TMC3    C2 6933   0.161   4.106  16.850  0.4476 -0.0468  0.5338
  466TMC3    C3 6934   0.250   4.180  16.774 -0.0734 -0.6519 -0.7086
  466TMC3    C4 6935   0.352   4.010  16.955  0.1560 -0.2279 -0.1500
  466TMC3    C5 6936   0.428   4.101  16.898 -0.3561 -0.0684  0.1036
  466TMC3    C6 6937   0.381   4.198  16.812 -0.5948  0.0950 -0.3220
  466TMC3     C 6938   0.143   3.973  17.060  0.4733 -0.0534  0.4227
  466TMC3     O 6939   0.211   3.913  17.142  0.1554  0.9428 -0.1653
  466TMC3     H 6940   0.056   4.098  16.824  1.6032 -1.4127 -3.6722
  466TMC3    H1 6941   0.406   3.934  17.009  2.1185  1.2353 -0.0328
  466TMC3    H2 6942   0.448   4.260  16.754  1.1224  0.5824  2.1413
  466TMC3    C7 6943   0.569   4.088  16.925  0.1339 -0.1674 -0.0250
  466TMC3    C8 6944   0.192   4.301  16.726  0.2086 -0.0788  0.0459
  466TMC3    O1 6945   0.624   3.984  16.896 -0.5933 -0.3744  0.6261
  466TMC3    O2 6946   0.244   4.409  16.751  0.1622  0.3610  0.0051
  467TMC3    C1 6947   0.693   2.956  13.793 -0.0269 -0.9591 -0.2549
  467TMC3    C2 6948   0.723   2.918  13.659 -0.0453 -0.8802 -0.4241
  467TMC3    C3 6949   0.629   2.952  13.567  0.3058  0.0016 -0.0429
  467TMC3    C4 6950   0.574   3.009  13.826  0.2314 -0.3981  0.0570
  467TMC3    C5 6951   0.474   3.022  13.738 -0.7914 -0.6513 -0.1970
  467TMC3    C6 6952   0.506   3.005  13.606  0.1871 -0.3531  0.0823
  467TMC3     C 6953   0.766   2.896  13.901  0.4407 -0.1915  0.2408
  467TMC3     O 6954   0.775   2.952  14.009  0.1083 -0.0821  0.6580
  467TMC3     H 6955   0.826   2.896  13.632  0.4544 -1.0435  1.5974
  467TMC3    H1 6956   0.561   3.029  13.932 -0.4864  0.4307 -0.1894
  467TMC3    H2 6957   0.434   3.032  13.530  2.7390  0.3310 -2.0669
  467TMC3    C7 6958   0.338   3.044  13.780  0.1558 -0.6539 -0.2510
  467TMC3    C8 6959   0.646   2.958  13.421  0.1637 -0.2970  0.0910
  467TMC3    O1 6960   0.266   3.093  13.696  0.2813 -0.1178 -0.1894
  467TMC3    O2 6961   0.606   3.051  13.348 -0.4251  0.3507 -0.5442
  468MPD2     C 6962   4.340   0.935  11.036 -0.4584  0.4368 -0.4130
  468MPD2    C1 6963   4.472   0.917  10.999 -0.3765  0.1896  0.5677
  468MPD2    C2 6964   4.499   0.795  10.935 -0.3813 -0.5640  0.3620
  468MPD2    C3 6965   4.397   0.697  10.912  0.0045  0.1965  0.5996
  468MPD2    C4 6966   4.271   0.724  10.957 -0.3191  0.3113  0.0805
  468MPD2    C5 6967   4.242   0.848  11.005 -0.2318 -0.4801  0.4186
  468MPD2     H 6968   4.599   0.766  10.907 -0.4473  1.6027 -2.0561
  468MPD2    H1 6969   4.192   0.650  10.944  0.3540  0.0014 -2.2087
  468MPD2    H2 6970   4.297   1.023  11.082 -0.7618  0.3799 -0.5849
  468MPD2    H3 6971   4.137   0.870  11.018 -0.4371 -0.3780 -1.4333
  468MPD2     N 6972   4.420   0.566  10.864  0.0357 -0.4408  0.4206
  468MPD2    H5 6973   4.345   0.500  10.875  0.0088 -0.3070  1.0382
  468MPD2    N1 6974   4.577   1.008  11.028 -0.3032 -0.1349 -0.5299
  468MPD2    H7 6975   4.673   0.976  11.011 -0.9171 -2.9708  1.3047
  469TMC3    C1 6976   4.672   1.197  11.149  0.4094  0.3499 -0.0378
  469TMC3    C2 6977   0.080   1.174  11.107  0.7856 -0.0868  0.2931
  469TMC3    C3 6978   0.181   1.250  11.163 -0.2428 -0.2266 -0.3516
  469TMC3    C4 6979   4.646   1.299  11.239 -0.0934 -0.1711 -0.0777
  469TMC3    C5 6980   0.030   1.368  11.295  0.8381  0.2726 -0.1206
  469TMC3    C6 6981   0.164   1.340  11.264  0.4591  0.0855 -0.3189
  469TMC3     C 6982   4.550   1.126  11.100  0.5209 -0.1319 -0.8095
  469TMC3     O 6983   4.444   1.184  11.123  0.0975  0.2323  0.6424
  469TMC3     H 6984   0.104   1.098  11.034 -2.3697 -0.1794 -0.6266
  469TMC3    H1 6985   4.545   1.310  11.275 -0.1478 -0.4262 -0.1563
  469TMC3    H2 6986   0.243   1.394  11.314 -0.5614  2.0093 -0.8006
  469TMC3    C7 6987   4.719   1.466  11.399 -0.2481  0.3432  0.0278
  469TMC3    C8 6988   0.311   1.230  11.112 -0.9188  0.1501  0.2608
  469TMC3    O1 6989   4.602   1.500  11.401 -0.4421 -0.1521  0.0750
  469TMC3    O2 6990   0.329   1.187  11.001  0.1974  0.2278  0.1719
  470TMC3    C1 6991   2.328   2.215   0.833  0.2551  0.7810 -0.5900
  470TMC3    C2 6992   2.283   2.343   0.787  0.1599 -0.3589  0.0292
  470TMC3    C3 6993   2.362   2.454   0.822  0.2536  0.0885  0.5939
  470TMC3    C4 6994   2.447   2.205   0.897 -0.4510  0.3692  0.3378
  470TMC3    C5 6995   2.520   2.317   0.933 -0.0447 -0.1716 -0.3750
  470TMC3    C6 6996   2.482   2.440   0.890  0.1569 -1.0374 -0.1535
  470TMC3     C 6997   2.274   2.083   0.791  0.6097  0.1226  0.3203
  470TMC3     O 6998   2.352   1.992   0.774 -0.1281  0.1500 -0.0994
  470TMC3     H 6999   2.186   2.355   0.740  0.2946  2.0718  0.3973
  470TMC3    H1 7000   2.468   2.101   0.919 -0.1765  0.7316  1.8139
  470TMC3    H2 7001   2.545   2.526   0.908 -2.0587  0.3274  1.1584
  470TMC3    C7 7002   2.646   2.305   1.007  0.5065 -0.0898 -0.4132
  470TMC3    C8 7003   2.303   2.594   0.828  0.6975  0.2114  0.0915
  470TMC3    O1 7004   2.732   2.392   0.991 -0.2273  0.3550 -0.5552
  470TMC3    O2 7005   2.182   2.592   0.845  0.0496  0.1888 -0.8478
  471MPD2     C 7006   2.428   3.462  16.587  0.1368 -0.5752 -0.3387
  471MPD2    C1 7007   2.414   3.327  16.614  0.2107  0.4431  0.2018
  471MPD2    C2 7008   2.467   3.277  16.727  0.2266 -0.1520  0.6306
  471MPD2    C3 7009   2.557   3.353  16.799 -0.1598  0.2069  0.3640
  471MPD2    C4 7010   2.582   3.485  16.768  0.2758 -0.4566  0.2855
  471MPD2    C5 7011   2.510   3.543  16.658  0.3471  0.0339  0.2246
  471MPD2     H 7012   2.454   3.174  16.758  1.2813 -0.4060  0.2516
  471MPD2    H1 7013   2.651   3.534  16.835 -1.6822  0.9269  1.2836
  471MPD2    H2 7014   2.359   3.501  16.513  1.9796  0.7566 -1.3299
  471MPD2    H3 7015   2.522   3.643  16.618  0.2110 -0.1046 -0.1685
  471MPD2     N 7016   2.627   3.313  16.912 -0.0885 -0.2118 -0.2367
  471MPD2    H5 7017   2.701   3.372  16.949  0.1575 -0.7509  0.1322
  471MPD2    N1 7018   2.337   3.235  16.535 -0.4032 -0.5380  0.2651
  471MPD2    H7 7019   2.325   3.143  16.577 -0.3059 -0.0706  1.3181
  472TMC3    C1 7020   2.220   3.147  16.362 -0.5562  0.0084 -0.3202
  472TMC3    C2 7021   2.131   3.162  16.258 -0.1859  0.0573  0.1073
  472TMC3    C3 7022   2.088   3.044  16.201 -0.2509  0.0754  1.1897
  472TMC3    C4 7023   2.261   3.019  16.404  0.1847  0.9446 -0.0757
  472TMC3    C5 7024   2.209   2.911  16.340  0.3354 -0.4717  0.6971
  472TMC3    C6 7025   2.120   2.917  16.240 -0.5298 -0.0649  0.1983
  472TMC3     C 7026   2.264   3.272  16.424 -0.0428  0.3137  0.5254
  472TMC3     O 7027   2.232   3.381  16.384 -0.7068 -0.6894  0.3912
  472TMC3     H 7028   2.105   3.263  16.229  4.4277  0.1601 -3.5391
  472TMC3    H1 7029   2.341   3.002  16.475  0.4331 -1.3843 -0.9224
  472TMC3    H2 7030   2.066   2.828  16.209  0.0814  0.0356 -1.1422
  472TMC3    C7 7031   2.276   2.781  16.363 -0.4924  0.4462 -0.6459
  472TMC3    C8 7032   1.962   3.067  16.130 -0.1751 -0.1624 -0.1022
  472TMC3    O1 7033   2.334   2.770  16.470  0.5542 -0.6969 -0.1282
  472TMC3    O2 7034   1.962   3.172  16.067  0.0229  0.3064 -0.2634
  473MPD2     C 7035   3.060   0.728  13.638  0.8707  0.1059  0.1040
  473MPD2    C1 7036   2.928   0.734  13.680  0.0321  0.0979 -0.4023
  473MPD2    C2 7037   2.895   0.820  13.787  0.5288 -0.1773  0.9791
  473MPD2    C3 7038   2.995   0.886  13.858 -0.2523 -0.2901  0.7708
  473MPD2    C4 7039   3.126   0.875  13.818  0.5395 -0.4849  0.6150
  473MPD2    C5 7040   3.157   0.791  13.712 -0.2605 -0.1668  0.2745
  473MPD2     H 7041   2.791   0.829  13.814 -0.5186  1.8579 -3.8050
  473MPD2    H1 7042   3.207   0.915  13.878  0.3968 -2.0346  1.8458
  473MPD2    H2 7043   3.084   0.688  13.541 -0.7267  0.9256 -0.6261
  473MPD2    H3 7044   3.262   0.785  13.689 -0.6714 -0.8042 -1.4109
  473MPD2     N 7045   2.961   0.967  13.969  0.5088  0.5920 -0.3059
  473MPD2    H5 7046   3.038   1.015  14.015 -0.0903 -0.0476  1.3590
  473MPD2    N1 7047   2.826   0.645  13.629  0.5607  0.2775  0.1465
  473MPD2    H7 7048   2.730   0.654  13.660  0.1727 -0.9460 -0.7237
  474TMC3    C1 7049   2.845   1.078  14.136 -0.4708  0.2961  0.7273
  474TMC3    C2 7050   2.737   1.166  14.148 -0.8677 -0.7511 -0.3573
  474TMC3    C3 7051   2.744   1.262  14.246 -0.4491  0.6436  0.2952
  474TMC3    C4 7052   2.958   1.085  14.217 -0.1231 -0.2012  0.7010
  474TMC3    C5 7053   2.942   1.168  14.328  0.2101  1.0530 -0.0479
  474TMC3    C6 7054   2.846   1.261  14.337 -0.2567  0.0752  0.3446
  474TMC3     C 7055   2.837   0.988  14.030 -0.3878  0.1137 -0.5952
  474TMC3     O 7056   2.727   0.937  14.010 -0.1671  0.0942  0.4274
  474TMC3     H 7057   2.654   1.142  14.082  0.3826 -1.1234 -1.7960
  474TMC3    H1 7058   3.041   1.017  14.209 -0.4089 -0.4547 -0.1106
  474TMC3    H2 7059   2.833   1.324  14.425  2.7388  0.6644  0.3619
  474TMC3    C7 7060   3.055   1.194  14.412 -0.3174 -0.3012 -0.3996
  474TMC3    C8 7061   2.646   1.360  14.241  0.4423  0.0959  0.2152
  474TMC3    O1 7062   3.158   1.228  14.356 -0.7566 -0.0764 -0.3130
  474TMC3    O2 7063   2.567   1.347  14.145  0.3781 -0.3973 -0.5541
  475MPD2     C 7064   1.553   3.523   9.862  0.0975  0.0425 -0.0577
  475MPD2    C1 7065   1.476   3.609   9.782 -0.5907  0.3445 -0.1480
  475MPD2    C2 7066   1.356   3.661   9.825  0.4557  0.1983  0.4435
  475MPD2    C3 7067   1.310   3.637   9.954  0.1428  0.3546 -0.8156
  475MPD2    C4 7068   1.395   3.561  10.038  0.1505 -0.5777  0.3987
  475MPD2    C5 7069   1.510   3.502   9.996 -0.0130 -0.4457 -0.3060
  475MPD2     H 7070   1.300   3.732   9.765  3.0549  2.2105  0.4017
  475MPD2    H1 7071   1.365   3.536  10.139  1.2848 -4.4582 -0.2131
  475MPD2    H2 7072   1.630   3.459   9.822 -0.8086 -1.2083  0.2060
  475MPD2    H3 7073   1.555   3.432  10.065  1.6679  1.7794  0.8701
  475MPD2     N 7074   1.190   3.705   9.986 -0.0051  0.8052  0.2060
  475MPD2    H5 7075   1.135   3.746   9.911  0.0254  0.4452 -0.0103
  475MPD2    N1 7076   1.525   3.627   9.654 -0.2713 -0.4949 -0.8814
  475MPD2    H7 7077   1.616   3.585   9.640  0.1738  0.1691  0.0536
  476TMC3    C1 7078   1.555   3.771   9.466  0.0976 -0.0799  0.2835
  476TMC3    C2 7079   1.480   3.843   9.378 -0.1793 -0.7370  0.1303
  476TMC3    C3 7080   1.471   3.978   9.384 -0.3195  0.3048 -0.1443
  476TMC3    C4 7081   1.643   3.840   9.539  0.7873  0.0667 -0.2764
  476TMC3    C5 7082   1.657   3.978   9.533  0.3962 -0.0673 -0.5173
  476TMC3    C6 7083   1.563   4.048   9.457 -0.4135 -0.7141  0.1854
  476TMC3     C 7084   1.458   3.705   9.554  0.3410 -0.6703  0.0183
  476TMC3     O 7085   1.341   3.744   9.551 -0.7049 -0.2456 -0.5820
  476TMC3     H 7086   1.403   3.796   9.317  0.3250  0.2545 -1.2874
  476TMC3    H1 7087   1.704   3.784   9.609  0.5761 -0.4712 -0.5277
  476TMC3    H2 7088   1.548   4.154   9.469  0.1739 -0.6972  0.7617
  476TMC3    C7 7089   1.716   4.039   9.658 -0.1968  0.4267 -0.3349
  476TMC3    C8 7090   1.336   4.033   9.364 -1.0556  0.1456  0.7018
  476TMC3    O1 7091   1.836   4.051   9.666  0.2214  0.0649 -0.4348
  476TMC3    O2 7092   1.325   4.152   9.357 -0.1729 -0.1407 -0.3962
  477MPD2     C 7093   3.588   0.490  11.728  0.1469 -0.3262  0.5890
  477MPD2    C1 7094   3.479   0.410  11.743 -0.2588  0.7076  0.2655
  477MPD2    C2 7095   3.482   0.315  11.843  1.0071  0.3000  0.3673
  477MPD2    C3 7096   3.580   0.312  11.939 -0.0419  0.3592 -0.0593
  477MPD2    C4 7097   3.683   0.402  11.934  0.2672 -0.1712 -0.6178
  477MPD2    C5 7098   3.685   0.479  11.823 -0.5411 -0.0883 -0.0636
  477MPD2     H 7099   3.399   0.246  11.853  0.2674  0.7023 -3.0092
  477MPD2    H1 7100   3.766   0.400  12.004  0.6134  0.2390 -1.0178
  477MPD2    H2 7101   3.598   0.562  11.648 -1.0463 -1.4242 -0.5509
  477MPD2    H3 7102   3.784   0.523  11.813 -0.6164 -0.2746 -1.6062
  477MPD2     N 7103   3.566   0.203  12.028  0.5167  0.1919  0.0915
  477MPD2    H5 7104   3.476   0.156  12.022  0.4956  0.3233 -0.6737
  477MPD2    N1 7105   3.379   0.414  11.635  0.1016 -0.4620 -0.2014
  477MPD2    H7 7106   3.384   0.481  11.560 -0.5211  1.6183  1.6330
  478TMC3    C1 7107   3.194   0.356  11.503 -0.2233 -0.8297  0.0952
  478TMC3    C2 7108   3.058   0.355  11.513  0.5021  0.2760  0.4538
  478TMC3    C3 7109   2.989   0.405  11.402  0.6039  0.1849 -0.0673
  478TMC3    C4 7110   3.263   0.357  11.381  0.8186  0.2432 -0.9851
  478TMC3    C5 7111   3.185   0.382  11.270 -0.5043 -0.3208 -0.3979
  478TMC3    C6 7112   3.050   0.418  11.281  0.1622  0.1576  0.0716
  478TMC3     C 7113   3.274   0.329  11.619 -0.5499 -0.0452  0.1674
  478TMC3     O 7114   3.229   0.239  11.690 -0.0493  0.6167  0.2630
  478TMC3     H 7115   3.015   0.345  11.612  2.2097 -0.1073  1.1584
  478TMC3    H1 7116   3.370   0.346  11.375  0.4001 -2.8726 -2.6055
  478TMC3    H2 7117   2.991   0.449  11.196 -0.2872 -0.4548  0.1630
  478TMC3    C7 7118   3.259   0.424  11.154  0.1780 -0.0860  0.0916
  478TMC3    C8 7119   2.864   0.472  11.431 -0.4570 -0.0838  0.3294
  478TMC3    O1 7120   3.379   0.439  11.153  0.2121  0.3333  0.1918
  478TMC3    O2 7121   2.803   0.440  11.531  0.1676 -0.0426 -0.7976
  479MPD2     C 7122   2.113   2.657  15.179 -0.3245 -0.4043  0.0259
  479MPD2    C1 7123   2.087   2.540  15.247 -0.1709  0.1651 -0.1464
  479MPD2    C2 7124   2.115   2.523  15.383 -0.1258 -0.6942 -0.4639
  479MPD2    C3 7125   2.171   2.629  15.454 -0.0080  0.4174 -0.4127
  479MPD2    C4 7126   2.201   2.749  15.389  0.0712  0.2377  0.9933
  479MPD2    C5 7127   2.171   2.761  15.253 -0.2431  0.1634  0.5230
  479MPD2     H 7128   2.110   2.426  15.432  2.4507 -0.5717  0.0364
  479MPD2    H1 7129   2.256   2.829  15.437  0.1512  0.5365  0.4013
  479MPD2    H2 7130   2.081   2.670  15.076  1.6813  2.6687 -0.1997
  479MPD2    H3 7131   2.192   2.851  15.197  0.7695  0.9878  2.2213
  479MPD2     N 7132   2.187   2.627  15.591 -0.1314 -0.0199  0.6192
  479MPD2    H5 7133   2.253   2.697  15.623  0.5317 -1.1527  1.7124
  479MPD2    N1 7134   2.025   2.441  15.172 -0.0840  0.3625  0.2526
  479MPD2    H7 7135   1.997   2.464  15.077  0.6995  1.9339  0.4062
  480TMC3    C1 7136   1.858   2.298  15.708  0.1546 -0.2104  0.6382
  480TMC3    C2 7137   1.759   2.371  15.647  0.1395  0.1950 -0.1734
  480TMC3    C3 7138   1.795   2.491  15.595 -0.0876  0.2510  0.0174
  480TMC3    C4 7139   1.991   2.342  15.718 -0.3947  0.0192 -0.4993
  480TMC3    C5 7140   2.019   2.473  15.665  0.3433  0.6925 -0.3137
  480TMC3    C6 7141   1.918   2.551  15.615  0.2062 -0.0711  0.2436
  480TMC3     C 7142   1.821   2.185  15.792  0.2925 -0.6801  0.4499
  480TMC3     O 7143   1.909   2.115  15.842 -0.5171  0.1727  0.1933
  480TMC3     H 7144   1.654   2.346  15.646  0.3330 -0.6625  0.5302
  480TMC3    H1 7145   2.074   2.291  15.766 -0.3806 -0.0576 -0.6056
  480TMC3    H2 7146   1.934   2.656  15.597  1.9108 -0.7570 -2.1672
  480TMC3    C7 7147   2.157   2.527  15.676 -0.0843 -0.2182 -0.2060
  480TMC3    C8 7148   1.697   2.570  15.516  0.2225  0.1004  0.5532
  480TMC3    O1 7149   2.220   2.487  15.772  0.3324 -0.3863  0.2724
  480TMC3    O2 7150   1.573   2.566  15.541  0.4198 -0.3295 -0.1202
  481MPD2     C 7151   4.012   1.915  14.659 -0.5791  0.1808  0.1755
  481MPD2    C1 7152   3.880   1.920  14.695 -0.0342  0.2750 -0.0866
  481MPD2    C2 7153   3.852   1.922  14.833 -0.0609 -0.1818  0.7914
  481MPD2    C3 7154   3.953   1.914  14.929 -0.3114 -0.2106  0.2702
  481MPD2    C4 7155   4.082   1.911  14.888  0.1671 -0.3751 -0.4639
  481MPD2    C5 7156   4.109   1.906  14.751 -0.0154 -0.4653 -0.8264
  481MPD2     H 7157   3.748   1.935  14.860  0.0018 -1.5844  1.7026
  481MPD2    H1 7158   4.166   1.903  14.956 -0.5158  3.4090  0.8052
  481MPD2    H2 7159   4.029   1.903  14.553 -0.9784  1.3939 -0.0216
  481MPD2    H3 7160   4.210   1.893  14.712  0.8220  0.4316  1.0767
  481MPD2     N 7161   3.926   1.899  15.067 -0.3714  0.5287  0.7444
  481MPD2    H5 7162   4.008   1.887  15.125 -1.0489  2.9922  2.1665
  481MPD2    N1 7163   3.782   1.923  14.593  0.1957 -0.5243 -0.3077
  481MPD2    H7 7164   3.813   1.933  14.497 -2.5896 -2.9144 -1.4441
  482TMC3    C1 7165   3.581   1.990  14.499 -0.4143  0.7693 -0.3668
  482TMC3    C2 7166   3.516   1.916  14.408 -0.2132 -0.1166  0.3143
  482TMC3    C3 7167   3.502   1.958  14.277 -0.0554 -0.8212  0.2187
  482TMC3    C4 7168   3.637   2.111  14.462 -0.5941 -0.7015  0.1597
  482TMC3    C5 7169   3.610   2.152  14.329 -0.7016  0.0687 -0.2312
  482TMC3    C6 7170   3.539   2.081  14.237 -0.0734  0.5950  0.6088
  482TMC3     C 7171   3.647   1.921  14.609 -0.0576  0.7589 -0.4674
  482TMC3     O 7172   3.579   1.871  14.699  0.4520 -0.4212 -1.1313
  482TMC3     H 7173   3.479   1.817  14.430  1.1003 -0.8929 -0.9811
  482TMC3    H1 7174   3.711   2.167  14.518 -0.0696  0.9684 -2.2361
  482TMC3    H2 7175   3.518   2.118  14.137  0.4236 -2.7100 -0.7252
  482TMC3    C7 7176   3.668   2.281  14.298 -0.0428  0.2289  0.4723
  482TMC3    C8 7177   3.477   1.853  14.183  0.2432 -0.7585 -0.0335
  482TMC3    O1 7178   3.711   2.348  14.391 -0.1891 -0.8861  0.3591
  482TMC3    O2 7179   3.515   1.743  14.216 -0.2200 -0.0106 -0.4054
  483TMC3    C1 7180   1.568   0.630   0.481  0.2772 -1.0053  0.0088
  483TMC3    C2 7181   1.561   0.763   0.490  0.4012  0.0053 -0.4412
  483TMC3    C3 7182   1.564   0.818   0.619  0.6012  0.1182  0.4337
  483TMC3    C4 7183   1.564   0.543   0.584 -0.3895  0.5105  0.1922
  483TMC3    C5 7184   1.570   0.603   0.708 -0.3490  0.0542 -0.9160
  483TMC3    C6 7185   1.570   0.738   0.728 -0.1055  0.8180 -0.0066
  483TMC3     C 7186   1.549   0.580   0.344 -0.2663  0.1909  0.6445
  483TMC3     O 7187   1.544   0.659   0.254  0.4056 -0.4889  0.2768
  483TMC3     H 7188   1.565   0.835   0.409 -0.0490  0.6064  0.0750
  483TMC3    H1 7189   1.586   0.437   0.570 -2.0430  0.4034 -1.6159
  483TMC3    H2 7190   1.573   0.778   0.829 -0.8992  0.9786 -0.0446
  483TMC3    C7 7191   1.552   0.525   0.828 -0.8402  0.6287  0.3129
  483TMC3    C8 7192   1.569   0.964   0.608  0.5099  0.0125  0.3707
  483TMC3    O1 7193   1.579   0.581   0.939  0.1094 -0.3773 -0.0855
  483TMC3    O2 7194   1.632   1.015   0.517  0.6874 -0.3325  0.4279
  484MPD2     C 7195   4.043   4.260  12.758  0.5008 -0.6436 -0.1850
  484MPD2    C1 7196   4.132   4.158  12.762  0.2871 -0.5958 -0.1125
  484MPD2    C2 7197   4.268   4.186  12.727  0.0135  0.2147  0.6407
  484MPD2    C3 7198   4.306   4.317  12.698 -0.2831 -0.1095 -0.6561
  484MPD2    C4 7199   4.219   4.415  12.718 -0.1653  0.2963 -0.1614
  484MPD2    C5 7200   4.085   4.391  12.745  0.0929 -0.2643 -0.1648
  484MPD2     H 7201   4.346   4.110  12.721 -1.0711 -0.8533 -0.0838
  484MPD2    H1 7202   4.249   4.516  12.694  0.8721  1.1284  4.7507
  484MPD2    H2 7203   3.935   4.248  12.768  0.4800  0.9707  1.5920
  484MPD2    H3 7204   4.011   4.468  12.760  1.8101  1.1591  0.9444
  484MPD2     N 7205   4.432   4.350  12.650 -0.9791 -0.0197 -0.1165
  484MPD2    H5 7206   4.462   4.446  12.666 -2.1935  0.1535  1.1002
  484MPD2    N1 7207   4.084   4.024  12.784 -0.1650 -0.1250 -0.4493
  484MPD2    H7 7208   3.987   4.008  12.808  0.1675 -0.0308  0.9837
  485TMC3    C1 7209   4.660   4.311  12.588  0.1610  0.4614  0.4599
  485TMC3    C2 7210   0.037   4.215  12.577  0.1012  0.7689  0.1218
  485TMC3    C3 7211   0.164   4.252  12.541  0.7967  0.3215 -0.6281
  485TMC3    C4 7212   4.679   4.442  12.550 -0.3169  0.3172  1.0060
  485TMC3    C5 7213   0.080   4.472  12.498  0.4193  0.1632  0.4207
  485TMC3    C6 7214   0.186   4.384  12.499  0.4270  0.0996 -0.2194
  485TMC3     C 7215   4.524   4.260  12.597  0.0159  0.9387 -0.6361
  485TMC3     O 7216   4.504   4.148  12.547 -0.2474  0.1359 -0.6916
  485TMC3     H 7217   0.011   4.111  12.594 -1.2463  1.3685  1.6688
  485TMC3    H1 7218   4.597   4.510  12.529  1.5625  2.3977  0.4299
  485TMC3    H2 7219   0.286   4.417  12.472  1.1631 -1.3343  0.7609
  485TMC3    C7 7220   0.074   4.545  12.374  0.2970  0.2795 -0.4897
  485TMC3    C8 7221   0.237   4.162  12.462 -0.2006 -0.8477 -0.3985
  485TMC3    O1 7222   0.036   4.662  12.367  0.3496 -0.5737  0.4866
  485TMC3    O2 7223   0.261   4.211  12.351  0.1469 -0.7254  0.0190
  486MPD2     C 7224   1.547   2.614  12.648 -0.3347 -0.2874  0.3370
  486MPD2    C1 7225   1.516   2.681  12.761 -1.0921 -0.1931 -0.3786
  486MPD2    C2 7226   1.430   2.790  12.746  0.2093 -0.0485  0.0983
  486MPD2    C3 7227   1.397   2.843  12.623  0.1976  0.4343 -0.1088
  486MPD2    C4 7228   1.456   2.782  12.512  0.5000  0.1758 -0.4140
  486MPD2    C5 7229   1.527   2.666  12.526  0.4166  0.7872 -0.1017
  486MPD2     H 7230   1.390   2.851  12.827 -0.6622 -0.1864 -0.2326
  486MPD2    H1 7231   1.454   2.815  12.409  0.4923  0.9695 -0.1635
  486MPD2    H2 7232   1.607   2.525  12.654 -1.3336 -1.0427 -0.8128
  486MPD2    H3 7233   1.577   2.626  12.439 -0.7062 -0.0061 -0.3721
  486MPD2     N 7234   1.324   2.963  12.614 -0.1677 -1.0699  0.0723
  486MPD2    H5 7235   1.305   3.016  12.698 -1.0761 -0.5298 -0.4717
  486MPD2    N1 7236   1.563   2.629  12.881 -0.0051  1.1696  0.0460
  486MPD2    H7 7237   1.617   2.544  12.877 -1.2842  0.3723 -0.3141
  487TMC3    C1 7238   1.613   2.615  13.111  0.2654  0.0658 -1.0200
  487TMC3    C2 7239   1.722   2.537  13.087 -0.8701  0.5908 -0.0152
  487TMC3    C3 7240   1.766   2.468  13.202 -0.1087 -0.4507 -0.0500
  487TMC3    C4 7241   1.571   2.647  13.239  0.1368 -0.0378 -0.2870
  487TMC3    C5 7242   1.621   2.576  13.339  0.0595  0.2585 -0.3800
  487TMC3    C6 7243   1.728   2.499  13.332  0.2099 -0.5829 -0.0554
  487TMC3     C 7244   1.540   2.687  13.007  0.1948 -0.4287  0.3121
  487TMC3     O 7245   1.465   2.782  13.037 -0.0958  0.2618  0.2032
  487TMC3     H 7246   1.761   2.503  12.992  2.7401  1.0176  1.3271
  487TMC3    H1 7247   1.480   2.704  13.250  0.6090  0.3507  1.6348
  487TMC3    H2 7248   1.754   2.437  13.417  0.1290 -0.3426  0.1466
  487TMC3    C7 7249   1.532   2.539  13.448 -0.2670 -0.7541 -0.8515
  487TMC3    C8 7250   1.780   2.320  13.177  0.5642  0.0725 -0.2147
  487TMC3    O1 7251   1.587   2.486  13.543 -0.6010 -0.1278  0.0775
  487TMC3    O2 7252   1.713   2.270  13.090 -0.3527 -0.9114 -0.7246
  488MPD2     C 7253   2.000   4.272  16.655  0.1427 -0.6096 -0.7906
  488MPD2    C1 7254   2.016   4.407  16.654 -0.6124 -0.3715 -0.5959
  488MPD2    C2 7255   2.022   4.472  16.773  0.1645  0.1498  0.0389
  488MPD2    C3 7256   1.997   4.417  16.895  0.3105 -0.5365  0.2463
  488MPD2    C4 7257   1.976   4.284  16.898  0.0560 -0.0056 -0.1372
  488MPD2    C5 7258   1.970   4.216  16.779  0.5337  0.2190  0.0307
  488MPD2     H 7259   2.027   4.580  16.770 -1.6541  0.1815 -1.5751
  488MPD2    H1 7260   1.952   4.217  16.980 -1.4140 -0.4178 -0.8980
  488MPD2    H2 7261   1.986   4.213  16.565  1.2538 -0.5317 -1.0122
  488MPD2    H3 7262   1.935   4.113  16.787  1.3714  0.1570  2.5549
  488MPD2     N 7263   1.995   4.499  17.008 -0.4088 -0.0889  0.3162
  488MPD2    H5 7264   2.019   4.596  16.988  1.6900 -0.8994 -1.0251
  488MPD2    N1 7265   2.030   4.491  16.541  0.3368 -0.3500  0.5507
  488MPD2    H7 7266   2.027   4.591  16.563  2.6583  0.3472 -2.3634
  489TMC3    C1 7267   1.968   4.564  17.232 -0.3252  0.0883  0.0911
  489TMC3    C2 7268   1.918   4.683  17.185  0.7024  0.5136  0.2672
  489TMC3    C3 7269   1.877   0.049  17.281 -0.1117  0.5442 -0.0683
  489TMC3    C4 7270   1.978   4.531  17.362 -0.1244 -0.6351  0.5224
  489TMC3    C5 7271   1.953   4.629  17.451 -0.5166 -0.0153  0.0838
  489TMC3    C6 7272   1.905   0.032  17.416  0.1721  0.5425  0.4123
  489TMC3     C 7273   1.968   4.456  17.136  0.1945  0.8155  0.6812
  489TMC3     O 7274   1.952   4.347  17.183  0.1356 -0.3597  0.4480
  489TMC3     H 7275   1.890   4.697  17.081 -1.4179 -0.9137  0.6328
  489TMC3    H1 7276   2.028   4.440  17.394 -1.0806 -0.9466  1.1717
  489TMC3    H2 7277   1.871   0.106  17.488  2.8032  1.1670  0.9975
  489TMC3    C7 7278   1.984   4.595  17.587 -0.3629 -0.4007  0.4828
  489TMC3    C8 7279   1.843   0.175  17.223  0.0509 -0.2703 -0.6932
  489TMC3    O1 7280   1.980   4.476  17.621 -0.3078  0.6618 -0.6607
  489TMC3    O2 7281   1.795   0.175  17.112 -0.1055 -0.2474  0.8374
  490MPD2     C 7282   2.590   4.422  17.516  0.2800 -0.5692  0.3550
  490MPD2    C1 7283   2.636   4.326  17.606  0.8048  0.0682 -0.4311
  490MPD2    C2 7284   2.729   4.358   0.013 -0.9262 -0.0268  0.2007
  490MPD2    C3 7285   2.785   4.485   0.015  0.0012 -0.1115 -0.2907
  490MPD2    C4 7286   2.746   4.579  17.604  0.3162  0.1328 -0.2810
  490MPD2    C5 7287   2.648   4.543  17.506 -1.1171 -0.0020  0.4535
  490MPD2     H 7288   2.776   4.286   0.079  1.2157 -0.4283 -1.7385
  490MPD2    H1 7289   2.803   4.671  17.602  1.1567 -0.3766  0.0765
  490MPD2    H2 7290   2.516   4.395  17.441  0.9055 -0.0249 -0.4577
  490MPD2    H3 7291   2.612   4.616  17.434 -1.0910 -1.0716 -0.6510
  490MPD2     N 7292   2.887   4.525   0.098  0.4334  0.5744  0.0943
  490MPD2    H5 7293   2.920   4.620   0.085 -1.1280  0.9453 -1.1042
  490MPD2    N1 7294   2.590   4.193  17.593  0.0954  0.6798  0.0218
  490MPD2    H7 7295   2.625   4.136  17.669 -2.1783  0.6898  1.0808
  491TMC3    C1 7296   2.563   3.980  17.489 -0.3137  0.8162  0.0107
  491TMC3    C2 7297   2.552   3.925  17.612 -0.4833  0.0210 -0.2853
  491TMC3    C3 7298   2.535   3.789  17.620  0.6268 -0.7751  0.2039
  491TMC3    C4 7299   2.574   3.906  17.382 -0.6173  0.0082  0.7575
  491TMC3    C5 7300   2.566   3.767  17.390  0.1032 -0.6611 -0.0975
  491TMC3    C6 7301   2.542   3.705  17.512 -0.9718 -0.7572 -0.1921
  491TMC3     C 7302   2.550   4.127  17.477 -1.1189 -0.0479 -0.7737
  491TMC3     O 7303   2.530   4.175  17.368  0.2286  0.1514 -0.5798
  491TMC3     H 7304   2.527   3.987   0.010 -1.5536 -2.3223  1.1127
  491TMC3    H1 7305   2.585   3.961  17.289 -3.9975 -1.4630 -0.5079
  491TMC3    H2 7306   2.553   3.599  17.534 -1.3070 -0.0243  3.3391
  491TMC3    C7 7307   2.533   3.713  17.262  0.8236  0.0579 -0.7685
  491TMC3    C8 7308   2.566   3.731   0.064 -0.3278  0.2211 -0.6201
  491TMC3    O1 7309   2.545   3.785  17.163 -0.3405 -0.5258  0.1748
  491TMC3    O2 7310   2.627   3.624   0.064  0.0377  0.7052  0.3902
  492MPD2     C 7311   3.364   3.794  11.366  0.1281  0.4265 -0.4915
  492MPD2    C1 7312   3.245   3.812  11.299 -0.1580 -0.1033 -0.5651
  492MPD2    C2 7313   3.135   3.761  11.356  0.0544 -0.1490  0.0017
  492MPD2    C3 7314   3.139   3.682  11.471 -0.6257 -0.1485  0.3745
  492MPD2    C4 7315   3.252   3.670  11.539  0.7405 -0.4219 -0.8265
  492MPD2    C5 7316   3.367   3.733  11.490 -0.1971  0.0889  0.1352
  492MPD2     H 7317   3.042   3.786  11.307  1.9276  1.8795 -2.4614
  492MPD2    H1 7318   3.262   3.622  11.636 -1.5192 -0.7496 -0.7597
  492MPD2    H2 7319   3.455   3.831  11.319 -0.1999  3.2948  1.1603
  492MPD2    H3 7320   3.464   3.713  11.533 -0.7437  0.5582  1.5670
  492MPD2     N 7321   3.021   3.634  11.534 -0.1545  0.2280  0.0891
  492MPD2    H5 7322   3.013   3.606  11.631  0.7949  0.5958  0.2668
  492MPD2    N1 7323   3.247   3.895  11.184 -0.5221  0.3757  0.2139
  492MPD2    H7 7324   3.340   3.926  11.156 -0.7813  1.4147  0.5052
  493TMC3    C1 7325   3.181   4.009  10.989 -0.0971  0.6547  0.3558
  493TMC3    C2 7326   3.299   4.074  10.982  0.0871 -0.8151  0.4052
  493TMC3    C3 7327   3.323   4.152  10.866 -0.5690  0.0993  0.1069
  493TMC3    C4 7328   3.087   4.016  10.889 -0.4011  1.1244 -0.1714
  493TMC3    C5 7329   3.125   4.074  10.774  0.7023 -0.6379  0.1511
  493TMC3    C6 7330   3.240   4.143  10.750 -0.2804 -0.6848 -0.3314
  493TMC3     C 7331   3.145   3.944  11.111  0.1236 -0.6257 -0.0076
  493TMC3     O 7332   3.025   3.930  11.128 -0.3429  0.2344 -0.6433
  493TMC3     H 7333   3.365   4.096  11.065 -1.0724  0.8521  0.8805
  493TMC3    H1 7334   2.993   3.963  10.899 -0.4965  1.6433  1.6182
  493TMC3    H2 7335   3.245   4.203  10.660 -0.8885 -0.1458 -0.0046
  493TMC3    C7 7336   3.084   3.988  10.664  0.4526  0.2414 -0.1423
  493TMC3    C8 7337   3.414   4.272  10.888  0.1308  0.4726 -0.6788
  493TMC3    O1 7338   3.091   4.035  10.552 -0.3540  0.5123 -0.5722
  493TMC3    O2 7339   3.466   4.297  10.999  0.2558  0.5700 -0.2116
  494TMC3    C1 7340   3.470   0.964   0.812  0.2820  0.1625  0.2010
  494TMC3    C2 7341   3.462   0.876   0.918 -0.1180  0.2267  0.1951
  494TMC3    C3 7342   3.517   0.750   0.898  0.3301  0.0167 -0.1622
  494TMC3    C4 7343   3.537   0.935   0.694  1.2400 -0.2878 -0.6280
  494TMC3    C5 7344   3.596   0.812   0.683  0.3572  0.3031 -0.1542
  494TMC3    C6 7345   3.600   0.724   0.790 -0.1933  0.4353  0.1496
  494TMC3     C 7346   3.418   1.096   0.831  0.2265  0.0363  0.7696
  494TMC3     O 7347   3.342   1.103   0.929  0.0002 -0.2381  0.2500
  494TMC3     H 7348   3.407   0.903   1.007 -0.0581 -0.0013  0.3020
  494TMC3    H1 7349   3.529   0.995   0.604  1.3094  0.6611 -0.0020
  494TMC3    H2 7350   3.650   0.628   0.785 -1.8632 -0.4606  0.4974
  494TMC3    C7 7351   3.636   0.767   0.551  0.0935  0.0832  0.2688
  494TMC3    C8 7352   3.491   0.650   1.004  0.3109 -0.5230  0.1646
  494TMC3    O1 7353   3.658   0.849   0.464 -0.7013 -0.3266  0.2994
  494TMC3    O2 7354   3.399   0.664   1.077 -0.5638 -0.0458  0.1384
  495TMC3    C1 7355   1.960   2.472  14.555  0.2618 -0.2845  0.3045
  495TMC3    C2 7356   1.850   2.466  14.469 -0.3035 -0.5488 -0.0064
  495TMC3    C3 7357   1.736   2.522  14.518  0.3113  0.0075 -0.1176
  495TMC3    C4 7358   1.950   2.526  14.675  0.2347  0.0865 -0.3992
  495TMC3    C5 7359   1.833   2.573  14.729  0.2246  0.3030 -0.6757
  495TMC3    C6 7360   1.720   2.572  14.645 -0.3474  0.4035  0.0830
  495TMC3     C 7361   2.034   2.354  14.553 -0.6654  0.0998  0.2809
  495TMC3     O 7362   2.033   2.292  14.445 -0.1166  0.0197  0.3647
  495TMC3     H 7363   1.858   2.428  14.367  0.8251  1.3870 -0.6249
  495TMC3    H1 7364   2.045   2.545  14.725 -0.6476 -1.0574  1.7144
  495TMC3    H2 7365   1.621   2.590  14.686 -1.3688 -1.3032 -1.6562
  495TMC3    C7 7366   1.828   2.624  14.866  0.1387 -0.1378  1.1148
  495TMC3    C8 7367   1.604   2.473  14.461  0.0710  0.2121 -0.5885
  495TMC3    O1 7368   1.926   2.587  14.930 -0.1410  0.3042 -0.2191
  495TMC3    O2 7369   1.504   2.534  14.496 -0.3241 -0.4860  0.4885
  496MPD2     C 7370   4.146   2.708  15.414  0.5618  0.0950 -0.3055
  496MPD2    C1 7371   4.225   2.692  15.530 -0.1804 -0.3409 -1.1474
  496MPD2    C2 7372   4.182   2.620  15.637  0.5617  0.2711  0.0352
  496MPD2    C3 7373   4.070   2.538  15.626  0.0596 -0.1459  0.1934
  496MPD2    C4 7374   3.991   2.553  15.510 -0.3271 -0.3167 -0.1489
  496MPD2    C5 7375   4.029   2.642  15.412  0.1018 -0.4794 -0.9144
  496MPD2     H 7376   4.238   2.624  15.730 -1.1641  2.9479  0.9533
  496MPD2    H1 7377   3.897   2.503  15.495  0.2696 -0.5380 -3.1261
  496MPD2    H2 7378   4.168   2.784  15.341  1.1084 -0.1836 -0.4331
  496MPD2    H3 7379   3.964   2.663  15.327 -0.1822  3.2834  0.2138
  496MPD2     N 7380   4.022   2.451  15.724 -0.0502  0.7026  0.5517
  496MPD2    H5 7381   3.936   2.400  15.704  0.7815 -1.7414  3.2695
  496MPD2    N1 7382   4.353   2.761  15.534 -0.5841 -0.4715 -0.5784
  496MPD2    H7 7383   4.385   2.795  15.444  0.3568 -0.6708 -0.3183
  497TMC3    C1 7384   3.986   2.360  15.929  0.6184 -0.1492 -0.3170
  497TMC3    C2 7385   4.001   2.222  15.893  0.3971 -0.6555  0.7716
  497TMC3    C3 7386   4.022   2.134  15.994  0.1784  0.3898 -0.0005
  497TMC3    C4 7387   3.973   2.388  16.062  0.4961 -0.2474  0.1303
  497TMC3    C5 7388   3.990   2.292  16.156 -0.5483 -0.3854  0.3140
  497TMC3    C6 7389   4.022   2.165  16.127  0.1573  0.1612  0.5928
  497TMC3     C 7390   4.054   2.464  15.858 -0.0829  0.2564  1.2591
  497TMC3     O 7391   4.128   2.538  15.921  0.0109 -0.0256  0.1452
  497TMC3     H 7392   4.033   2.202  15.792 -1.6851  0.8859 -0.1816
  497TMC3    H1 7393   3.972   2.489  16.102  0.8548  0.7035 -2.2969
  497TMC3    H2 7394   4.042   2.092  16.204  0.6813 -0.2063  0.1071
  497TMC3    C7 7395   3.972   2.328  16.289  1.2639 -0.1565 -0.0378
  497TMC3    C8 7396   4.105   2.016  15.954  0.3245 -0.2839  0.1658
  497TMC3    O1 7397   3.869   2.392  16.313  0.9380 -0.0500 -0.4151
  497TMC3    O2 7398   4.207   1.992  16.024  0.5052  0.0789  0.0002
  498MPD2     C 7399   0.230   3.975   9.229  0.0912 -0.2832  0.7041
  498MPD2    C1 7400   0.328   3.908   9.296 -0.6082 -0.1531  0.1587
  498MPD2    C2 7401   0.294   3.825   9.401 -0.7010 -0.1162  0.1065
  498MPD2    C3 7402   0.162   3.820   9.446 -0.1481  0.2568  0.2172
  498MPD2    C4 7403   0.069   3.912   9.392 -0.4516 -0.2464 -1.0011
  498MPD2    C5 7404   0.113   3.987   9.289 -0.5735 -0.1492 -0.6819
  498MPD2     H 7405   0.375   3.768   9.447 -0.4207  0.4064  0.2564
  498MPD2    H1 7406   4.687   3.923   9.421 -0.5170  0.0577 -1.3654
  498MPD2    H2 7407   0.243   4.041   9.144  0.9463 -0.5540  0.6252
  498MPD2    H3 7408   0.040   4.049   9.238 -1.2412  0.8958  1.5274
  498MPD2     N 7409   0.126   3.730   9.548  0.0373  1.1515 -0.0010
  498MPD2    H5 7410   0.186   3.655   9.581 -1.0236  1.2421  2.1759
  498MPD2    N1 7411   0.463   3.894   9.251 -0.7481  0.4006 -0.0011
  498MPD2    H7 7412   0.525   3.837   9.307 -0.1532  2.3293  1.2884
  499TMC3    C1 7413   0.644   3.910   9.090 -0.5284 -0.2663  0.2271
  499TMC3    C2 7414   0.698   3.791   9.133  0.0370 -0.5713 -0.3056
  499TMC3    C3 7415   0.834   3.782   9.110  0.2190 -0.4847 -0.3421
  499TMC3    C4 7416   0.717   4.015   9.039 -0.5136 -0.4759 -0.0874
  499TMC3    C5 7417   0.849   3.991   9.010  0.2774 -0.2559 -0.1053
  499TMC3    C6 7418   0.909   3.876   9.051  0.1694  0.6473  0.0218
  499TMC3     C 7419   0.516   3.956   9.141  0.4045 -0.2091 -0.0385
  499TMC3     O 7420   0.464   4.047   9.079 -0.3103  0.6735 -0.7714
  499TMC3     H 7421   0.639   3.725   9.195  2.8578  0.2971  3.3163
  499TMC3    H1 7422   0.666   4.110   9.024  1.8340  0.0093 -5.2682
  499TMC3    H2 7423   1.005   3.852   9.007 -0.1067 -2.8005  1.3036
  499TMC3    C7 7424   0.928   4.101   8.952  0.2914  0.1801 -0.9047
  499TMC3    C8 7425   0.903   3.674   9.180 -0.2758 -0.1436  0.1113
  499TMC3    O1 7426   1.046   4.089   8.973  0.4339 -0.1534 -0.1480
  499TMC3    O2 7427   0.828   3.589   9.221  0.3541  0.0034  0.1166
  500MPD2     C 7428   2.028   4.556  10.456 -0.5134  0.6623  0.7432
  500MPD2    C1 7429   2.078   4.677  10.406  1.2178 -0.2826  0.8368
  500MPD2    C2 7430   2.002   0.040  10.326 -0.1533 -0.6935 -0.2583
  500MPD2    C3 7431   1.877   0.000  10.288 -0.2914  0.7063  0.5697
  500MPD2    C4 7432   1.823   4.603  10.336  0.6949  0.1617 -0.0765
  500MPD2    C5 7433   1.898   4.527  10.420  0.8847 -0.8803  0.7163
  500MPD2     H 7434   2.049   0.131  10.290 -1.9602  0.6589  0.7723
  500MPD2    H1 7435   1.723   4.567  10.316  0.2824  1.2512  0.0129
  500MPD2    H2 7436   2.088   4.484  10.511  1.7132  1.1128 -1.1072
  500MPD2    H3 7437   1.863   4.434  10.462  1.4439 -1.1636  0.5507
  500MPD2     N 7438   1.791   0.087  10.220  0.6371  0.2381 -0.3001
  500MPD2    H5 7439   1.705   0.046  10.186 -0.5355  0.6102  2.1588
  500MPD2    N1 7440   2.210   4.720  10.444 -0.6143 -0.3398  0.1641
  500MPD2    H7 7441   2.234   0.084  10.394  1.0937 -0.5508  0.6584
  501TMC3    C1 7442   2.414   0.027  10.543  0.4096 -0.3694  0.3596
  501TMC3    C2 7443   2.459   0.083  10.426 -0.0246  0.1449 -0.0359
  501TMC3    C3 7444   2.592   0.118  10.423 -0.2125  0.5189 -0.1465
  501TMC3    C4 7445   2.497   0.009  10.652  0.0973  0.7424 -0.1188
  501TMC3    C5 7446   2.623   0.049  10.649 -0.1244  0.1881  0.6500
  501TMC3    C6 7447   2.675   0.111  10.534  1.6484 -0.5704  0.5433
  501TMC3     C 7448   2.292   4.667  10.541  0.1205 -0.1701  0.2769
  501TMC3     O 7449   2.287   4.569  10.614 -0.5101 -0.1412  0.3217
  501TMC3     H 7450   2.408   0.075  10.331  0.7384  0.2219 -0.4540
  501TMC3    H1 7451   2.464   4.675  10.740  0.8425 -1.8846 -1.4865
  501TMC3    H2 7452   2.782   0.123  10.519  1.2390  0.1569 -1.7604
  501TMC3    C7 7453   2.716   0.005  10.741 -0.4356  0.4356 -0.0981
  501TMC3    C8 7454   2.646   0.193  10.310 -0.1961 -0.1826  0.2219
  501TMC3    O1 7455   2.682   4.631  10.811  0.4741  0.3716 -0.6981
  501TMC3    O2 7456   2.769   0.208  10.303 -0.2281  0.4057 -0.2353
  502TMC3    C1 7457   1.930   3.394  15.386  0.3514  1.1752  0.0619
  502TMC3    C2 7458   1.877   3.469  15.283 -0.2019  0.2242  0.3708
  502TMC3    C3 7459   1.743   3.446  15.238  0.2402 -0.2004 -0.4222
  502TMC3    C4 7460   1.859   3.288  15.435 -0.4975 -0.2394 -0.2501
  502TMC3    C5 7461   1.729   3.265  15.396  0.0150 -0.0715  0.8059
  502TMC3    C6 7462   1.675   3.334  15.290 -0.8034 -0.7869  0.7331
  502TMC3     C 7463   2.009   3.463  15.482  0.6354  0.4218 -0.3884
  502TMC3     O 7464   2.064   3.560  15.434  0.4356 -0.5363  0.5301
  502TMC3     H 7465   1.917   3.568  15.266 -0.8681  0.7926  2.0354
  502TMC3    H1 7466   1.903   3.216  15.504  1.1043  0.6014 -0.3950
  502TMC3    H2 7467   1.577   3.313  15.248 -0.7529  1.5408 -0.5439
  502TMC3    C7 7468   1.644   3.221  15.506  0.0800 -0.5608 -0.2424
  502TMC3    C8 7469   1.707   3.517  15.118  0.2153  0.4423  0.2338
  502TMC3    O1 7470   1.698   3.165  15.598  0.0982 -0.1944  0.3653
  502TMC3    O2 7471   1.781   3.609  15.089 -0.3547  0.4777  0.1108
  503MPD2     C 7472   3.956   4.365  16.986  0.4884 -0.0176  0.4331
  503MPD2    C1 7473   3.949   4.374  17.126  0.1887  0.4444  0.2296
  503MPD2    C2 7474   3.988   4.268  17.202 -0.1485 -0.6053 -0.5086
  503MPD2    C3 7475   4.035   4.148  17.145  0.5414  0.0697 -0.4458
  503MPD2    C4 7476   4.042   4.144  17.007  0.1786  0.4990  0.2897
  503MPD2    C5 7477   4.013   4.252  16.933 -0.4935  0.2660  0.5630
  503MPD2     H 7478   3.975   4.276  17.310  0.1482 -0.7711 -0.4614
  503MPD2    H1 7479   4.072   4.060  16.946  1.4113 -0.4187  2.1601
  503MPD2    H2 7480   3.925   4.444  16.919 -1.1225 -2.1480 -1.3618
  503MPD2    H3 7481   4.024   4.248  16.825  0.6665  1.5027  0.6215
  503MPD2     N 7482   4.054   4.036  17.229  0.2043  0.4923 -0.1160
  503MPD2    H5 7483   4.046   4.043  17.330 -0.8994 -0.9588 -0.1033
  503MPD2    N1 7484   3.900   4.486  17.200  0.2833  0.5333 -0.3215
  503MPD2    H7 7485   3.910   4.480  17.301 -1.6387  0.5692 -0.1284
  504TMC3    C1 7486   4.121   3.812  17.297 -0.6080 -0.3556  0.3112
  504TMC3    C2 7487   4.058   3.823  17.412 -0.1110  0.4646 -0.0098
  504TMC3    C3 7488   4.110   3.748  17.516 -0.0251 -0.0039 -0.3298
  504TMC3    C4 7489   4.231   3.732  17.289  0.2316  0.5945 -0.2075
  504TMC3    C5 7490   4.284   3.670  17.393  0.1490  0.4043  0.5264
  504TMC3    C6 7491   4.226   3.680  17.512  0.6174 -0.0984 -0.1636
  504TMC3     C 7492   4.095   3.911  17.190  0.3666  0.3172  0.4288
  504TMC3     O 7493   4.117   3.864  17.079 -0.0888  0.0979  0.2859
  504TMC3     H 7494   3.973   3.890  17.421  0.2694  1.0575 -0.8338
  504TMC3    H1 7495   4.276   3.747  17.191 -0.0675  1.6889 -0.1704
  504TMC3    H2 7496   4.238   3.610  17.594 -0.5566  1.6085  1.4688
  504TMC3    C7 7497   4.424   3.622  17.373 -0.4171  0.3532  0.0447
  504TMC3    C8 7498   4.049   3.750  17.646  0.1114  0.2452  0.3217
  504TMC3    O1 7499   4.472   3.614  17.258 -0.5113 -0.0314 -0.0578
  504TMC3    O2 7500   4.111   3.800   0.048 -0.0745 -0.3696 -0.1334
  505MPD2     C 7501   0.203   2.778  10.501 -0.1642 -0.5554  0.2469
  505MPD2    C1 7502   0.191   2.700  10.387  0.6674 -0.2227 -0.1585
  505MPD2    C2 7503   0.290   2.704  10.299 -0.6121 -0.5348  0.3114
  505MPD2    C3 7504   0.397   2.788  10.309  0.1494  0.1719 -0.0962
  505MPD2    C4 7505   0.402   2.870  10.413  0.6175  0.5343 -0.4332
  505MPD2    C5 7506   0.306   2.866  10.509 -0.6805  0.0694 -0.8043
  505MPD2     H 7507   0.290   2.643  10.209  0.1568  0.0953 -0.1275
  505MPD2    H1 7508   0.491   2.932  10.419 -0.2397  1.6142  1.2792
  505MPD2    H2 7509   0.128   2.781  10.579  0.5973 -2.5122  1.0646
  505MPD2    H3 7510   0.305   2.932  10.595 -0.6865 -0.0995 -0.6745
  505MPD2     N 7511   0.494   2.792  10.210  0.2582  0.1209  0.0962
  505MPD2    H5 7512   0.546   2.879  10.213  1.2627 -0.4748 -0.2985
  505MPD2    N1 7513   0.068   2.643  10.361  0.1254 -0.2685  0.7448
  505MPD2    H7 7514   0.000   2.647  10.437 -1.8495 -1.8556 -0.9180
  506TMC3    C1 7515   4.625   2.528  10.238  0.7702  0.0582  0.0664
  506TMC3    C2 7516   4.547   2.643  10.243  0.0746  0.3758  0.0369
  506TMC3    C3 7517   4.466   2.674  10.141 -0.5136  0.0665  0.7260
  506TMC3    C4 7518   4.608   2.440  10.138  0.8192  0.1555 -0.9402
  506TMC3    C5 7519   4.520   2.473  10.034  0.5183 -0.6300  0.4919
  506TMC3    C6 7520   4.452   2.589  10.031 -0.5160  0.2674  0.2229
  506TMC3     C 7521   0.040   2.561  10.250 -0.3487 -1.0095 -0.1129
  506TMC3     O 7522   0.106   2.533  10.151 -0.3902 -0.2433  0.4474
  506TMC3     H 7523   4.569   2.717  10.319  1.0091  1.2461 -1.0907
  506TMC3    H1 7524   4.659   2.346  10.151 -0.5161 -0.2754  1.0759
  506TMC3    H2 7525   4.401   2.618   9.940  2.7859 -0.1603 -1.7564
  506TMC3    C7 7526   4.569   2.449   9.910 -0.5557 -0.6248 -0.4050
  506TMC3    C8 7527   4.443   2.814  10.116 -0.5702  0.4567 -0.0302
  506TMC3    O1 7528   4.496   2.448   9.808  0.5713 -0.3149 -0.1505
  506TMC3    O2 7529   4.509   2.892  10.186  0.2346 -0.0083 -0.0955
  507TMC3    C1 7530   4.178   3.490  15.327  0.6741 -0.2811 -0.0210
  507TMC3    C2 7531   4.091   3.559  15.248 -0.3219  0.1108  0.4370
  507TMC3    C3 7532   4.105   3.556  15.114 -0.5867 -0.4901  0.5923
  507TMC3    C4 7533   4.279   3.415  15.264  0.7416  0.5417 -0.5036
  507TMC3    C5 7534   4.292   3.414  15.129  0.7395  0.5607  0.7817
  507TMC3    C6 7535   4.200   3.476  15.051  0.9561 -0.0121 -0.2374
  507TMC3     C 7536   4.167   3.493  15.475 -0.2972 -0.1458  0.5983
  507TMC3     O 7537   4.232   3.409  15.537 -0.1154  0.4015  0.0078
  507TMC3     H 7538   4.010   3.618  15.290  0.1644 -1.2289  3.2732
  507TMC3    H1 7539   4.347   3.363  15.330 -1.4234  1.3347  2.3274
  507TMC3    H2 7540   4.214   3.460  14.945 -1.0397  1.6494 -0.7552
  507TMC3    C7 7541   4.420   3.396  15.056  0.0604 -0.4644  0.4889
  507TMC3    C8 7542   4.064   3.669  15.044 -0.4229 -0.7384 -0.1253
  507TMC3    O1 7543   4.404   3.373  14.940 -0.5682 -0.0109  0.5809
  507TMC3    O2 7544   4.013   3.762  15.111 -0.2655 -0.1459  0.4164
  508MPD2     C 7545   1.099   1.133  16.426 -0.0445 -0.3589 -0.1673
  508MPD2    C1 7546   1.073   1.267  16.433  0.1921 -0.1214  0.6346
  508MPD2    C2 7547   1.033   1.336  16.322 -0.0279  0.2827 -0.1998
  508MPD2    C3 7548   1.020   1.273  16.203  0.3450 -0.0472 -0.3132
  508MPD2    C4 7549   1.028   1.133  16.197 -0.0095 -0.2160  0.2406
  508MPD2    C5 7550   1.069   1.063  16.307 -0.1832 -0.3713  0.2097
  508MPD2     H 7551   1.000   1.440  16.320 -1.2632 -0.1698 -2.6412
  508MPD2    H1 7552   1.009   1.076  16.106  0.8556  0.8895 -0.6336
  508MPD2    H2 7553   1.132   1.079  16.514  2.2084  0.4720 -0.4991
  508MPD2    H3 7554   1.069   0.955  16.311 -2.4037 -0.3649  0.5699
  508MPD2     N 7555   0.976   1.351  16.097  0.1659  0.0884 -0.3281
  508MPD2    H5 7556   0.962   1.451  16.110 -0.1954  0.2045 -1.6657
  508MPD2    N1 7557   1.086   1.330  16.560 -0.5406  0.1757  0.3821
  508MPD2    H7 7558   1.131   1.270  16.628 -1.2585 -1.2524 -0.3960
  509TMC3    C1 7559   0.757   1.569  15.823 -0.2113  0.0119  0.0668
  509TMC3    C2 7560   0.797   1.563  15.690 -0.1060  0.3292  0.3825
  509TMC3    C3 7561   0.890   1.472  15.660  0.4587 -0.0161  0.5007
  509TMC3    C4 7562   0.800   1.471  15.912 -0.3407 -0.0255 -0.0594
  509TMC3    C5 7563   0.893   1.382  15.873 -0.9203 -0.3516  0.0143
  509TMC3    C6 7564   0.942   1.380  15.753 -0.1166  0.1959 -0.5940
  509TMC3     C 7565   0.704   1.694  15.867  0.2105  0.4217  0.7258
  509TMC3     O 7566   0.686   1.701  15.989  0.0446 -0.0070  0.2704
  509TMC3     H 7567   0.765   1.625  15.607 -0.7077  0.2067  0.5226
  509TMC3    H1 7568   0.750   1.483  16.007 -1.2638 -1.1218 -0.4051
  509TMC3    H2 7569   1.026   1.316  15.730 -0.5756 -0.5526 -0.2181
  509TMC3    C7 7570   0.967   1.295  15.969 -0.1318 -0.9611 -0.3975
  509TMC3    C8 7571   1.008   1.521  15.597 -0.0102 -0.1235  0.0712
  509TMC3    O1 7572   1.025   1.197  15.919  0.5239  0.4959  0.1778
  509TMC3    O2 7573   1.090   1.441  15.553 -0.9290  0.1344  0.0369
  510MPD2     C 7574   3.641   3.134  14.973 -0.2812  0.0235  0.3642
  510MPD2    C1 7575   3.708   3.025  15.022  0.6339 -0.7630 -0.5128
  510MPD2    C2 7576   3.821   2.974  14.959  0.5969  0.5345  0.4237
  510MPD2    C3 7577   3.865   3.038  14.845  0.8469  0.2790  0.3999
  510MPD2    C4 7578   3.787   3.137  14.789  0.1550 -0.2687  0.0222
  510MPD2    C5 7579   3.677   3.186  14.852 -0.0717 -0.2815 -0.1524
  510MPD2     H 7580   3.877   2.889  14.995 -0.9977 -1.1570 -1.0664
  510MPD2    H1 7581   3.811   3.181  14.693  1.2804 -1.3812 -0.2172
  510MPD2    H2 7582   3.545   3.169  15.010  0.1430  0.0601  1.4176
  510MPD2    H3 7583   3.617   3.253  14.791  0.6022 -0.7903 -1.3889
  510MPD2     N 7584   3.985   2.989  14.786 -0.0297 -0.1621 -0.1831
  510MPD2    H5 7585   4.040   2.926  14.844 -0.1222 -1.7747 -1.8530
  510MPD2    N1 7586   3.665   2.968  15.147  0.5752 -0.0498 -0.4851
  510MPD2    H7 7587   3.592   3.015  15.199  0.6432 -0.8040  0.2924
  511TMC3    C1 7588   3.669   2.825  15.347 -0.1453  0.2930  0.7758
  511TMC3    C2 7589   3.573   2.908  15.411 -0.3515 -0.1765 -0.1936
  511TMC3    C3 7590   3.494   2.851  15.507 -0.0313 -0.3171 -0.5981
  511TMC3    C4 7591   3.661   2.696  15.366 -0.1967  0.7028  0.7997
  511TMC3    C5 7592   3.579   2.644  15.462  0.1067 -0.7339 -0.0771
  511TMC3    C6 7593   3.494   2.717  15.534 -0.2883 -0.8582 -0.6100
  511TMC3     C 7594   3.723   2.860  15.212 -0.1690  0.2089 -0.3910
  511TMC3     O 7595   3.820   2.790  15.181 -0.7836  0.1652 -0.3151
  511TMC3     H 7596   3.583   3.014  15.394  0.6628  0.1470  2.4154
  511TMC3    H1 7597   3.716   2.628  15.302 -0.3551  0.0084  1.4068
  511TMC3    H2 7598   3.420   2.667  15.595  1.9497  0.0406  2.8076
  511TMC3    C7 7599   3.572   2.500  15.461 -0.0278  0.1218 -0.1004
  511TMC3    C8 7600   3.386   2.937  15.557  0.0069  0.3478  0.1739
  511TMC3    O1 7601   3.681   2.452  15.438 -0.3584 -0.0180  0.1531
  511TMC3    O2 7602   3.407   3.057  15.547 -0.0879 -0.0908  0.4034
  512TMC3    C1 7603   2.612   1.805  14.090  0.1036  0.2260 -0.5652
  512TMC3    C2 7604   2.649   1.907  14.178  0.2207 -0.4815 -0.6022
  512TMC3    C3 7605   2.779   1.897  14.225 -0.3091  0.2702 -0.7563
  512TMC3    C4 7606   2.687   1.701  14.064  0.4603 -0.4660 -0.5376
  512TMC3    C5 7607   2.820   1.697  14.111 -0.2188  0.1995 -0.1285
  512TMC3    C6 7608   2.865   1.794  14.188  0.4745 -0.4582  0.0126
  512TMC3     C 7609   2.510   1.825  13.993 -0.0915 -0.8744 -0.3096
  512TMC3     O 7610   2.483   1.736  13.912 -0.0699 -0.3356  0.0414
  512TMC3     H 7611   2.586   1.989  14.210  0.1942  0.1192 -2.1822
  512TMC3    H1 7612   2.637   1.621  14.011  1.1455 -1.9851  1.0993
  512TMC3    H2 7613   2.963   1.795  14.236  1.0378 -0.0628 -1.1548
  512TMC3    C7 7614   2.898   1.579  14.121  0.5782 -0.0188  0.1616
  512TMC3    C8 7615   2.833   2.000  14.315  0.4739  0.5800  0.2480
  512TMC3    O1 7616   2.974   1.565  14.216  0.4737 -0.1342 -0.6942
  512TMC3    O2 7617   2.916   1.945  14.388  0.0173 -0.1821 -0.0769
  513MPD2     C 7618   4.469   2.659  12.925  0.2137 -0.2184 -0.4729
  513MPD2    C1 7619   4.487   2.782  12.973  0.0300 -0.0292  0.4863
  513MPD2    C2 7620   4.469   2.811  13.106  0.0401  0.1735  0.0834
  513MPD2    C3 7621   4.464   2.710  13.192  0.8802 -0.3443  0.5574
  513MPD2    C4 7622   4.445   2.582  13.152 -0.0263  0.4331  0.7303
  513MPD2    C5 7623   4.448   2.555  13.017  0.3700 -0.6273  0.4429
  513MPD2     H 7624   4.472   2.911  13.146 -1.5717  0.0007  0.6268
  513MPD2    H1 7625   4.430   2.499  13.220  1.0271  1.1536  1.8416
  513MPD2    H2 7626   4.481   2.633  12.820 -1.0180  1.1193 -0.9560
  513MPD2    H3 7627   4.436   2.461  12.966  0.1852  0.4878 -1.5556
  513MPD2     N 7628   4.462   2.749  13.330  0.0094  0.0512  0.3061
  513MPD2    H5 7629   4.457   2.848  13.349 -1.6568 -0.0194  0.2364
  513MPD2    N1 7630   4.530   2.888  12.888  0.2599 -0.4365 -1.1622
  513MPD2    H7 7631   4.561   2.974  12.933 -1.3938  0.0371 -0.9176
  514TMC3    C1 7632   4.633   2.983  12.704 -0.0077 -0.0924  0.5315
  514TMC3    C2 7633   4.572   3.059  12.611 -0.4156  0.0659 -0.0074
  514TMC3    C3 7634   4.581   3.196  12.628  0.0930  0.2264  0.3149
  514TMC3    C4 7635   4.703   3.041  12.803 -0.1214 -0.2491 -1.2869
  514TMC3    C5 7636   4.701   3.173  12.816  0.4744 -0.2070  0.3597
  514TMC3    C6 7637   4.651   3.262  12.726 -0.6242 -0.1905 -0.4305
  514TMC3     C 7638   4.539   2.878  12.754  0.5710  0.0109  0.1511
  514TMC3     O 7639   4.478   2.805  12.677 -0.0363 -0.1081 -0.1818
  514TMC3     H 7640   4.492   3.019  12.551 -0.8679 -0.8747  1.2303
  514TMC3    H1 7641   0.028   2.991  12.887 -0.8595 -0.5900 -1.0800
  514TMC3    H2 7642   4.670   3.368  12.738 -0.8589 -0.3480  1.2958
  514TMC3    C7 7643   4.691   3.204  12.961  0.5514  0.2193  0.1680
  514TMC3    C8 7644   4.508   3.292  12.536  0.1692  0.0867 -0.4111
  514TMC3    O1 7645   4.607   3.128  13.011 -0.4831  0.1458 -0.5277
  514TMC3    O2 7646   4.472   3.398  12.581 -0.4177 -0.4991 -0.0894
  515MPD2     C 7647   2.720   4.252  15.494  0.0334  0.7315 -0.2167
  515MPD2    C1 7648   2.778   4.216  15.374 -0.3134  0.1038 -0.0126
  515MPD2    C2 7649   2.874   4.296  15.316  0.3671  0.6359  1.1400
  515MPD2    C3 7650   2.942   4.380  15.396 -0.2862  0.0316 -0.0141
  515MPD2    C4 7651   2.898   4.403  15.525 -0.0458  0.2833  1.0430
  515MPD2    C5 7652   2.784   4.347  15.569 -0.1982  0.8068  0.2264
  515MPD2     H 7653   2.900   4.278  15.212  0.3075  0.1688  1.2058
  515MPD2    H1 7654   2.953   4.472  15.587  1.4234 -1.2302  1.4315
  515MPD2    H2 7655   2.635   4.199  15.535  0.3746  0.4626  0.1568
  515MPD2    H3 7656   2.738   4.375  15.663 -1.7785  0.5313 -0.4641
  515MPD2     N 7657   3.056   4.455  15.366 -0.1618 -0.2104  0.4921
  515MPD2    H5 7658   3.081   4.534  15.426 -2.6628  0.8227  0.1800
  515MPD2    N1 7659   2.722   4.120  15.287 -0.3666  0.6769 -0.1133
  515MPD2    H7 7660   2.759   4.109  15.193  2.9582 -0.4396  1.3254
  516TMC3    C1 7661   2.614   3.930  15.208 -0.3287 -0.3626 -0.2720
  516TMC3    C2 7662   2.551   3.990  15.110  0.1548 -0.4566  0.2563
  516TMC3    C3 7663   2.432   3.934  15.060 -0.9130  0.2320 -0.3689
  516TMC3    C4 7664   2.571   3.805  15.247 -0.2497 -0.5521  0.5700
  516TMC3    C5 7665   2.478   3.740  15.170  0.4587 -0.0495 -0.4858
  516TMC3    C6 7666   2.389   3.808  15.087 -0.1021 -0.5568 -0.3595
  516TMC3     C 7667   2.653   4.012  15.323  0.0560 -0.2007  0.0595
  516TMC3     O 7668   2.617   3.973  15.435  0.4714 -0.2055 -0.3611
  516TMC3     H 7669   2.581   4.089  15.080  0.2242  0.0418  2.0061
  516TMC3    H1 7670   2.617   3.753  15.331 -0.0643 -1.7249 -0.2656
  516TMC3    H2 7671   2.297   3.764  15.051 -0.5904 -0.4340  0.7370
  516TMC3    C7 7672   2.423   3.618  15.230  0.1073  0.2497  0.6303
  516TMC3    C8 7673   2.358   4.011  14.960 -0.0119  0.2282  0.3305
  516TMC3    O1 7674   2.435   3.606  15.349 -0.7168 -0.4061  0.3723
  516TMC3    O2 7675   2.296   3.948  14.873 -0.2214  0.1430 -0.3440
  517MPD2     C 7676   1.869   1.167  17.514 -0.3294 -0.1714  0.0232
  517MPD2    C1 7677   1.977   1.175  17.601  0.4893 -1.2267  0.0905
  517MPD2    C2 7678   1.978   1.285   0.000  0.1218 -0.4731  0.3654
  517MPD2    C3 7679   1.870   1.371   0.019  0.3603 -0.4563 -0.7536
  517MPD2    C4 7680   1.762   1.355  17.625 -0.2503 -0.2373 -0.5093
  517MPD2    C5 7681   1.761   1.259  17.528 -0.7039  0.1970 -0.1869
  517MPD2     H 7682   2.066   1.292   0.063  0.5242  2.8032 -0.5627
  517MPD2    H1 7683   1.674   1.418  17.621 -0.4171 -0.5811 -2.2533
  517MPD2    H2 7684   1.870   1.098  17.430  1.6189 -1.0300  0.7658
  517MPD2    H3 7685   1.693   1.265  17.444 -2.2619  0.9051  1.1247
  517MPD2     N 7686   1.861   1.483   0.110 -0.0531 -0.5901 -0.0170
  517MPD2    H5 7687   1.771   1.525   0.129 -0.6541 -1.7322 -0.3433
  517MPD2    N1 7688   2.089   1.090  17.594 -0.0049  0.8198 -0.1960
  517MPD2    H7 7689   2.162   1.119  17.659  1.9785 -1.9082 -1.2476
  518TMC3    C1 7690   2.227   0.898  17.529  0.0331 -0.1876 -0.0133
  518TMC3    C2 7691   2.225   0.778  17.465  0.1787  0.1127 -1.4082
  518TMC3    C3 7692   2.319   0.693  17.506 -0.5183  0.2439  0.2477
  518TMC3    C4 7693   2.327   0.936  17.605  0.2760 -0.5333 -0.7894
  518TMC3    C5 7694   2.431   0.856  17.633  0.0311 -0.5166 -0.4231
  518TMC3    C6 7695   2.429   0.726  17.587 -0.3276 -0.0849 -0.8490
  518TMC3     C 7696   2.106   0.977  17.513 -0.5030  0.0951  0.2008
  518TMC3     O 7697   2.025   0.936  17.429 -0.0138  0.4867 -0.3459
  518TMC3     H 7698   2.136   0.749  17.410 -0.7159  0.1915 -0.0040
  518TMC3    H1 7699   2.344   1.034  17.648 -1.7167 -0.6420  0.2248
  518TMC3    H2 7700   2.506   0.653  17.606 -0.8952 -0.4042  0.2892
  518TMC3    C7 7701   2.556   0.923  17.647  0.0293 -0.2839  0.3449
  518TMC3    C8 7702   2.325   0.576  17.427 -0.7018 -0.6643  0.2799
  518TMC3    O1 7703   2.561   1.011   0.043  0.3050 -1.1024 -0.6312
  518TMC3    O2 7704   2.351   0.471  17.484 -0.5284  0.2030 -0.2763
  519MPD2     C 7705   3.595   4.130  14.593  0.3516 -0.6285 -0.0428
  519MPD2    C1 7706   3.499   4.025  14.584  0.6386  0.4443  1.0979
  519MPD2    C2 7707   3.521   3.905  14.641 -0.0287  0.2787 -0.1773
  519MPD2    C3 7708   3.640   3.878  14.709  1.1159 -0.0779  0.1874
  519MPD2    C4 7709   3.732   3.979  14.720  0.2197 -0.0430  0.3512
  519MPD2    C5 7710   3.712   4.105  14.664 -0.5767  0.1587 -0.1428
  519MPD2     H 7711   3.440   3.834  14.649 -0.0231  0.3050  0.1454
  519MPD2    H1 7712   3.828   3.960  14.766  1.0771  0.8292 -1.0733
  519MPD2    H2 7713   3.585   4.231  14.554 -0.4894 -0.1885  1.3243
  519MPD2    H3 7714   3.785   4.185  14.666  0.8984 -1.1802  0.1983
  519MPD2     N 7715   3.688   3.754  14.763 -0.0023 -0.0871 -0.4981
  519MPD2    H5 7716   3.789   3.743  14.760  0.0414  0.3663 -0.6298
  519MPD2    N1 7717   3.381   4.045  14.518 -0.1762 -0.4015 -0.4086
  519MPD2    H7 7718   3.367   4.133  14.470 -1.3838 -0.0941  0.5022
  520TMC3    C1 7719   3.683   3.524  14.749 -0.9566 -0.1844  0.2674
  520TMC3    C2 7720   3.616   3.466  14.643  1.1497 -0.6051  0.7216
  520TMC3    C3 7721   3.689   3.426  14.534  0.7557  0.1612 -0.0784
  520TMC3    C4 7722   3.823   3.525  14.748 -0.2654 -0.7434  0.4041
  520TMC3    C5 7723   3.887   3.475  14.637 -0.7013  0.3080 -0.8172
  520TMC3    C6 7724   3.823   3.429  14.530 -0.2770 -0.1819  0.3141
  520TMC3     C 7725   3.614   3.645  14.785  0.5537  0.0412 -0.0715
  520TMC3     O 7726   3.491   3.643  14.792  0.3156  0.0360 -0.1848
  520TMC3     H 7727   3.511   3.488  14.626  0.1760 -3.6646  2.7901
  520TMC3    H1 7728   3.871   3.570  14.834  2.5403  0.9984 -2.0914
  520TMC3    H2 7729   3.875   3.376  14.451  1.5333 -2.1033  2.7945
  520TMC3    C7 7730   4.030   3.452  14.651  0.0787 -0.2020  0.7988
  520TMC3    C8 7731   3.635   3.473  14.409 -0.7327  0.4665  0.7732
  520TMC3    O1 7732   4.077   3.440  14.761 -0.1888 -0.8279 -0.1221
  520TMC3    O2 7733   3.714   3.548  14.346  0.1060 -0.4278  0.1584
  521MPD2     C 7734   4.472   2.024   0.250  0.5848  0.2415 -0.1209
  521MPD2    C1 7735   4.447   1.904   0.194 -0.0668 -0.6246  0.3818
  521MPD2    C2 7736   4.552   1.824   0.141 -0.4006 -0.6013  0.3876
  521MPD2    C3 7737   4.679   1.871   0.141 -0.0567 -0.5419  0.2853
  521MPD2    C4 7738   4.707   2.000   0.191  0.2359  0.3317  0.1228
  521MPD2    C5 7739   4.598   2.076   0.241 -0.0508 -0.2601  0.2719
  521MPD2     H 7740   4.522   1.725   0.107 -0.8333 -0.3164 -0.0400
  521MPD2    H1 7741   0.086   2.041   0.193  0.7083 -0.7795 -1.3736
  521MPD2    H2 7742   4.390   2.081   0.292 -0.3772 -0.9484 -0.3587
  521MPD2    H3 7743   4.608   2.176   0.282 -1.8995  1.1844 -2.8353
  521MPD2     N 7744   0.053   1.782   0.077  0.2631 -0.1989  0.6831
  521MPD2    H5 7745   0.017   1.696   0.037  1.6572 -1.7246  2.6922
  521MPD2    N1 7746   4.307   1.865   0.201  0.7368  0.3099  0.2722
  521MPD2    H7 7747   4.253   1.911   0.274  1.9250  0.4351  1.0619
  522TMC3    C1 7748   0.246   1.711  17.662  0.1703 -0.2256  0.9913
  522TMC3    C2 7749   0.386   1.722  17.673 -0.3749  0.3459  0.6599
  522TMC3    C3 7750   0.450   1.654  17.566  0.7092  0.3482 -0.6702
  522TMC3    C4 7751   0.181   1.657  17.556 -0.2693 -0.5264 -0.3818
  522TMC3    C5 7752   0.249   1.586  17.466  0.2005  0.0755  0.1334
  522TMC3    C6 7753   0.393   1.589  17.463  0.6509  0.5231  0.2563
  522TMC3     C 7754   0.187   1.802   0.067 -0.8279 -0.0533  0.0446
  522TMC3     O 7755   0.260   1.876   0.133 -0.7557 -0.3629 -0.5609
  522TMC3     H 7756   0.439   1.757   0.073  0.6926 -0.9472  0.5313
  522TMC3    H1 7757   0.073   1.652  17.553 -0.1685 -1.9735 -1.5189
  522TMC3    H2 7758   0.451   1.534  17.389 -1.3122 -1.5150  0.2408
  522TMC3    C7 7759   0.177   1.481  17.390 -0.0644  0.5169  0.2598
  522TMC3    C8 7760   0.591   1.634  17.581 -0.3775  0.3315 -0.3637
  522TMC3    O1 7761   0.259   1.395  17.365  0.7354 -0.0373  0.0729
  522TMC3    O2 7762   0.636   1.641   0.003  0.0982  0.7153  0.0129
  523MPD2     C 7763   2.282   1.975  10.200 -0.6448 -0.1453  0.1461
  523MPD2    C1 7764   2.270   1.895  10.083  0.0414 -0.5635  0.6780
  523MPD2    C2 7765   2.200   1.943   9.971 -0.1177 -0.6347 -0.0587
  523MPD2    C3 7766   2.134   2.065   9.986 -0.0303  0.0502 -0.2261
  523MPD2    C4 7767   2.132   2.135  10.110  0.1131  0.3978 -0.1334
  523MPD2    C5 7768   2.214   2.094  10.212  0.5181  0.2700 -0.2230
  523MPD2     H 7769   2.185   1.885   9.881  0.9090  0.1902 -0.7604
  523MPD2    H1 7770   2.093   2.235  10.122 -0.8686  0.3009 -2.3808
  523MPD2    H2 7771   2.345   1.934  10.278 -0.7562 -0.1847  0.2169
  523MPD2    H3 7772   2.233   2.167  10.291 -0.7674  0.7855 -0.4038
  523MPD2     N 7773   2.061   2.124   9.877 -0.0415 -0.1112  0.1777
  523MPD2    H5 7774   2.003   2.202   9.906 -1.5239 -1.1193 -0.0726
  523MPD2    N1 7775   2.333   1.766  10.082  0.5538  0.5127 -0.4868
  523MPD2    H7 7776   2.378   1.755  10.172 -1.0888  0.4755  0.3191
  524TMC3    C1 7777   1.973   2.157   9.662  0.1770  0.1283  0.5322
  524TMC3    C2 7778   1.915   2.082   9.563  0.5119  0.0317  0.5314
  524TMC3    C3 7779   1.816   2.139   9.491  0.0615 -0.2427  0.5289
  524TMC3    C4 7780   1.940   2.286   9.689 -0.3473 -0.7983  0.6075
  524TMC3    C5 7781   1.839   2.336   9.620  0.1461  0.2964 -0.0065
  524TMC3    C6 7782   1.773   2.264   9.522  0.5065 -0.1814 -0.3017
  524TMC3     C 7783   2.067   2.085   9.742  0.0931  0.4370  0.4102
  524TMC3     O 7784   2.107   1.978   9.698 -0.0637  0.3296  0.4784
  524TMC3     H 7785   1.928   1.974   9.568  2.6520  0.2397 -0.3878
  524TMC3    H1 7786   1.989   2.352   9.759  1.8004 -1.1829 -0.5367
  524TMC3    H2 7787   1.685   2.308   9.476  0.4892  0.0336 -0.0652
  524TMC3    C7 7788   1.805   2.474   9.641  0.5006 -0.0037 -0.2696
  524TMC3    C8 7789   1.766   2.078   9.371 -0.4462 -0.6602  0.4685
  524TMC3    O1 7790   1.841   2.532   9.741  0.3979 -0.4246  0.1652
  524TMC3    O2 7791   1.660   2.128   9.326 -0.4734 -0.7328 -0.5849
  525MPD2     C 7792   0.313   3.207  14.886 -0.8982  0.7297  0.1282
  525MPD2    C1 7793   0.441   3.235  14.926  0.2421 -0.3465  0.0006
  525MPD2    C2 7794   0.504   3.350  14.883  0.5943  0.4594 -1.1086
  525MPD2    C3 7795   0.445   3.433  14.793 -0.5962  0.0303 -0.7357
  525MPD2    C4 7796   0.321   3.401  14.742 -0.5071 -0.3424  0.0130
  525MPD2    C5 7797   0.263   3.286  14.781  0.4355  0.5553 -0.5561
  525MPD2     H 7798   0.591   3.383  14.939 -0.4978 -1.1122  1.5401
  525MPD2    H1 7799   0.279   3.467  14.668 -1.1000 -0.2331  0.4464
  525MPD2    H2 7800   0.253   3.120  14.912  1.3248 -0.0994  2.4527
  525MPD2    H3 7801   0.163   3.260  14.750 -0.1122  1.5820  0.3493
  525MPD2     N 7802   0.487   3.562  14.755  0.4600 -0.2434 -0.4551
  525MPD2    H5 7803   0.414   3.615  14.710 -2.0019 -2.8843  0.4496
  525MPD2    N1 7804   0.513   3.156  15.017  0.3754  0.2814  0.1987
  525MPD2    H7 7805   0.609   3.184  15.034 -0.0747  0.5978  2.2056
  526TMC3    C1 7806   0.555   3.001  15.195 -0.2245  0.1244 -0.1874
  526TMC3    C2 7807   0.505   2.957  15.309 -0.4371 -0.3128  0.6909
  526TMC3    C3 7808   0.592   2.919  15.410  0.8792 -0.3846 -0.0319
  526TMC3    C4 7809   0.678   2.981  15.153  0.8243 -0.2721 -0.8994
  526TMC3    C5 7810   0.763   2.928  15.243  0.6025 -0.1631 -1.0854
  526TMC3    C6 7811   0.724   2.903  15.374  0.0943 -0.2366  0.8438
  526TMC3     C 7812   0.458   3.054  15.096 -0.2303  0.7485  0.0575
  526TMC3     O 7813   0.342   3.020  15.107  0.2572 -0.8933  0.1917
  526TMC3     H 7814   0.399   2.977  15.324 -0.6615 -2.7480  2.3161
  526TMC3    H1 7815   0.711   3.006  15.052 -1.6047  0.3501 -1.5585
  526TMC3    H2 7816   0.795   2.857  15.441  1.0020  0.3621  0.2977
  526TMC3    C7 7817   0.877   2.851  15.202 -0.0410 -0.2357  0.4540
  526TMC3    C8 7818   0.566   2.962  15.549  0.0556  0.0516 -1.2378
  526TMC3    O1 7819   0.964   2.827  15.286  0.0096  0.3478 -0.5886
  526TMC3    O2 7820   0.665   2.971  15.620 -0.4520 -0.3700  0.0688
  527MPD2     C 7821   3.130   1.879   1.355 -0.3581  0.0628  0.2898
  527MPD2    C1 7822   3.170   1.758   1.410  1.0686  0.6362 -0.0765
  527MPD2    C2 7823   3.286   1.691   1.360  0.4484  0.1795 -0.2113
  527MPD2    C3 7824   3.338   1.746   1.253 -0.0225  0.4767  0.2932
  527MPD2    C4 7825   3.289   1.864   1.195 -0.0821  0.7748 -0.3855
  527MPD2    C5 7826   3.196   1.938   1.255  0.2440 -0.0378  0.4606
  527MPD2     H 7827   3.329   1.598   1.395  0.2935  0.4267  0.6411
  527MPD2    H1 7828   3.338   1.912   1.111 -0.1828 -0.3718 -1.1050
  527MPD2    H2 7829   3.056   1.946   1.396  0.4579 -0.2851  2.3420
  527MPD2    H3 7830   3.164   2.031   1.210 -0.7411  0.7641  2.8202
  527MPD2     N 7831   3.447   1.667   1.198  0.2839  0.1274 -0.1212
  527MPD2    H5 7832   3.483   1.583   1.242 -1.5776 -0.7212 -0.2178
  527MPD2    N1 7833   3.114   1.714   1.532  0.3920  0.7411 -0.2905
  527MPD2    H7 7834   3.157   1.628   1.565  2.4737  1.3611 -1.3456
  528TMC3    C1 7835   2.950   1.690   1.703  0.7063  0.6984  0.6518
  528TMC3    C2 7836   3.035   1.625   1.787 -0.5076 -0.1835 -0.0011
  528TMC3    C3 7837   2.983   1.552   1.887  0.4556 -0.2176 -0.5621
  528TMC3    C4 7838   2.818   1.698   1.728 -0.3410  0.3231 -0.5960
  528TMC3    C5 7839   2.772   1.627   1.836  0.6708  0.5176 -0.1630
  528TMC3    C6 7840   2.846   1.543   1.915 -0.4351 -0.5430 -0.8076
  528TMC3     C 7841   2.998   1.757   1.585 -0.0187 -0.4891 -0.5445
  528TMC3     O 7842   2.911   1.828   1.534  0.8279 -0.2140  0.9504
  528TMC3     H 7843   3.142   1.638   1.773 -0.9240  2.2786 -0.8311
  528TMC3    H1 7844   2.748   1.761   1.675  0.2832  0.7287 -0.9352
  528TMC3    H2 7845   2.804   1.477   1.990  0.6926 -0.6351 -0.2536
  528TMC3    C7 7846   2.625   1.638   1.859  0.5267 -0.7333 -0.3094
  528TMC3    C8 7847   3.081   1.516   1.991  1.0787  0.0152 -0.7892
  528TMC3    O1 7848   2.561   1.685   1.765  0.3823  0.5524 -0.5165
  528TMC3    O2 7849   3.195   1.560   1.988 -0.4193 -0.5955 -0.0347
  529MPD2     C 7850   0.454   4.657   1.189 -1.2197 -0.1037  0.5786
  529MPD2    C1 7851   0.583   4.674   1.150 -0.0736  0.2634 -0.0583
  529MPD2    C2 7852   0.617   0.041   1.053  0.5594  0.2965 -0.0281
  529MPD2    C3 7853   0.521   0.123   0.994 -0.4790  0.1019 -0.2543
  529MPD2    C4 7854   0.394   0.107   1.028  0.3936 -0.3602 -0.2809
  529MPD2    C5 7855   0.361   0.019   1.127  0.2794  0.1643 -0.7693
  529MPD2     H 7856   0.721   0.041   1.020  0.6022 -3.0063  0.1486
  529MPD2    H1 7857   0.310   0.153   0.977  1.0391  0.4855 -0.5924
  529MPD2    H2 7858   0.408   4.593   1.263 -1.1226 -0.4117  0.3687
  529MPD2    H3 7859   0.257   0.003   1.154  0.6543  0.9212  1.1030
  529MPD2     N 7860   0.548   0.228   0.895 -0.0871  0.0433  0.0780
  529MPD2    H5 7861   0.462   0.272   0.864  0.4613  0.4112 -0.9146
  529MPD2    N1 7862   0.689   4.586   1.203  0.0337  0.5126  0.0139
  529MPD2    H7 7863   0.784   4.614   1.181  0.0551  0.4360  0.0072
  530TMC3    C1 7864   0.775   4.422   1.355 -0.1989 -0.0551  0.3441
  530TMC3    C2 7865   0.892   4.494   1.366 -0.6145  0.2638  0.7517
  530TMC3    C3 7866   0.993   4.443   1.447  0.3634  0.5858  0.5406
  530TMC3    C4 7867   0.756   4.312   1.438 -0.1015  0.0233 -0.6020
  530TMC3    C5 7868   0.859   4.272   1.526 -0.1192 -0.4933  0.6411
  530TMC3    C6 7869   0.978   4.340   1.530 -0.1086  0.1574  0.0615
  530TMC3     C 7870   0.660   4.474   1.282  0.0456 -0.3451 -0.2543
  530TMC3     O 7871   0.546   4.423   1.298  0.1471 -0.1390 -0.1157
  530TMC3     H 7872   0.914   4.586   1.313 -1.0570 -0.0239  0.0701
  530TMC3    H1 7873   0.668   4.249   1.438 -0.2778  0.2442  1.5101
  530TMC3    H2 7874   1.059   4.310   1.595  0.9754  1.8933 -0.5188
  530TMC3    C7 7875   0.858   4.141   1.596 -0.7425 -0.0879 -0.0660
  530TMC3    C8 7876   1.096   4.540   1.479 -0.3033 -0.3203  0.1216
  530TMC3    O1 7877   0.960   4.100   1.647 -0.2808 -0.0367 -0.4676
  530TMC3    O2 7878   1.051   4.654   1.470 -0.3321 -0.0190  0.0279
  531MPD2     C 7879   0.222   3.247  13.407  0.7531  0.2305 -0.6973
  531MPD2    C1 7880   0.114   3.183  13.374  0.6009  0.2209 -0.2911
  531MPD2    C2 7881   0.056   3.196  13.250  0.1668 -0.3475 -0.2941
  531MPD2    C3 7882   0.118   3.272  13.150  0.1302  0.4649 -0.3702
  531MPD2    C4 7883   0.231   3.345  13.177  0.1077 -0.5894  0.1964
  531MPD2    C5 7884   0.281   3.326  13.305 -0.0825  0.2206 -0.1424
  531MPD2     H 7885   4.693   3.132  13.227 -0.5625  0.9351 -1.1833
  531MPD2    H1 7886   0.280   3.406  13.102 -2.3232 -0.6553 -1.4520
  531MPD2    H2 7887   0.256   3.239  13.510 -0.5333 -0.2355 -0.3081
  531MPD2    H3 7888   0.372   3.381  13.326  1.4530 -1.2139 -2.9914
  531MPD2     N 7889   0.067   3.281  13.020  0.6655  0.6932  1.4934
  531MPD2    H5 7890   0.137   3.317  12.956 -1.5412 -0.6554 -1.6427
  531MPD2    N1 7891   0.057   3.107  13.475 -0.1015 -0.3254 -0.3274
  531MPD2    H7 7892   0.123   3.083  13.548  0.7200  0.4555 -0.8029
  532TMC3    C1 7893   4.651   2.932  13.564 -0.3495  0.4788 -0.4361
  532TMC3    C2 7894   4.530   2.869  13.556  0.1696 -0.0687 -0.3364
  532TMC3    C3 7895   4.523   2.731  13.555  0.6565 -0.7657 -0.5905
  532TMC3    C4 7896   0.042   2.865  13.609  0.5229 -0.5617 -0.0838
  532TMC3    C5 7897   0.028   2.734  13.621 -0.8947  0.1251 -0.1210
  532TMC3    C6 7898   4.637   2.665  13.596  0.1710 -0.3860 -0.1892
  532TMC3     C 7899   4.662   3.037  13.469  0.6207 -1.1539 -0.2441
  532TMC3     O 7900   4.574   3.053  13.390 -0.0303  0.0709 -0.1530
  532TMC3     H 7901   4.444   2.926  13.523  0.2047  0.6200  0.7679
  532TMC3    H1 7902   0.139   2.913  13.603  0.5075 -0.3561  1.3217
  532TMC3    H2 7903   4.637   2.561  13.625 -0.8816 -0.0287  1.1109
  532TMC3    C7 7904   0.137   2.660  13.680  0.5137  0.2349  0.5571
  532TMC3    C8 7905   4.463   2.664  13.439  0.7974  0.2833 -0.0283
  532TMC3    O1 7906   0.197   2.705  13.776  0.2298  0.0432 -0.1389
  532TMC3    O2 7907   4.483   2.545  13.437  0.4764 -0.0159 -0.2288
  533TMC3    C1 7908   0.605   3.743  14.786  0.3325 -0.4203 -0.0137
  533TMC3    C2 7909   0.712   3.812  14.749 -0.1180  0.1232 -0.0757
  533TMC3    C3 7910   0.721   3.946  14.775  0.1985  0.4627  0.4221
  533TMC3    C4 7911   0.512   3.794  14.870  0.0548 -0.3402  1.1580
  533TMC3    C5 7912   0.531   3.928  14.909  0.2518 -0.2981  0.6449
  533TMC3    C6 7913   0.632   4.009  14.862 -0.0477  0.7840 -0.4475
  533TMC3     C 7914   0.612   3.607  14.781 -0.3545 -0.6180  0.0329
  533TMC3     O 7915   0.721   3.548  14.781 -0.3854 -0.1220 -0.2187
  533TMC3     H 7916   0.783   3.761  14.684  0.5771 -3.1216  3.1684
  533TMC3    H1 7917   0.443   3.739  14.934 -0.2211 -0.4467  0.7663
  533TMC3    H2 7918   0.646   4.113  14.889 -0.2432  0.4603  0.9072
  533TMC3    C7 7919   0.486   3.949  15.050  0.6165  0.1413  0.0602
  533TMC3    C8 7920   0.837   4.007  14.724 -0.0127 -0.3212 -0.1399
  533TMC3    O1 7921   0.410   3.868  15.102  0.2387  0.4773 -0.1943
  533TMC3    O2 7922   0.942   3.941  14.731  0.3029 -0.5210 -0.1622
  534MPD2     C 7923   2.843   0.598   2.121 -0.3984  0.6361 -0.6411
  534MPD2    C1 7924   2.857   0.651   1.995 -0.4145  0.7326  0.5705
  534MPD2    C2 7925   2.821   0.572   1.886 -0.2659  0.1445  0.0568
  534MPD2    C3 7926   2.777   0.441   1.897 -0.0972 -0.4255  0.0849
  534MPD2    C4 7927   2.767   0.387   2.023  0.3007 -0.3555 -0.7063
  534MPD2    C5 7928   2.803   0.468   2.127 -0.6616 -0.0432 -0.3404
  534MPD2     H 7929   2.833   0.621   1.790 -0.5942  1.6192  0.7636
  534MPD2    H1 7930   2.727   0.288   2.039  1.0660 -0.2046  2.1798
  534MPD2    H2 7931   2.878   0.651   2.208  1.2864 -2.1367  0.3766
  534MPD2    H3 7932   2.795   0.416   2.222  2.4221 -1.4453 -0.8763
  534MPD2     N 7933   2.733   0.358   1.793  0.0759  0.2035 -0.3348
  534MPD2    H5 7934   2.691   0.273   1.829  0.3219  0.4166  0.4476
  534MPD2    N1 7935   2.921   0.773   1.974  0.0398 -0.0773 -0.4032
  534MPD2    H7 7936   2.904   0.816   1.884 -0.2072  2.9392  1.0632
  535TMC3    C1 7937   2.682   0.273   1.580 -0.1747  0.5061 -0.6330
  535TMC3    C2 7938   2.613   0.174   1.638  0.1782  0.5747  0.1161
  535TMC3    C3 7939   2.571   0.080   1.545  0.1572 -0.1180 -0.1120
  535TMC3    C4 7940   2.718   0.281   1.445 -0.0775  0.0353 -0.1601
  535TMC3    C5 7941   2.689   0.168   1.372 -0.3073  0.2506 -0.3910
  535TMC3    C6 7942   2.629   0.057   1.422  0.1414  0.3064  0.4674
  535TMC3     C 7943   2.744   0.378   1.659 -0.1212  0.2067 -0.0464
  535TMC3     O 7944   2.799   0.474   1.608 -0.0160 -0.2051 -0.0407
  535TMC3     H 7945   2.586   0.168   1.743 -0.0995  1.3469  0.0924
  535TMC3    H1 7946   2.790   0.356   1.417  0.9431 -0.3832  1.3196
  535TMC3    H2 7947   2.594   4.695   1.362 -1.7539  0.7290  0.9915
  535TMC3    C7 7948   2.755   0.140   1.244  0.2541  0.1138  0.2803
  535TMC3    C8 7949   2.432   0.037   1.554  0.3339 -0.1737 -0.3095
  535TMC3    O1 7950   2.801   0.030   1.219 -0.1060  0.1889 -0.8289
  535TMC3    O2 7951   2.391   4.661   1.492 -0.3419 -0.3940 -0.3190
  536MPD2     C 7952   1.862   2.692  16.652 -0.1179  0.4237  0.1722
  536MPD2    C1 7953   1.957   2.795  16.656  0.0094 -0.8339 -0.3706
  536MPD2    C2 7954   1.919   2.910  16.581 -0.1762 -0.5293 -0.0494
  536MPD2    C3 7955   1.795   2.920  16.522 -0.0858  0.2150  0.1314
  536MPD2    C4 7956   1.711   2.811  16.515 -0.5212 -0.5772 -0.3321
  536MPD2    C5 7957   1.746   2.691  16.579  0.9447 -0.3703 -0.5525
  536MPD2     H 7958   1.974   3.000  16.606 -1.1184  0.6500 -2.1627
  536MPD2    H1 7959   1.611   2.813  16.473 -0.3929 -1.6819 -0.6981
  536MPD2    H2 7960   1.881   2.603  16.710 -2.9724 -0.6295 -0.4624
  536MPD2    H3 7961   1.679   2.607  16.590  0.0537  0.5689  1.2100
  536MPD2     N 7962   1.761   3.041  16.457 -0.2576 -0.0533 -0.2805
  536MPD2    H5 7963   1.677   3.044  16.400 -1.1312 -0.6134  0.9744
  536MPD2    N1 7964   2.061   2.784  16.751  0.0622 -0.6864 -0.0491
  536MPD2    H7 7965   2.041   2.719  16.826  2.6166  0.0310  1.2544
  537TMC3    C1 7966   2.219   2.859  16.913 -0.2964  0.1029 -0.0431
  537TMC3    C2 7967   2.266   2.976  16.968  1.2235 -0.2735 -0.8099
  537TMC3    C3 7968   2.264   2.985  17.101 -0.0004  0.0684 -0.0239
  537TMC3    C4 7969   2.202   2.750  16.992 -0.3880 -0.4492  0.0584
  537TMC3    C5 7970   2.225   2.759  17.130 -0.6142  0.0426  0.4515
  537TMC3    C6 7971   2.261   2.880  17.184 -0.0052  0.2024  0.1680
  537TMC3     C 7972   2.158   2.871  16.773 -0.2502 -0.1136  0.3094
  537TMC3     O 7973   2.182   2.972  16.707 -0.3205  0.3214 -0.3420
  537TMC3     H 7974   2.285   3.062  16.905  2.1534 -0.8447 -1.3183
  537TMC3    H1 7975   2.161   2.657  16.954 -2.7444 -0.2287  2.0782
  537TMC3    H2 7976   2.274   2.905  17.289 -0.5921 -0.7052  0.4488
  537TMC3    C7 7977   2.216   2.649  17.223  0.7949 -0.0828  0.1270
  537TMC3    C8 7978   2.274   3.121  17.157  1.2709 -0.2711 -0.4335
  537TMC3    O1 7979   2.285   2.654  17.325  0.1481  0.0200 -0.3848
  537TMC3    O2 7980   2.312   3.142  17.270  0.0772  0.2922  0.3035
  538TMC3    C1 7981   3.185   1.677  11.157  0.4319 -0.1923  0.0322
  538TMC3    C2 7982   3.252   1.615  11.056 -0.0785  0.8099 -0.0551
  538TMC3    C3 7983   3.188   1.608  10.933  0.1827  0.9066 -0.0024
  538TMC3    C4 7984   3.060   1.734  11.146 -1.1316  0.8432  0.6293
  538TMC3    C5 7985   3.000   1.719  11.021  0.2684 -0.1673  0.0174
  538TMC3    C6 7986   3.055   1.647  10.923  0.2230  0.1351 -0.0891
  538TMC3     C 7987   3.234   1.668  11.290 -0.4971 -0.7191 -0.1537
  538TMC3     O 7988   3.182   1.743  11.371 -0.5798 -0.0953 -0.4304
  538TMC3     H 7989   3.357   1.589  11.060  0.0921  1.4930 -0.1123
  538TMC3    H1 7990   3.013   1.774  11.235 -0.3446  0.6334  1.1390
  538TMC3    H2 7991   3.014   1.651  10.822  1.0455 -2.8924 -0.5401
  538TMC3    C7 7992   2.865   1.755  11.010  0.3252 -0.3145 -0.1387
  538TMC3    C8 7993   3.242   1.513  10.848  0.7369 -0.9203  0.5334
  538TMC3    O1 7994   2.800   1.685  10.935  0.1073 -0.4874  0.6063
  538TMC3    O2 7995   3.162   1.453  10.780  0.4970 -0.1804 -0.1375
  539MPD2     C 7996   2.604   0.594  11.379 -0.0625  0.1887  0.4424
  539MPD2    C1 7997   2.725   0.648  11.332 -0.7530  0.3946 -0.2526
  539MPD2    C2 7998   2.729   0.766  11.267 -0.1391 -0.2412  0.0075
  539MPD2    C3 7999   2.605   0.812  11.222 -0.4768  0.5927 -0.0289
  539MPD2    C4 8000   2.479   0.749  11.256  0.1684 -0.1379 -0.1107
  539MPD2    C5 8001   2.487   0.638  11.340  0.1708 -0.3387  0.0386
  539MPD2     H 8002   2.823   0.813  11.243 -0.7020 -0.3203 -2.4013
  539MPD2    H1 8003   2.388   0.800  11.229 -0.3363  0.6340  2.9947
  539MPD2    H2 8004   2.601   0.506  11.442 -0.5044  0.5884  0.9714
  539MPD2    H3 8005   2.393   0.586  11.356  0.1774  0.0863  1.5445
  539MPD2     N 8006   2.591   0.936  11.148  0.5738 -0.1874  0.0818
  539MPD2    H5 8007   2.494   0.951  11.123  0.8595 -0.4367 -1.1721
  539MPD2    N1 8008   2.845   0.576  11.352 -0.1863 -0.3550  0.6161
  539MPD2    H7 8009   2.922   0.601  11.291 -1.4693  0.9850 -0.4654
  540TMC3    C1 8010   2.624   1.129  11.047  0.7011 -0.6711  0.5211
  540TMC3    C2 8011   2.542   1.109  10.944 -0.1192  0.6810  0.0527
  540TMC3    C3 8012   2.481   1.212  10.880  0.2169 -0.9082  0.4607
  540TMC3    C4 8013   2.649   1.256  11.087  0.2063  0.0984 -0.2019
  540TMC3    C5 8014   2.582   1.357  11.030 -0.0154  0.4407 -0.1971
  540TMC3    C6 8015   2.495   1.340  10.932 -0.0495 -0.4305 -0.1011
  540TMC3     C 8016   2.684   1.025  11.116 -0.3697  0.2074 -0.0154
  540TMC3     O 8017   2.807   1.010  11.109  0.4439  0.5524  0.3774
  540TMC3     H 8018   2.550   1.005  10.913  0.4970  0.9591 -0.7076
  540TMC3    H1 8019   2.692   1.276  11.184 -1.2685 -1.4378  0.7583
  540TMC3    H2 8020   2.423   1.416  10.905 -0.2811 -0.4025  0.6091
  540TMC3    C7 8021   2.525   1.444  11.131  0.8331 -0.1729  0.2942
  540TMC3    C8 8022   2.378   1.181  10.785  0.2145  0.1080  0.8401
  540TMC3    O1 8023   2.404   1.456  11.132  0.2573  0.4191  0.2836
  540TMC3    O2 8024   2.323   1.266  10.722 -0.5639  0.0616  0.9800
  541MPD2     C 8025   0.751   2.334  13.287  0.4068 -0.9020  0.2040
  541MPD2    C1 8026   0.867   2.285  13.239 -1.1567  0.0634  0.0336
  541MPD2    C2 8027   0.919   2.350  13.125 -0.7292  0.4341  0.4543
  541MPD2    C3 8028   0.851   2.459  13.065 -0.3841 -0.3850  0.2775
  541MPD2    C4 8029   0.729   2.496  13.115  0.0717  0.4336 -0.1427
  541MPD2    C5 8030   0.679   2.433  13.225 -0.2279  0.9480 -0.4268
  541MPD2     H 8031   1.012   2.313  13.082 -1.4290  0.3027 -0.9291
  541MPD2    H1 8032   0.678   2.584  13.079 -0.1191 -0.1126 -1.1956
  541MPD2    H2 8033   0.711   2.277  13.370  0.3711  0.5012  1.1533
  541MPD2    H3 8034   0.582   2.453  13.269  0.1252 -1.6400  1.5589
  541MPD2     N 8035   0.887   2.518  12.943 -0.5327 -0.2585 -0.1797
  541MPD2    H5 8036   0.817   2.585  12.911  1.8270  1.2739 -2.0531
  541MPD2    N1 8037   0.926   2.180  13.309  0.1242 -0.2003 -0.3102
  541MPD2    H7 8038   0.879   2.148  13.393 -0.7937  0.6741 -0.4931
  542TMC3    C1 8039   1.005   2.565  12.747 -0.5829 -0.0220 -0.0543
  542TMC3    C2 8040   1.095   2.510  12.649 -0.1312  0.1863 -0.0047
  542TMC3    C3 8041   1.111   2.579  12.533 -0.6742 -0.6588 -0.2651
  542TMC3    C4 8042   0.940   2.687  12.725  1.0806 -0.2449  0.5395
  542TMC3    C5 8043   0.953   2.743  12.597 -0.0610  0.0345  0.0527
  542TMC3    C6 8044   1.037   2.688  12.498 -0.5406 -0.4212  0.4388
  542TMC3     C 8045   1.001   2.501  12.871  0.0184  0.0351 -0.6859
  542TMC3     O 8046   1.095   2.428  12.899 -0.5212 -0.8444 -0.0435
  542TMC3     H 8047   1.142   2.415  12.670  0.3187  0.4864  0.3647
  542TMC3    H1 8048   0.883   2.726  12.808 -0.7320  0.5042 -1.0754
  542TMC3    H2 8049   1.063   2.755  12.416  0.2254  0.3334  1.3005
  542TMC3    C7 8050   0.877   2.865  12.564  0.3956 -0.3253  0.0740
  542TMC3    C8 8051   1.203   2.536  12.427  0.4692  0.8211  0.2184
  542TMC3    O1 8052   0.892   2.898  12.448  0.6230 -0.0482  0.0676
  542TMC3    O2 8053   1.209   2.601  12.322  0.1023 -0.1601  0.1157
  543TMC3    C1 8054   0.503   3.479   0.110  0.2915 -0.5609 -0.9222
  543TMC3    C2 8055   0.491   3.341   0.107 -0.1100  0.1737  0.0289
  543TMC3    C3 8056   0.392   3.286   0.185  0.2628  0.1555  0.3621
  543TMC3    C4 8057   0.433   3.557   0.197 -0.5290 -0.4500 -0.9857
  543TMC3    C5 8058   0.345   3.496   0.277 -0.0574  0.3272  0.0703
  543TMC3    C6 8059   0.315   3.361   0.268 -0.3482 -0.0377  0.0549
  543TMC3     C 8060   0.577   3.530  17.680 -0.4844  0.2346  0.1371
  543TMC3     O 8061   0.647   3.446  17.633  0.4188  0.3772  0.6533
  543TMC3     H 8062   0.553   3.283   0.039 -1.1043  0.7566 -1.3570
  543TMC3    H1 8063   0.442   3.665   0.201  1.0769 -0.5985 -0.4804
  543TMC3    H2 8064   0.235   3.315   0.325  0.4191 -3.2421 -1.4674
  543TMC3    C7 8065   0.254   3.576   0.348  0.6678 -0.2892 -0.3102
  543TMC3    C8 8066   0.345   3.152   0.144  0.1687  0.7130 -0.4064
  543TMC3    O1 8067   0.137   3.546   0.330  0.5934  0.1652  0.4236
  543TMC3    O2 8068   0.275   3.083   0.216 -0.4976 -0.2081 -0.3301
  544MPD2     C 8069   0.101   2.930  17.419 -0.3714 -0.2303  0.3849
  544MPD2    C1 8070   0.139   2.874  17.546 -0.4189 -0.4357  0.0211
  544MPD2    C2 8071   0.227   2.946  17.629  0.2752 -0.3578 -0.4855
  544MPD2    C3 8072   0.265   3.077  17.601 -0.4751 -0.5623  0.3556
  544MPD2    C4 8073   0.232   3.129  17.479 -0.2024 -0.3954 -0.4380
  544MPD2    C5 8074   0.154   3.053  17.393 -0.2116 -0.0958 -0.7931
  544MPD2     H 8075   0.248   2.906   0.040  2.3571 -0.8388 -1.1313
  544MPD2    H1 8076   0.261   3.226  17.442  0.9781 -0.7010 -0.2992
  544MPD2    H2 8077   0.039   2.879  17.346  0.9936 -1.6000  0.1708
  544MPD2    H3 8078   0.126   3.089  17.294  0.7065  0.2707 -0.9221
  544MPD2     N 8079   0.343   3.160   0.005 -0.3614 -0.8099 -0.1833
  544MPD2    H5 8080   0.369   3.250  17.654  1.0887 -0.7439  0.9801
  544MPD2    N1 8081   0.099   2.740  17.573 -0.2261 -0.4248  0.2315
  544MPD2    H7 8082   0.023   2.707  17.514 -0.7589  0.8217  0.2180
  545TMC3    C1 8083   0.081   2.526  17.667  0.0609 -0.0797  0.2392
  545TMC3    C2 8084   4.669   2.518  17.672  0.1636 -0.6731  0.1971
  545TMC3    C3 8085   4.609   2.396  17.650 -0.7104  0.4642  0.4490
  545TMC3    C4 8086   0.162   2.417  17.651 -0.4201 -0.3684  0.3464
  545TMC3    C5 8087   0.100   2.299  17.650  0.1980  0.0205  0.0717
  545TMC3    C6 8088   4.687   2.289  17.628 -0.4890  0.1206  0.4598
  545TMC3     C 8089   0.147   2.658  17.676  0.3941  0.3655  0.3516
  545TMC3     O 8090   0.253   2.672   0.047  0.6752 -0.1159  0.3393
  545TMC3     H 8091   4.612   2.610  17.683  1.1616  0.2064 -1.9301
  545TMC3    H1 8092   0.267   2.433  17.668 -0.7829  0.8559  1.4327
  545TMC3    H2 8093   4.652   2.187  17.638  2.5549 -0.9308  0.5356
  545TMC3    C7 8094   0.167   2.200  17.577 -1.0284 -0.2726 -0.2343
  545TMC3    C8 8095   4.475   2.379   0.008 -0.1329  0.6962 -0.0528
  545TMC3    O1 8096   0.103   2.141  17.497  0.0830 -0.0846  0.3472
  545TMC3    O2 8097   4.425   2.464   0.079  0.2390 -0.0019 -0.2365
  546MPD2     C 8098   2.181   4.140  17.649  0.2638  0.6838  0.6673
  546MPD2    C1 8099   2.180   4.080  17.525 -0.6044  0.1736  0.8081
  546MPD2    C2 8100   2.210   4.160  17.413  0.5637  0.0579 -0.0765
  546MPD2    C3 8101   2.250   4.292  17.431 -0.2966 -0.4957  0.2363
  546MPD2    C4 8102   2.239   4.352  17.553  0.2916  1.2641  0.4497
  546MPD2    C5 8103   2.208   4.280  17.659  0.0967  0.0572 -0.4092
  546MPD2     H 8104   2.202   4.122  17.312  2.0052 -1.2856  0.3159
  546MPD2    H1 8105   2.264   4.456  17.569  1.6241  1.2599 -1.5116
  546MPD2    H2 8106   2.143   4.106   0.057  0.4925 -2.1283 -0.2441
  546MPD2    H3 8107   2.190   4.333   0.064 -0.2208 -3.0124  1.3111
  546MPD2     N 8108   2.284   4.355  17.305  0.0116  0.4547  0.2570
  546MPD2    H5 8109   2.287   4.293  17.224  0.7557 -1.5615  1.8308
  546MPD2    N1 8110   2.138   3.947  17.510  0.5620 -0.2163 -0.4613
  546MPD2    H7 8111   2.114   3.918  17.416  1.5396 -1.9046 -0.1948
  547TMC3    C1 8112   2.084   3.724  17.575 -0.9371  0.0126 -0.0865
  547TMC3    C2 8113   1.988   3.723  17.479 -0.1973  1.1159  0.3482
  547TMC3    C3 8114   1.906   3.612  17.465 -0.1370 -0.1229  0.2366
  547TMC3    C4 8115   2.114   3.607  17.643  0.0159 -0.6382 -0.2696
  547TMC3    C5 8116   2.046   3.494  17.615 -0.5979  0.0454 -0.7861
  547TMC3    C6 8117   1.933   3.497  17.533  0.7786  0.4071  0.3923
  547TMC3     C 8118   2.152   3.847  17.608  0.6725  0.6251  0.2908
  547TMC3     O 8119   2.214   3.845   0.029 -0.1053  0.3296 -0.3117
  547TMC3     H 8120   1.969   3.810  17.416 -2.1982 -0.3077 -1.0341
  547TMC3    H1 8121   2.196   3.605   0.027  0.1917 -4.2175 -0.5534
  547TMC3    H2 8122   1.861   3.416  17.542 -0.4116  1.4040 -0.1639
  547TMC3    C7 8123   2.034   3.400   0.033 -0.6627 -0.1631  0.1799
  547TMC3    C8 8124   1.773   3.613  17.406 -0.1444  0.2113  0.2495
  547TMC3    O1 8125   2.040   3.441   0.150  0.7349 -0.1798 -0.3054
  547TMC3    O2 8126   1.723   3.504  17.383 -0.1976 -0.5006 -0.4746
  548MPD2     C 8127   1.389   4.404  12.821  0.7332  0.4694 -0.2635
  548MPD2    C1 8128   1.323   4.293  12.776 -0.2802 -0.9613 -0.4794
  548MPD2    C2 8129   1.345   4.168  12.837 -0.1666 -0.7450 -0.3433
  548MPD2    C3 8130   1.420   4.148  12.955  0.2548  0.5259 -0.4224
  548MPD2    C4 8131   1.478   4.267  13.002  0.3950 -0.2714 -0.8457
  548MPD2    C5 8132   1.459   4.388  12.937  0.2396  0.4925 -0.6540
  548MPD2     H 8133   1.316   4.075  12.789 -1.4264  0.0594 -1.1269
  548MPD2    H1 8134   1.540   4.269  13.091 -0.0318 -3.0160 -0.5083
  548MPD2    H2 8135   1.369   4.505  12.789  0.2740  0.1487 -0.9928
  548MPD2    H3 8136   1.500   4.477  12.983  2.0062  0.0685 -1.3701
  548MPD2     N 8137   1.422   4.023  13.015  0.1131  0.5845 -0.1498
  548MPD2    H5 8138   1.379   3.945  12.966  0.2420 -0.5078  1.4635
  548MPD2    N1 8139   1.240   4.310  12.664 -0.3967 -0.4966 -0.1117
  548MPD2    H7 8140   1.227   4.403  12.624 -1.0156  0.0366  1.3464
  549TMC3    C1 8141   1.100   4.250  12.479 -0.1182  1.0613 -0.2016
  549TMC3    C2 8142   1.128   4.365  12.407 -0.8900  0.3229  0.1483
  549TMC3    C3 8143   1.048   4.400  12.303 -0.2489 -0.2589 -0.3632
  549TMC3    C4 8144   1.029   4.151  12.422 -0.0075 -0.0912 -0.5289
  549TMC3    C5 8145   0.957   4.181  12.310  0.3316  0.2648  0.7954
  549TMC3    C6 8146   0.954   4.308  12.257 -0.3265 -0.0538  0.4316
  549TMC3     C 8147   1.166   4.214  12.605 -0.5208 -0.0546  0.0300
  549TMC3     O 8148   1.155   4.097  12.636 -0.0887 -0.2928 -0.1756
  549TMC3     H 8149   1.173   4.445  12.465  2.7028 -1.3956 -0.2450
  549TMC3    H1 8150   1.011   4.061  12.480  1.0694 -1.9301 -3.0630
  549TMC3    H2 8151   0.891   4.327  12.171  1.3107 -2.6954 -1.3378
  549TMC3    C7 8152   0.890   4.079  12.236 -0.7447 -0.6636 -0.2939
  549TMC3    C8 8153   1.060   4.534  12.240 -0.0254  0.0316  1.2619
  549TMC3    O1 8154   0.799   4.100  12.161 -0.1061  0.1311 -0.8751
  549TMC3    O2 8155   0.978   4.547  12.150  0.8140 -0.3718 -0.6698
  550TMC3    C1 8156   0.527   2.950  12.246  0.2043 -0.1235 -0.8166
  550TMC3    C2 8157   0.506   3.078  12.301 -0.2281  0.5932  0.7722
  550TMC3    C3 8158   0.529   3.187  12.220  0.6672 -0.6839  0.2190
  550TMC3    C4 8159   0.567   2.927  12.118 -0.4244  0.4744  0.3068
  550TMC3    C5 8160   0.585   3.040  12.044  0.0241  0.1598  0.6692
  550TMC3    C6 8161   0.569   3.173  12.092 -0.8568  0.3852 -0.0244
  550TMC3     C 8162   0.436   2.855  12.290  0.3293  0.7449  0.1857
  550TMC3     O 8163   0.426   2.844  12.412 -0.0724 -0.2107 -0.0996
  550TMC3     H 8164   0.462   3.085  12.399  1.7068  0.3890  1.6554
  550TMC3    H1 8165   0.579   2.829  12.072 -0.2874  1.1508 -1.1092
  550TMC3    H2 8166   0.602   3.254  12.028 -1.4386  0.5562 -0.1099
  550TMC3    C7 8167   0.495   3.025  11.933 -0.3020  0.1442 -0.0419
  550TMC3    C8 8168   0.421   3.285  12.235  0.5218 -0.6320  0.0486
  550TMC3    O1 8169   0.433   2.920  11.926 -0.2828 -0.4259 -0.1285
  550TMC3    O2 8170   0.374   3.311  12.343 -0.0092 -0.2271  0.3220
  551TMC3    C1 8171   3.712   4.321  12.986 -0.2035  0.2318 -0.1310
  551TMC3    C2 8172   3.694   4.413  12.887  0.5448  0.3756  0.1044
  551TMC3    C3 8173   3.777   4.528  12.891  0.0719 -0.0467  0.1253
  551TMC3    C4 8174   3.803   4.341  13.084 -0.4935  0.4237  0.2458
  551TMC3    C5 8175   3.866   4.460  13.095  0.2414  0.3280 -0.0626
  551TMC3    C6 8176   3.851   4.559  13.003  0.4468 -0.7247  0.1674
  551TMC3     C 8177   3.593   4.253  13.028  0.0562  0.7877 -0.4857
  551TMC3     O 8178   3.599   4.196  13.136 -0.4770  0.6062 -0.2705
  551TMC3     H 8179   3.636   4.385  12.800 -0.9884  2.0723  0.5622
  551TMC3    H1 8180   3.813   4.273  13.168 -2.4794  0.3486  0.4389
  551TMC3    H2 8181   3.895   4.654  13.029 -2.6683  0.2478  1.8660
  551TMC3    C7 8182   3.920   4.495  13.228  0.7987  0.7086  0.6244
  551TMC3    C8 8183   3.766   4.626  12.786 -0.9674  0.4366 -0.3198
  551TMC3    O1 8184   3.881   4.424  13.322 -0.6282  0.0643 -0.1308
  551TMC3    O2 8185   3.763   4.587  12.668 -0.3123 -0.3639 -0.8096
  552MPD2     C 8186   4.165   2.093  14.269  0.3214 -0.3830 -0.2708
  552MPD2    C1 8187   4.225   1.963  14.267 -0.0617  0.5203 -0.5964
  552MPD2    C2 8188   4.316   1.928  14.367  0.2844  0.1067 -0.0283
  552MPD2    C3 8189   4.353   2.024  14.460  0.9676  0.5684 -1.0395
  552MPD2    C4 8190   4.300   2.150  14.453 -0.7935 -0.6036  0.4143
  552MPD2    C5 8191   4.201   2.182  14.367 -0.2440 -0.2354  0.5534
  552MPD2     H 8192   4.356   1.827  14.368  1.1711  0.4512 -0.7025
  552MPD2    H1 8193   4.345   2.224  14.518  0.1818  0.9917 -2.0897
  552MPD2    H2 8194   4.081   2.127  14.209 -1.7819  0.4351  3.0743
  552MPD2    H3 8195   4.158   2.281  14.371 -0.5655 -0.3920  0.8953
  552MPD2     N 8196   4.461   2.002  14.551 -0.5020  0.7491  0.5815
  552MPD2    H5 8197   4.488   2.074  14.618  1.3114  1.1658 -0.6082
  552MPD2    N1 8198   4.183   1.864  14.181 -0.5194  0.1957  0.4853
  552MPD2    H7 8199   4.226   1.774  14.200  0.3789  1.3903  4.1775
  553TMC3    C1 8200   4.085   1.758  13.997 -0.1158  0.3772 -0.0071
  553TMC3    C2 8201   4.127   1.775  13.866  1.1069  0.4169  0.4068
  553TMC3    C3 8202   4.191   1.670  13.806 -0.3255 -0.4880 -0.2296
  553TMC3    C4 8203   4.090   1.640  14.066 -0.6364 -1.0304  0.2681
  553TMC3    C5 8204   4.163   1.541  14.000  0.5020 -1.1570  0.8985
  553TMC3    C6 8205   4.213   1.558  13.875  0.0592  0.0211 -0.4121
  553TMC3     C 8206   4.106   1.878  14.069  0.0179 -0.2063  0.1224
  553TMC3     O 8207   4.059   1.986  14.022  0.2039 -0.2378  0.1778
  553TMC3     H 8208   4.119   1.871  13.816 -1.0254 -1.1707 -2.2925
  553TMC3    H1 8209   4.055   1.614  14.165  2.2324  0.1809  1.5939
  553TMC3    H2 8210   4.247   1.472  13.819  0.5097 -1.5463  2.2693
  553TMC3    C7 8211   4.196   1.413  14.057  0.1815  0.0855 -0.1884
  553TMC3    C8 8212   4.266   1.682  13.687  0.3389  0.2506  0.8005
  553TMC3    O1 8213   4.119   1.347  14.121  0.5477  0.3765 -0.0363
  553TMC3    O2 8214   4.367   1.613  13.683 -0.2118 -0.2430  0.7011
  554TMC3    C1 8215   1.566   0.617  11.460 -0.2951  0.0510 -0.1160
  554TMC3    C2 8216   1.456   0.615  11.376 -0.4007  0.6711 -0.7397
  554TMC3    C3 8217   1.409   0.730  11.329  0.8561 -0.3425  0.3157
  554TMC3    C4 8218   1.620   0.736  11.497  0.5186 -0.0809  0.2933
  554TMC3    C5 8219   1.561   0.847  11.453  0.0319  0.1607 -0.4159
  554TMC3    C6 8220   1.457   0.846  11.377  0.1559  0.3835 -0.0501
  554TMC3     C 8221   1.628   0.497  11.513  0.4133  0.1583  0.3588
  554TMC3     O 8222   1.723   0.512  11.586 -0.3252 -0.1167  0.6886
  554TMC3     H 8223   1.414   0.519  11.348 -0.6293  0.5429  0.0574
  554TMC3    H1 8224   1.709   0.726  11.558  1.3111 -1.2169 -1.0581
  554TMC3    H2 8225   1.414   0.939  11.340 -1.0441 -0.0035  0.3588
  554TMC3    C7 8226   1.638   0.972  11.448  0.5752  0.0204 -0.0741
  554TMC3    C8 8227   1.366   0.741  11.190 -0.6232 -0.8529 -0.2648
  554TMC3    O1 8228   1.597   1.056  11.364  0.0628  0.8666 -0.6241
  554TMC3    O2 8229   1.389   0.846  11.138 -0.2974 -0.0188  0.5162
  555TMC3    C1 8230   1.125   0.595  15.881 -0.0677  0.0376  0.4770
  555TMC3    C2 8231   1.061   0.650  15.993  0.4977  0.3163  0.2136
  555TMC3    C3 8232   1.032   0.561  16.091 -0.0279 -0.0808 -0.0167
  555TMC3    C4 8233   1.173   0.462  15.884  0.1957  0.4550 -0.3965
  555TMC3    C5 8234   1.143   0.389  15.995 -1.2875 -0.1073  0.5400
  555TMC3    C6 8235   1.076   0.436  16.104  0.1988 -1.1788 -0.6540
  555TMC3     C 8236   1.124   0.671  15.759 -0.2695  0.3453 -0.0734
  555TMC3     O 8237   1.120   0.609  15.656  0.0703  0.0759  0.6225
  555TMC3     H 8238   1.021   0.751  15.990 -0.7846 -0.1856  0.2460
  555TMC3    H1 8239   1.229   0.421  15.801  0.9140  0.8311 -0.0977
  555TMC3    H2 8240   1.041   0.360  16.174 -1.2978 -0.0763 -0.2002
  555TMC3    C7 8241   1.176   0.241  15.989  0.6634 -0.3081  0.1465
  555TMC3    C8 8242   1.030   0.629  16.222 -0.6219  0.0281 -0.4974
  555TMC3    O1 8243   1.102   0.162  16.051  0.2011 -0.5338  0.0033
  555TMC3    O2 8244   0.933   0.698  16.236  0.0213  0.4592 -0.1331
  556MPD2     C 8245   3.920   2.570  10.620  0.0957 -0.7671 -0.2132
  556MPD2    C1 8246   4.004   2.482  10.687  0.0383 -0.0583 -0.1031
  556MPD2    C2 8247   4.021   2.354  10.643  0.0709 -0.7981 -0.4320
  556MPD2    C3 8248   3.940   2.309  10.539 -0.9514 -0.0770 -0.4427
  556MPD2    C4 8249   3.858   2.398  10.476  0.1096 -0.0475  0.2259
  556MPD2    C5 8250   3.839   2.527  10.526 -0.3752 -0.6061  0.3943
  556MPD2     H 8251   4.086   2.285  10.696 -2.3864 -0.5366  2.8591
  556MPD2    H1 8252   3.795   2.355  10.399  1.3491  0.9425 -1.3363
  556MPD2    H2 8253   3.917   2.673  10.651  0.0794 -0.2775 -1.8164
  556MPD2    H3 8254   3.755   2.590  10.500 -0.0477 -1.2804 -2.2436
  556MPD2     N 8255   3.952   2.168  10.495 -0.3079 -0.0509 -0.3089
  556MPD2    H5 8256   4.022   2.117  10.548 -0.3126  0.0465 -0.2090
  556MPD2    N1 8257   4.079   2.512  10.805 -0.2695  0.2690  0.2255
  556MPD2    H7 8258   4.147   2.442  10.831  0.9832  0.3028 -2.9258
  557TMC3    C1 8259   3.945   1.963  10.389  0.2802  0.0081 -0.4291
  557TMC3    C2 8260   3.934   1.907  10.263  0.1348  0.3711 -0.3020
  557TMC3    C3 8261   3.931   1.771  10.253 -1.2352  0.0309  0.0185
  557TMC3    C4 8262   3.926   1.886  10.504  0.5362 -0.1825  0.4696
  557TMC3    C5 8263   3.911   1.749  10.482 -0.2876 -0.3272 -0.4387
  557TMC3    C6 8264   3.906   1.688  10.358  0.3383 -0.1321 -0.0992
  557TMC3     C 8265   3.907   2.103  10.388 -0.1162  0.1822  0.0564
  557TMC3     O 8266   3.838   2.151  10.299 -0.3205  0.1768  0.0664
  557TMC3     H 8267   3.943   1.973  10.178  1.4404 -1.6430 -1.7263
  557TMC3    H1 8268   3.908   1.933  10.600  0.8638  1.4729 -0.2801
  557TMC3    H2 8269   3.893   1.582  10.344 -1.1997  0.2121 -1.2420
  557TMC3    C7 8270   3.822   1.684  10.593  0.3515  0.2358 -0.1379
  557TMC3    C8 8271   3.897   1.718  10.125 -0.9996 -0.1586 -0.7984
  557TMC3    O1 8272   3.786   1.745  10.693 -0.2085 -0.0189 -0.4955
  557TMC3    O2 8273   3.841   1.801  10.051  0.2632  0.9248  0.1277
  558TMC3    C1 8274   1.717   0.266  10.111  0.3290  0.5796 -0.8176
  558TMC3    C2 8275   1.590   0.214  10.121 -0.5475 -0.1905  0.1645
  558TMC3    C3 8276   1.502   0.255  10.028 -0.2627  0.2240 -0.0412
  558TMC3    C4 8277   1.755   0.362  10.011  0.3303  0.3765 -0.5952
  558TMC3    C5 8278   1.654   0.396   9.924  0.0141 -0.0530  0.4060
  558TMC3    C6 8279   1.529   0.344   9.932 -0.2257 -0.5029 -0.2085
  558TMC3     C 8280   1.823   0.213  10.182  0.0374 -0.7744 -1.2857
  558TMC3     O 8281   1.917   0.287  10.191  0.5619  0.3511 -0.5819
  558TMC3     H 8282   1.561   0.146  10.201  1.5384 -0.3547  0.7824
  558TMC3    H1 8283   1.852   0.409  10.007 -0.5412  2.2742  0.4433
  558TMC3    H2 8284   1.446   0.359   9.864  0.0519 -0.9586 -0.6395
  558TMC3    C7 8285   1.686   0.444   9.793  0.2159 -0.2721 -0.2126
  558TMC3    C8 8286   1.365   0.215  10.044  0.7255  0.7301  0.3407
  558TMC3    O1 8287   1.768   0.535   9.783  0.0679  0.0362  0.4665
  558TMC3    O2 8288   1.277   0.303  10.037  0.0084  0.2198  0.3134
  559MPD2     C 8289   1.444   0.498  10.276  0.5992 -1.0340 -0.0151
  559MPD2    C1 8290   1.375   0.420  10.358  0.3908 -0.6838 -0.0487
  559MPD2    C2 8291   1.444   0.348  10.454  0.3268 -0.6512  0.1090
  559MPD2    C3 8292   1.585   0.359  10.472  0.5226 -0.0847  0.6262
  559MPD2    C4 8293   1.648   0.448  10.388 -0.2299  0.1084 -0.3389
  559MPD2    C5 8294   1.575   0.507  10.295  0.0812  0.0408  0.0054
  559MPD2     H 8295   1.381   0.302  10.529  1.2056 -0.0634  1.2058
  559MPD2    H1 8296   1.755   0.463  10.387  0.0027 -1.6556 -1.7378
  559MPD2    H2 8297   1.396   0.549  10.193  0.7143 -1.0866 -0.1148
  559MPD2    H3 8298   1.629   0.560  10.217 -1.3630 -1.6149 -2.1339
  559MPD2     N 8299   1.645   0.277  10.569 -0.7012  0.0515 -0.4407
  559MPD2    H5 8300   1.582   0.213  10.616  1.7591 -3.1546 -1.4648
  559MPD2    N1 8301   1.234   0.434  10.361  0.0077 -0.2125 -0.1373
  559MPD2    H7 8302   1.198   0.495  10.288  1.8346  0.1360 -0.7244
  560TMC3    C1 8303   1.821   0.149  10.662  0.1952 -0.3605  0.0026
  560TMC3    C2 8304   1.732   0.043  10.691  0.3246 -0.2102  1.2074
  560TMC3    C3 8305   1.780   4.662  10.764 -0.5847 -0.0454  0.1243
  560TMC3    C4 8306   1.951   0.148  10.700 -0.1642 -0.2634 -0.4364
  560TMC3    C5 8307   2.001   0.038  10.771 -0.3116 -0.0302 -0.1570
  560TMC3    C6 8308   1.914   4.658  10.801 -0.0966 -0.1424 -0.4358
  560TMC3     C 8309   1.781   0.272  10.596 -0.1372 -0.2773 -0.3028
  560TMC3     O 8310   1.866   0.350  10.551 -0.5380  0.7488  0.2266
  560TMC3     H 8311   1.626   0.038  10.667  0.7389 -0.7267 -0.4677
  560TMC3    H1 8312   2.011   0.236  10.680 -1.1866  0.7295  0.8838
  560TMC3    H2 8313   1.946   4.580  10.870  1.7604  1.2161  0.2365
  560TMC3    C7 8314   2.145   0.043  10.825  0.0053 -0.3330 -0.0298
  560TMC3    C8 8315   1.703   4.538  10.760 -0.2560 -0.2538 -0.2961
  560TMC3    O1 8316   2.162   4.674  10.904  1.2140 -0.8913  0.2262
  560TMC3    O2 8317   1.583   4.546  10.731 -0.6348  0.0264 -0.0217
  561TMC3    C1 8318   3.794   4.245  11.022 -0.3070 -0.1584 -0.0412
  561TMC3    C2 8319   3.773   4.203  11.149 -0.1265 -0.1246 -0.2010
  561TMC3    C3 8320   3.797   4.288  11.253 -0.4232 -0.0814 -0.1264
  561TMC3    C4 8321   3.843   4.367  10.995  0.3722  0.0701  0.5349
  561TMC3    C5 8322   3.884   4.443  11.103  0.1223 -0.2571 -0.4589
  561TMC3    C6 8323   3.850   4.408  11.238 -1.0762  0.1927  0.0565
  561TMC3     C 8324   3.762   4.153  10.922 -0.3706  0.4748 -0.5955
  561TMC3     O 8325   3.708   4.042  10.940 -0.4738  0.1483  0.1252
  561TMC3     H 8326   3.733   4.105  11.171 -0.5618  0.5046  1.7749
  561TMC3    H1 8327   3.859   4.408  10.896  0.3106  1.3855  1.0826
  561TMC3    H2 8328   3.884   4.469  11.321  1.1843 -1.9713  0.7235
  561TMC3    C7 8329   3.872   4.591  11.085  0.1950  0.2031  0.6546
  561TMC3    C8 8330   3.794   4.227  11.380 -0.4099  0.2645 -0.2962
  561TMC3    O1 8331   3.816   4.653  11.174 -0.0614  0.1309  0.6391
  561TMC3    O2 8332   3.812   4.110  11.392  0.5259 -0.5695 -0.0078
  562TMC3    C1 8333   0.751   0.915  16.477  0.1120 -0.6140  0.8141
  562TMC3    C2 8334   0.759   1.019  16.374 -0.7704  0.1987  1.0343
  562TMC3    C3 8335   0.714   0.984  16.251 -0.2896 -0.1180  0.4501
  562TMC3    C4 8336   0.690   0.792  16.445  0.5321 -0.4832  0.3987
  562TMC3    C5 8337   0.651   0.771  16.318  0.0254  0.2114  0.0679
  562TMC3    C6 8338   0.656   0.865  16.223 -0.6216 -0.1584  0.8729
  562TMC3     C 8339   0.756   0.962  16.616  1.1423 -0.1666  0.3100
  562TMC3     O 8340   0.741   0.874  16.698 -0.3121  0.3999  0.5005
  562TMC3     H 8341   0.808   1.115  16.382  1.9469 -0.8524 -2.8497
  562TMC3    H1 8342   0.664   0.729  16.529 -3.2680 -1.9762 -1.8812
  562TMC3    H2 8343   0.609   0.843  16.128  1.6364 -0.0427 -0.2631
  562TMC3    C7 8344   0.603   0.642  16.282 -0.5540 -0.1744  0.4941
  562TMC3    C8 8345   0.654   1.098  16.183  0.1020 -0.6958  0.0194
  562TMC3    O1 8346   0.499   0.629  16.222  0.1152 -0.2914 -0.0845
  562TMC3    O2 8347   0.606   1.184  16.254 -0.3494 -0.2807  0.0867
  563MPD2     C 8348   3.171   2.094  15.735  0.3779  0.9265  0.3031
  563MPD2    C1 8349   3.143   2.170  15.851  0.0355 -0.3748 -0.2085
  563MPD2    C2 8350   3.246   2.215  15.930  0.4693  0.2171 -0.1778
  563MPD2    C3 8351   3.379   2.199  15.885  0.8200  0.9018 -0.5082
  563MPD2    C4 8352   3.406   2.137  15.765 -0.1006 -0.3600  0.8039
  563MPD2    C5 8353   3.299   2.089  15.692 -0.8012 -0.0072  0.2434
  563MPD2     H 8354   3.235   2.254  16.030  2.4635 -0.7347  0.4128
  563MPD2    H1 8355   3.508   2.113  15.737 -0.8015 -1.5281 -0.7409
  563MPD2    H2 8356   3.089   2.045  15.684  2.8671 -1.9260 -0.9671
  563MPD2    H3 8357   3.324   2.035  15.602  0.9057  2.9998 -1.0983
  563MPD2     N 8358   3.477   2.234  15.982  0.0837  0.5659 -0.5919
  563MPD2    H5 8359   3.431   2.268  16.066  1.0405 -1.1041  0.6103
  563MPD2    N1 8360   3.011   2.175  15.898  0.1696  0.6583 -0.7999
  563MPD2    H7 8361   2.956   2.095  15.868 -0.4397  0.6026  0.4580
  564TMC3    C1 8362   2.842   2.209  16.052 -0.3452 -0.1459  0.0021
  564TMC3    C2 8363   2.738   2.148  15.978  0.1590 -0.4546 -0.2963
  564TMC3    C3 8364   2.632   2.106  16.056  0.0878 -0.2300  0.0009
  564TMC3    C4 8365   2.846   2.212  16.184 -0.0784  0.1770  0.2115
  564TMC3    C5 8366   2.750   2.144  16.260 -0.2388  0.0404 -0.0972
  564TMC3    C6 8367   2.638   2.096  16.198 -0.5010  0.8354  0.0266
  564TMC3     C 8368   2.963   2.253  15.999 -0.1776  0.3849 -0.3544
  564TMC3     O 8369   3.020   2.348  16.051  0.6865  0.2139  0.5938
  564TMC3     H 8370   2.726   2.150  15.870  0.4343  0.8305 -0.2926
  564TMC3    H1 8371   2.922   2.262  16.243 -0.4489  2.2455 -1.0772
  564TMC3    H2 8372   2.551   2.074  16.259 -0.7117 -3.1252 -1.7346
  564TMC3    C7 8373   2.806   2.062  16.370 -0.7390  0.4199 -0.6420
  564TMC3    C8 8374   2.562   1.986  16.015  0.7867  0.5024 -0.5159
  564TMC3    O1 8375   2.921   2.089  16.406 -0.1204 -0.3278  0.8862
  564TMC3    O2 8376   2.532   1.910  16.110 -0.2737  0.2244 -0.4362
  565TMC3    C1 8377   3.885   3.822  10.452 -0.6262 -0.3752  0.8490
  565TMC3    C2 8378   3.862   3.707  10.533 -0.9807  0.5400  0.1822
  565TMC3    C3 8379   3.781   3.605  10.495  0.0250 -0.0366 -0.0222
  565TMC3    C4 8380   3.843   3.815  10.320 -0.7484 -0.4512  0.2078
  565TMC3    C5 8381   3.759   3.714  10.283 -0.4988  0.0155  0.3696
  565TMC3    C6 8382   3.726   3.607  10.368  0.8012 -0.2905 -0.4828
  565TMC3     C 8383   3.988   3.920  10.486  0.0806 -0.7729  0.0569
  565TMC3     O 8384   4.037   3.984  10.390 -0.2813  0.3271 -0.3919
  565TMC3     H 8385   3.906   3.697  10.631 -1.6236 -1.1797  0.2865
  565TMC3    H1 8386   3.866   3.899  10.255  1.3150 -0.7566  0.5332
  565TMC3    H2 8387   3.638   3.546  10.352  0.1763  0.7791 -1.1598
  565TMC3    C7 8388   3.716   3.720  10.140 -0.0603 -0.4046  0.2321
  565TMC3    C8 8389   3.773   3.490  10.584  0.2953  0.0157 -0.7459
  565TMC3    O1 8390   3.742   3.825  10.084  0.7268  0.1387 -0.3918
  565TMC3    O2 8391   3.793   3.509  10.704  0.1242 -0.3045  0.0169
  566MPD2     C 8392   0.312   0.141  14.827  0.0407  0.1484 -0.1879
  566MPD2    C1 8393   0.421   0.117  14.744  0.1208  1.0356 -0.2555
  566MPD2    C2 8394   0.405   0.088  14.608  0.2304  0.3101 -0.3007
  566MPD2    C3 8395   0.284   0.098  14.546 -0.6615 -0.2089 -0.7006
  566MPD2    C4 8396   0.176   0.136  14.627 -0.5535 -0.2430 -0.2239
  566MPD2    C5 8397   0.190   0.145  14.766 -0.0217  0.5051  0.0277
  566MPD2     H 8398   0.495   0.068  14.552  0.5826 -2.1376  1.1383
  566MPD2    H1 8399   0.075   0.127  14.590 -0.4073 -1.7717 -0.2680
  566MPD2    H2 8400   0.319   0.159  14.934 -2.5401  1.8064 -0.3089
  566MPD2    H3 8401   0.102   0.160  14.827 -0.4263 -2.7022  0.2222
  566MPD2     N 8402   0.259   0.081  14.405  0.5911 -0.0445 -0.4530
  566MPD2    H5 8403   0.163   0.080  14.374  0.0725 -1.0475  1.1516
  566MPD2    N1 8404   0.554   0.122  14.788  0.3889 -0.3564  0.2732
  566MPD2    H7 8405   0.632   0.108  14.725  0.9024 -0.1872  0.8638
  567TMC3    C1 8406   0.732   0.209  14.904 -0.5708 -0.1719 -0.2568
  567TMC3    C2 8407   0.778   0.271  14.791  0.6451 -0.5644 -0.0043
  567TMC3    C3 8408   0.908   0.302  14.784 -0.3434 -0.1103 -0.2531
  567TMC3    C4 8409   0.805   0.187  15.021  0.1516  0.0603  0.2064
  567TMC3    C5 8410   0.936   0.215  15.014  0.3497  0.2522 -0.2134
  567TMC3    C6 8411   0.992   0.269  14.896 -0.2258 -0.0538  0.2124
  567TMC3     C 8412   0.594   0.168  14.912  0.0032  0.6744 -0.8070
  567TMC3     O 8413   0.540   0.177  15.019  0.0491 -0.3220 -0.4558
  567TMC3     H 8414   0.707   0.305  14.715 -0.8767 -0.1801  1.5851
  567TMC3    H1 8415   0.770   0.124  15.103  0.5723 -1.0206 -0.4461
  567TMC3    H2 8416   1.099   0.284  14.900 -0.2636  0.4896 -0.8869
  567TMC3    C7 8417   1.035   0.139  15.097 -0.0177  0.3923 -0.2793
  567TMC3    C8 8418   0.955   0.394  14.685 -0.1273 -0.2981 -0.4258
  567TMC3    O1 8419   1.140   0.098  15.037 -0.5804 -0.1154 -0.1791
  567TMC3    O2 8420   0.897   0.395  14.579 -0.1141  0.6660 -0.0369
  568MPD2     C 8421   3.099   0.890  16.441  0.2049 -0.0602  0.3590
  568MPD2    C1 8422   2.993   0.876  16.524  0.4381  0.5410  0.3500
  568MPD2    C2 8423   2.867   0.916  16.481 -0.3787 -0.8133  0.3514
  568MPD2    C3 8424   2.852   0.973  16.351  0.0710  0.6545 -0.1877
  568MPD2    C4 8425   2.957   0.985  16.271  0.5341 -0.4013 -0.4373
  568MPD2    C5 8426   3.082   0.940  16.313  0.1640  0.3911  0.0339
  568MPD2     H 8427   2.771   0.923  16.530  0.1009 -0.4794  1.2430
  568MPD2    H1 8428   2.954   1.023  16.170 -0.2937  0.3597 -0.1163
  568MPD2    H2 8429   3.194   0.837  16.446  0.9076  0.9883 -1.7395
  568MPD2    H3 8430   3.170   0.925  16.251 -1.7702 -1.7918 -2.1954
  568MPD2     N 8431   2.729   1.032  16.323  0.2432 -0.9982 -0.3122
  568MPD2    H5 8432   2.649   1.022  16.386  1.0857  0.6238  1.0257
  568MPD2    N1 8433   3.016   0.825  16.650  0.1903 -0.0067 -0.2768
  568MPD2    H7 8434   3.115   0.811  16.671 -0.3043 -1.1875  1.2445
  569TMC3    C1 8435   2.565   1.172  16.220 -0.2055  0.2496  0.8524
  569TMC3    C2 8436   2.512   1.184  16.350 -0.4657  0.6068  0.1489
  569TMC3    C3 8437   2.430   1.289  16.379 -0.1768 -0.3837 -0.3354
  569TMC3    C4 8438   2.541   1.263  16.120 -0.2980  0.3138 -0.5500
  569TMC3    C5 8439   2.446   1.360  16.153  0.2459 -0.9019  0.0068
  569TMC3    C6 8440   2.396   1.377  16.279 -0.1255 -0.1215  0.9144
  569TMC3     C 8441   2.697   1.108  16.209 -0.5316 -0.1515 -0.1316
  569TMC3     O 8442   2.775   1.148  16.122 -0.8052 -0.2806 -0.2664
  569TMC3     H 8443   2.522   1.105  16.424 -0.5371  0.4483 -0.0092
  569TMC3    H1 8444   2.580   1.239  16.022  0.3348 -0.9985  0.0353
  569TMC3    H2 8445   2.328   1.456  16.309 -0.2104  1.0232 -2.3034
  569TMC3    C7 8446   2.460   1.486  16.086 -0.2290  0.6945  0.5891
  569TMC3    C8 8447   2.386   1.306  16.522 -0.2208  0.6021  0.5351
  569TMC3    O1 8448   2.430   1.588  16.151  0.0967 -0.0800  0.7366
  569TMC3    O2 8449   2.356   1.219  16.598  0.4244  0.1757 -0.5419
  570TMC3    C1 8450   2.016   4.562  16.311  0.6309 -0.3400 -0.0670
  570TMC3    C2 8451   2.058   4.524  16.186  0.3884 -0.4426  0.3896
  570TMC3    C3 8452   2.059   4.625  16.094  0.2570  0.0977 -0.4757
  570TMC3    C4 8453   1.980   4.689  16.346 -0.1481  0.0769  0.9406
  570TMC3    C5 8454   1.980   0.058  16.251  0.3984 -0.5729 -0.2685
  570TMC3    C6 8455   2.030   0.036  16.122  0.0803  0.4502 -0.2055
  570TMC3     C 8456   2.020   4.452  16.406  1.0464 -0.9638 -0.1361
  570TMC3     O 8457   2.021   4.334  16.370 -0.2485 -0.2472  0.2361
  570TMC3     H 8458   2.089   4.422  16.171 -3.2475 -1.8138  2.3548
  570TMC3    H1 8459   1.933   4.711  16.442  0.0515 -1.4704  1.3992
  570TMC3    H2 8460   2.033   0.116  16.049 -0.7618 -1.1437 -1.9660
  570TMC3    C7 8461   1.942   0.195  16.283  0.3132  0.2103  0.2864
  570TMC3    C8 8462   2.132   4.614  15.971  0.3577 -0.3731 -0.2183
  570TMC3    O1 8463   1.957   0.223  16.397  0.4648  0.5185  0.2101
  570TMC3    O2 8464   2.157   4.720  15.913 -0.8063 -0.7993  0.1433
  571MPD2     C 8465   4.721   1.016  17.484  0.4564  0.3704 -0.3981
  571MPD2    C1 8466   4.658   0.964  17.594 -0.0454 -0.9520  0.4154
  571MPD2    C2 8467   4.632   1.054   0.005  0.0457  0.4228 -0.2309
  571MPD2    C3 8468   4.662   1.187  17.682 -0.8430  0.3580 -1.0288
  571MPD2    C4 8469   4.721   1.232  17.569 -0.1191 -0.1081 -0.1772
  571MPD2    C5 8470   0.041   1.143  17.474  0.1014 -0.0420 -0.5551
  571MPD2     H 8471   4.572   1.022   0.090 -0.2849 -0.8004 -0.9328
  571MPD2    H1 8472   0.035   1.333  17.558 -0.7425  0.2145  0.8232
  571MPD2    H2 8473   0.030   0.954  17.401 -0.8384 -1.0302  0.1880
  571MPD2    H3 8474   0.105   1.184  17.396 -0.5900  0.5218 -0.8250
  571MPD2     N 8475   4.610   1.268   0.096  0.0152 -0.0702 -0.4987
  571MPD2    H5 8476   4.548   1.223   0.163 -0.0102 -1.6774 -1.6242
  571MPD2    N1 8477   4.630   0.829  17.603 -0.5834  0.4115  0.4736
  571MPD2    H7 8478   4.628   0.771  17.519  1.2159 -1.4937  1.7445
  572TMC3    C1 8479   4.533   1.434   0.219 -0.2992  0.5928 -0.2725
  572TMC3    C2 8480   4.462   1.334   0.270 -0.4413  0.2195  0.1788
  572TMC3    C3 8481   4.417   1.334   0.394 -0.1380 -0.1275  0.7981
  572TMC3    C4 8482   4.586   1.529   0.302  0.7721  0.9486  0.1924
  572TMC3    C5 8483   4.531   1.533   0.428  0.0257 -0.3786  0.4751
  572TMC3    C6 8484   4.437   1.442   0.473  0.7734  0.0548 -0.2289
  572TMC3     C 8485   4.605   1.402   0.100 -0.6917 -0.0391 -0.3657
  572TMC3     O 8486   4.681   1.478   0.047  0.6587  0.1632  0.3287
  572TMC3     H 8487   4.406   1.263   0.210 -0.5034 -0.8508  1.5237
  572TMC3    H1 8488   4.672   1.590   0.275 -0.8764  1.5218 -3.6676
  572TMC3    H2 8489   4.380   1.456   0.564  1.1906  0.7158 -0.0747
  572TMC3    C7 8490   4.553   1.656   0.507  0.1414  0.2163 -0.2260
  572TMC3    C8 8491   4.366   1.212   0.447  0.1565  0.2681  0.5070
  572TMC3    O1 8492   4.466   1.695   0.580 -0.3851  0.0924  0.6563
  572TMC3    O2 8493   4.373   1.110   0.378 -0.0048  0.3219  0.1028
  573MPD2     C 8494   1.168   2.063   0.641  0.1920 -0.3769  0.1330
  573MPD2    C1 8495   1.200   2.188   0.599  0.2034 -0.2107  0.1667
  573MPD2    C2 8496   1.203   2.204   0.464 -0.0992 -0.2540  0.5309
  573MPD2    C3 8497   1.157   2.105   0.377 -0.1270  1.9326 -0.3401
  573MPD2    C4 8498   1.121   1.984   0.428  0.1847 -0.1373  1.0357
  573MPD2    C5 8499   1.140   1.960   0.561 -0.3362  0.1910  0.9175
  573MPD2     H 8500   1.221   2.306   0.431 -1.6570  0.2014  1.0799
  573MPD2    H1 8501   1.071   1.904   0.375 -2.1746  1.5629  0.7299
  573MPD2    H2 8502   1.166   2.040   0.747 -1.2329 -2.6062 -0.3786
  573MPD2    H3 8503   1.117   1.863   0.603  0.2531 -1.3534 -2.3385
  573MPD2     N 8504   1.136   2.131   0.235  0.0616 -0.7982 -0.0834
  573MPD2    H5 8505   1.096   2.054   0.183  0.0790 -1.7626  1.3342
  573MPD2    N1 8506   1.237   2.288   0.696  0.4095 -0.5956  0.2340
  573MPD2    H7 8507   1.232   2.255   0.791  2.5032 -1.7396 -0.0581
  574TMC3    C1 8508   1.117   2.245   0.022 -0.0152 -0.7403 -0.2292
  574TMC3    C2 8509   0.997   2.181  17.679 -0.2420 -0.7175  0.4381
  574TMC3    C3 8510   0.999   2.125  17.554  0.1734  0.0354  0.2684
  574TMC3    C4 8511   1.216   2.267  17.618  0.1105 -0.0176 -0.1689
  574TMC3    C5 8512   1.209   2.214  17.493 -0.2547 -0.2744  0.1324
  574TMC3    C6 8513   1.098   2.139  17.463  0.2942  0.4839  0.0831
  574TMC3     C 8514   1.163   2.247   0.167 -0.5579  0.4532  0.4150
  574TMC3     O 8515   1.237   2.340   0.199 -0.5545  0.3450  0.8817
  574TMC3     H 8516   0.924   2.148   0.065 -0.3472 -1.8553 -0.1724
  574TMC3    H1 8517   1.309   2.311  17.652 -0.7935  2.2069 -0.5312
  574TMC3    H2 8518   1.100   2.082  17.370  1.2130 -2.2060  1.7590
  574TMC3    C7 8519   1.318   2.242  17.401 -0.2999  0.1751  0.1079
  574TMC3    C8 8520   0.888   2.050  17.523  0.2722  0.7767 -0.1502
  574TMC3    O1 8521   1.421   2.284  17.451 -0.0676 -0.2094  0.1808
  574TMC3    O2 8522   0.894   1.973  17.432  0.3236 -0.0889  0.2508
  575TMC3    C1 8523   3.931   3.071  11.310 -0.0258 -0.4667 -0.3471
  575TMC3    C2 8524   3.876   2.942  11.315  0.6029  1.0447 -0.4455
  575TMC3    C3 8525   3.851   2.875  11.198 -0.3145 -0.1533  0.7145
  575TMC3    C4 8526   3.965   3.130  11.193  0.6460 -0.1352  0.2276
  575TMC3    C5 8527   3.928   3.069  11.074 -0.0235  0.4734  0.8443
  575TMC3    C6 8528   3.875   2.938  11.080 -0.7853  0.0354 -0.4363
  575TMC3     C 8529   3.967   3.128  11.443  0.5894 -0.1949 -0.1573
  575TMC3     O 8530   3.977   3.248  11.465  0.6108  0.0057 -0.4503
  575TMC3     H 8531   3.839   2.896  11.406  2.1035 -1.4274 -1.0911
  575TMC3    H1 8532   4.013   3.227  11.189  0.3479 -0.0491 -1.3401
  575TMC3    H2 8533   3.859   2.878  10.991 -0.1573  1.6603 -1.6499
  575TMC3    C7 8534   3.941   3.143  10.951  0.0914  0.3891 -0.3156
  575TMC3    C8 8535   3.807   2.737  11.216  0.7215  0.1324  0.4226
  575TMC3    O1 8536   3.923   3.262  10.960 -1.1164 -0.4808  0.0748
  575TMC3    O2 8537   3.814   2.692  11.329 -0.1860 -0.3121 -0.1867
  576MPD2     C 8538   3.438   4.641  12.769  1.4281 -0.0490  0.3809
  576MPD2    C1 8539   3.459   0.023  12.678 -0.0693 -0.0624  0.0030
  576MPD2    C2 8540   3.462   0.154  12.726 -0.0076 -0.7280  0.2248
  576MPD2    C3 8541   3.446   0.191  12.861  0.1695  0.1965 -1.0843
  576MPD2    C4 8542   3.437   0.085  12.953  0.1318 -0.2609 -0.6230
  576MPD2    C5 8543   3.432   4.678  12.902 -0.0396 -0.9305  0.1438
  576MPD2     H 8544   3.477   0.232  12.652 -0.1177 -0.0002  0.9685
  576MPD2    H1 8545   3.447   0.098  13.060  1.8851  0.5226 -0.8725
  576MPD2    H2 8546   3.441   4.538  12.737 -0.6119  0.0941 -0.2537
  576MPD2    H3 8547   3.425   4.604  12.981 -1.1752  0.3382  1.2521
  576MPD2     N 8548   3.446   0.331  12.894  0.3050 -0.3630  0.0558
  576MPD2    H5 8549   3.452   0.406  12.826  1.2031 -0.7135 -0.2512
  576MPD2    N1 8550   3.490   4.719  12.544 -0.0044 -0.4216 -0.0146
  576MPD2    H7 8551   3.493   0.078  12.482  0.5839 -0.1809  0.3233
  577TMC3    C1 8552   3.538   4.610  12.341  0.1366 -0.3242  0.4291
  577TMC3    C2 8553   3.550   4.495  12.270 -0.2559  0.6246 -0.0671
  577TMC3    C3 8554   3.592   4.511  12.137  0.1343  0.2063  0.2403
  577TMC3    C4 8555   3.587   0.012  12.299  0.0166 -0.2688 -0.3349
  577TMC3    C5 8556   3.613   0.015  12.165  0.1158 -0.0616  0.0980
  577TMC3    C6 8557   3.612   4.629  12.084  0.1454 -0.3192  0.5093
  577TMC3     C 8558   3.495   4.596  12.479  0.0744  0.7638 -0.5389
  577TMC3     O 8559   3.441   4.493  12.519 -0.1964 -0.3110  0.0625
  577TMC3     H 8560   3.530   4.397  12.311 -0.1055  0.8270  0.5003
  577TMC3    H1 8561   3.569   0.103  12.354 -1.6361 -1.0073  0.3304
  577TMC3    H2 8562   3.651   4.659  11.987  2.5824 -1.4177  1.1459
  577TMC3    C7 8563   3.661   0.143  12.105  0.0028  0.9240 -0.1950
  577TMC3    C8 8564   3.624   4.391  12.066 -0.1703 -0.1000 -1.3712
  577TMC3    O1 8565   3.778   0.176  12.127  0.1522  0.2146 -0.2972
  577TMC3    O2 8566   3.645   4.287  12.125  0.8523 -0.5013 -0.0111
  578MPD2     C 8567   1.007   4.700   0.861  0.6757 -0.0082  0.0388
  578MPD2    C1 8568   1.115   4.630   0.810 -0.0823  0.4001  0.1232
  578MPD2    C2 8569   1.223   4.607   0.889  0.0642 -0.3193  0.3129
  578MPD2    C3 8570   1.238   4.658   1.014  0.2021  0.6096  0.8167
  578MPD2    C4 8571   1.125   0.007   1.062  0.3625  0.1672 -0.0938
  578MPD2    C5 8572   1.009   0.025   0.988 -0.1500 -0.1406  0.1782
  578MPD2     H 8573   1.308   4.557   0.845  0.8925  1.6163 -0.2800
  578MPD2    H1 8574   1.127   0.039   1.166 -1.7487 -2.1884  0.6582
  578MPD2    H2 8575   0.927   0.013   0.796 -1.5498 -3.7944  0.8275
  578MPD2    H3 8576   0.922   0.082   1.018 -1.0373 -2.7698  2.5938
  578MPD2     N 8577   1.353   4.630   1.094  0.6958  0.4540  0.0658
  578MPD2    H5 8578   1.415   4.559   1.056  0.9441 -0.3515  1.9986
  578MPD2    N1 8579   1.100   4.601   0.680 -0.2730  0.0767  0.4028
  578MPD2    H7 8580   1.013   4.623   0.632  0.6475  0.9697 -0.8428
  579TMC3    C1 8581   1.503   4.640   1.269 -0.6083  0.4638  0.2408
  579TMC3    C2 8582   1.574   4.718   1.359 -0.4176 -0.3766 -0.7612
  579TMC3    C3 8583   1.698   4.662   1.403 -0.0433 -0.3452 -0.0407
  579TMC3    C4 8584   1.519   4.503   1.276  0.0406  0.7832 -0.1742
  579TMC3    C5 8585   1.628   4.448   1.338 -0.0777 -0.7394 -0.4372
  579TMC3    C6 8586   1.720   4.527   1.399 -0.2998  0.1768 -0.2405
  579TMC3     C 8587   1.391   4.701   1.203 -0.4194 -0.1443 -1.0626
  579TMC3     O 8588   1.351   0.087   1.245  0.8566 -0.0320 -0.3004
  579TMC3     H 8589   1.570   0.105   1.348 -2.2081 -0.3626  0.0124
  579TMC3    H1 8590   1.439   4.447   1.228  2.4083 -0.1621 -2.9921
  579TMC3    H2 8591   1.793   4.482   1.466 -1.1350 -1.9189 -0.7535
  579TMC3    C7 8592   1.670   4.309   1.318  0.2817  0.3600  0.0568
  579TMC3    C8 8593   1.783   0.027   1.483  0.4861 -0.0632 -0.7740
  579TMC3    O1 8594   1.751   4.260   1.392 -0.2863 -0.4951 -0.0393
  579TMC3    O2 8595   1.730   0.136   1.506 -0.3848  0.4015  0.0446
  580TMC3    C1 8596   1.298   4.210  12.007 -0.0032  0.2191 -0.6127
  580TMC3    C2 8597   1.414   4.292  12.011 -0.7603 -0.2978 -0.0064
  580TMC3    C3 8598   1.488   4.303  12.128  0.1196 -0.1954  0.1897
  580TMC3    C4 8599   1.259   4.146  12.125  0.2377 -0.2204  0.3351
  580TMC3    C5 8600   1.339   4.153  12.242  0.2386  0.2560 -0.1877
  580TMC3    C6 8601   1.453   4.235  12.238 -1.1515 -0.3071 -0.5855
  580TMC3     C 8602   1.193   4.238  11.905 -0.3737  0.5213 -0.2981
  580TMC3     O 8603   1.078   4.219  11.935  0.5311  0.4617 -0.1995
  580TMC3     H 8604   1.433   4.361  11.929  0.7407 -1.9425 -1.0229
  580TMC3    H1 8605   1.167   4.089  12.120  0.0521  0.1836 -0.8998
  580TMC3    H2 8606   1.512   4.234  12.329 -0.1815 -1.1933 -1.2099
  580TMC3    C7 8607   1.331   4.047  12.332 -0.2168  0.3906 -0.2710
  580TMC3    C8 8608   1.613   4.368  12.141  0.5090  0.3445  0.1591
  580TMC3    O1 8609   1.245   3.962  12.309  0.2128 -0.1400 -0.4293
  580TMC3    O2 8610   1.643   4.397  12.261  0.3258 -0.4250 -0.4691
  581MPD2     C 8611   4.077   3.123  15.252  0.2724  0.1395 -0.1514
  581MPD2    C1 8612   4.025   3.165  15.371  0.7904  0.0676 -0.0402
  581MPD2    C2 8613   3.921   3.260  15.371 -0.2867 -0.0325 -0.0157
  581MPD2    C3 8614   3.877   3.314  15.252  0.2115  0.4256 -0.3167
  581MPD2    C4 8615   3.942   3.271  15.134 -0.8067 -0.0166 -0.0770
  581MPD2    C5 8616   4.035   3.171  15.134  0.3786 -0.1335  1.0745
  581MPD2     H 8617   3.871   3.295  15.460 -1.5031  2.9754 -1.8498
  581MPD2    H1 8618   3.907   3.314  15.041 -0.8272 -0.3706 -0.2314
  581MPD2    H2 8619   4.158   3.051  15.247 -0.2594 -0.5553  1.3381
  581MPD2    H3 8620   4.076   3.137  15.040 -1.1871  0.2327  0.2683
  581MPD2     N 8621   3.772   3.409  15.253 -0.1410 -0.2179  0.5752
  581MPD2    H5 8622   3.737   3.429  15.346  1.6329 -0.1223  1.2348
  581MPD2    N1 8623   4.077   3.109  15.485  0.2020 -0.0505  0.7812
  581MPD2    H7 8624   4.149   3.038  15.484  0.1421 -0.1304  2.2178
  582TMC3    C1 8625   4.079   3.025  15.698  0.4359 -0.0794  0.3185
  582TMC3    C2 8626   4.127   3.045  15.825  0.2367 -0.3778 -0.5217
  582TMC3    C3 8627   4.086   2.955  15.925 -0.4593 -0.3489  0.5843
  582TMC3    C4 8628   3.997   2.911  15.677  0.1108  0.0002 -0.1526
  582TMC3    C5 8629   3.958   2.826  15.778  0.0273  0.4213  0.0430
  582TMC3    C6 8630   4.000   2.846  15.911 -0.0466 -0.4884  0.2732
  582TMC3     C 8631   4.042   3.138  15.616  0.2856  0.4371  0.3267
  582TMC3     O 8632   3.960   3.210  15.668 -0.4464 -1.2034  0.2164
  582TMC3     H 8633   4.190   3.130  15.850 -1.7686  0.8971  0.2931
  582TMC3    H1 8634   3.955   2.891  15.580 -1.0462  1.1034  0.1207
  582TMC3    H2 8635   3.958   2.777  15.983 -0.6735 -1.7063 -1.2388
  582TMC3    C7 8636   3.817   2.813  15.789 -0.3147  0.1222  0.4529
  582TMC3    C8 8637   4.122   2.999  16.054 -0.2168  0.4982  0.0912
  582TMC3    O1 8638   3.760   2.729  15.858  0.3985  0.5264 -0.1827
  582TMC3    O2 8639   4.167   3.111  16.066  0.4413 -0.0487 -0.0542
  583MPD2     C 8640   4.157   0.160  17.017 -0.1194  0.8952 -0.9252
  583MPD2    C1 8641   4.118   0.269  16.940 -0.2113  0.5516 -0.9759
  583MPD2    C2 8642   4.054   0.366  17.012  0.0483 -0.7464  0.0429
  583MPD2    C3 8643   4.022   0.357  17.145 -0.1416 -0.7084  0.1154
  583MPD2    C4 8644   4.053   0.243  17.210  0.6210  0.9043  0.2092
  583MPD2    C5 8645   4.120   0.143  17.150  0.1918 -0.3722 -0.1915
  583MPD2     H 8646   4.024   0.455  16.959  1.2776 -1.1897 -1.4147
  583MPD2    H1 8647   4.035   0.228  17.316  0.1830 -0.2513 -0.0185
  583MPD2    H2 8648   4.212   0.074  16.979 -0.2428  0.2373  0.3839
  583MPD2    H3 8649   4.154   0.056  17.206  0.9882  0.2480  0.2818
  583MPD2     N 8650   3.963   0.478  17.204  0.1056 -0.1740  0.2705
  583MPD2    H5 8651   3.930   0.552  17.144 -0.6992 -0.6333  0.1412
  583MPD2    N1 8652   4.154   0.287  16.802  0.0463 -0.3480  0.3265
  583MPD2    H7 8653   4.144   0.378  16.757 -2.2605  0.1565  1.8860
  584TMC3    C1 8654   3.851   0.614  17.376  0.8925  0.3280 -0.1858
  584TMC3    C2 8655   3.879   0.734  17.323 -0.0577 -0.1454 -0.4055
  584TMC3    C3 8656   3.846   0.849  17.385  0.3383 -0.0324  0.8032
  584TMC3    C4 8657   3.776   0.601  17.489 -0.0967  0.4801  0.2876
  584TMC3    C5 8658   3.744   0.711  17.555 -0.4941 -0.8114  0.7461
  584TMC3    C6 8659   3.770   0.838  17.498  0.3798  0.3135  0.5954
  584TMC3     C 8660   3.927   0.496  17.337  0.6239  0.0494 -0.1928
  584TMC3     O 8661   3.951   0.429  17.434 -0.0995 -0.5446 -0.1227
  584TMC3     H 8662   3.914   0.732  17.220  2.1511  0.4809  0.3285
  584TMC3    H1 8663   3.772   0.507  17.542 -0.9804 -0.1310 -0.8562
  584TMC3    H2 8664   3.732   0.922  17.555 -1.2888 -0.3625  0.4807
  584TMC3    C7 8665   3.717   0.707   0.009  0.8572 -0.4592 -0.5623
  584TMC3    C8 8666   3.872   0.975  17.319  0.1607 -0.7656 -0.3642
  584TMC3    O1 8667   3.735   0.815   0.073  0.1200 -0.4984  0.0323
  584TMC3    O2 8668   3.936   0.973  17.211 -0.3826 -0.0369 -0.7553
  585MPD2     C 8669   3.141   4.256   1.027 -0.2152 -0.0978 -0.2707
  585MPD2    C1 8670   3.256   4.309   0.961 -0.5641  0.1521  0.0147
  585MPD2    C2 8671   3.252   4.323   0.827  0.5009  0.5377  0.6635
  585MPD2    C3 8672   3.137   4.307   0.756  1.3817  0.4408 -0.4421
  585MPD2    C4 8673   3.025   4.271   0.825  0.0496 -0.0059 -0.0064
  585MPD2    C5 8674   3.029   4.239   0.957  0.2501  0.5133 -0.4140
  585MPD2     H 8675   3.343   4.358   0.780  1.2068 -1.6323  0.4055
  585MPD2    H1 8676   2.929   4.266   0.775  0.3034 -1.6751 -0.3396
  585MPD2    H2 8677   3.140   4.244   1.134 -0.4133 -1.5149 -0.4344
  585MPD2    H3 8678   2.942   4.192   1.003  0.8458 -1.2728 -1.1170
  585MPD2     N 8679   3.124   4.325   0.617 -0.6794 -0.5700  0.3250
  585MPD2    H5 8680   3.029   4.323   0.581 -0.2132  1.4518 -0.9668
  585MPD2    N1 8681   3.364   4.342   1.041  0.6984  0.0730 -0.0525
  585MPD2    H7 8682   3.370   4.287   1.126 -1.2631  1.0642  0.7366
  586TMC3    C1 8683   3.191   4.386   0.391 -0.7553  0.0875 -0.6866
  586TMC3    C2 8684   3.277   4.350   0.296  0.3521  0.4438 -0.4483
  586TMC3    C3 8685   3.254   4.386   0.165  0.4803 -0.0248  1.2914
  586TMC3    C4 8686   3.084   4.465   0.368 -0.3459  0.0975 -0.3651
  586TMC3    C5 8687   3.061   4.505   0.244  0.0272  0.4597  0.0263
  586TMC3    C6 8688   3.152   4.477   0.143 -0.1802  0.3535 -1.1109
  586TMC3     C 8689   3.228   4.351   0.528  0.6578  0.1432 -0.4713
  586TMC3     O 8690   3.346   4.340   0.554 -0.0452 -0.2134 -0.5850
  586TMC3     H 8691   3.348   4.273   0.323  2.7597  2.6382 -0.5661
  586TMC3    H1 8692   3.004   4.469   0.441 -1.4441  3.9232 -1.8002
  586TMC3    H2 8693   3.130   4.517   0.045  0.6885 -0.4202 -1.6245
  586TMC3    C7 8694   2.931   4.459   0.208 -0.2986  0.0449 -0.2283
  586TMC3    C8 8695   3.246   4.269   0.091  0.0180  0.0168  0.1745
  586TMC3    O1 8696   2.883   4.370   0.273  0.4541  0.3643  0.2034
  586TMC3    O2 8697   3.260   4.164   0.149 -0.2496  0.2359  0.8292
  587TMC3    C1 8698   0.881   2.655  17.035 -0.5144  0.0443  0.3363
  587TMC3    C2 8699   0.953   2.773  17.010  0.4513 -0.0250 -0.3677
  587TMC3    C3 8700   1.043   2.767  16.901 -0.4979 -0.4765  0.4852
  587TMC3    C4 8701   0.908   2.531  16.969 -0.3259 -0.5384 -0.1025
  587TMC3    C5 8702   1.004   2.537  16.873  1.0288  0.5527 -0.1990
  587TMC3    C6 8703   1.075   2.647  16.841  0.6324 -0.4158 -0.0850
  587TMC3     C 8704   0.773   2.674  17.130  0.2628 -0.3116  0.5292
  587TMC3     O 8705   0.796   2.755  17.220  0.0673 -1.2281 -0.2638
  587TMC3     H 8706   0.941   2.864  17.068  0.6624  1.3747 -2.5175
  587TMC3    H1 8707   0.850   2.444  16.996  2.6517 -2.4979 -0.1260
  587TMC3    H2 8708   1.142   2.636  16.756  0.3144  0.4492 -0.4500
  587TMC3    C7 8709   1.040   2.419  16.805 -1.5007  0.5529  0.2114
  587TMC3    C8 8710   1.043   2.890  16.813 -0.1142  0.2673 -0.0427
  587TMC3    O1 8711   1.148   2.423  16.745  0.9173  0.2529 -0.3058
  587TMC3    O2 8712   1.100   2.877  16.702 -0.1859 -0.1122 -0.1875
  588TMC3    C1 8713   3.127   1.164   9.857 -0.3112 -0.5411  0.2158
  588TMC3    C2 8714   3.104   1.034   9.860  0.0379 -0.2397 -0.1197
  588TMC3    C3 8715   3.215   0.948   9.852  0.1778  0.1194 -0.4359
  588TMC3    C4 8716   3.257   1.209   9.830 -0.0413  0.0515  0.7659
  588TMC3    C5 8717   3.360   1.124   9.801 -0.2316  0.2362 -0.5529
  588TMC3    C6 8718   3.337   0.988   9.800 -0.1520  0.7209  0.3756
  588TMC3     C 8719   3.031   1.236   9.772  0.1019 -0.1016  0.0055
  588TMC3     O 8720   2.951   1.164   9.717 -0.1686  0.5710 -0.2215
  588TMC3     H 8721   3.004   0.993   9.870 -0.6655  1.1927 -1.2356
  588TMC3    H1 8722   3.277   1.315   9.839 -3.2279  0.8294 -1.3048
  588TMC3    H2 8723   3.417   0.927   9.761 -0.4683  0.7783 -0.3654
  588TMC3    C7 8724   3.454   1.164   9.699  0.2361 -0.4536  0.3958
  588TMC3    C8 8725   3.188   0.806   9.827  0.3496  0.4196 -0.3371
  588TMC3    O1 8726   3.489   1.083   9.616 -0.1294 -0.1402 -0.2385
  588TMC3    O2 8727   3.072   0.771   9.840 -0.0527  0.5178  0.0834
  589TMC3    C1 8728   1.872   3.137   1.327 -0.2497 -0.6357 -0.0895
  589TMC3    C2 8729   1.956   3.131   1.438 -0.5872  0.3567 -0.7250
  589TMC3    C3 8730   2.076   3.068   1.415  0.2701 -0.0994  0.1552
  589TMC3    C4 8731   1.908   3.079   1.207  0.7054  0.5801 -0.3486
  589TMC3    C5 8732   2.031   3.029   1.198  0.4515 -0.3526 -0.7349
  589TMC3    C6 8733   2.113   3.013   1.299 -0.3952 -0.3355 -0.7190
  589TMC3     C 8734   1.739   3.182   1.322  0.7544 -0.3897 -0.8064
  589TMC3     O 8735   1.677   3.160   1.218  0.0682 -0.4322 -0.0135
  589TMC3     H 8736   1.944   3.165   1.541  0.8697 -0.5652 -0.2636
  589TMC3    H1 8737   1.851   3.094   1.116  1.2423  0.2359 -0.7424
  589TMC3    H2 8738   2.203   2.956   1.280  1.4651  2.0292  0.9021
  589TMC3    C7 8739   2.067   3.003   1.061 -0.0934  0.0609 -0.4949
  589TMC3    C8 8740   2.158   3.034   1.539 -0.6609  0.0060  0.2347
  589TMC3    O1 8741   1.992   2.944   0.984 -0.0505  0.5073 -0.2777
  589TMC3    O2 8742   2.128   3.079   1.651 -0.6443 -0.1121  0.3294
  590MPD2     C 8743   1.626   1.210  16.812 -0.0148  0.0940  0.7991
  590MPD2    C1 8744   1.583   1.337  16.775  0.4391 -0.0099  0.0413
  590MPD2    C2 8745   1.634   1.398  16.665  1.1745 -0.4006  0.7559
  590MPD2    C3 8746   1.720   1.328  16.580  0.2078 -0.4817  0.7058
  590MPD2    C4 8747   1.770   1.211  16.626 -0.2303 -0.2961 -0.1409
  590MPD2    C5 8748   1.725   1.153  16.744 -0.3719  0.1821  0.2970
  590MPD2     H 8749   1.589   1.491  16.633 -1.9132 -1.8296  1.0091
  590MPD2    H1 8750   1.851   1.159  16.576  0.9239  1.5116 -0.1442
  590MPD2    H2 8751   1.586   1.161  16.900 -1.7665  1.1961  0.6114
  590MPD2    H3 8752   1.768   1.061  16.781 -1.5044 -0.6794 -0.5223
  590MPD2     N 8753   1.749   1.377  16.448  0.1323 -0.0107  0.3841
  590MPD2    H5 8754   1.729   1.472  16.419 -1.9558  0.1562  2.3465
  590MPD2    N1 8755   1.468   1.386  16.843 -0.1910  0.4179 -0.4702
  590MPD2    H7 8756   1.410   1.316  16.888 -1.8768  1.7074 -0.6030
  591TMC3    C1 8757   1.835   1.383  16.227  0.4672  0.3004  0.0545
  591TMC3    C2 8758   1.944   1.367  16.154 -0.2208 -0.2668  0.3217
  591TMC3    C3 8759   1.942   1.438  16.034  0.4428 -0.0742  0.1156
  591TMC3    C4 8760   1.719   1.450  16.199  0.4900  0.2678  0.3942
  591TMC3    C5 8761   1.721   1.509  16.069  0.3091 -0.4707 -0.2333
  591TMC3    C6 8762   1.834   1.508  15.991 -0.1120  0.1017  0.2035
  591TMC3     C 8763   1.831   1.316  16.355 -0.2757 -0.0167  0.1954
  591TMC3     O 8764   1.904   1.218  16.366 -0.5950  0.2574 -0.4987
  591TMC3     H 8765   2.035   1.314  16.181 -0.4816 -1.6397 -1.4634
  591TMC3    H1 8766   1.625   1.447  16.251  0.9043 -2.2031  1.0054
  591TMC3    H2 8767   1.824   1.536  15.887  0.8517  2.0985  0.6493
  591TMC3    C7 8768   1.630   1.612  16.046 -0.0194 -0.6323 -0.3327
  591TMC3    C8 8769   2.047   1.412  15.946  0.4917  0.4292  0.1720
  591TMC3    O1 8770   1.520   1.573  16.049  0.5189 -0.2162 -0.8290
  591TMC3    O2 8771   2.116   1.309  15.955  0.7699  0.1305  0.0502
  592MPD2     C 8772   2.212   3.192  11.787  0.1992 -0.1150 -0.4284
  592MPD2    C1 8773   2.137   3.304  11.832  0.6922 -0.8253 -0.7844
  592MPD2    C2 8774   2.054   3.292  11.947 -0.6019 -0.0756  0.1420
  592MPD2    C3 8775   2.051   3.170  12.015 -0.3052 -0.1182  0.8851
  592MPD2    C4 8776   2.127   3.062  11.972 -0.1249  0.3029 -0.8703
  592MPD2    C5 8777   2.200   3.072  11.860 -0.4206  0.4297  0.6081
  592MPD2     H 8778   1.996   3.373  11.988 -0.9391  0.7303 -1.9376
  592MPD2    H1 8779   2.129   2.968  12.026  0.3709 -0.0169 -1.4601
  592MPD2    H2 8780   2.274   3.192  11.698 -0.6475  4.7541 -0.9825
  592MPD2    H3 8781   2.263   2.988  11.833  1.1781  2.1923 -1.1863
  592MPD2     N 8782   1.972   3.167  12.135  0.2421  0.0553  0.8898
  592MPD2    H5 8783   1.905   3.241  12.152 -1.6420 -1.1309 -1.4498
  592MPD2    N1 8784   2.143   3.421  11.758  0.8251 -0.2687 -0.1610
  592MPD2    H7 8785   2.213   3.428  11.685  2.7269 -0.6030  1.6561
  593TMC3    C1 8786   2.131   3.651  11.733  0.2582 -0.5233  0.4762
  593TMC3    C2 8787   2.095   3.755  11.817  0.4420 -0.7113 -0.1479
  593TMC3    C3 8788   2.189   3.847  11.848 -0.8478 -0.7319 -0.0468
  593TMC3    C4 8789   2.256   3.653  11.670 -1.0500  0.4446 -0.1962
  593TMC3    C5 8790   2.344   3.759  11.699  0.0015  0.6541  0.7211
  593TMC3    C6 8791   2.317   3.857  11.795  0.3031  0.2972 -0.4461
  593TMC3     C 8792   2.064   3.532  11.772  0.3989 -0.5192 -0.1128
  593TMC3     O 8793   1.949   3.539  11.812  0.1501  0.1814 -0.0367
  593TMC3     H 8794   1.996   3.752  11.862 -0.2404 -0.4879 -1.6129
  593TMC3    H1 8795   2.290   3.572  11.606 -1.6651  0.0754 -0.0646
  593TMC3    H2 8796   2.391   3.933  11.816  0.1391 -0.0196  1.2775
  593TMC3    C7 8797   2.460   3.783  11.613 -0.2353  0.6490 -1.2182
  593TMC3    C8 8798   2.163   3.916  11.976  0.2068 -0.3811  0.3662
  593TMC3    O1 8799   2.548   3.848  11.668  0.4645 -0.8430  0.2538
  593TMC3    O2 8800   2.047   3.943  11.999  0.3815  0.1887  0.2127
  594MPD2     C 8801   0.127   2.333  14.230  0.2203  0.3490 -0.4129
  594MPD2    C1 8802   0.208   2.263  14.324  0.2758 -1.1116 -0.0631
  594MPD2    C2 8803   0.340   2.314  14.342 -0.0525  0.1284 -0.2619
  594MPD2    C3 8804   0.398   2.413  14.266  0.7760  0.3124  0.2314
  594MPD2    C4 8805   0.311   2.478  14.182  0.4707  0.8467 -0.6342
  594MPD2    C5 8806   0.191   2.430  14.157 -0.2210  0.2089 -0.0617
  594MPD2     H 8807   0.412   2.275  14.414 -0.5574  0.3987  0.3981
  594MPD2    H1 8808   0.354   2.562  14.128 -2.2641  1.4397 -1.8935
  594MPD2    H2 8809   0.043   2.278  14.189 -0.2872  1.6227 -1.0948
  594MPD2    H3 8810   0.139   2.478  14.076  1.8198 -0.7495 -1.9413
  594MPD2     N 8811   0.532   2.447  14.288  0.0110  0.8098  0.7395
  594MPD2    H5 8812   0.576   2.402  14.367  0.0198 -0.9509 -0.2662
  594MPD2    N1 8813   0.156   2.155  14.402 -0.4452  0.1213 -0.0865
  594MPD2    H7 8814   0.059   2.131  14.382 -1.1673  2.1940  0.9036
  595TMC3    C1 8815   0.956   2.456  14.250 -0.4757 -0.2962 -0.6422
  595TMC3    C2 8816   0.841   2.478  14.175  0.3275  0.4055 -0.5648
  595TMC3    C3 8817   0.740   2.546  14.247 -0.0946  0.8285 -0.2508
  595TMC3    C4 8818   0.980   2.508  14.376 -0.0339  0.7150 -0.7408
  595TMC3    C5 8819   0.878   2.586  14.435  0.2948 -0.5068 -0.0724
  595TMC3    C6 8820   0.753   2.590  14.375 -0.2256  0.2187 -0.1798
  595TMC3     C 8821   1.055   2.359  14.201  0.6576 -0.4776 -0.5791
  595TMC3     O 8822   1.017   2.268  14.128  0.0698  0.6825  0.1442
  595TMC3     H 8823   0.829   2.452  14.071 -0.5562 -1.7681  0.0745
  595TMC3    H1 8824   1.071   2.500  14.436 -0.2660  3.0195 -0.0964
  595TMC3    H2 8825   0.670   2.646  14.417 -2.9791 -2.8325 -1.5538
  595TMC3    C7 8826   0.894   2.650  14.569 -0.4785 -0.4256 -0.4003
  595TMC3    C8 8827   0.605   2.522  14.200 -0.9441 -0.2493  0.1249
  595TMC3    O1 8828   0.794   2.711  14.606 -0.0650 -0.4157 -0.1855
  595TMC3    O2 8829   0.592   2.531  14.077  0.2868  0.1051 -0.4346
  596MPD2     C 8830   0.113   0.134  16.900  0.8963  1.1825  0.0784
  596MPD2    C1 8831   0.129   0.253  16.835 -0.6301 -0.3013  0.3703
  596MPD2    C2 8832   0.161   0.249  16.694  0.5731  0.1531  0.1294
  596MPD2    C3 8833   0.183   0.122  16.635  0.1621  0.4639  0.3774
  596MPD2    C4 8834   0.181   0.006  16.706  0.5677  0.2152  0.1851
  596MPD2    C5 8835   0.143   0.018  16.843 -0.3143 -0.2178 -0.6057
  596MPD2     H 8836   0.181   0.340  16.638 -0.1784  0.7177  0.7895
  596MPD2    H1 8837   0.183   4.634  16.650  1.5028  0.1062  0.4019
  596MPD2    H2 8838   0.079   0.135  17.003 -2.3610 -2.9301 -0.9619
  596MPD2    H3 8839   0.131   4.651  16.906 -1.3286  1.3290  1.3543
  596MPD2     N 8840   0.204   0.106  16.489  0.4001  1.1620  0.5228
  596MPD2    H5 8841   0.213   0.014  16.446  0.3279  2.2162 -1.7123
  596MPD2    N1 8842   0.115   0.386  16.891 -0.1894 -0.6583 -0.0794
  596MPD2    H7 8843   0.135   0.463  16.829  1.2195 -1.4278 -0.5805
  597TMC3    C1 8844   0.065   0.547  17.057 -0.2842  0.1845 -0.6535
  597TMC3    C2 8845   0.133   0.644  16.985 -0.3664 -0.2587 -0.7277
  597TMC3    C3 8846   0.120   0.776  17.029 -0.5629  0.3911  0.0656
  597TMC3    C4 8847   4.694   0.580  17.155  0.3642  0.3805  0.3060
  597TMC3    C5 8848   4.679   0.710  17.178  0.3188  0.0540 -0.4407
  597TMC3    C6 8849   0.027   0.809  17.120 -0.7838  0.6756  0.1122
  597TMC3     C 8850   0.088   0.412  17.027 -0.1166  0.3024  0.3321
  597TMC3     O 8851   0.074   0.338  17.126 -0.0588  0.3392  0.2091
  597TMC3     H 8852   0.217   0.604  16.929 -0.3077  0.1925 -0.9556
  597TMC3    H1 8853   4.651   0.498  17.211  0.7592  1.9525  2.9148
  597TMC3    H2 8854   0.030   0.911  17.156  1.6850 -0.0846  2.0712
  597TMC3    C7 8855   4.570   0.761  17.266 -0.7576 -0.0692 -0.1998
  597TMC3    C8 8856   0.204   0.879  16.970  0.2593 -0.4639 -0.2099
  597TMC3    O1 8857   4.529   0.689  17.353  0.5854  0.3150  0.2200
  597TMC3    O2 8858   0.213   0.984  17.029  0.2044 -0.5588  0.5126
  598TMC3    C1 8859   2.817   1.885  15.545  0.4802  0.4390  0.5773
  598TMC3    C2 8860   2.764   1.778  15.482 -0.3238 -0.9626  0.5740
  598TMC3    C3 8861   2.790   1.773  15.345 -0.0163  0.4329 -0.2378
  598TMC3    C4 8862   2.883   1.986  15.485  0.4383  0.0915 -0.3922
  598TMC3    C5 8863   2.913   1.970  15.352  0.1980  0.2438 -0.2406
  598TMC3    C6 8864   2.856   1.870  15.278  0.1259 -1.0383 -0.1609
  598TMC3     C 8865   2.852   1.872  15.683 -0.6444 -0.2325 -0.1225
  598TMC3     O 8866   2.869   1.977  15.745 -0.1987 -0.5915  0.2266
  598TMC3     H 8867   2.723   1.694  15.537 -1.2233 -1.6407 -1.1309
  598TMC3    H1 8868   2.935   2.054  15.552  0.2381  1.0947 -1.2635
  598TMC3    H2 8869   2.871   1.865  15.171 -0.2896 -1.4818 -0.1952
  598TMC3    C7 8870   3.048   2.006  15.317  0.8052 -0.4768  0.3846
  598TMC3    C8 8871   2.717   1.668  15.267 -0.2451 -0.4666 -0.1772
  598TMC3    O1 8872   3.089   1.937  15.228 -0.0311 -0.0421  0.2265
  598TMC3    O2 8873   2.606   1.645  15.318 -0.4277  0.3376  0.5749
  599MPD2     C 8874   3.370   4.466  16.492 -0.5175  0.2748  0.6226
  599MPD2    C1 8875   3.323   4.336  16.481  0.2845 -0.5812 -0.4336
  599MPD2    C2 8876   3.185   4.321  16.503 -0.0729 -0.7917  0.1380
  599MPD2    C3 8877   3.100   4.425  16.523  0.0944  0.1012 -0.0804
  599MPD2    C4 8878   3.149   4.552  16.517  0.4648  0.1505 -0.0200
  599MPD2    C5 8879   3.280   4.563  16.492 -0.7177  0.0814 -0.4426
  599MPD2     H 8880   3.156   4.216  16.500 -1.8609 -0.3158  0.9360
  599MPD2    H1 8881   3.082   4.634  16.538 -2.7816 -1.9138 -2.2246
  599MPD2    H2 8882   3.474   4.491  16.470 -0.6927 -0.0292 -0.5585
  599MPD2    H3 8883   3.316   4.665  16.480  0.1879 -0.0441  1.1457
  599MPD2     N 8884   2.961   4.405  16.537 -0.0574  0.2489 -0.2680
  599MPD2    H5 8885   2.900   4.486  16.541  0.1087  0.4546 -1.8595
  599MPD2    N1 8886   3.409   4.228  16.460 -0.1825 -0.3269  0.0490
  599MPD2    H7 8887   3.508   4.249  16.458 -0.5743  1.5131 -1.0128
  600TMC3    C1 8888   2.754   4.288  16.567  0.4177 -0.5450  0.2504
  600TMC3    C2 8889   2.706   4.210  16.667 -0.2767 -0.2998  0.7501
  600TMC3    C3 8890   2.577   4.208  16.697 -0.6535  0.5784 -0.2760
  600TMC3    C4 8891   2.665   4.375  16.501  0.5496  0.1105  0.4246
  600TMC3    C5 8892   2.531   4.372  16.527 -0.3524 -0.2862  0.2807
  600TMC3    C6 8893   2.487   4.284  16.627  0.0924 -0.5404 -0.2517
  600TMC3     C 8894   2.895   4.280  16.539  0.4403  0.1763  0.6540
  600TMC3     O 8895   2.943   4.169  16.562 -0.2345 -0.0259 -0.6713
  600TMC3     H 8896   2.783   4.158  16.724  0.1517 -0.6371 -0.1402
  600TMC3    H1 8897   2.712   4.443  16.430  0.1830  0.4399  0.4962
  600TMC3    H2 8898   2.385   4.287  16.665  1.2976 -1.1737  2.9522
  600TMC3    C7 8899   2.466   4.501  16.508 -0.7944 -0.4489  0.1903
  600TMC3    C8 8900   2.536   4.135  16.816  0.6010 -0.7329 -0.2397
  600TMC3    O1 8901   2.406   4.551  16.607  0.4761  0.2639  0.1402
  600TMC3    O2 8902   2.621   4.111  16.901  0.6189  0.1162 -0.4043
  601MPD2     C 8903   0.104   2.056   0.628 -0.3493  0.0595  1.0430
  601MPD2    C1 8904   4.695   2.050   0.573 -0.0978  0.1549  0.2775
  601MPD2    C2 8905   4.647   1.927   0.546 -0.6005 -0.1525  0.3937
  601MPD2    C3 8906   0.006   1.817   0.539 -0.3008  0.1753  0.8689
  601MPD2    C4 8907   0.132   1.831   0.586 -0.9158 -0.1216 -0.4994
  601MPD2    C5 8908   0.180   1.947   0.638 -0.2216  0.6597 -0.7276
  601MPD2     H 8909   4.551   1.927   0.497  0.0545  1.4468 -0.9010
  601MPD2    H1 8910   0.191   1.741   0.598 -1.2870 -0.1779  0.8590
  601MPD2    H2 8911   0.153   2.149   0.654  1.4461 -1.0702  1.6718
  601MPD2    H3 8912   0.284   1.954   0.669 -0.4129 -0.8031  0.2832
  601MPD2     N 8913   4.684   1.695   0.503  0.9149  0.2589  0.1846
  601MPD2    H5 8914   0.028   1.624   0.472 -0.9958 -0.8421 -1.3887
  601MPD2    N1 8915   4.618   2.162   0.544 -0.7562  0.0722 -0.3777
  601MPD2    H7 8916   4.527   2.140   0.505  0.1592 -2.0635 -1.3444
  602TMC3    C1 8917   4.568   2.390   0.507 -0.0997  0.2878 -0.3128
  602TMC3    C2 8918   4.623   2.486   0.424 -0.2801 -0.3759 -0.5141
  602TMC3    C3 8919   4.551   2.600   0.404 -0.0614 -0.2107 -0.4740
  602TMC3    C4 8920   4.447   2.404   0.566 -0.9548  0.4043  0.1950
  602TMC3    C5 8921   4.375   2.519   0.533  0.2408  0.2759  0.6457
  602TMC3    C6 8922   4.429   2.629   0.460  0.8810  0.0320  0.0414
  602TMC3     C 8923   4.662   2.291   0.551  0.5609  0.2178 -0.3690
  602TMC3     O 8924   0.057   2.330   0.559 -0.0590 -0.6991  0.3740
  602TMC3     H 8925   0.001   2.474   0.380 -1.2744 -1.4447 -2.4414
  602TMC3    H1 8926   4.408   2.320   0.622  0.2916 -0.3345 -0.0484
  602TMC3    H2 8927   4.401   2.732   0.479  2.1390  0.3059  0.4281
  602TMC3    C7 8928   4.238   2.535   0.580 -0.4540 -0.4455  0.4756
  602TMC3    C8 8929   4.610   2.690   0.306 -0.5175  0.1639  0.7548
  602TMC3    O1 8930   4.199   2.457   0.664  0.0663 -0.2832  0.2260
  602TMC3    O2 8931   0.012   2.699   0.300  0.5540  0.1600 -0.5341
  603TMC3    C1 8932   3.565   3.044  10.925 -0.0659 -0.3124 -0.5719
  603TMC3    C2 8933   3.570   3.026  11.062  0.4667  0.0723 -0.4869
  603TMC3    C3 8934   3.553   3.137  11.137 -0.0214  0.6804 -0.0414
  603TMC3    C4 8935   3.525   3.164  10.862  0.5273 -0.0055  0.7273
  603TMC3    C5 8936   3.503   3.269  10.953 -0.5234 -0.5145 -0.7762
  603TMC3    C6 8937   3.505   3.257  11.090 -0.0571  0.6846  0.4871
  603TMC3     C 8938   3.573   2.923  10.847 -0.0948 -0.0814 -0.2977
  603TMC3     O 8939   3.631   2.833  10.903 -0.4323  0.1427 -0.2515
  603TMC3     H 8940   3.567   2.927  11.105 -1.9515 -0.5391 -2.0598
  603TMC3    H1 8941   3.552   3.173  10.758  1.2793  1.3658  1.0407
  603TMC3    H2 8942   3.514   3.347  11.151 -0.4661  0.4289  0.9218
  603TMC3    C7 8943   3.478   3.403  10.913 -1.2331  0.8547 -0.5660
  603TMC3    C8 8944   3.583   3.125  11.280  0.2778  0.1976 -0.0839
  603TMC3    O1 8945   3.464   3.495  10.992 -0.2760  0.3176 -0.0505
  603TMC3    O2 8946   3.597   3.010  11.315  0.0058 -0.1284 -0.1727
  604MPD2     C 8947   3.732   1.342  16.938 -0.5497  0.3043 -0.3534
  604MPD2    C1 8948   3.618   1.381  16.862  0.0352  0.2079  0.2527
  604MPD2    C2 8949   3.637   1.398  16.724 -0.3053  1.2516 -0.3269
  604MPD2    C3 8950   3.758   1.375  16.659 -0.0189  0.0619  0.8815
  604MPD2    C4 8951   3.865   1.354  16.742 -0.5593  0.6985  0.3186
  604MPD2    C5 8952   3.850   1.325  16.878 -0.0837  0.1253  0.0843
  604MPD2     H 8953   3.556   1.437  16.663 -0.9933 -0.1758 -0.3324
  604MPD2    H1 8954   3.969   1.344  16.713 -0.2922 -0.1865  1.6067
  604MPD2    H2 8955   3.727   1.338  17.046  1.5759  1.6546 -0.2116
  604MPD2    H3 8956   3.936   1.302  16.940 -0.9269  2.4843  2.1449
  604MPD2     N 8957   3.763   1.405  16.517  0.6797 -1.1959  0.9319
  604MPD2    H5 8958   3.676   1.438  16.479  1.2291  0.2621  0.9304
  604MPD2    N1 8959   3.500   1.412  16.927  0.3466  0.4062 -0.5817
  604MPD2    H7 8960   3.502   1.409  17.028  1.5536  1.8432 -0.5728
  605TMC3    C1 8961   3.270   1.517  16.932 -0.2154 -0.0373  0.0015
  605TMC3    C2 8962   3.327   1.598  17.031  0.1850  0.3294 -0.5807
  605TMC3    C3 8963   3.298   1.738  17.027 -0.1435 -0.3103 -0.5816
  605TMC3    C4 8964   3.189   1.567  16.835 -0.2362 -0.8502 -0.2101
  605TMC3    C5 8965   3.155   1.696  16.844 -0.1059  0.0858 -0.3917
  605TMC3    C6 8966   3.205   1.788  16.936 -0.0467 -0.0435  0.4256
  605TMC3     C 8967   3.380   1.453  16.860  0.8786 -0.4507  0.2011
  605TMC3     O 8968   3.359   1.434  16.743  0.3648  0.1098 -0.2552
  605TMC3     H 8969   3.396   1.554  17.101 -0.4386 -0.8931 -0.7416
  605TMC3    H1 8970   3.161   1.506  16.750 -3.2829 -0.3109  0.4121
  605TMC3    H2 8971   3.170   1.890  16.942  2.7130  1.0172 -1.3496
  605TMC3    C7 8972   3.063   1.749  16.746 -0.6684 -0.3733 -0.7548
  605TMC3    C8 8973   3.409   1.824  17.066 -0.1708 -0.6461 -0.8720
  605TMC3    O1 8974   3.053   1.869  16.751 -0.1521 -0.4757 -0.8712
  605TMC3    O2 8975   3.471   1.794  17.165 -0.0757  0.3798 -0.3398
  606TMC3    C1 8976   0.471   0.256  17.288 -0.1102  0.0341  0.0499
  606TMC3    C2 8977   0.420   0.308  17.400 -0.2290 -0.1804  0.9935
  606TMC3    C3 8978   0.443   0.241  17.521  0.2608 -0.1788  0.0647
  606TMC3    C4 8979   0.535   0.132  17.283 -0.2339  0.6404  0.0837
  606TMC3    C5 8980   0.561   0.073  17.402 -0.0463  0.0532  0.0352
  606TMC3    C6 8981   0.521   0.128  17.528  1.0622 -0.0897  0.2292
  606TMC3     C 8982   0.458   0.337  17.167 -0.1701  0.4661  0.0801
  606TMC3     O 8983   0.417   0.452  17.172 -0.2836 -0.0412  0.4956
  606TMC3     H 8984   0.374   0.406  17.396 -0.5950 -0.2911  2.3279
  606TMC3    H1 8985   0.578   0.090  17.193  1.8061  1.2615  0.7557
  606TMC3    H2 8986   0.548   0.083  17.623 -0.8421 -3.1423 -0.6667
  606TMC3    C7 8987   0.585   4.646  17.401 -0.0557 -0.1293  0.0964
  606TMC3    C8 8988   0.393   0.284  17.648  0.7318 -0.3698  0.3330
  606TMC3    O1 8989   0.629   4.604  17.297 -0.0698 -0.0307 -0.8421
  606TMC3    O2 8990   0.416   0.208   0.051 -0.3706  0.5437  0.3409
  607MPD2     C 8991   2.566   2.972  11.636 -0.8812  0.5102 -1.0531
  607MPD2    C1 8992   2.560   3.059  11.740  0.5548  0.3813  0.2206
  607MPD2    C2 8993   2.538   3.010  11.867  0.1096  0.3665 -0.3966
  607MPD2    C3 8994   2.520   2.872  11.895 -0.7977 -0.4790 -0.2043
  607MPD2    C4 8995   2.531   2.783  11.786 -0.0543 -0.5257 -0.0505
  607MPD2    C5 8996   2.556   2.840  11.661  0.0775 -0.3061 -0.5319
  607MPD2     H 8997   2.528   3.086  11.944 -0.2489  0.4945 -0.5715
  607MPD2    H1 8998   2.535   2.675  11.799  0.4287 -0.6586 -1.3795
  607MPD2    H2 8999   2.565   3.008  11.534 -2.4922 -0.5458 -1.4104
  607MPD2    H3 9000   2.571   2.777  11.574 -1.2560  0.5439 -1.3743
  607MPD2     N 9001   2.512   2.835  12.032 -0.0152  0.3328  0.4550
  607MPD2    H5 9002   2.524   2.911  12.099 -1.3379 -1.1156  2.3376
  607MPD2    N1 9003   2.580   3.195  11.724  0.7309  0.3640  0.1689
  607MPD2    H7 9004   2.574   3.252  11.809 -0.7180  0.2453  0.1363
  608TMC3    C1 9005   2.651   3.390  11.620 -0.9916  0.0004  0.3571
  608TMC3    C2 9006   2.645   3.435  11.749 -0.7548 -0.3512  0.2115
  608TMC3    C3 9007   2.727   3.546  11.782  1.1064  0.0355  0.0237
  608TMC3    C4 9008   2.739   3.439  11.526  0.9774 -0.2953 -0.2594
  608TMC3    C5 9009   2.812   3.548  11.561  0.0104  0.6282  0.0333
  608TMC3    C6 9010   2.820   3.599  11.690 -0.0053  0.3063 -0.4845
  608TMC3     C 9011   2.612   3.252  11.603 -0.7792  0.5695 -0.3922
  608TMC3     O 9012   2.627   3.211  11.486  0.1820 -0.3738 -0.1436
  608TMC3     H 9013   2.557   3.419  11.811 -1.3051  1.6518 -0.0591
  608TMC3    H1 9014   2.731   3.416  11.420 -0.9410  2.4508 -0.7256
  608TMC3    H2 9015   2.865   3.693  11.720 -0.1414  0.8200 -1.8609
  608TMC3    C7 9016   2.911   3.590  11.465 -0.4232  0.2339  0.1149
  608TMC3    C8 9017   2.791   3.532  11.912  0.1458 -0.1815  0.1719
  608TMC3    O1 9018   2.902   3.571  11.341 -0.6073 -0.3189 -0.2808
  608TMC3    O2 9019   2.901   3.586  11.916 -0.3699  0.6138  0.1284
  609TMC3    C1 9020   1.021   1.870   9.150 -0.0250  0.1885  0.4422
  609TMC3    C2 9021   0.986   1.795   9.037  0.0052  0.5377  0.3413
  609TMC3    C3 9022   1.065   1.696   9.000  0.7854  0.2842 -0.3159
  609TMC3    C4 9023   1.144   1.863   9.207 -0.2237  0.9713 -0.6473
  609TMC3    C5 9024   1.218   1.752   9.165 -0.4218  0.2577  0.2723
  609TMC3    C6 9025   1.182   1.662   9.065 -0.5859  0.4032 -0.1925
  609TMC3     C 9026   0.924   1.969   9.189 -0.2022  0.1708 -0.9047
  609TMC3     O 9027   0.805   1.938   9.181  0.3091 -0.7575  0.9416
  609TMC3     H 9028   0.886   1.796   8.995 -0.2739  0.1469  0.9867
  609TMC3    H1 9029   1.170   1.919   9.295  1.5695  0.1884 -0.6699
  609TMC3    H2 9030   1.223   1.562   9.073  0.1101  0.7418  0.4374
  609TMC3    C7 9031   1.335   1.728   9.245 -0.5778 -0.2331 -0.2089
  609TMC3    C8 9032   1.020   1.602   8.898 -0.6429  0.1399  0.0670
  609TMC3    O1 9033   1.342   1.782   9.357  0.5105  0.5350 -0.4149
  609TMC3    O2 9034   0.934   1.642   8.821 -0.1131 -0.2470  0.2476
  610TMC3    C1 9035   2.987   3.046  12.748  0.1395  0.6007  0.8904
  610TMC3    C2 9036   3.075   3.104  12.656  0.1304 -0.3694 -0.1533
  610TMC3    C3 9037   3.203   3.107  12.685  0.4803 -0.0634 -0.8541
  610TMC3    C4 9038   3.036   2.967  12.850 -0.3125  0.5251 -0.2614
  610TMC3    C5 9039   3.169   2.982  12.880 -0.3018 -0.0863 -0.2416
  610TMC3    C6 9040   3.250   3.059  12.804 -0.1368 -0.6771 -0.0827
  610TMC3     C 9041   2.855   3.033  12.708  0.5740  0.1760  0.0305
  610TMC3     O 9042   2.830   3.066  12.592 -0.2411 -0.1965  0.0760
  610TMC3     H 9043   3.060   3.149  12.559 -1.6139 -1.6040 -0.4533
  610TMC3    H1 9044   2.972   2.898  12.903 -0.0838  1.5421  1.3351
  610TMC3    H2 9045   3.357   3.045  12.816 -0.2863 -0.0965  2.0065
  610TMC3    C7 9046   3.216   2.908  12.994 -0.2671 -0.3117  0.2954
  610TMC3    C8 9047   3.290   3.184  12.603  0.0736 -0.3425 -0.0082
  610TMC3    O1 9048   3.335   2.878  12.992  0.2195  0.0342 -0.0512
  610TMC3    O2 9049   3.388   3.224  12.663  0.5037  0.0692  0.4287
  611MPD2     C 9050   2.630   2.995   9.865 -0.1460  0.2445  0.8186
  611MPD2    C1 9051   2.629   3.073   9.983  0.2707  0.6986 -0.0492
  611MPD2    C2 9052   2.720   3.179   9.998  0.3349  0.2065 -0.0891
  611MPD2    C3 9053   2.815   3.203   9.893  0.0425 -0.5601  0.5799
  611MPD2    C4 9054   2.802   3.138   9.773 -0.3511 -0.2273  0.1112
  611MPD2    C5 9055   2.704   3.043   9.763 -0.1988  0.5854 -0.2606
  611MPD2     H 9056   2.725   3.241  10.087 -0.1967 -2.4586  1.8086
  611MPD2    H1 9057   2.859   3.161   9.684 -2.1200 -0.9803 -1.2047
  611MPD2    H2 9058   2.564   2.910   9.850 -1.2922  1.1348  0.8357
  611MPD2    H3 9059   2.694   2.994   9.667  1.4378 -0.1882 -0.0291
  611MPD2     N 9060   2.926   3.286   9.907  0.4022  0.6598 -0.0582
  611MPD2    H5 9061   2.982   3.310   9.826 -2.3321  0.9742 -1.8440
  611MPD2    N1 9062   2.541   3.027  10.086 -1.0225 -0.4291 -0.1321
  611MPD2    H7 9063   2.475   2.959  10.049 -0.2380 -1.0601 -0.3762
  612TMC3    C1 9064   3.074   3.427  10.005  0.2521 -0.4191 -0.1233
  612TMC3    C2 9065   3.146   3.464  10.119 -0.7413  0.1993  0.5736
  612TMC3    C3 9066   3.209   3.581  10.114  0.1660  0.0404  0.4312
  612TMC3    C4 9067   3.075   3.506   9.892 -0.1445 -0.4263  0.5578
  612TMC3    C5 9068   3.144   3.620   9.900  0.5697 -0.2904 -0.1647
  612TMC3    C6 9069   3.213   3.666  10.008 -0.3354 -0.3077  0.2535
  612TMC3     C 9070   2.974   3.332  10.032  0.8447  0.3227  0.6350
  612TMC3     O 9071   2.939   3.300  10.147  0.1724  0.1089 -0.1395
  612TMC3     H 9072   3.143   3.410  10.214  1.2281 -1.1743 -0.1533
  612TMC3    H1 9073   3.018   3.486   9.802 -0.7504  2.3555  0.3329
  612TMC3    H2 9074   3.275   3.754  10.020  0.5221 -0.7101 -1.2102
  612TMC3    C7 9075   3.144   3.704   9.778 -0.0258  0.6739  0.6850
  612TMC3    C8 9076   3.270   3.632  10.237 -0.2677 -0.2272 -0.3844
  612TMC3    O1 9077   3.092   3.663   9.676  0.4236 -0.0083 -0.2270
  612TMC3    O2 9078   3.293   3.751  10.241 -0.7600  0.1680  0.2446
  613MPD2     C 9079   1.615   4.576  16.900  0.4398  0.1350 -0.3297
  613MPD2    C1 9080   1.530   4.683  16.880 -0.2897  0.0060 -0.5856
  613MPD2    C2 9081   1.415   4.668  16.802  0.0817  0.1078 -0.1012
  613MPD2    C3 9082   1.395   4.550  16.734 -0.6541  0.3249  0.7566
  613MPD2    C4 9083   1.477   4.441  16.758 -0.1079 -0.5705 -0.1694
  613MPD2    C5 9084   1.589   4.454  16.842 -0.2698 -0.9777  0.5515
  613MPD2     H 9085   1.350   0.033  16.790  1.0518  1.0164  1.2686
  613MPD2    H1 9086   1.449   4.343  16.722  0.0379 -1.7252  2.9319
  613MPD2    H2 9087   1.711   4.582  16.951  0.2083 -0.5835  0.1943
  613MPD2    H3 9088   1.651   4.366  16.857  0.8710 -0.3746 -0.5308
  613MPD2     N 9089   1.287   4.540  16.648 -0.0449  0.0873 -0.6164
  613MPD2    H5 9090   1.226   4.620  16.638  1.3025  0.9597 -1.9680
  613MPD2    N1 9091   1.568   0.084  16.944  0.0994  0.2007  0.0185
  613MPD2    H7 9092   1.662   0.087  16.984 -0.0869  0.3119  0.4456
  614TMC3    C1 9093   1.598   0.319  16.940  0.3145  0.7456  0.0473
  614TMC3    C2 9094   1.703   0.301  16.854 -0.5689 -0.1825 -0.7417
  614TMC3    C3 9095   1.728   0.397  16.760 -1.1473 -0.0158  0.4055
  614TMC3    C4 9096   1.531   0.434  16.950  0.3003  0.3145 -0.5971
  614TMC3    C5 9097   1.562   0.530  16.863  0.0677  0.4815  0.3512
  614TMC3    C6 9098   1.666   0.519  16.774  0.1747  0.1751 -0.2171
  614TMC3     C 9099   1.508   0.208  16.919 -0.8738  0.7031 -0.3956
  614TMC3     O 9100   1.393   0.244  16.919  1.1389  0.3555 -0.7262
  614TMC3     H 9101   1.752   0.205  16.846  0.1618 -0.0217  1.9144
  614TMC3    H1 9102   1.441   0.440  17.010  1.6655 -3.2796  1.8580
  614TMC3    H2 9103   1.657   0.592  16.694 -0.4054  1.6796  1.2466
  614TMC3    C7 9104   1.444   0.608  16.826  0.1601 -0.4134 -0.5125
  614TMC3    C8 9105   1.693   0.335  16.636  1.0963 -0.2198  0.4001
  614TMC3    O1 9106   1.428   0.701  16.898 -0.5999  0.1120 -0.9360
  614TMC3    O2 9107   1.678   0.215  16.638  0.3106 -0.1109  0.1368
  615MPD2     C 9108   0.430   1.568  16.504  0.4181  0.1553  0.0913
  615MPD2    C1 9109   0.422   1.699  16.463  0.0739  0.1998  0.1297
  615MPD2    C2 9110   0.376   1.722  16.335 -0.3407 -0.6311 -0.2004
  615MPD2    C3 9111   0.341   1.616  16.253 -0.4245 -0.0437  0.0638
  615MPD2    C4 9112   0.369   1.488  16.292 -0.4784 -0.3027  0.1316
  615MPD2    C5 9113   0.413   1.469  16.416  0.6504  0.4030  0.1301
  615MPD2     H 9114   0.366   1.821  16.292  0.6847  0.0563  1.1567
  615MPD2    H1 9115   0.363   1.400  16.229 -2.6070 -0.9961  1.2946
  615MPD2    H2 9116   0.457   1.538  16.605  1.3373  0.2444 -0.1332
  615MPD2    H3 9117   0.429   1.368  16.450 -3.9911 -0.4002 -0.1375
  615MPD2     N 9118   0.282   1.652  16.130  0.3505  0.1604  0.0792
  615MPD2    H5 9119   0.271   1.750  16.107 -0.4861  0.5107  1.9754
  615MPD2    N1 9120   0.455   1.797  16.564  0.2685 -0.4354 -0.0588
  615MPD2    H7 9121   0.480   1.762  16.656 -2.0556 -0.2408  0.6406
  616TMC3    C1 9122   0.497   2.011  16.663  0.5681 -0.6860 -0.3475
  616TMC3    C2 9123   0.535   2.142  16.646 -0.0558  0.1987 -0.7802
  616TMC3    C3 9124   0.535   2.227  16.755 -0.1797 -0.1597  0.0964
  616TMC3    C4 9125   0.432   1.978  16.780 -0.0041 -0.0283 -0.6925
  616TMC3    C5 9126   0.435   2.061  16.887  0.5560 -0.4620 -0.4890
  616TMC3    C6 9127   0.491   2.188  16.880  0.6079 -0.6007  0.6919
  616TMC3     C 9128   0.468   1.929  16.538  0.2645 -1.1284 -0.1842
  616TMC3     O 9129   0.463   1.994  16.436 -0.4686  0.0262 -0.0437
  616TMC3     H 9130   0.563   2.176  16.547 -2.2038 -0.6671 -1.6645
  616TMC3    H1 9131   0.390   1.878  16.788 -0.3571  0.2539  0.9597
  616TMC3    H2 9132   0.486   2.256  16.965  0.0905 -0.2660  0.3975
  616TMC3    C7 9133   0.359   2.025  17.007  0.1668 -0.0266  0.2251
  616TMC3    C8 9134   0.604   2.356  16.743 -0.5812  0.6254  0.4938
  616TMC3    O1 9135   0.366   2.089  17.109 -0.0793 -0.3301 -0.2563
  616TMC3    O2 9136   0.589   2.443  16.831 -0.5446  0.2327 -0.0226
  617MPD2     C 9137   3.511   4.190  14.021 -0.5999 -0.3671  0.3901
  617MPD2    C1 9138   3.538   4.230  14.149  0.2851 -0.1819  0.4975
  617MPD2    C2 9139   3.440   4.284  14.226 -0.4108  0.6100  0.0686
  617MPD2    C3 9140   3.316   4.288  14.180  0.2791 -0.8863 -0.2256
  617MPD2    C4 9141   3.290   4.248  14.052  0.6196 -0.6920  0.3559
  617MPD2    C5 9142   3.388   4.200  13.973  0.0330 -0.3684 -0.3203
  617MPD2     H 9143   3.474   4.310  14.326  0.3849  0.5437 -0.1823
  617MPD2    H1 9144   3.192   4.268  14.011  1.9220 -1.5325 -3.1833
  617MPD2    H2 9145   3.596   4.178  13.955  0.2563 -0.4458  1.5233
  617MPD2    H3 9146   3.378   4.180  13.867  0.0731  3.0511 -0.9441
  617MPD2     N 9147   3.206   4.340  14.255  0.5276 -0.2681  0.0161
  617MPD2    H5 9148   3.123   4.344  14.196  0.7992 -0.9770 -0.4135
  617MPD2    N1 9149   3.662   4.207  14.212  0.0018  0.1566 -0.6523
  617MPD2    H7 9150   3.684   4.254  14.299 -0.6983 -2.1147  0.7635
  618TMC3    C1 9151   3.851   4.096  14.279 -0.4083  1.1819 -0.1830
  618TMC3    C2 9152   3.920   3.977  14.264 -0.0279 -0.4502  0.4620
  618TMC3    C3 9153   4.047   3.971  14.311  0.3286 -0.3731  0.3407
  618TMC3    C4 9154   3.896   4.198  14.358 -0.5524  0.4758  0.0112
  618TMC3    C5 9155   4.021   4.183  14.411 -0.0846 -1.1524 -0.0093
  618TMC3    C6 9156   4.099   4.074  14.380 -0.2453 -0.1812  0.0815
  618TMC3     C 9157   3.759   4.124  14.167  0.1363 -0.1874 -0.3778
  618TMC3     O 9158   3.766   4.050  14.068 -0.8995  0.3170 -0.3683
  618TMC3     H 9159   3.874   3.903  14.200  2.6712 -0.3609 -1.6160
  618TMC3    H1 9160   3.840   4.285  14.390 -1.3170  0.5113 -1.4473
  618TMC3    H2 9161   4.193   4.053  14.429  0.2685 -0.4835 -1.0499
  618TMC3    C7 9162   4.080   4.301  14.473  0.1056  0.2382  0.6940
  618TMC3    C8 9163   4.135   3.882  14.235 -0.2572  0.0628 -0.3856
  618TMC3    O1 9164   4.015   4.335  14.566 -0.5254  0.0972  0.1018
  618TMC3    O2 9165   4.088   3.789  14.174 -0.1321  0.0226 -0.2450
  619MPD2     C 9166   0.339   1.300  13.687  0.6302 -0.4668 -0.1495
  619MPD2    C1 9167   0.221   1.368  13.665 -0.1649  0.7890 -0.1565
  619MPD2    C2 9168   0.101   1.308  13.678  0.4318 -0.7709 -0.5513
  619MPD2    C3 9169   0.095   1.181  13.723  0.1593 -0.6794 -0.0579
  619MPD2    C4 9170   0.211   1.111  13.757 -0.3417  0.6341  0.1178
  619MPD2    C5 9171   0.330   1.170  13.732  0.6304  0.6557 -0.1452
  619MPD2     H 9172   0.020   1.375  13.654 -0.2546 -0.7134  1.8990
  619MPD2    H1 9173   0.200   1.013  13.802 -1.2101  0.5756 -0.2080
  619MPD2    H2 9174   0.437   1.345  13.681  0.6770 -0.6976 -1.1186
  619MPD2    H3 9175   0.418   1.111  13.755 -0.0869 -1.1481 -2.0524
  619MPD2     N 9176   4.690   1.114  13.740 -0.1353 -0.3509  0.7177
  619MPD2    H5 9177   4.684   1.028  13.794  1.7585 -1.0368 -0.1800
  619MPD2    N1 9178   0.218   1.499  13.612 -0.0679  0.1830  0.2826
  619MPD2    H7 9179   0.126   1.538  13.593 -0.4607 -1.4533 -1.1608
  620TMC3    C1 9180   0.283   1.682  13.482 -0.0989  0.2647 -0.4749
  620TMC3    C2 9181   0.178   1.643  13.403  0.1201 -0.2690  0.0112
  620TMC3    C3 9182   0.099   1.740  13.347  0.6011 -0.7613  1.3888
  620TMC3    C4 9183   0.310   1.808  13.518  0.6784 -0.4349  0.0318
  620TMC3    C5 9184   0.223   1.904  13.464 -0.1221 -0.1070  0.4239
  620TMC3    C6 9185   0.125   1.870  13.372 -0.5357  0.0291 -0.4778
  620TMC3     C 9186   0.326   1.574  13.566 -0.2368  0.2600  0.2831
  620TMC3     O 9187   0.448   1.553  13.564 -0.1640 -0.0950 -0.4287
  620TMC3     H 9188   0.163   1.539  13.376  0.8321 -0.3062 -0.2394
  620TMC3    H1 9189   0.386   1.834  13.590 -0.2546  2.6849 -0.0852
  620TMC3    H2 9190   0.061   1.954  13.347 -1.3866 -1.0586 -1.9796
  620TMC3    C7 9191   0.239   2.041  13.490  0.6339 -0.7225  0.4172
  620TMC3    C8 9192   4.672   1.706  13.344  0.1930  0.5736 -0.1818
  620TMC3    O1 9193   0.169   2.118  13.424  0.1244 -0.2874  0.0693
  620TMC3    O2 9194   4.641   1.594  13.383 -0.6315  0.4793  0.0800
  621MPD2     C 9195   0.428   1.748  10.221 -0.2332  0.6677 -0.0632
  621MPD2    C1 9196   0.541   1.688  10.270  0.6347 -0.5844 -0.3102
  621MPD2    C2 9197   0.664   1.739  10.240  0.0378 -0.4965  0.0088
  621MPD2    C3 9198   0.676   1.840  10.155 -0.1182  0.3293  0.5224
  621MPD2    C4 9199   0.562   1.889  10.089  0.1835 -0.0642 -0.4064
  621MPD2    C5 9200   0.437   1.845  10.124  0.4783  0.2116 -0.2912
  621MPD2     H 9201   0.754   1.692  10.281  0.7192 -0.7328 -1.7580
  621MPD2    H1 9202   0.574   1.968  10.016  0.7259 -2.2503 -2.7012
  621MPD2    H2 9203   0.331   1.701  10.231  0.7650 -1.2910  0.2694
  621MPD2    H3 9204   0.345   1.874  10.073 -0.6106 -1.3690  0.7557
  621MPD2     N 9205   0.810   1.877  10.129  0.4269  0.1193 -0.3077
  621MPD2    H5 9206   0.879   1.828  10.186  1.4225  1.5697 -0.2741
  621MPD2    N1 9207   0.538   1.577  10.359 -0.5603 -0.4592 -0.6685
  621MPD2    H7 9208   0.624   1.538  10.397 -1.6538 -0.6583  1.6450
  622TMC3    C1 9209   0.432   1.418  10.500  0.3420  0.0341  0.2078
  622TMC3    C2 9210   0.324   1.396  10.585 -0.2185 -0.0853  0.4048
  622TMC3    C3 9211   0.318   1.267  10.645 -0.4099  0.4129 -0.9204
  622TMC3    C4 9212   0.516   1.322  10.460 -0.4516  0.3710 -0.0242
  622TMC3    C5 9213   0.504   1.197  10.521 -0.6371  0.0813 -0.0783
  622TMC3    C6 9214   0.412   1.161  10.610 -0.4515 -0.3906 -0.7202
  622TMC3     C 9215   0.423   1.538  10.423  0.4949  0.2244 -0.3064
  622TMC3     O 9216   0.310   1.583  10.428 -0.0952  0.2397  0.8713
  622TMC3     H 9217   0.266   1.479  10.622  0.0341  1.6454 -3.0400
  622TMC3    H1 9218   0.600   1.347  10.396 -1.0182 -0.4110 -1.0704
  622TMC3    H2 9219   0.404   1.062  10.653  3.0759 -0.3496  0.0502
  622TMC3    C7 9220   0.608   1.096  10.490  0.4933  0.2974 -0.4623
  622TMC3    C8 9221   0.188   1.232  10.698  0.5716 -0.3303 -0.2370
  622TMC3    O1 9222   0.609   0.998  10.566 -0.0460  0.0419  0.0276
  622TMC3    O2 9223   0.177   1.113  10.730 -0.2401 -0.1247 -0.2859
  623MPD2     C 9224   4.036   1.734  16.162 -0.0866 -0.1681  0.4739
  623MPD2    C1 9225   3.941   1.789  16.244 -0.6367 -0.2857 -0.0434
  623MPD2    C2 9226   3.951   1.771  16.376 -0.3785  0.3364  0.1654
  623MPD2    C3 9227   4.069   1.724  16.430  0.6156 -0.3034  0.0294
  623MPD2    C4 9228   4.165   1.679  16.347  0.4580  0.1227  0.0844
  623MPD2    C5 9229   4.148   1.678  16.207 -0.2053 -0.1995 -0.5397
  623MPD2     H 9230   3.885   1.814  16.450 -0.2869 -2.5335  1.8964
  623MPD2    H1 9231   4.258   1.636  16.381  0.1491 -2.4471 -2.3707
  623MPD2    H2 9232   4.036   1.734  16.054  1.8492  1.0006  0.4642
  623MPD2    H3 9233   4.214   1.626  16.138 -0.7367  1.7678 -2.5394
  623MPD2     N 9234   4.083   1.720  16.567 -0.4253  0.7477  0.0530
  623MPD2    H5 9235   4.002   1.745  16.621 -0.6152  1.8802 -0.7422
  623MPD2    N1 9236   3.826   1.853  16.194  0.3465  0.0376 -0.3554
  623MPD2    H7 9237   3.820   1.862  16.093 -0.5597  0.3123 -0.2772
  624TMC3    C1 9238   4.217   1.631  17.007 -0.1508 -0.0667 -0.3179
  624TMC3    C2 9239   4.111   1.702  17.059 -0.0095 -0.2510 -0.7223
  624TMC3    C3 9240   4.053   1.777  16.965  0.0734 -0.2192  0.3398
  624TMC3    C4 9241   4.249   1.633  16.869 -0.2747 -0.8696  0.3148
  624TMC3    C5 9242   4.174   1.709  16.782  0.1498 -0.1477 -0.6527
  624TMC3    C6 9243   4.072   1.779  16.832 -0.6917 -0.2053  0.5986
  624TMC3     C 9244   4.314   1.591  17.105  0.7376  1.2290  0.0087
  624TMC3     O 9245   4.340   1.673  17.195  0.0988 -0.0072 -0.0776
  624TMC3     H 9246   4.112   1.719  17.166  0.3718  3.3012 -1.2897
  624TMC3    H1 9247   4.336   1.581  16.833 -0.0338  0.8730 -1.5704
  624TMC3    H2 9248   4.017   1.842  16.763 -1.4967  0.5222  1.8964
  624TMC3    C7 9249   4.198   1.691  16.637 -1.0945  0.2189 -0.8965
  624TMC3    C8 9250   3.936   1.843  17.019 -0.1024  0.7936  0.2161
  624TMC3    O1 9251   4.302   1.644  16.604 -0.1409 -0.3371 -0.3990
  624TMC3    O2 9252   3.888   1.805  17.126  0.1998 -0.2877  0.7645
  625MPD2     C 9253   4.625   3.268   0.876 -0.0555 -0.5917  0.2878
  625MPD2    C1 9254   4.596   3.397   0.903 -0.0970  0.0687  0.1961
  625MPD2    C2 9255   4.695   3.470   0.971 -0.3208 -0.2052  0.1850
  625MPD2    C3 9256   0.095   3.420   1.010 -0.4078  0.3099 -0.1721
  625MPD2    C4 9257   0.125   3.289   0.973 -0.1880 -0.1676 -0.4787
  625MPD2    C5 9258   0.026   3.217   0.914 -0.2773 -0.4523  0.3039
  625MPD2     H 9259   4.664   3.571   0.996  1.7827  0.5661 -0.3197
  625MPD2    H1 9260   0.214   3.234   1.000  0.4746  0.9324 -0.4549
  625MPD2    H2 9261   4.564   3.201   0.817  1.0111 -1.2675 -0.0413
  625MPD2    H3 9262   0.042   3.112   0.895  0.2931 -0.0723 -1.3091
  625MPD2     N 9263   0.183   3.502   1.070  0.3566 -0.8264 -0.8471
  625MPD2    H5 9264   0.148   3.595   1.089  0.7739 -0.8512  0.0360
  625MPD2    N1 9265   4.469   3.450   0.860  0.3680 -0.6448  0.6339
  625MPD2    H7 9266   4.442   3.544   0.888 -0.2728 -0.4126 -0.7683
  626TMC3    C1 9267   4.269   3.477   0.743 -0.1059 -0.1215  0.3607
  626TMC3    C2 9268   4.211   3.461   0.623 -0.2377 -0.2143  0.4515
  626TMC3    C3 9269   4.097   3.531   0.594 -0.7500 -0.2363  0.5167
  626TMC3    C4 9270   4.219   3.562   0.836 -0.4417  0.1395  0.0868
  626TMC3    C5 9271   4.111   3.635   0.798  0.3682  0.1457 -0.6868
  626TMC3    C6 9272   4.044   3.622   0.680 -0.0498 -0.2344  0.0480
  626TMC3     C 9273   4.381   3.395   0.770  0.0360 -0.4739  0.0547
  626TMC3     O 9274   4.399   3.296   0.702 -0.2650  0.3098 -0.5619
  626TMC3     H 9275   4.261   3.397   0.550  1.2108  2.2256 -0.7075
  626TMC3    H1 9276   4.259   3.581   0.935  0.2920 -0.7136 -0.0429
  626TMC3    H2 9277   3.972   3.695   0.645 -0.9516 -1.2376 -0.1720
  626TMC3    C7 9278   4.055   3.719   0.899  0.3124  0.1328 -0.6214
  626TMC3    C8 9279   4.064   3.559   0.460  0.5023  0.0044 -0.5821
  626TMC3    O1 9280   4.134   3.776   0.972 -0.6310  0.2988  0.0954
  626TMC3    O2 9281   4.157   3.537   0.381  0.1083 -0.2552  0.2034
  627MPD2     C 9282   2.982   3.731  15.078  0.7683 -0.6033 -0.6661
  627MPD2    C1 9283   3.055   3.631  15.135  1.1589 -0.2517  0.0082
  627MPD2    C2 9284   2.998   3.516  15.163 -0.1433 -0.1162  0.1727
  627MPD2    C3 9285   2.859   3.496  15.137  0.0544  0.9110  0.5252
  627MPD2    C4 9286   2.788   3.591  15.079  0.1966  0.2355 -0.0743
  627MPD2    C5 9287   2.851   3.706  15.049  0.3958  0.1983  0.1743
  627MPD2     H 9288   3.054   3.434  15.209  2.0588  1.9178  1.1173
  627MPD2    H1 9289   2.684   3.584  15.048 -0.0468 -1.8080  1.1455
  627MPD2    H2 9290   3.031   3.822  15.044  0.1049  0.1803  0.4631
  627MPD2    H3 9291   2.786   3.783  15.010  0.7880  0.0964 -0.6876
  627MPD2     N 9292   2.797   3.373  15.180 -0.0578 -0.4858 -0.0826
  627MPD2    H5 9293   2.853   3.310  15.237  0.0582 -0.1051  0.2211
  627MPD2    N1 9294   3.189   3.659  15.159  0.2130  0.2016  0.1641
  627MPD2    H7 9295   3.222   3.743  15.113  0.1196 -1.5998 -3.1939
  628TMC3    C1 9296   3.412   3.639  15.205  0.6601  0.2584  0.3317
  628TMC3    C2 9297   3.513   3.548  15.225 -0.4573 -0.1874  0.3545
  628TMC3    C3 9298   3.635   3.591  15.195 -0.5850  0.5554  0.3142
  628TMC3    C4 9299   3.436   3.767  15.158 -0.6651  0.1603  0.3238
  628TMC3    C5 9300   3.565   3.799  15.131  0.2812  0.2452  0.4764
  628TMC3    C6 9301   3.664   3.711  15.134 -0.4276  0.2004 -0.7989
  628TMC3     C 9302   3.279   3.588  15.231 -0.1877  0.1785  0.6482
  628TMC3     O 9303   3.274   3.476  15.277 -0.3512  0.5857 -0.3544
  628TMC3     H 9304   3.496   3.444  15.251  0.5316  0.0637  2.0065
  628TMC3    H1 9305   3.361   3.845  15.162  0.6429  1.5826 -2.6611
  628TMC3    H2 9306   3.764   3.747  15.113  1.2640 -2.2526  2.8848
  628TMC3    C7 9307   3.594   3.931  15.081  0.1200 -0.2417  0.3593
  628TMC3    C8 9308   3.734   3.496  15.155  0.2454  0.3229 -0.3398
  628TMC3    O1 9309   3.701   3.981  15.106 -0.5651  0.1576  0.2726
  628TMC3    O2 9310   3.782   3.515  15.044  0.0007 -0.2791 -0.6870
  629MPD2     C 9311   0.929   2.666  16.518 -0.9134  0.2752  0.6533
  629MPD2    C1 9312   0.948   2.541  16.461 -0.2807  0.2233 -0.1596
  629MPD2    C2 9313   0.853   2.446  16.500  0.0221 -0.3716  0.1062
  629MPD2    C3 9314   0.753   2.468  16.592 -0.8885  0.2349  0.0159
  629MPD2    C4 9315   0.729   2.599  16.628 -0.3475 -0.2345 -0.4680
  629MPD2    C5 9316   0.825   2.692  16.597  0.2442  0.1755 -0.0265
  629MPD2     H 9317   0.859   2.343  16.468  3.5432 -0.0699 -0.1661
  629MPD2    H1 9318   0.636   2.624  16.678  0.9101 -1.8899  2.6589
  629MPD2    H2 9319   1.001   2.746  16.504  0.9261 -1.3089  1.0336
  629MPD2    H3 9320   0.811   2.791  16.640  1.7981 -0.0153  0.9115
  629MPD2     N 9321   0.669   2.364  16.627  0.1193 -0.2612  0.0479
  629MPD2    H5 9322   0.676   2.273  16.582  0.0923 -0.5490  0.6256
  629MPD2    N1 9323   1.045   2.520  16.364  0.4540  0.1551  0.2427
  629MPD2    H7 9324   1.094   2.601  16.330  1.9488 -0.3699  1.1598
  630TMC3    C1 9325   1.179   2.420  16.191  0.4031  0.4763  0.2494
  630TMC3    C2 9326   1.252   2.530  16.212 -0.1800 -0.7385  0.4885
  630TMC3    C3 9327   1.390   2.514  16.227  0.7484 -0.0926  0.4804
  630TMC3    C4 9328   1.234   2.294  16.163  0.2594  0.1845 -0.7940
  630TMC3    C5 9329   1.368   2.285  16.194  0.2022  0.0440  0.5630
  630TMC3    C6 9330   1.445   2.390  16.222  0.0397 -0.0184  0.3547
  630TMC3     C 9331   1.061   2.407  16.281 -0.4321 -1.4455 -0.2337
  630TMC3     O 9332   1.009   2.297  16.288 -0.6043  0.0787 -0.1978
  630TMC3     H 9333   1.205   2.628  16.206  0.9439 -0.2278  0.0783
  630TMC3    H1 9334   1.171   2.206  16.163 -0.6177  0.8078  0.2412
  630TMC3    H2 9335   1.552   2.370  16.224 -0.1024 -0.9160 -2.4352
  630TMC3    C7 9336   1.414   2.163  16.262 -0.1938 -0.4408 -0.3409
  630TMC3    C8 9337   1.481   2.630  16.239 -0.0834 -0.3932  0.4245
  630TMC3    O1 9338   1.516   2.167  16.325 -0.0490 -0.0903 -0.2615
  630TMC3    O2 9339   1.598   2.610  16.265  0.2783  0.1927  0.5648
  631MPD2     C 9340   4.464   2.403  15.873 -0.5786  0.1285  0.4525
  631MPD2    C1 9341   4.596   2.403  15.813 -0.4039  0.6354 -0.7140
  631MPD2    C2 9342   4.665   2.282  15.796 -0.3420 -0.6597  0.1765
  631MPD2    C3 9343   4.604   2.162  15.841  0.5853  0.4840 -0.1457
  631MPD2    C4 9344   4.487   2.171  15.917  0.2380 -0.4923  0.9076
  631MPD2    C5 9345   4.417   2.288  15.925 -0.1006 -0.9592 -0.8941
  631MPD2     H 9346   0.041   2.288  15.750 -0.5898 -0.8984 -0.3713
  631MPD2    H1 9347   4.439   2.085  15.963  4.3839 -1.5579  3.2794
  631MPD2    H2 9348   4.394   2.486  15.879 -0.1582  0.4928  0.3518
  631MPD2    H3 9349   4.320   2.295  15.972  0.4080  0.6352 -0.0699
  631MPD2     N 9350   4.678   2.043  15.821  0.2691 -0.5587  0.4984
  631MPD2    H5 9351   0.028   2.036  15.749  0.9884 -1.3465  1.2974
  631MPD2    N1 9352   4.646   2.530  15.778  0.3425 -0.0475 -0.5411
  631MPD2    H7 9353   4.590   2.610  15.808 -1.4676 -1.9358  1.1269
  632TMC3    C1 9354   0.052   2.698  15.662  0.5936  0.8714 -0.3170
  632TMC3    C2 9355   4.672   2.773  15.702  0.5262 -0.4826 -0.3999
  632TMC3    C3 9356   4.580   2.810  15.609 -0.3394  0.2676 -0.0576
  632TMC3    C4 9357   0.089   2.698  15.530 -0.0181 -0.3836 -0.4892
  632TMC3    C5 9358   0.005   2.752  15.437 -0.9345  0.5641 -1.1459
  632TMC3    C6 9359   4.611   2.809  15.474 -0.3435  0.7704  0.0997
  632TMC3     C 9360   0.040   2.554  15.703 -0.5310 -0.1015  0.1402
  632TMC3     O 9361   0.102   2.480  15.634 -0.3284 -0.4342  0.6428
  632TMC3     H 9362   4.642   2.784  15.805  0.9263 -1.7663 -0.1436
  632TMC3    H1 9363   0.178   2.643  15.501  0.5314  0.8404 -1.1205
  632TMC3    H2 9364   4.547   2.848  15.396 -0.5760  0.2794  0.0491
  632TMC3    C7 9365   0.017   2.718  15.295  0.0806  0.3280  0.3477
  632TMC3    C8 9366   4.440   2.778  15.645 -0.0333  0.0090 -0.0188
  632TMC3    O1 9367   4.657   2.766  15.213 -0.1339  0.0774 -0.1522
  632TMC3    O2 9368   4.417   2.761  15.762 -0.4703 -0.0287 -0.8755
  633MPD2     C 9369   4.425   4.696  17.650 -0.4772 -0.2069  0.0968
  633MPD2    C1 9370   4.505   4.638  17.550  0.4236 -0.1509 -0.0615
  633MPD2    C2 9371   4.576   4.521  17.583  0.0887 -0.2949  0.3444
  633MPD2    C3 9372   4.569   4.456   0.021 -0.7625  0.0113  0.6581
  633MPD2    C4 9373   4.492   4.512   0.126  0.2771 -0.1169 -0.1185
  633MPD2    C5 9374   4.423   4.629   0.088  0.5509 -0.2893 -0.2071
  633MPD2     H 9375   4.637   4.483  17.502 -1.1543 -3.8225  1.0864
  633MPD2    H1 9376   4.470   4.470   0.224  2.0152  0.2656  0.4313
  633MPD2    H2 9377   4.366   0.064  17.638 -0.1866  0.0302  0.4144
  633MPD2    H3 9378   4.356   4.674   0.160  0.1476  2.0845 -2.0573
  633MPD2     N 9379   4.643   4.335   0.042 -0.7342  0.4813 -0.1727
  633MPD2    H5 9380   4.689   4.295  17.649 -0.1184  3.6945 -1.4217
  633MPD2    N1 9381   4.512   4.687  17.428  0.2702 -0.1761 -0.4542
  633MPD2    H7 9382   4.542   4.627  17.352 -2.5980  0.4727 -2.1089
  634TMC3    C1 9383   4.498   0.125  17.246 -0.1859 -0.3266 -0.6571
  634TMC3    C2 9384   4.523   0.022  17.165  0.1198 -0.1227  0.3725
  634TMC3    C3 9385   4.515   0.042  17.031  0.0040  0.2400 -0.4691
  634TMC3    C4 9386   4.476   0.249  17.199  0.0976 -0.0407 -0.3735
  634TMC3    C5 9387   4.484   0.273  17.063  0.3293 -0.3467 -0.1940
  634TMC3    C6 9388   4.487   0.163  16.978 -0.4025  0.0126 -0.7527
  634TMC3     C 9389   4.473   0.095  17.390  0.2739  0.4919  0.0652
  634TMC3     O 9390   4.438   0.190  17.457  0.5924 -0.4105  0.5911
  634TMC3     H 9391   4.544   4.641  17.194 -0.4842 -0.0539  1.0500
  634TMC3    H1 9392   4.460   0.327  17.272  2.0589  0.6294 -0.6621
  634TMC3    H2 9393   4.466   0.180  16.873  1.6814  1.0872 -0.9830
  634TMC3    C7 9394   4.442   0.396  17.008  0.0103 -0.3595 -0.5870
  634TMC3    C8 9395   4.569   4.654  16.951  0.0767  1.0321  0.2345
  634TMC3    O1 9396   4.491   0.426  16.899 -0.1920 -0.0085  0.4058
  634TMC3    O2 9397   4.631   4.563  17.005 -0.0757  0.9598 -0.3621
  635TMC3    C1 9398   4.579   0.612   0.007 -0.3971  0.6323 -0.0575
  635TMC3    C2 9399   4.660   0.544  17.617  0.3246 -0.1026 -0.2820
  635TMC3    C3 9400   4.661   0.406  17.632 -0.0054  0.1559 -0.2216
  635TMC3    C4 9401   4.506   0.553   0.104  0.1058  0.3189 -0.3276
  635TMC3    C5 9402   4.501   0.418   0.106  0.2995  0.3030 -0.1966
  635TMC3    C6 9403   4.573   0.344   0.026  0.7963  0.4503  0.1759
  635TMC3     C 9404   4.609   0.751   0.027  0.2693  0.6099  0.2096
  635TMC3     O 9405   4.590   0.788   0.143  0.3658  0.8198 -0.2116
  635TMC3     H 9406   4.713   0.585  17.532 -0.9022  0.1514 -0.9168
  635TMC3    H1 9407   4.448   0.607   0.178 -1.2862 -1.4044 -0.1418
  635TMC3    H2 9408   4.578   0.237   0.045 -0.7528  0.4854  0.7467
  635TMC3    C7 9409   4.395   0.349   0.183 -0.1929  0.3716 -0.5673
  635TMC3    C8 9410   0.030   0.333  17.542 -0.3192  0.0150  0.9607
  635TMC3    O1 9411   4.293   0.413   0.205 -0.0871  0.2827 -0.1088
  635TMC3    O2 9412   0.088   0.389  17.449  0.1756  0.0476  0.4285
  636MPD2     C 9413   0.583   0.350  16.230  1.0306 -0.4578 -0.7484
  636MPD2    C1 9414   0.686   0.414  16.296  0.7629  0.4354 -0.3945
  636MPD2    C2 9415   0.800   0.342  16.338  0.0570 -0.0950  0.1866
  636MPD2    C3 9416   0.797   0.206  16.331 -0.4380 -0.6702  0.8178
  636MPD2    C4 9417   0.694   0.148  16.264  0.3852  0.1770  0.3584
  636MPD2    C5 9418   0.591   0.219  16.207  0.3708 -0.1800 -0.1047
  636MPD2     H 9419   0.885   0.391  16.384  1.8020 -0.0537 -3.0948
  636MPD2    H1 9420   0.686   0.044  16.234  0.4175  0.6038 -1.1566
  636MPD2    H2 9421   0.494   0.394  16.187  1.0115  0.1072 -0.1269
  636MPD2    H3 9422   0.510   0.167  16.158 -0.1434  1.8662 -1.4249
  636MPD2     N 9423   0.913   0.139  16.375  0.3890  0.0553  0.5810
  636MPD2    H5 9424   0.990   0.196  16.408  0.8184  0.0123 -0.3311
  636MPD2    N1 9425   0.695   0.551  16.322 -0.1058 -0.3371 -0.1529
  636MPD2    H7 9426   0.784   0.586  16.356 -1.1318  2.8674 -0.7484
  637TMC3    C1 9427   1.057   4.667  16.403 -0.7558  0.4908 -0.2685
  637TMC3    C2 9428   1.078   4.543  16.466 -0.5127 -0.8324  0.3057
  637TMC3    C3 9429   1.199   4.487  16.438  0.8295  0.5628 -0.1531
  637TMC3    C4 9430   1.150   0.007  16.321  0.2913 -0.0188 -0.9593
  637TMC3    C5 9431   1.267   4.664  16.299  0.5336  0.0740 -0.6697
  637TMC3    C6 9432   1.293   4.545  16.351  0.3626  0.0989  0.8355
  637TMC3     C 9433   0.923   4.721  16.399 -0.7753 -0.3284 -0.3031
  637TMC3     O 9434   0.827   4.645  16.414 -0.3849  0.4534 -0.4819
  637TMC3     H 9435   1.004   4.488  16.521 -0.7181  0.9928  1.8646
  637TMC3    H1 9436   1.124   0.109  16.295  2.2810  0.7450  0.0709
  637TMC3    H2 9437   1.396   4.511  16.350  0.7736  1.3622  0.3155
  637TMC3    C7 9438   1.369   0.031  16.340  0.1318  0.6166 -0.6891
  637TMC3    C8 9439   1.275   4.441  16.553 -0.3132  0.3114 -0.5187
  637TMC3    O1 9440   1.430   0.003  16.443  0.1837 -0.5094 -0.1706
  637TMC3    O2 9441   1.356   4.362  16.509 -0.1290  0.3542 -0.3945
  638MPD2     C 9442   0.644   4.148  15.312  0.1875 -0.0011 -0.0146
  638MPD2    C1 9443   0.593   4.035  15.249  1.5858  0.2527  0.1958
  638MPD2    C2 9444   0.586   3.919  15.321  0.6207 -0.0994 -0.5204
  638MPD2    C3 9445   0.642   3.905  15.448  0.2942  0.2892  0.5187
  638MPD2    C4 9446   0.702   4.014  15.502  0.2158  0.5597 -0.0852
  638MPD2    C5 9447   0.700   4.136  15.442  0.6047 -0.2974 -0.3479
  638MPD2     H 9448   0.541   3.828  15.281 -0.2885 -0.5156  1.4628
  638MPD2    H1 9449   0.759   4.009  15.594  0.8104  0.6954 -0.4399
  638MPD2    H2 9450   0.668   4.241  15.262 -0.3262 -0.2552 -0.7339
  638MPD2    H3 9451   0.735   4.221  15.500 -0.9721 -0.3161  0.6407
  638MPD2     N 9452   0.633   3.779  15.507  0.3151 -0.0703  0.3952
  638MPD2    H5 9453   0.567   3.713  15.469  0.5814  0.8517 -1.7007
  638MPD2    N1 9454   0.558   4.048  15.115 -0.5237 -0.0961  0.0596
  638MPD2    H7 9455   0.607   4.112  15.054 -1.3317 -0.5710 -1.1030
  639TMC3    C1 9456   0.717   3.585  15.593  0.1095 -0.2046 -0.2333
  639TMC3    C2 9457   0.598   3.522  15.550  0.5401  0.2810  0.4766
  639TMC3    C3 9458   0.602   3.386  15.548  0.2045  1.2399  1.0289
  639TMC3    C4 9459   0.830   3.520  15.625 -0.1616 -0.0306 -0.4857
  639TMC3    C5 9460   0.827   3.384  15.605 -0.4222  0.2989  0.4748
  639TMC3    C6 9461   0.716   3.318  15.560  0.1298 -0.5113 -0.2488
  639TMC3     C 9462   0.734   3.730  15.587  0.8804  0.3364  0.5575
  639TMC3     O 9463   0.844   3.784  15.604 -0.6406 -0.3862  0.1905
  639TMC3     H 9464   0.505   3.568  15.519  0.6870  1.1796  1.3638
  639TMC3    H1 9465   0.920   3.575  15.653 -1.3448  1.5687  0.1416
  639TMC3    H2 9466   0.724   3.210  15.552  0.9932 -0.5509  1.0898
  639TMC3    C7 9467   0.932   3.295  15.651  0.5180  0.6801  0.6410
  639TMC3    C8 9468   0.489   3.326  15.487 -0.7537 -0.7372  0.0168
  639TMC3    O1 9469   0.896   3.200  15.717  0.0149  0.1965 -0.1750
  639TMC3    O2 9470   0.523   3.267  15.384 -0.5986  0.0021 -0.2199
  640MPD2     C 9471   1.248   3.117   9.909 -0.0448  0.2714  0.1478
  640MPD2    C1 9472   1.173   3.058   9.801 -0.6245 -0.3432  0.8443
  640MPD2    C2 9473   1.064   3.123   9.755  0.1820 -0.1082  0.4200
  640MPD2    C3 9474   1.043   3.252   9.792 -0.3350  0.3120 -0.5054
  640MPD2    C4 9475   1.133   3.323   9.877 -0.7019 -0.1033 -0.0491
  640MPD2    C5 9476   1.226   3.246   9.943  0.4103  0.3895  0.2435
  640MPD2     H 9477   1.012   3.076   9.672 -0.9448  0.2675  0.9242
  640MPD2    H1 9478   1.113   3.426   9.903 -0.7537 -0.3967  1.0512
  640MPD2    H2 9479   1.335   3.072   9.957  0.6834  2.5662  0.9718
  640MPD2    H3 9480   1.304   3.287  10.006 -1.3480  1.6300  1.5596
  640MPD2     N 9481   0.943   3.327   9.723 -0.6840  0.5591 -0.1930
  640MPD2    H5 9482   0.928   3.426   9.742  1.8487  1.1654 -1.3688
  640MPD2    N1 9483   1.220   2.942   9.743  0.4461  0.3667  0.2764
  640MPD2    H7 9484   1.292   2.902   9.802 -1.3940 -1.3228  1.3321
  641TMC3    C1 9485   1.258   2.763   9.578  0.4130  1.0240  0.0046
  641TMC3    C2 9486   1.276   2.663   9.675 -0.6884  0.1777  0.5631
  641TMC3    C3 9487   1.314   2.536   9.622 -0.2357  0.0541  0.3610
  641TMC3    C4 9488   1.248   2.746   9.445  0.4327  0.1848 -0.6132
  641TMC3    C5 9489   1.280   2.620   9.398  0.2109  0.1467  0.3043
  641TMC3    C6 9490   1.305   2.518   9.483 -0.4528  0.5826  0.3378
  641TMC3     C 9491   1.181   2.883   9.620 -0.5238  0.6866  0.8397
  641TMC3     O 9492   1.094   2.921   9.542  0.0622 -0.0664  0.0810
  641TMC3     H 9493   1.273   2.687   9.780  2.1787  1.7920  0.2790
  641TMC3    H1 9494   1.252   2.829   9.375 -0.7604  1.2109  0.5342
  641TMC3    H2 9495   1.334   2.424   9.436 -1.6510 -0.2526  1.2424
  641TMC3    C7 9496   1.297   2.591   9.256 -0.6233  0.3633  0.0292
  641TMC3    C8 9497   1.404   2.451   9.691  0.4936  0.5293 -0.1473
  641TMC3    O1 9498   1.368   2.500   9.214 -0.2363  0.2122  0.4944
  641TMC3    O2 9499   1.455   2.369   9.617  0.7304 -0.0581  0.0743
  642TMC3    C1 9500   1.459   3.856  13.181  0.2363 -0.1377  0.0555
  642TMC3    C2 9501   1.455   3.836  13.314  0.6275  0.0316  0.4318
  642TMC3    C3 9502   1.476   3.709  13.367  0.3537  1.1728 -0.3567
  642TMC3    C4 9503   1.504   3.761  13.097  0.5518 -0.1641 -0.1109
  642TMC3    C5 9504   1.515   3.629  13.150 -0.0663  0.4176 -0.1577
  642TMC3    C6 9505   1.490   3.605  13.282 -0.4504  0.0378 -0.5194
  642TMC3     C 9506   1.475   3.997  13.141 -0.1804  0.0295  0.4324
  642TMC3     O 9507   1.538   4.076  13.207  0.5521  0.3173 -0.1962
  642TMC3     H 9508   1.421   3.917  13.377  2.9147  1.2186  0.1605
  642TMC3    H1 9509   1.531   3.782  12.994  0.7167  1.4700  0.2696
  642TMC3    H2 9510   1.491   3.504  13.322 -2.1648 -0.2630 -1.2394
  642TMC3    C7 9511   1.568   3.527  13.068  0.4966  0.1550 -0.2143
  642TMC3    C8 9512   1.444   3.681  13.502  0.0028  1.0289 -0.3658
  642TMC3    O1 9513   1.614   3.556  12.961  0.0709  0.2902 -0.2756
  642TMC3    O2 9514   1.424   3.563  13.529 -0.1054 -0.3937 -0.1361
  643TMC3    C1 9515   1.683   3.280   0.783 -0.0974  0.2058 -0.8387
  643TMC3    C2 9516   1.550   3.256   0.746 -0.5285  0.5381 -0.4547
  643TMC3    C3 9517   1.530   3.181   0.636 -0.0420 -0.7711 -0.2471
  643TMC3    C4 9518   1.784   3.223   0.709 -0.1976  0.5567  0.0506
  643TMC3    C5 9519   1.757   3.149   0.605 -0.2843 -0.4089  0.7104
  643TMC3    C6 9520   1.631   3.117   0.568  0.0589  1.2151  0.5636
  643TMC3     C 9521   1.700   3.363   0.900  0.2072 -0.2155 -0.4769
  643TMC3     O 9522   1.592   3.419   0.934  0.3018 -0.3767 -0.1011
  643TMC3     H 9523   1.468   3.306   0.796 -1.4904 -0.7687 -0.7404
  643TMC3    H1 9524   1.888   3.244   0.732  0.0612  0.1918 -0.7670
  643TMC3    H2 9525   1.613   3.078   0.469  3.2079  0.2860  0.3714
  643TMC3    C7 9526   1.854   3.155   0.493  0.2381 -0.2350 -0.3982
  643TMC3    C8 9527   1.453   3.251   0.538 -0.4817 -0.1680 -0.0899
  643TMC3    O1 9528   1.913   3.262   0.487 -0.6253 -0.4355 -0.1394
  643TMC3    O2 9529   1.393   3.182   0.460  0.1103 -0.3216 -0.3704
  644MPD2     C 9530   1.158   3.536   8.801  0.0064 -0.3430  0.2221
  644MPD2    C1 9531   1.112   3.424   8.865 -0.0902 -0.4645  0.5718
  644MPD2    C2 9532   0.974   3.417   8.888  0.0488  0.4641  0.0265
  644MPD2    C3 9533   0.883   3.520   8.860 -0.4267 -0.6176 -0.2612
  644MPD2    C4 9534   0.938   3.638   8.812 -0.1084 -0.7848  0.5537
  644MPD2    C5 9535   1.073   3.637   8.777  0.3828  0.4326  0.6011
  644MPD2     H 9536   0.930   3.325   8.924  2.3298 -0.1605  1.2527
  644MPD2    H1 9537   0.880   3.725   8.785  1.9117  0.2289 -0.5644
  644MPD2    H2 9538   1.260   3.550   8.765 -0.2337  0.9680  0.0274
  644MPD2    H3 9539   1.112   3.720   8.719 -0.0552 -0.2791 -0.7286
  644MPD2     N 9540   0.749   3.500   8.898  0.0882  0.3651  0.4571
  644MPD2    H5 9541   0.731   3.409   8.940  2.6375  0.1448  1.0756
  644MPD2    N1 9542   1.200   3.316   8.884  0.0727 -0.0685 -0.6697
  644MPD2    H7 9543   1.298   3.333   8.863  0.8540 -1.5756  1.7297
  645TMC3    C1 9544   0.526   3.554   8.942 -0.0527 -0.3749  0.4202
  645TMC3    C2 9545   0.421   3.636   8.901 -0.3200  0.1890  0.2563
  645TMC3    C3 9546   0.313   3.641   8.981 -0.0903  0.4514  0.5198
  645TMC3    C4 9547   0.519   3.470   9.044 -0.6867  0.7013 -0.0437
  645TMC3    C5 9548   0.413   3.483   9.128  1.6421 -0.1407 -0.3745
  645TMC3    C6 9549   0.314   3.575   9.100 -0.5338 -0.0240 -0.2759
  645TMC3     C 9550   0.646   3.587   8.872  0.5212  0.7057 -0.9136
  645TMC3     O 9551   0.641   3.700   8.819 -0.3984  0.2187 -0.3162
  645TMC3     H 9552   0.419   3.698   8.812 -2.1895 -0.7680 -0.3622
  645TMC3    H1 9553   0.598   3.403   9.076  0.3406  1.7928 -0.2933
  645TMC3    H2 9554   0.230   3.579   9.167  1.0351 -0.1338  1.7101
  645TMC3    C7 9555   0.369   3.366   9.199  0.4309  0.4117 -0.9532
  645TMC3    C8 9556   0.211   3.745   8.960  0.0392 -0.4655 -0.3039
  645TMC3    O1 9557   0.248   3.361   9.198  0.4698 -0.4716  0.7744
  645TMC3    O2 9558   0.230   3.814   8.866  0.7101  0.6143 -0.0623
  646MPD2     C 9559   0.648   2.516  14.857 -0.0330 -0.0139 -0.3014
  646MPD2    C1 9560   0.620   2.572  14.984 -0.2176  0.5190 -0.0174
  646MPD2    C2 9561   0.526   2.671  15.000  0.8611  0.5998 -0.1843
  646MPD2    C3 9562   0.436   2.705  14.891 -0.4143 -0.1862  0.4239
  646MPD2    C4 9563   0.464   2.645  14.767 -0.2037 -0.1162 -0.2908
  646MPD2    C5 9564   0.563   2.550  14.760  0.2066  0.8406  0.5734
  646MPD2     H 9565   0.508   2.720  15.095  0.1986 -0.0179  0.0106
  646MPD2    H1 9566   0.414   2.661  14.672 -1.0680  0.1254  0.2112
  646MPD2    H2 9567   0.727   2.445  14.840  2.0447  2.3321 -0.4965
  646MPD2    H3 9568   0.577   2.509  14.660  1.4113  0.9552  0.7006
  646MPD2     N 9569   0.322   2.793  14.915 -0.0772 -0.7254  0.0390
  646MPD2    H5 9570   0.303   2.815  15.012 -1.2202 -2.5269  0.2321
  646MPD2    N1 9571   0.710   2.527  15.084 -0.3147  0.3300 -0.0996
  646MPD2    H7 9572   0.775   2.453  15.058 -0.9871 -0.3755  0.2130
  647TMC3    C1 9573   0.802   2.471  15.290  0.0441 -0.1499 -0.4198
  647TMC3    C2 9574   0.777   2.423  15.412  0.4062 -0.0134  0.1459
  647TMC3    C3 9575   0.866   2.326  15.457  0.1838  0.1948  0.3617
  647TMC3    C4 9576   0.921   2.451  15.218 -0.4382  0.4582  0.3521
  647TMC3    C5 9577   0.998   2.355  15.269 -0.2407  0.4240  0.5327
  647TMC3    C6 9578   0.976   2.296  15.389 -0.5231  1.2062  0.9978
  647TMC3     C 9579   0.696   2.540  15.218 -0.1543 -0.3847 -0.1992
  647TMC3     O 9580   0.607   2.594  15.284  0.4751  0.4579  0.3585
  647TMC3     H 9581   0.678   2.431  15.453 -0.5886 -0.5195 -2.1568
  647TMC3    H1 9582   0.956   2.509  15.134  2.0685  1.0078  1.7742
  647TMC3    H2 9583   1.037   2.213  15.422  0.8689  2.8061  2.4312
  647TMC3    C7 9584   1.126   2.335  15.200 -0.2226 -0.3803  0.7347
  647TMC3    C8 9585   0.811   2.212  15.527 -0.4774 -0.6840  0.5779
  647TMC3    O1 9586   1.224   2.292  15.258 -0.0945 -0.3260 -0.2056
  647TMC3    O2 9587   0.865   2.104  15.500  0.4901  0.5493 -0.5976
  648TMC3    C1 9588   0.174   0.187  16.264 -0.4839 -0.7546  0.0658
  648TMC3    C2 9589   0.196   0.057  16.217 -0.1014  0.1345 -0.0245
  648TMC3    C3 9590   0.169   0.030  16.087  0.2664 -0.2339 -0.6006
  648TMC3    C4 9591   0.124   0.283  16.180 -0.1254 -0.4613  0.5299
  648TMC3    C5 9592   0.068   0.244  16.060  0.4986 -0.5634 -0.4819
  648TMC3    C6 9593   0.109   0.125  16.006 -0.2613 -0.0858 -0.4158
  648TMC3     C 9594   0.209   0.213  16.400  0.3908 -0.5636 -0.2407
  648TMC3     O 9595   0.222   0.334  16.415 -0.4414  0.1009  0.1857
  648TMC3     H 9596   0.235   4.697  16.277 -2.4650 -1.3739 -0.4889
  648TMC3    H1 9597   0.098   0.381  16.218  0.7195 -0.8220  2.0319
  648TMC3    H2 9598   0.091   0.114  15.899 -0.9890 -3.2845  0.0363
  648TMC3    C7 9599   0.003   0.348  15.984  0.2701  0.0121 -0.3982
  648TMC3    C8 9600   0.189   4.626  16.019  0.0015 -0.4510  0.2077
  648TMC3    O1 9601   0.040   0.358  15.866  0.0477  0.3134  0.0095
  648TMC3    O2 9602   0.110   4.608  15.926 -0.3528 -0.1871 -0.4135
  649TMC3    C1 9603   4.209   1.663  12.843  0.9203 -0.1025 -0.3967
  649TMC3    C2 9604   4.337   1.699  12.863 -0.2825 -0.1574  0.1425
  649TMC3    C3 9605   4.397   1.648  12.974 -0.9180  1.4454  0.0741
  649TMC3    C4 9606   4.127   1.618  12.944 -0.0673 -0.5682  0.1030
  649TMC3    C5 9607   4.182   1.571  13.054  0.0673  0.1497  0.1824
  649TMC3    C6 9608   4.321   1.582  13.068  0.1351  0.1242  0.1300
  649TMC3     C 9609   4.147   1.686  12.715  0.4763  0.2370  0.2725
  649TMC3     O 9610   4.029   1.717  12.706 -0.2946  0.0314  0.2679
  649TMC3     H 9611   4.399   1.732  12.781 -0.1982  0.0263  0.2798
  649TMC3    H1 9612   4.019   1.622  12.929  0.0636 -2.1480 -1.1977
  649TMC3    H2 9613   4.368   1.571  13.165  0.7791  0.1323 -0.1784
  649TMC3    C7 9614   4.108   1.474  13.142  0.9326  0.3549  0.5747
  649TMC3    C8 9615   4.541   1.648  12.981  0.2342  0.0484 -0.6492
  649TMC3    O1 9616   3.986   1.492  13.147 -0.6638  0.1606 -0.1998
  649TMC3    O2 9617   4.590   1.560  13.049 -0.1043  0.0105 -0.3268
  650TMC3    C1 9618   1.218   3.148  12.527  0.5992  0.3200  0.8049
  650TMC3    C2 9619   1.100   3.186  12.459  0.5766 -0.6530  0.0361
  650TMC3    C3 9620   1.068   3.318  12.461 -0.8974  0.7227  0.5025
  650TMC3    C4 9621   1.290   3.236  12.595  0.5653  0.2138 -0.2563
  650TMC3    C5 9622   1.254   3.364  12.607 -0.7862 -0.1636  0.0998
  650TMC3    C6 9623   1.144   3.407  12.534  0.0866 -0.0953  0.0153
  650TMC3     C 9624   1.275   3.020  12.499 -0.1991 -0.9233  0.4550
  650TMC3     O 9625   1.257   2.973  12.386 -0.4785 -0.0734  0.3125
  650TMC3     H 9626   1.038   3.106  12.421 -0.5733  0.9280 -1.3646
  650TMC3    H1 9627   1.394   3.217  12.618 -0.6520 -2.7903  2.8209
  650TMC3    H2 9628   1.092   3.497  12.565  0.7790 -0.6686  2.8361
  650TMC3    C7 9629   1.355   3.463  12.645 -0.2436  1.0699  0.2137
  650TMC3    C8 9630   0.973   3.368  12.365 -0.1340  0.1383  0.3816
  650TMC3    O1 9631   1.464   3.426  12.680 -0.0180  0.3011 -0.3955
  650TMC3    O2 9632   0.891   3.293  12.317 -0.0509 -0.2814 -0.1211
  651MPD2     C 9633   0.189   0.168  10.289  0.2063  0.4368 -0.2893
  651MPD2    C1 9634   0.196   0.210  10.420 -0.1629  0.0914  0.2689
  651MPD2    C2 9635   0.319   0.244  10.469 -0.8240 -0.8826  0.1464
  651MPD2    C3 9636   0.437   0.218  10.398 -0.4261  0.6469  0.6876
  651MPD2    C4 9637   0.430   0.166  10.276  0.6247  0.2240  0.4538
  651MPD2    C5 9638   0.307   0.142  10.221 -0.1864 -0.0378 -0.2727
  651MPD2     H 9639   0.335   0.281  10.569 -1.7638 -0.5530  0.1695
  651MPD2    H1 9640   0.518   0.144  10.217 -0.8011 -1.3109 -1.0784
  651MPD2    H2 9641   0.099   0.135  10.238 -0.4073  0.4065  0.8191
  651MPD2    H3 9642   0.295   0.100  10.122 -3.6542  0.4279 -0.0347
  651MPD2     N 9643   0.564   0.258  10.453 -0.1887 -0.1935 -0.1231
  651MPD2    H5 9644   0.555   0.301  10.544  0.9398  0.3724 -0.2822
  651MPD2    N1 9645   0.080   0.243  10.486 -0.7651 -0.7084  0.9324
  651MPD2    H7 9646   0.096   0.298  10.570 -0.9043  1.8861 -0.7437
  652TMC3    C1 9647   1.001   0.398  10.412  0.1440  0.3563  0.4504
  652TMC3    C2 9648   0.906   0.300  10.407 -0.0699 -0.4515 -0.0870
  652TMC3    C3 9649   0.784   0.324  10.449  0.1068  0.0964 -0.5411
  652TMC3    C4 9650   0.969   0.522  10.457 -0.0016  0.0781 -0.6119
  652TMC3    C5 9651   0.842   0.543  10.499 -0.3281  0.4426 -0.4863
  652TMC3    C6 9652   0.743   0.448  10.498 -0.0174 -0.0534  0.6010
  652TMC3     C 9653   1.138   0.347  10.422  0.3937  0.0538 -0.7199
  652TMC3     O 9654   1.147   0.258  10.502  0.4191  0.0728  0.0032
  652TMC3     H 9655   0.931   0.202  10.368 -1.6414 -1.0032  0.2927
  652TMC3    H1 9656   1.049   0.594  10.470  0.4582 -0.6880  0.8830
  652TMC3    H2 9657   0.641   0.470  10.524 -0.1510 -0.1440  0.1581
  652TMC3    C7 9658   0.825   0.649  10.597 -0.1327 -0.3127 -0.6125
  652TMC3    C8 9659   0.684   0.236  10.391  0.1731 -0.1987 -0.6009
  652TMC3    O1 9660   0.716   0.649  10.656 -0.3900 -0.3010 -0.2028
  652TMC3    O2 9661   0.718   0.155  10.307 -0.3204  0.1817 -0.4788
  653MPD2     C 9662   3.945   0.407   0.318 -0.3337  0.3889  0.2250
  653MPD2    C1 9663   3.963   0.479   0.202 -0.4394 -0.3467 -0.3588
  653MPD2    C2 9664   3.944   0.419   0.085 -0.1865 -0.8450  0.0564
  653MPD2    C3 9665   3.903   0.285   0.068  0.4428 -0.4966 -0.2929
  653MPD2    C4 9666   3.892   0.214   0.186 -0.2637 -0.0893  1.2674
  653MPD2    C5 9667   3.914   0.274   0.308  0.2529 -0.5581 -1.4749
  653MPD2     H 9668   3.938   0.476  17.681  0.9444  1.5957  1.4999
  653MPD2    H1 9669   3.863   0.110   0.198 -0.0223 -0.3398 -0.3621
  653MPD2    H2 9670   3.937   0.455   0.415  1.6222 -1.5928  1.3645
  653MPD2    H3 9671   3.892   0.223   0.402  0.1068  0.6867 -0.8407
  653MPD2     N 9672   3.863   0.241  17.629  0.1163  0.0047 -0.4253
  653MPD2    H5 9673   3.882   0.302  17.550 -1.4844  2.6779  1.2541
  653MPD2    N1 9674   3.992   0.613   0.203 -0.6102 -0.0190 -0.2487
  653MPD2    H7 9675   3.984   0.663   0.115  1.2504  1.4077  0.3841
  654TMC3    C1 9676   3.809   0.095  17.447 -0.1852 -0.4372  0.0917
  654TMC3    C2 9677   3.734   0.201  17.396 -0.3226  0.9111 -0.4266
  654TMC3    C3 9678   3.696   0.194  17.267  0.2577 -0.4287 -0.3891
  654TMC3    C4 9679   3.841   4.709  17.369  0.9146  0.0467  0.1572
  654TMC3    C5 9680   3.798   4.706  17.236 -0.5645 -0.0354  0.2658
  654TMC3    C6 9681   3.720   0.086  17.189  0.0123 -0.8027 -0.1809
  654TMC3     C 9682   3.843   0.112  17.592  0.4671  0.3128 -0.1454
  654TMC3     O 9683   3.866   0.008  17.652  0.1451  1.0746  0.1980
  654TMC3     H 9684   3.695   0.285  17.453  0.9237  1.4505 -0.3698
  654TMC3    H1 9685   3.917   4.639  17.403 -0.7975 -2.9329 -2.1575
  654TMC3    H2 9686   3.692   0.086  17.085  1.6854 -1.1268 -0.6352
  654TMC3    C7 9687   3.833   4.598  17.148 -0.4544  0.1575  0.1301
  654TMC3    C8 9688   3.648   0.311  17.200  0.4381 -0.0553 -0.3558
  654TMC3    O1 9689   3.803   4.620  17.031  0.2112 -0.3047  0.4942
  654TMC3    O2 9690   3.582   0.381  17.273 -0.5125 -0.1251 -0.0942
  655MPD2     C 9691   0.660   0.777  15.759  0.3528  0.0578 -0.1944
  655MPD2    C1 9692   0.572   0.704  15.834 -0.1524  0.3002 -0.8112
  655MPD2    C2 9693   0.587   0.568  15.863  0.4585 -0.0436  0.3146
  655MPD2    C3 9694   0.691   0.502  15.795  0.5535  0.2790  0.3632
  655MPD2    C4 9695   0.787   0.571  15.723  0.5708  0.4060 -0.5855
  655MPD2    C5 9696   0.770   0.708  15.713  0.5486 -0.4012  0.1181
  655MPD2     H 9697   0.525   0.525  15.941 -0.4898  0.4499 -0.1699
  655MPD2    H1 9698   0.869   0.528  15.668 -1.3050 -1.1838 -2.1383
  655MPD2    H2 9699   0.661   0.884  15.742 -1.1198 -0.1028 -1.2994
  655MPD2    H3 9700   0.841   0.766  15.656  2.5809 -1.4253  1.5886
  655MPD2     N 9701   0.718   0.367  15.813 -0.1162  0.4338 -0.6051
  655MPD2    H5 9702   0.800   0.326  15.768  1.4200  0.2398  2.4033
  655MPD2    N1 9703   0.461   0.766  15.895 -0.5850  0.1710 -0.2884
  655MPD2    H7 9704   0.410   0.707  15.960 -1.0779  0.1965 -0.6503
  656TMC3    C1 9705   0.286   0.922  15.935  0.4003 -0.3423 -1.1469
  656TMC3    C2 9706   0.271   0.889  16.066  0.0319 -0.1757 -0.0055
  656TMC3    C3 9707   0.179   0.949  16.147 -0.2872 -0.5552  0.5535
  656TMC3    C4 9708   0.203   1.012  15.875 -0.2255  0.2437 -0.5031
  656TMC3    C5 9709   0.101   1.065  15.957  0.4768  0.2407  0.4050
  656TMC3    C6 9710   0.088   1.041  16.089  0.5507  0.3471  1.1750
  656TMC3     C 9711   0.414   0.892  15.865 -0.0248  0.2186  0.2676
  656TMC3     O 9712   0.432   0.965  15.765  0.0367 -0.1211  0.0274
  656TMC3     H 9713   0.357   0.835  16.103 -0.3574 -0.6962  0.1288
  656TMC3    H1 9714   0.211   1.042  15.771  0.4176  0.0629 -0.5068
  656TMC3    H2 9715   0.019   1.096  16.152 -1.4341  1.5132 -1.9511
  656TMC3    C7 9716   0.017   1.169  15.898 -0.0168  0.0574 -0.5817
  656TMC3    C8 9717   0.125   0.865  16.247 -0.3996  0.4014  0.5889
  656TMC3    O1 9718   0.054   1.209  15.788  0.3178  0.5673 -0.2799
  656TMC3    O2 9719   0.123   0.742  16.224 -0.2421  0.5623 -0.0210
  657TMC3    C1 9720   4.418   4.706  15.655 -0.2395 -0.3313 -1.3443
  657TMC3    C2 9721   4.529   4.655  15.585  0.3577  0.2604  0.0247
  657TMC3    C3 9722   4.640   0.017  15.562  0.1012 -0.5477  0.2183
  657TMC3    C4 9723   4.411   0.122  15.686 -1.1379  0.2118  0.2698
  657TMC3    C5 9724   4.522   0.202  15.655  0.7439 -0.1339 -0.0604
  657TMC3    C6 9725   4.642   0.149  15.604  0.1467 -0.4368  0.4889
  657TMC3     C 9726   4.284   4.647  15.651  0.4311 -0.0155  0.3068
  657TMC3     O 9727   4.192   4.700  15.709 -0.4392 -0.0130  0.2380
  657TMC3     H 9728   4.516   4.550  15.564 -0.7706  0.6634 -1.2994
  657TMC3    H1 9729   4.321   0.164  15.730 -0.1700  0.9595  1.5583
  657TMC3    H2 9730   0.009   0.213  15.609 -0.9329  0.9768  1.4025
  657TMC3    C7 9731   4.504   0.345  15.659  0.0428  0.3348  0.1074
  657TMC3    C8 9732   0.050   4.683  15.558  0.3855 -0.6171 -0.3013
  657TMC3    O1 9733   4.420   0.388  15.736  0.6545 -0.7291 -0.3630
  657TMC3    O2 9734   0.141   0.031  15.596 -0.0433  0.4276 -0.4090
  658MPD2     C 9735   1.196   4.599  15.497 -0.2633 -0.2829  0.2227
  658MPD2    C1 9736   1.082   4.673  15.534  0.2843  0.0621  0.2833
  658MPD2    C2 9737   1.031   0.033  15.442  0.1370 -0.9908 -0.4851
  658MPD2    C3 9738   1.065   0.028  15.312 -0.4761  0.4664 -0.3765
  658MPD2    C4 9739   1.175   4.663  15.274 -0.4016 -0.1169  0.1080
  658MPD2    C5 9740   1.229   4.585  15.368  0.1896 -0.5064  1.0314
  658MPD2     H 9741   0.952   0.104  15.466 -0.2908 -1.4082 -0.6549
  658MPD2    H1 9742   1.200   4.651  15.169 -1.2220 -0.0005 -0.1053
  658MPD2    H2 9743   1.258   4.542  15.566 -1.3252  0.2726  1.6328
  658MPD2    H3 9744   1.318   4.527  15.348  1.4276  1.6070  0.4373
  658MPD2     N 9745   1.003   0.115  15.228 -0.4878 -0.7652 -0.0878
  658MPD2    H5 9746   0.933   0.180  15.262  1.6826  0.5497  1.8319
  658MPD2    N1 9747   1.046   4.681  15.671  0.4394 -0.3111 -0.2816
  658MPD2    H7 9748   1.075   4.606  15.734 -0.5345  0.1908  0.7548
  659TMC3    C1 9749   0.908   0.029  15.845 -0.1309 -0.2177 -0.2018
  659TMC3    C2 9750   0.847   0.146  15.890  0.1295 -0.2743  0.0125
  659TMC3    C3 9751   0.710   0.152  15.912  0.2106  0.3899  0.1359
  659TMC3    C4 9752   0.835   4.633  15.848 -0.1090  0.3744 -0.9654
  659TMC3    C5 9753   0.695   4.638  15.852  0.3692 -0.0285 -0.3563
  659TMC3    C6 9754   0.636   0.035  15.894 -0.0387 -1.4547  0.0078
  659TMC3     C 9755   0.984   0.065  15.732  0.1570  0.8980 -0.1656
  659TMC3     O 9756   0.980   0.181  15.685 -0.2767 -0.3829 -0.2859
  659TMC3     H 9757   0.909   0.234  15.899  0.1922 -0.0381 -2.5943
  659TMC3    H1 9758   0.886   4.539  15.828  0.8124  1.3238 -3.1341
  659TMC3    H2 9759   0.531   0.054  15.917  0.0938  0.3495 -0.8389
  659TMC3    C7 9760   0.627   4.598  15.731  0.4883  0.1073  0.0649
  659TMC3    C8 9761   0.641   0.277  15.878 -0.2496  0.2252 -0.6704
  659TMC3    O1 9762   0.520   4.658  15.715 -1.0527 -0.9185 -0.1884
  659TMC3    O2 9763   0.523   0.288  15.906 -0.2262  0.0603  0.2748
  660MPD2     C 9764   3.228   3.786  12.959  0.4035  0.0741 -0.1006
  660MPD2    C1 9765   3.096   3.776  12.925 -0.0800 -0.5382 -0.5505
  660MPD2    C2 9766   3.013   3.713  13.017  0.5339 -0.1649  0.2324
  660MPD2    C3 9767   3.054   3.655  13.137 -0.3934  0.1661  0.0379
  660MPD2    C4 9768   3.185   3.670  13.168  0.7988 -0.3832  0.2109
  660MPD2    C5 9769   3.274   3.728  13.082  0.6591  1.3041 -0.7314
  660MPD2     H 9770   2.906   3.711  12.997  0.2919  1.3235  1.3491
  660MPD2    H1 9771   3.217   3.635  13.265  2.3566  1.6041  0.4266
  660MPD2    H2 9772   3.301   3.820  12.886 -0.1829  0.2374 -0.6033
  660MPD2    H3 9773   3.379   3.731  13.109  0.4130 -0.0510  0.3839
  660MPD2     N 9774   2.961   3.604  13.227 -0.2784  0.0658 -0.2770
  660MPD2    H5 9775   2.995   3.563  13.313  0.6065  0.0012 -0.6469
  660MPD2    N1 9776   3.047   3.837  12.808  0.9467 -0.1584  0.2215
  660MPD2    H7 9777   3.111   3.892  12.752  0.6972  0.5328  0.6098
  661TMC3    C1 9778   2.898   3.942  12.661 -0.7329  0.5214 -0.7641
  661TMC3    C2 9779   2.998   3.939  12.559 -0.2030 -0.3891  0.4304
  661TMC3    C3 9780   2.984   4.029  12.459 -0.6104 -0.4413 -0.1007
  661TMC3    C4 9781   2.776   4.002  12.646  0.3666  0.1085  0.1003
  661TMC3    C5 9782   2.763   4.081  12.535 -0.4912  0.0361 -1.2542
  661TMC3    C6 9783   2.868   4.106  12.446  0.2163 -0.4594 -0.0933
  661TMC3     C 9784   2.914   3.849  12.771  0.5072 -0.4798 -0.3328
  661TMC3     O 9785   2.813   3.812  12.828 -0.0210  0.1985 -0.3834
  661TMC3     H 9786   3.083   3.872  12.562  0.1947  0.1922  2.0471
  661TMC3    H1 9787   2.694   3.980  12.713 -0.0051  1.6844  0.1640
  661TMC3    H2 9788   2.857   4.167  12.357 -1.4154 -0.2679  0.2437
  661TMC3    C7 9789   2.624   4.123  12.520 -0.6598  0.7732 -1.0866
  661TMC3    C8 9790   3.065   4.021  12.342  0.7277 -0.1609 -0.5438
  661TMC3    O1 9791   2.559   4.152  12.616  0.1659 -0.1240  0.1131
  661TMC3    O2 9792   3.082   4.121  12.276  0.0274  0.3532  0.0376
  662MPD2     C 9793   2.929   4.042  17.440 -0.5082  0.0957 -0.1588
  662MPD2    C1 9794   3.025   3.980  17.522  0.2651 -0.2076 -0.1781
  662MPD2    C2 9795   3.107   4.064  17.599  0.0243  0.4844  0.3475
  662MPD2    C3 9796   3.097   4.203  17.589  0.0895 -0.3593 -0.2875
  662MPD2    C4 9797   3.006   4.257  17.501  0.5905  0.0400 -0.0485
  662MPD2    C5 9798   2.915   4.179  17.436 -0.2985 -0.4573 -0.2056
  662MPD2     H 9799   3.189   4.027  17.658  0.6723  0.4655 -0.5647
  662MPD2    H1 9800   3.002   4.366  17.502  1.2253  0.0850 -2.0106
  662MPD2    H2 9801   2.864   3.989  17.372 -0.0911  1.2488 -1.4722
  662MPD2    H3 9802   2.837   4.223  17.375  0.1451 -2.5710 -2.2772
  662MPD2     N 9803   3.177   4.297  17.661 -0.2841 -0.0972  0.6440
  662MPD2    H5 9804   3.168   4.395  17.637  1.6236 -0.6433 -2.3026
  662MPD2    N1 9805   3.036   3.843  17.534 -0.5287  1.1871  0.0047
  662MPD2    H7 9806   3.094   3.808  17.610 -0.4827  1.5344  0.1309
  663TMC3    C1 9807   3.002   3.619  17.498  0.2552 -0.5157 -0.6843
  663TMC3    C2 9808   3.075   3.588  17.610 -0.2624 -0.0396 -0.4224
  663TMC3    C3 9809   3.134   3.462  17.620  0.5859 -0.4093  0.2239
  663TMC3    C4 9810   2.993   3.536  17.387 -0.0167  0.9019  0.3262
  663TMC3    C5 9811   3.058   3.417  17.395  0.4066  0.2581  0.0777
  663TMC3    C6 9812   3.138   3.385  17.502 -0.0800 -0.3879  0.2071
  663TMC3     C 9813   2.975   3.752  17.461  0.5835  0.1558  0.6675
  663TMC3     O 9814   2.896   3.763  17.373 -0.3352  0.3457  0.2284
  663TMC3     H 9815   3.053   3.646   0.012 -0.8741 -0.3737 -0.3535
  663TMC3    H1 9816   2.948   3.571  17.294  1.4240 -1.6943 -1.3372
  663TMC3    H2 9817   3.176   3.287  17.529 -0.4627 -0.4200  0.6422
  663TMC3    C7 9818   3.063   3.324  17.287 -0.2946 -0.0032 -0.4283
  663TMC3    C8 9819   3.242   3.432   0.025  0.6015  0.3644  0.3499
  663TMC3    O1 9820   3.009   3.362  17.184  0.5799  0.1153 -0.0474
  663TMC3    O2 9821   3.334   3.369  17.668  0.2595 -0.3795  0.3629
  664MPD2     C 9822   1.349   1.824  17.429  0.1971  0.8834  1.2574
  664MPD2    C1 9823   1.448   1.923  17.415  0.2748  0.1485  0.3669
  664MPD2    C2 9824   1.483   1.994  17.530 -0.1511 -0.8359 -0.1887
  664MPD2    C3 9825   1.425   1.969  17.656 -0.4966  0.2643 -0.4316
  664MPD2    C4 9826   1.332   1.869  17.662 -0.6113 -0.4287 -0.0036
  664MPD2    C5 9827   1.298   1.796  17.555  0.0106 -0.2712 -1.4313
  664MPD2     H 9828   1.546   2.082  17.527 -3.1051  1.3514  1.7685
  664MPD2    H1 9829   1.272   1.854   0.063 -2.5695  0.6826 -1.1567
  664MPD2    H2 9830   1.308   1.769  17.345  1.2178  2.9253 -0.5823
  664MPD2    H3 9831   1.216   1.727  17.573 -0.9889  1.4257  0.5765
  664MPD2     N 9832   1.482   2.022   0.093 -0.2179 -0.0762  1.2435
  664MPD2    H5 9833   1.545   2.102   0.088  0.0055 -0.3392 -0.0906
  664MPD2    N1 9834   1.521   1.951  17.300 -0.0218 -0.0897  0.0272
  664MPD2    H7 9835   1.595   2.020  17.309 -1.6278  1.5578  0.4956
  665TMC3    C1 9836   1.499   2.053   0.330 -0.2696  0.1529  0.3235
  665TMC3    C2 9837   1.521   1.991   0.449  0.2188 -0.0937  0.6484
  665TMC3    C3 9838   1.543   2.065   0.561  0.0493  0.3975  0.2152
  665TMC3    C4 9839   1.506   2.191   0.316  0.3113 -0.2038  0.2417
  665TMC3    C5 9840   1.535   2.261   0.425 -0.7933 -0.4764  0.1913
  665TMC3    C6 9841   1.540   2.200   0.544 -0.5961 -0.2094 -0.0139
  665TMC3     C 9842   1.457   1.970   0.215 -0.5456  0.1916 -0.3621
  665TMC3     O 9843   1.413   1.860   0.246  0.9106  0.3446 -0.0403
  665TMC3     H 9844   1.503   1.886   0.466  0.0657 -0.2214 -0.2705
  665TMC3    H1 9845   1.496   2.239   0.219  0.2133 -2.6828 -0.9563
  665TMC3    H2 9846   1.530   2.252   0.638  1.1022  0.1751 -0.0503
  665TMC3    C7 9847   1.526   2.406   0.437  0.2478  0.1345  0.4129
  665TMC3    C8 9848   1.537   2.019   0.690  0.2437 -0.0420 -0.3821
  665TMC3    O1 9849   1.485   2.464   0.338 -0.3265 -0.2777  0.1169
  665TMC3    O2 9850   1.610   2.075   0.774 -0.4988  0.4574  0.4088
  666TMC3    C1 9851   0.989   2.018  10.061 -0.0825 -0.1290 -0.5752
  666TMC3    C2 9852   1.081   1.932  10.120  0.2711  0.3590  0.3953
  666TMC3    C3 9853   1.208   1.984  10.141 -0.6328  0.6961 -0.7041
  666TMC3    C4 9854   1.029   2.134  10.004  0.4406  0.6682 -0.0159
  666TMC3    C5 9855   1.154   2.183  10.038 -0.5472  0.0165 -0.0633
  666TMC3    C6 9856   1.242   2.110  10.110 -0.2153 -0.3203  0.3430
  666TMC3     C 9857   0.847   1.984  10.058 -0.3810 -0.3084  0.9884
  666TMC3     O 9858   0.777   2.071  10.008  0.5611  0.1759  0.2676
  666TMC3     H 9859   1.044   1.843  10.171 -1.5274  1.1838  0.5091
  666TMC3    H1 9860   0.951   2.191   9.956  2.5093  0.5395 -3.4986
  666TMC3    H2 9861   1.346   2.142  10.107 -0.6103  0.9000 -0.4312
  666TMC3    C7 9862   1.166   2.327  10.051  0.0361  0.1314 -0.0279
  666TMC3    C8 9863   1.282   1.915  10.245  0.1050  0.6337  0.3042
  666TMC3    O1 9864   1.258   2.373  10.119 -0.5588 -0.1859 -0.5281
  666TMC3    O2 9865   1.246   1.803  10.278  0.6505 -0.1237 -0.3261
  667MPD2     C 9866   2.567   1.754  14.891  0.6599 -0.0650  0.2043
  667MPD2    C1 9867   2.453   1.733  14.964  0.1852 -0.5965 -0.0980
  667MPD2    C2 9868   2.360   1.651  14.908 -1.6764  0.0015  0.1227
  667MPD2    C3 9869   2.391   1.580  14.794  0.5921  0.2262  0.2791
  667MPD2    C4 9870   2.522   1.582  14.742  0.1504 -0.7084  0.7487
  667MPD2    C5 9871   2.604   1.677  14.788  0.0420 -0.0438 -0.2776
  667MPD2     H 9872   2.266   1.625  14.954 -1.0127  0.7190  1.8679
  667MPD2    H1 9873   2.551   1.517  14.660  0.2530  2.1597 -1.4608
  667MPD2    H2 9874   2.642   1.819  14.934 -0.4521  1.8104 -0.6786
  667MPD2    H3 9875   2.707   1.678  14.754  0.1370  1.2858  0.0604
  667MPD2     N 9876   2.293   1.499  14.733 -0.7992 -0.1984  0.1027
  667MPD2    H5 9877   2.331   1.435  14.664 -1.3931  0.2220 -0.6172
  667MPD2    N1 9878   2.415   1.807  15.076  0.0407 -0.1199  0.6205
  667MPD2    H7 9879   2.345   1.759  15.133 -0.1818 -0.4251  0.0844
  668TMC3    C1 9880   2.443   1.952  15.268 -0.5223  0.0700  0.2840
  668TMC3    C2 9881   2.535   2.019  15.344 -0.4352  0.9540 -0.3281
  668TMC3    C3 9882   2.496   2.088  15.456 -0.1259 -0.1285 -0.4647
  668TMC3    C4 9883   2.311   1.948  15.295  0.5209  0.2740  0.0886
  668TMC3    C5 9884   2.272   2.018  15.408 -0.1976  0.0594  0.1831
  668TMC3    C6 9885   2.363   2.094  15.485 -0.4021 -0.1217 -0.2559
  668TMC3     C 9886   2.486   1.911  15.135  0.2099 -0.5395 -0.5016
  668TMC3     O 9887   2.586   1.966  15.090  0.0273  0.0269 -0.7287
  668TMC3     H 9888   2.640   1.993  15.329 -0.8639 -1.6632  1.2458
  668TMC3    H1 9889   2.239   1.900  15.230  0.9243  1.5796 -1.3259
  668TMC3    H2 9890   2.330   2.141  15.577 -0.1037 -1.2999  0.4592
  668TMC3    C7 9891   2.142   1.992  15.477  0.2020 -0.4258 -0.9502
  668TMC3    C8 9892   2.590   2.161  15.537 -0.1404 -0.1087  0.5570
  668TMC3    O1 9893   2.130   2.025  15.594 -0.1463 -0.3021  0.1292
  668TMC3    O2 9894   2.593   2.138  15.657 -0.3159  0.1335  0.0830
  669TMC3    C1 9895   0.129   1.769  14.685 -0.4528 -0.1691 -0.3144
  669TMC3    C2 9896   4.717   1.785  14.686  0.8537  0.3788 -0.3823
  669TMC3    C3 9897   4.660   1.905  14.638  0.1004 -0.2515  0.6384
  669TMC3    C4 9898   0.204   1.860  14.610 -0.3550  0.2502  0.2363
  669TMC3    C5 9899   0.148   1.971  14.553 -0.3608  0.2361  0.1952
  669TMC3    C6 9900   0.018   1.999  14.575 -0.3198  0.6436 -0.1898
  669TMC3     C 9901   0.199   1.672  14.763  0.1892  0.5248  0.0127
  669TMC3     O 9902   0.317   1.697  14.796  0.2110 -0.7171 -0.2450
  669TMC3     H 9903   4.660   1.711  14.740  1.7387 -0.3947 -0.5134
  669TMC3    H1 9904   0.311   1.850  14.594 -0.5524  1.0018 -1.5901
  669TMC3    H2 9905   4.689   2.089  14.541  0.4317  1.0159 -0.3125
  669TMC3    C7 9906   0.230   2.079  14.494  0.2546  0.9766  0.4215
  669TMC3    C8 9907   4.534   1.886  14.574  0.3072 -1.1711 -0.5168
  669TMC3    O1 9908   0.348   2.072  14.497 -0.0545 -0.0773  0.1746
  669TMC3    O2 9909   4.500   1.769  14.550 -0.4920 -0.1091  0.4690
  670MPD2     C 9910   3.539   3.857  13.674 -0.5591 -0.2996  0.0346
  670MPD2    C1 9911   3.606   3.889  13.789 -0.4489  1.0036  0.1083
  670MPD2    C2 9912   3.532   3.883  13.905 -0.5028 -0.5450 -0.0738
  670MPD2    C3 9913   3.398   3.858  13.905 -0.0891 -0.7279  0.1081
  670MPD2    C4 9914   3.338   3.829  13.787  0.4935  0.0883  0.0910
  670MPD2    C5 9915   3.409   3.824  13.666 -0.0044  0.8785  0.1733
  670MPD2     H 9916   3.581   3.910  13.998 -2.2093  2.5804 -0.0850
  670MPD2    H1 9917   3.237   3.791  13.789  0.4487  0.3001  1.7357
  670MPD2    H2 9918   3.578   3.863  13.573 -0.0142  0.5789  0.2950
  670MPD2    H3 9919   3.368   3.790  13.571 -1.8883 -0.7273  1.5525
  670MPD2     N 9920   3.340   3.873  14.038 -0.3466  0.1186  0.3161
  670MPD2    H5 9921   3.401   3.884  14.119 -0.3015  1.0972  0.1412
  670MPD2    N1 9922   3.744   3.912  13.798 -0.4824  0.5096  0.5702
  670MPD2    H7 9923   3.772   3.945  13.890  0.3581 -3.2153  1.6464
  671TMC3    C1 9924   3.166   3.883  14.203  0.2218  0.4180 -0.4043
  671TMC3    C2 9925   3.246   3.944  14.295  0.1541 -0.0963  0.2331
  671TMC3    C3 9926   3.190   3.962  14.419 -0.0263  0.5642 -0.3795
  671TMC3    C4 9927   3.039   3.840  14.231 -0.0061  0.2202 -0.0829
  671TMC3    C5 9928   2.988   3.856  14.358  0.0859  0.6508  0.0962
  671TMC3    C6 9929   3.064   3.919  14.451 -0.5841  0.3794  0.2956
  671TMC3     C 9930   3.207   3.860  14.067 -0.2222  0.5825  0.3530
  671TMC3     O 9931   3.111   3.855  13.991  0.1152 -0.2913 -0.1984
  671TMC3     H 9932   3.335   3.997  14.264 -0.3741 -0.0404 -1.1974
  671TMC3    H1 9933   2.982   3.784  14.157  1.3048 -1.7097  0.3558
  671TMC3    H2 9934   3.014   3.955  14.540 -1.8759 -2.0091  0.5323
  671TMC3    C7 9935   2.888   3.754  14.394  0.5528 -0.4575 -0.3577
  671TMC3    C8 9936   3.277   3.959  14.531  0.4807  0.1019 -0.1050
  671TMC3    O1 9937   2.820   3.716  14.300  0.7915 -0.2971  0.0418
  671TMC3    O2 9938   3.224   3.917  14.633  0.0706  0.6579 -0.3800
  672MPD2     C 9939   3.084   0.327   1.845  0.3156  0.2259 -0.0143
  672MPD2    C1 9940   3.144   0.347   1.723 -0.2316 -0.5891  0.3873
  672MPD2    C2 9941   3.235   0.449   1.717  0.1899 -0.8833  0.6417
  672MPD2    C3 9942   3.281   0.508   1.832  0.1270 -0.1953 -0.5733
  672MPD2    C4 9943   3.229   0.481   1.956 -0.5259  0.6740  0.6065
  672MPD2    C5 9944   3.124   0.389   1.960  0.4068 -0.5094  0.5207
  672MPD2     H 9945   3.289   0.470   1.625 -2.8477  1.4268 -0.6091
  672MPD2    H1 9946   3.263   0.532   2.046  0.1720 -1.4555  1.5445
  672MPD2    H2 9947   2.999   0.261   1.858 -0.0292  0.8081  0.6302
  672MPD2    H3 9948   3.057   0.381   2.045  0.7644  0.6212  0.9070
  672MPD2     N 9949   3.397   0.596   1.831 -0.8862  0.1810  0.1623
  672MPD2    H5 9950   3.443   0.618   1.919 -1.5397 -2.7104  1.2150
  672MPD2    N1 9951   3.105   0.286   1.600 -0.0084  0.1074  0.3347
  672MPD2    H7 9952   3.150   0.321   1.516 -1.3938  0.4368 -0.2891
  673TMC3    C1 9953   3.043   0.101   1.475 -0.6407  0.4815  0.5237
  673TMC3    C2 9954   3.002   4.696   1.488 -0.1746  0.2365  0.2176
  673TMC3    C3 9955   3.071   4.605   1.417 -0.2547  0.0715 -0.3914
  673TMC3    C4 9956   3.142   0.140   1.388  0.0876 -0.1234  0.3701
  673TMC3    C5 9957   3.198   0.049   1.305 -0.2250  0.0643 -0.7293
  673TMC3    C6 9958   3.165   4.639   1.327 -0.0217  1.1065  0.5866
  673TMC3     C 9959   3.019   0.176   1.592 -0.4412  0.3375 -0.1593
  673TMC3     O 9960   2.949   0.131   1.680 -0.0922  0.5421 -0.0030
  673TMC3     H 9961   2.922   4.662   1.553  0.0798 -2.0621 -0.6633
  673TMC3    H1 9962   3.148   0.247   1.369  2.7183 -1.0629 -4.0723
  673TMC3    H2 9963   3.216   4.555   1.281 -0.4007  3.1929 -3.6353
  673TMC3    C7 9964   3.333   0.061   1.261 -0.5169 -0.4087 -0.0280
  673TMC3    C8 9965   3.104   4.480   1.479  0.6094 -0.1929 -0.4878
  673TMC3    O1 9966   3.406   4.684   1.256 -0.2578 -0.3427 -0.1890
  673TMC3    O2 9967   3.038   4.383   1.445 -0.4962  0.0241  0.5125
  674MPD2     C 9968   3.733   4.381   0.168 -0.0332 -0.3335  0.1747
  674MPD2    C1 9969   3.670   4.299   0.258 -0.1178 -0.1036 -0.8831
  674MPD2    C2 9970   3.647   4.339   0.387 -0.5869 -0.7324 -0.4144
  674MPD2    C3 9971   3.658   4.470   0.419 -0.7597 -0.5790 -0.5945
  674MPD2    C4 9972   3.715   4.562   0.332  0.8689 -0.3841 -0.2097
  674MPD2    C5 9973   3.740   4.511   0.203  0.7991  0.5261 -0.5597
  674MPD2     H 9974   3.601   4.264   0.451 -2.9978  0.8557 -0.3014
  674MPD2    H1 9975   3.734   4.665   0.360 -0.1353  0.0665 -1.2469
  674MPD2    H2 9976   3.752   4.357   0.064 -0.1630 -3.5458  0.8936
  674MPD2    H3 9977   3.768   4.584   0.128 -0.2547  0.0581 -1.4035
  674MPD2     N 9978   3.595   4.514   0.537 -0.9900  0.5642 -0.4410
  674MPD2    H5 9979   3.517   4.459   0.571 -0.8723  1.7750  1.7839
  674MPD2    N1 9980   3.646   4.161   0.224  0.1302  0.3501  0.0289
  674MPD2    H7 9981   3.615   4.103   0.302 -1.8270 -0.5168 -1.3744
  675TMC3    C1 9982   3.620   3.970   0.107  0.5050  0.5278 -0.6995
  675TMC3    C2 9983   3.511   3.903   0.056 -0.1241 -0.4602  0.1941
  675TMC3    C3 9984   3.467   3.793   0.118 -0.3561 -0.4919  0.4928
  675TMC3    C4 9985   3.685   3.930   0.217 -0.0367 -0.0415 -0.3068
  675TMC3    C5 9986   3.637   3.822   0.287  0.4724 -0.4610 -0.2900
  675TMC3    C6 9987   3.533   3.756   0.235 -0.2500 -0.5270  0.1348
  675TMC3     C 9988   3.642   4.110   0.099 -0.0467  0.4379  0.3283
  675TMC3     O 9989   3.652   4.155  17.672  0.5295  0.2064 -0.3861
  675TMC3     H 9990   3.439   3.957  17.682 -0.4117 -0.2389  0.7269
  675TMC3    H1 9991   3.778   3.976   0.249  0.1113  0.5749 -1.6093
  675TMC3    H2 9992   3.514   3.661   0.284  1.3764 -0.7527  0.3174
  675TMC3    C7 9993   3.647   3.815   0.427 -0.1879 -0.4977 -0.2900
  675TMC3    C8 9994   3.324   3.773   0.142  0.2955 -0.0614 -0.8289
  675TMC3    O1 9995   3.568   3.742   0.483 -0.3674 -0.0522 -0.5487
  675TMC3    O2 9996   3.238   3.778   0.051 -0.3029  0.2362  0.4568
  676MPD2     C 9997   1.876   2.968  11.148  0.0813 -0.1191 -0.1274
  676MPD2    C1 9998   1.756   2.933  11.199  0.1130 -0.2269  0.6781
  676MPD2    C2 9999   1.711   2.807  11.171  0.1163  0.0192 -0.0511
  676MPD2    C310000   1.775   2.717  11.088  0.0699  0.6302  0.6297
  676MPD2    C410001   1.900   2.753  11.048  0.1335 -0.2295 -0.3711
  676MPD2    C510002   1.947   2.877  11.077 -0.1250 -0.0746  0.4746
  676MPD2     H10003   1.612   2.785  11.208 -0.1278 -0.8054 -1.1919
  676MPD2    H110004   1.968   2.696  10.986  1.0054 -1.0035  1.2769
  676MPD2    H210005   1.921   3.064  11.168  1.9508 -1.4095  1.8609
  676MPD2    H310006   2.040   2.913  11.033 -0.2535  0.6315  0.7694
  676MPD2     N10007   1.720   2.598  11.035  0.7458 -0.5342 -0.6666
  676MPD2    H510008   1.781   2.538  10.980  0.1053  0.4162 -2.3998
  676MPD2    N110009   1.675   3.025  11.267  0.0809 -0.2088 -0.0126
  676MPD2    H710010   1.581   2.994  11.288  0.3074 -2.0592 -1.7192
  677TMC3    C110011   1.593   3.216  11.357  0.1691 -0.2501  0.3204
  677TMC3    C210012   1.510   3.151  11.446  0.1934  0.3307 -0.1369
  677TMC3    C310013   1.412   3.223  11.508  0.1629 -0.5718 -0.1296
  677TMC3    C410014   1.574   3.341  11.313 -0.1137 -0.4224  0.5894
  677TMC3    C510015   1.471   3.409  11.369  0.0429 -0.1790 -0.3662
  677TMC3    C610016   1.386   3.354  11.470 -0.2229  0.9454  1.0716
  677TMC3     C10017   1.711   3.156  11.298  0.8820  0.2969  0.3282
  677TMC3     O10018   1.813   3.221  11.278  0.9435  0.0863 -0.2336
  677TMC3     H10019   1.533   3.050  11.478 -0.0257  0.1100 -0.6906
  677TMC3    H110020   1.628   3.386  11.231 -1.7430  1.2756  0.4639
  677TMC3    H210021   1.323   3.415  11.533 -1.6039 -1.0673  1.6351
  677TMC3    C710022   1.449   3.549  11.340 -0.5217 -0.0082  0.3029
  677TMC3    C810023   1.403   3.183  11.641  0.4270  0.0869 -0.4853
  677TMC3    O110024   1.337   3.589  11.330  0.0850 -1.0134  0.0641
  677TMC3    O210025   1.508   3.133  11.686 -0.6197  0.5817  0.3249
  678MPD2     C10026   2.506   2.743   1.768 -0.9628  0.5631  0.4600
  678MPD2    C110027   2.535   2.760   1.631 -0.4350 -0.2533 -0.1777
  678MPD2    C210028   2.450   2.831   1.556  0.5056  0.3532 -0.2716
  678MPD2    C310029   2.334   2.882   1.602 -1.4346  0.1864 -0.2061
  678MPD2    C410030   2.309   2.860   1.739  0.0594  0.0572 -0.0501
  678MPD2    C510031   2.390   2.795   1.816  0.2734  0.2020 -0.0239
  678MPD2     H10032   2.469   2.828   1.449  0.5145 -0.3856 -0.2513
  678MPD2    H110033   2.230   2.921   1.780 -0.5170 -0.3679 -0.5381
  678MPD2    H210034   2.572   2.685   1.832  0.7369  2.3148  0.3001
  678MPD2    H310035   2.361   2.786   1.920  0.6497  1.7908  0.2170
  678MPD2     N10036   2.263   2.957   1.507  0.7212 -0.1778 -0.0055
  678MPD2    H510037   2.291   2.955   1.410  0.9868  1.3685  0.0398
  678MPD2    N110038   2.658   2.719   1.566  0.2540 -0.2534  0.3405
  678MPD2    H710039   2.671   2.754   1.472 -1.8752  3.6798  1.5362
  679TMC3    C110040   3.084   2.511   1.528 -1.0684 -0.3559  0.3055
  679TMC3    C210041   2.955   2.518   1.583 -0.6750  0.5446 -0.1450
  679TMC3    C310042   2.886   2.632   1.557  0.0657  0.5546 -0.0930
  679TMC3    C410043   3.135   2.604   1.445  0.2100  0.3793 -0.6535
  679TMC3    C510044   3.066   2.718   1.434  0.6611  0.5921  0.4496
  679TMC3    C610045   2.937   2.738   1.494  0.1328  0.0744  0.0966
  679TMC3     C10046   3.176   2.402   1.554 -0.2496 -0.2854  0.2280
  679TMC3     O10047   3.286   2.401   1.496  0.1144  0.3940  0.2374
  679TMC3     H10048   2.904   2.432   1.624 -1.3700  0.6379 -0.8062
  679TMC3    H110049   3.228   2.588   1.392  1.5638  1.1118  1.5242
  679TMC3    H210050   2.892   2.837   1.487 -1.0417 -0.4632  0.0985
  679TMC3    C710051   3.095   2.825   1.340 -0.4103 -0.3716  0.3424
  679TMC3    C810052   2.757   2.643   1.624 -0.4012 -0.4744  0.0268
  679TMC3    O110053   3.004   2.869   1.270 -0.2112  0.0010  0.4071
  679TMC3    O210054   2.747   2.565   1.718  0.4381 -0.0282  0.3071
  680MPD2     C10055   3.369   1.689  13.708  0.1718 -0.3460  0.2593
  680MPD2    C110056   3.429   1.625  13.811  0.3053  0.6199 -0.1688
  680MPD2    C210057   3.434   1.691  13.936  0.5378  0.1607  0.2180
  680MPD2    C310058   3.381   1.817  13.954 -0.2367  0.4040 -0.5752
  680MPD2    C410059   3.316   1.877  13.847  0.1377 -0.0744 -0.0772
  680MPD2    C510060   3.312   1.814  13.728  0.5711 -0.2723  0.3410
  680MPD2     H10061   3.499   1.644  14.009  0.9589 -2.0510 -1.6064
  680MPD2    H110062   3.268   1.974  13.858  0.2061 -0.0747  0.2419
  680MPD2    H210063   3.358   1.643  13.611 -1.1871 -2.1595  1.2694
  680MPD2    H310064   3.262   1.861  13.644  0.5234  0.4972  0.7954
  680MPD2     N10065   3.398   1.891  14.076  0.2392 -0.0688  0.1925
  680MPD2    H510066   3.357   1.984  14.078  0.2628 -0.0566  0.1126
  680MPD2    N110067   3.482   1.493  13.798 -0.1196  0.2154  0.0702
  680MPD2    H710068   3.511   1.445  13.883 -0.8367  2.5641  1.6297
  681TMC3    C110069   3.549   1.298  13.693 -0.6397 -0.1095 -0.0036
  681TMC3    C210070   3.514   1.246  13.817  1.1010 -0.0251  0.8889
  681TMC3    C310071   3.572   1.128  13.846 -0.1958 -0.2375 -0.3332
  681TMC3    C410072   3.650   1.248  13.614 -0.1002 -0.4154  0.3849
  681TMC3    C510073   3.707   1.134  13.648  0.7119 -0.2051  0.6121
  681TMC3    C610074   3.668   1.068  13.764 -1.2015 -0.2964 -0.9409
  681TMC3     C10075   3.495   1.431  13.675 -0.3094  0.4817  0.0591
  681TMC3     O10076   3.488   1.462  13.557  0.4184 -1.2739 -0.6035
  681TMC3     H10077   3.431   1.272  13.882 -0.3588  1.1303 -1.4097
  681TMC3    H110078   3.659   1.301  13.520 -3.0912  0.6614  0.7116
  681TMC3    H210079   3.710   0.971  13.790  1.4233  1.4819  1.3962
  681TMC3    C710080   3.817   1.070  13.573 -0.1192  0.2638  0.2773
  681TMC3    C810081   3.536   1.049  13.958  0.1827  0.0901 -0.4727
  681TMC3    O110082   3.873   0.967  13.615 -0.2011 -0.1493 -0.0206
  681TMC3    O210083   3.527   0.928  13.948 -0.4658 -0.2511 -0.2193
  682MPD2     C10084   0.678   3.534  10.456 -0.1275  0.1018 -0.5888
  682MPD2    C110085   0.612   3.415  10.447  0.0061 -0.1394  0.0070
  682MPD2    C210086   0.499   3.391  10.518  0.1812  0.3618  0.1638
  682MPD2    C310087   0.458   3.479  10.617 -0.2462 -0.1086  0.6928
  682MPD2    C410088   0.522   3.601  10.625  0.4847  0.1904  0.4331
  682MPD2    C510089   0.628   3.628  10.543  0.6188 -0.4301 -0.1317
  682MPD2     H10090   0.434   3.306  10.496 -1.0638  0.7169  2.4399
  682MPD2    H110091   0.486   3.676  10.696  0.5029  0.1336  0.5029
  682MPD2    H210092   0.767   3.558  10.400 -0.0761 -2.1480 -1.4420
  682MPD2    H310093   0.668   3.729  10.541 -0.6861  0.1209  2.1038
  682MPD2     N10094   0.340   3.457  10.699 -0.1009  0.1779  0.0160
  682MPD2    H510095   0.317   3.530  10.766 -0.0728 -0.1846  0.4224
  682MPD2    N110096   0.671   3.304  10.384  0.2353  0.2192 -0.4401
  682MPD2    H710097   0.611   3.223  10.380 -0.3741  0.5983  1.0275
  683TMC3    C110098   0.130   3.358  11.050  0.7539  0.2257  0.0981
  683TMC3    C210099   0.040   3.256  11.049 -0.0970 -0.2992  0.7003
  683TMC3    C310100   0.003   3.213  10.924 -0.4649 -0.7456 -0.1438
  683TMC3    C410101   0.196   3.410  10.937  0.1056 -0.4595 -0.0383
  683TMC3    C510102   0.167   3.346  10.815 -0.5785  0.1733 -0.3465
  683TMC3    C610103   0.060   3.259  10.806  0.2450  1.5580  0.0643
  683TMC3     C10104   0.133   3.442  11.162 -0.7851  0.4756 -0.0642
  683TMC3     O10105   0.219   3.523  11.182  0.3243  0.4327 -0.1984
  683TMC3     H10106   4.714   3.215  11.138 -0.7387 -0.1977  0.4050
  683TMC3    H110107   0.273   3.484  10.954 -0.8130  0.5343 -0.2203
  683TMC3    H210108   0.028   3.234  10.706  1.1403 -0.5235  0.3062
  683TMC3    C710109   0.251   3.352  10.698  0.0515 -0.7020 -0.4653
  683TMC3    C810110   4.637   3.100  10.897 -0.6827  0.0452 -0.0407
  683TMC3    O110111   0.250   3.253  10.626 -0.0712 -0.0522 -0.0376
  683TMC3    O210112   4.574   3.101  10.792 -0.0220 -0.1003 -0.1351
  684MPD2     C10113   3.368   2.407  16.627  0.8538 -0.0852 -0.1534
  684MPD2    C110114   3.489   2.421  16.551 -0.5174  0.8173  1.1819
  684MPD2    C210115   3.581   2.514  16.594  0.3863 -0.0350  1.1745
  684MPD2    C310116   3.555   2.597  16.701 -0.2030 -0.0520  0.1775
  684MPD2    C410117   3.434   2.583  16.767 -0.4790  0.2300 -1.2790
  684MPD2    C510118   3.339   2.500  16.727  0.2705 -0.1296 -0.5002
  684MPD2     H10119   3.675   2.534  16.543  0.3991 -0.6349  0.9673
  684MPD2    H110120   3.402   2.646  16.849 -0.9165  0.4784 -1.6393
  684MPD2    H210121   3.294   2.334  16.599  1.9181 -0.8520 -0.9914
  684MPD2    H310122   3.244   2.499  16.779  0.0184 -0.6413 -0.9705
  684MPD2     N10123   3.642   2.701  16.746  0.5698  0.5393  0.0264
  684MPD2    H510124   3.607   2.760  16.821 -0.8434  0.6201 -0.7029
  684MPD2    N110125   3.534   2.342  16.441  0.3766 -0.3498  0.2828
  684MPD2    H710126   3.620   2.372  16.396 -0.0660  0.8736  0.2576
  685TMC3    C110127   3.527   2.162  16.288 -0.4386  0.1969  0.0278
  685TMC3    C210128   3.603   2.238  16.201 -0.3959 -0.4896  0.0219
  685TMC3    C310129   3.663   2.174  16.103 -0.6410 -0.3699 -0.8975
  685TMC3    C410130   3.543   2.026  16.295  0.1853  0.6276 -0.0466
  685TMC3    C510131   3.620   1.964  16.204  0.3843  0.3902  0.5890
  685TMC3    C610132   3.682   2.040  16.110  0.4151 -0.5461 -0.1587
  685TMC3     C10133   3.472   2.226  16.406 -0.3801 -0.4977 -0.2289
  685TMC3     O10134   3.365   2.177  16.450 -0.5318 -0.7145 -0.2488
  685TMC3     H10135   3.598   2.346  16.200 -0.2490 -0.4796  0.5152
  685TMC3    H110136   3.485   1.972  16.369  1.1110  0.6111  0.6695
  685TMC3    H210137   3.696   2.000  16.010  1.9114  0.0397 -0.1840
  685TMC3    C710138   3.709   1.868  16.264 -0.7231 -0.4265  0.0688
  685TMC3    C810139   3.610   2.210  15.972 -0.1483  0.4754  0.6698
  685TMC3    O110140   3.667   1.808  16.362 -0.1137 -0.0706  0.6631
  685TMC3    O210141   3.681   2.175  15.879  0.2341  0.0842  0.4007
  686MPD2     C10142   0.300   2.277  15.836 -0.2624  0.4224  0.7950
  686MPD2    C110143   0.292   2.156  15.906  0.9260  0.0616  0.1013
  686MPD2    C210144   0.321   2.040  15.836 -0.8988 -0.2961  0.4609
  686MPD2    C310145   0.339   2.036  15.699 -0.7151 -0.0988  0.0559
  686MPD2    C410146   0.347   2.157  15.633  1.0207  0.1201 -0.0653
  686MPD2    C510147   0.332   2.273  15.698 -0.2202 -0.1162  0.2850
  686MPD2     H10148   0.330   1.947  15.890 -1.9783 -1.2399 -0.9921
  686MPD2    H110149   0.381   2.160  15.531 -0.2820 -0.5987 -0.5222
  686MPD2    H210150   0.294   2.376  15.880  1.2766  0.6701  0.4418
  686MPD2    H310151   0.343   2.364  15.641  0.0329 -0.5723 -0.3956
  686MPD2     N10152   0.357   1.913  15.626 -0.1037 -0.1269 -0.1185
  686MPD2    H510153   0.381   1.920  15.528 -0.0696 -0.8671 -0.1640
  686MPD2    N110154   0.255   2.163  16.044  0.3366 -0.5365 -0.4888
  686MPD2    H710155   0.258   2.257  16.080 -1.5470 -0.4236 -0.5856
  687TMC3    C110156   0.228   1.766  15.767 -0.2060 -0.4375  0.1004
  687TMC3    C210157   0.114   1.840  15.755  0.3968 -0.0381 -0.0881
  687TMC3    C310158   0.020   1.818  15.850  0.6473  0.6108  0.1108
  687TMC3    C410159   0.258   1.668  15.854 -0.1757 -0.2012 -0.1928
  687TMC3    C510160   0.155   1.634  15.937 -0.3902 -0.0382 -0.8119
  687TMC3    C610161   0.040   1.710  15.944  0.1626 -0.4187 -0.0645
  687TMC3     C10162   0.333   1.784  15.661 -0.2318 -0.2515  0.5554
  687TMC3     O10163   0.394   1.685  15.622  0.2136  0.3673 -0.0377
  687TMC3     H10164   0.104   1.911  15.673  0.4510 -1.3673 -1.2392
  687TMC3    H110165   0.354   1.620  15.861  0.4021  1.2497  1.8690
  687TMC3    H210166   4.695   1.686  16.026 -0.4956 -1.3268 -0.8647
  687TMC3    C710167   0.202   1.571  16.063  0.4272  0.4012  0.5128
  687TMC3    C810168   4.648   1.923  15.889 -0.2506  0.3802 -0.0213
  687TMC3    O110169   0.149   1.468  16.104  0.6240  0.4570  0.4581
  687TMC3    O210170   4.567   1.899  15.972  0.3600  0.3179 -0.1286
  688MPD2     C10171   4.210   1.107  17.405 -0.2554 -0.7258  0.7584
  688MPD2    C110172   4.238   0.983  17.464 -0.5329  0.0026 -0.1183
  688MPD2    C210173   4.351   0.905  17.417 -0.4679 -0.2342  0.1593
  688MPD2    C310174   4.421   0.954  17.304 -0.1612 -0.1511 -0.4916
  688MPD2    C410175   4.377   1.073  17.248 -0.3678 -0.0853  0.3667
  688MPD2    C510176   4.276   1.149  17.293  0.0317 -0.4179 -0.5240
  688MPD2     H10177   4.375   0.809  17.461 -0.6120 -0.0364  0.6711
  688MPD2    H110178   4.433   1.122  17.170 -0.9993  0.3716  0.1968
  688MPD2    H210179   4.146   1.178  17.455 -0.1306 -0.4405  0.5118
  688MPD2    H310180   4.249   1.240  17.241  1.9763  0.6341  0.3094
  688MPD2     N10181   4.531   0.885  17.235  0.8419 -0.5733 -0.3596
  688MPD2    H510182   4.566   0.917  17.145 -0.1735  2.7942  0.4426
  688MPD2    N110183   4.175   0.932  17.580  0.3626  0.3831  0.3541
  688MPD2    H710184   4.194   0.834  17.597  0.3026  0.7807  2.6090
  689TMC3    C110185   4.037   0.955   0.095 -0.2216  0.0468 -0.7730
  689TMC3    C210186   3.971   1.045   0.171  1.0511  0.0809 -0.2524
  689TMC3    C310187   3.957   1.016   0.301 -0.2205  0.0399 -0.2922
  689TMC3    C410188   4.095   0.844   0.155  0.4499 -0.2678  1.1819
  689TMC3    C510189   4.069   0.816   0.289 -0.3728  0.6345 -0.1014
  689TMC3    C610190   3.996   0.902   0.362  0.8752  0.1207  0.4889
  689TMC3     C10191   4.079   1.003  17.653  0.3933 -0.0361  0.5897
  689TMC3     O10192   4.029   1.113  17.624 -0.2113 -0.0556 -0.1239
  689TMC3     H10193   3.921   1.132   0.129  0.7288 -1.5143 -3.1561
  689TMC3    H110194   4.153   0.770   0.100  1.4733  0.3429  1.4475
  689TMC3    H210195   3.957   0.872   0.458 -1.6531 -0.9394 -0.8466
  689TMC3    C710196   4.034   0.680   0.319  0.4774 -0.2571 -0.2518
  689TMC3    C810197   3.931   1.128   0.393  0.2722 -0.7074 -0.8535
  689TMC3    O110198   4.044   0.649   0.434 -0.0223  0.3549 -0.1617
  689TMC3    O210199   3.904   1.099   0.508 -0.1451 -0.0728 -0.1798
  690MPD2     C10200   1.742   2.497  15.989 -0.2634  1.0714 -0.5253
  690MPD2    C110201   1.691   2.608  15.921 -0.8355  0.0680  0.2631
  690MPD2    C210202   1.786   2.708  15.889 -0.0789 -0.3880 -0.2136
  690MPD2    C310203   1.920   2.695  15.919  0.0592  0.2713  0.4959
  690MPD2    C410204   1.968   2.587  15.984  0.1944 -0.3619 -0.0840
  690MPD2    C510205   1.876   2.496  16.027  0.3091  0.0071  0.5315
  690MPD2     H10206   1.749   2.794  15.835 -0.0685 -0.0066  0.3807
  690MPD2    H110207   2.069   2.576  16.021  0.2460  0.9156  0.1703
  690MPD2    H210208   1.692   2.411  16.032  0.5827  1.8090  1.8949
  690MPD2    H310209   1.902   2.414  16.093  0.7504  1.7631  2.5157
  690MPD2     N10210   2.005   2.802  15.878  0.4021 -0.4036 -0.1722
  690MPD2    H510211   1.964   2.878  15.825  1.2966  0.8798  0.9939
  690MPD2    N110212   1.559   2.609  15.875 -0.7249 -0.5279 -0.4690
  690MPD2    H710213   1.529   2.688  15.819 -3.7430 -0.7544  0.8731
  691TMC3    C110214   1.361   2.507  15.793  0.6896 -0.8464 -0.1880
  691TMC3    C210215   1.241   2.525  15.858 -0.2547 -0.6091 -0.1023
  691TMC3    C310216   1.137   2.449  15.810 -0.4003 -0.1643  0.0464
  691TMC3    C410217   1.375   2.408  15.696  0.6885 -0.1369 -0.4662
  691TMC3    C510218   1.270   2.326  15.666  0.4801 -0.1443  0.0220
  691TMC3    C610219   1.149   2.339  15.728 -0.2860  0.1202 -1.2958
  691TMC3     C10220   1.479   2.500  15.878  0.8773 -0.3310 -0.7935
  691TMC3     O10221   1.506   2.385  15.903  0.1485 -0.0747  0.6510
  691TMC3     H10222   1.232   2.571  15.956 -0.0562  0.4154 -0.5732
  691TMC3    H110223   1.478   2.397  15.664  0.7400  1.2264 -0.7775
  691TMC3    H210224   1.067   2.284  15.683 -0.1544 -1.4961  0.4394
  691TMC3    C710225   1.295   2.207  15.582 -0.9409 -0.8546 -0.6405
  691TMC3    C810226   0.995   2.450  15.870  0.0033  1.4564 -0.2990
  691TMC3    O110227   1.399   2.198  15.523 -0.1671  0.6054 -0.1012
  691TMC3    O210228   0.921   2.356  15.855 -0.3912 -0.1017  0.1702
  692TMC3    C110229   3.490   4.012  16.402  0.8932 -0.0712  0.7931
  692TMC3    C210230   3.606   4.028  16.483 -0.3460  0.3037 -1.1463
  692TMC3    C310231   3.701   3.928  16.490  0.0727  0.1454 -0.2173
  692TMC3    C410232   3.479   3.910  16.313  0.7171  0.5391 -0.3548
  692TMC3    C510233   3.581   3.815  16.314  0.4592 -0.2334  0.3979
  692TMC3    C610234   3.693   3.826  16.397  0.5684 -0.3398 -0.5061
  692TMC3     C10235   3.379   4.104  16.417 -0.2478  0.4694 -0.0818
  692TMC3     O10236   3.273   4.065  16.367 -0.0744 -0.6329  0.1460
  692TMC3     H10237   3.599   4.099  16.564  0.8817 -1.1063  0.1702
  692TMC3    H110238   3.394   3.895  16.246  1.7984 -0.9285 -1.3902
  692TMC3    H210239   3.779   3.761  16.384  2.0387  1.5333 -0.1054
  692TMC3    C710240   3.542   3.692  16.272  0.4277 -0.5391 -0.4184
  692TMC3    C810241   3.738   3.881  16.621 -0.4819  0.3573 -0.0803
  692TMC3    O110242   3.456   3.679  16.182 -0.0863 -0.5700  0.2254
  692TMC3    O210243   3.764   3.764  16.632 -0.0203 -1.0034 -0.0409
  693MPD2     C10244   2.453   1.964  11.245 -0.2321  0.6756  0.5107
  693MPD2    C110245   2.465   1.863  11.150 -0.2503 -0.3233  0.1551
  693MPD2    C210246   2.589   1.820  11.093 -0.2604 -0.4110 -0.3989
  693MPD2    C310247   2.702   1.883  11.140 -0.4599  0.0039  0.7451
  693MPD2    C410248   2.691   1.984  11.235  0.5380  0.4321 -0.5502
  693MPD2    C510249   2.573   2.015  11.299 -0.6748 -0.0729 -0.3877
  693MPD2     H10250   2.595   1.742  11.018  0.1568 -0.1408 -0.6439
  693MPD2    H110251   2.777   2.041  11.269  1.1489 -0.6970 -0.2248
  693MPD2    H210252   2.358   1.993  11.286 -0.3979 -0.5440  0.9786
  693MPD2    H310253   2.581   2.080  11.386  0.2393 -1.3046  0.4576
  693MPD2     N10254   2.837   1.851  11.094  0.0379 -0.4107 -0.1970
  693MPD2    H510255   2.917   1.900  11.133 -0.9696  0.2141  1.1120
  693MPD2    N110256   2.345   1.798  11.112  0.0994  0.2887  0.3988
  693MPD2    H710257   2.267   1.824  11.172 -1.2143  0.4027 -1.3762
  694TMC3    C110258   2.203   1.642  11.008  0.1471  0.1954  0.1781
  694TMC3    C210259   2.154   1.584  10.892 -0.1241 -0.2187 -0.0721
  694TMC3    C310260   2.060   1.485  10.906 -0.0522  0.3270  0.0119
  694TMC3    C410261   2.147   1.619  11.134  0.9243  0.2125  0.6644
  694TMC3    C510262   2.061   1.511  11.142  0.1654  0.0243 -0.2907
  694TMC3    C610263   2.012   1.447  11.030 -0.1453 -0.9061 -0.3606
  694TMC3     C10264   2.326   1.715  11.003  0.0019 -0.1251 -0.5269
  694TMC3     O10265   2.397   1.711  10.901  0.4600 -0.3929 -0.1557
  694TMC3     H10266   2.203   1.611  10.799 -1.0925  1.2321 -0.1528
  694TMC3    H110267   2.179   1.663  11.228 -0.2739  0.6557  0.8720
  694TMC3    H210268   1.931   1.376  11.043 -0.8356 -0.2189 -0.9135
  694TMC3    C710269   2.071   1.442  11.274  0.0444  0.2211 -0.4453
  694TMC3    C810270   1.972   1.434  10.794 -0.3824 -0.2007 -0.0075
  694TMC3    O110271   2.158   1.477  11.354 -0.0949  0.1778  0.3536
  694TMC3    O210272   1.929   1.320  10.810  0.1555 -0.0870  0.3716
  695MPD2     C10273   3.470   3.523  14.178 -0.3655  0.1149 -0.1205
  695MPD2    C110274   3.413   3.479  14.293  0.2012  0.2056 -0.0608
  695MPD2    C210275   3.277   3.449  14.297  0.1397  0.5284 -0.2568
  695MPD2    C310276   3.195   3.480  14.192 -0.1892 -0.3365  0.1133
  695MPD2    C410277   3.256   3.509  14.073 -0.0066  0.0538 -0.3421
  695MPD2    C510278   3.392   3.533  14.070 -0.2159  0.1393 -0.0686
  695MPD2     H10279   3.229   3.402  14.382  1.0830 -0.6561 -0.3686
  695MPD2    H110280   3.207   3.513  13.976 -0.1578  1.0663 -0.2205
  695MPD2    H210281   3.574   3.549  14.164 -0.1296 -1.3033 -1.0862
  695MPD2    H310282   3.416   3.565  13.969  0.3650  3.1411  1.0408
  695MPD2     N10283   3.055   3.460  14.201  0.3100  0.4607  0.2396
  695MPD2    H510284   3.025   3.409  14.283  1.7768  0.2970  0.6791
  695MPD2    N110285   3.497   3.452  14.399 -0.2932  0.1865  0.9368
  695MPD2    H710286   3.455   3.402  14.477  1.3123  1.6355  2.7447
  696TMC3    C110287   2.823   3.466  14.134 -0.1613 -0.1990  0.3169
  696TMC3    C210288   2.772   3.392  14.240  0.3965  0.8804  0.2493
  696TMC3    C310289   2.639   3.379  14.252  0.5780 -0.2500 -0.3962
  696TMC3    C410290   2.736   3.541  14.061  0.2787  0.6105  0.2124
  696TMC3    C510291   2.601   3.541  14.095  0.4882  0.3943 -0.3388
  696TMC3    C610292   2.553   3.449  14.179 -0.4387 -0.7049  0.7414
  696TMC3     C10293   2.960   3.508  14.109  0.0490 -0.4247  0.0549
  696TMC3     O10294   2.975   3.580  14.008 -0.0806 -0.1489 -0.3233
  696TMC3     H10295   2.831   3.340  14.314 -0.2156  1.8898  1.4534
  696TMC3    H110296   2.766   3.616  13.989 -0.1519  1.1797  0.6159
  696TMC3    H210297   2.446   3.434  14.188 -0.8850  1.6642 -0.8228
  696TMC3    C710298   2.534   3.664  14.084 -0.2082  0.1008  0.5499
  696TMC3    C810299   2.580   3.313  14.365 -0.3807  0.1250 -0.4545
  696TMC3    O110300   2.414   3.665  14.051 -0.3143  0.0275 -0.2319
  696TMC3    O210301   2.473   3.265  14.326 -0.3877  0.4538 -0.7170
  697MPD2     C10302   2.632   0.703  15.743 -0.6929  0.0842  0.3437
  697MPD2    C110303   2.681   0.670  15.615 -0.1756 -0.5735 -0.0417
  697MPD2    C210304   2.712   0.769  15.524  0.4071  0.2038 -0.1087
  697MPD2    C310305   2.677   0.901  15.554  0.3376  0.1465 -0.3984
  697MPD2    C410306   2.601   0.921  15.668  0.9241  0.3821  0.2394
  697MPD2    C510307   2.578   0.826  15.761  0.1164 -0.0208  0.6435
  697MPD2     H10308   2.767   0.742  15.435 -0.6857  1.5051 -1.1925
  697MPD2    H110309   2.552   1.014  15.692  0.7876  0.5802 -0.7923
  697MPD2    H210310   2.636   0.633  15.826 -1.8069 -1.3222 -0.7860
  697MPD2    H310311   2.513   0.857  15.841 -0.6778  0.7964 -0.3258
  697MPD2     N10312   2.713   1.000  15.460 -0.1653  0.1861  0.2288
  697MPD2    H510313   2.775   0.971  15.384 -0.8512  0.3129 -0.3732
  697MPD2    N110314   2.698   0.532  15.573 -0.1031 -0.0675 -0.4433
  697MPD2    H710315   2.715   0.519  15.474  1.7603  1.4510 -0.3232
  698TMC3    C110316   2.746   1.220  15.365 -0.0272  0.6218  0.0214
  698TMC3    C210317   2.780   1.337  15.417 -0.2117  0.1958  0.3945
  698TMC3    C310318   2.901   1.390  15.374  0.8415 -0.3580  0.4383
  698TMC3    C410319   2.811   1.164  15.254 -0.0086 -0.4970  0.5331
  698TMC3    C510320   2.928   1.230  15.212  0.4586  0.0968 -0.2961
  698TMC3    C610321   2.976   1.347  15.268 -0.5026  0.1882  0.5216
  698TMC3     C10322   2.679   1.136  15.461 -0.1009  0.5769  1.2357
  698TMC3     O10323   2.621   1.201  15.550  0.0245  0.6419  0.6851
  698TMC3     H10324   2.727   1.390  15.495  0.3592 -0.0938  0.9820
  698TMC3    H110325   2.760   1.085  15.201 -0.1442 -0.9245  1.3118
  698TMC3    H210326   3.057   1.409  15.229  0.1197 -1.0745 -0.1973
  698TMC3    C710327   2.970   1.195  15.076  0.9513 -0.6502  0.0077
  698TMC3    C810328   2.963   1.482  15.470  0.2283  0.3051 -0.4649
  698TMC3    O110329   2.899   1.115  15.020 -0.4112  0.4006  0.0450
  698TMC3    O210330   2.893   1.516  15.567  0.3598  0.5171  0.3728
  699TMC3    C110331   2.752   3.524  13.317  0.4146  0.0791  0.1691
  699TMC3    C210332   2.807   3.464  13.428  0.3244  0.2574  0.2750
  699TMC3    C310333   2.727   3.445  13.543 -0.5891 -0.6239  0.2418
  699TMC3    C410334   2.618   3.555  13.325  0.9830  0.2627 -0.6823
  699TMC3    C510335   2.544   3.533  13.437 -1.1254  0.2494 -0.3092
  699TMC3    C610336   2.600   3.495  13.550 -0.2851  0.5924  0.2241
  699TMC3     C10337   2.828   3.587  13.209 -0.1471  1.1636 -0.2865
  699TMC3     O10338   2.761   3.608  13.112 -0.0571  0.0507 -0.1742
  699TMC3     H10339   2.910   3.433  13.418  0.1681  0.7202 -2.7413
  699TMC3    H110340   2.569   3.599  13.239  0.2390 -1.6234 -1.2231
  699TMC3    H210341   2.541   3.477  13.640 -0.0765  0.5217  0.3472
  699TMC3    C710342   2.405   3.566  13.449 -0.1529 -0.1657 -0.1566
  699TMC3    C810343   2.773   3.347  13.644  0.5556  1.0817 -0.0832
  699TMC3    O110344   2.362   3.604  13.555  0.4891 -0.3398  0.0708
  699TMC3    O210345   2.686   3.271  13.682 -0.4182  0.5320 -0.6274
  700TMC3    C110346   2.025   1.369  17.290 -0.2660 -0.0837  0.3243
  700TMC3    C210347   2.118   1.267  17.294 -0.8718  0.2059  0.4153
  700TMC3    C310348   2.225   1.286  17.367 -0.5456  0.1596  0.1715
  700TMC3    C410349   2.027   1.484  17.364  0.7490 -0.0573  0.4638
  700TMC3    C510350   2.133   1.495  17.443  0.3768 -0.0858 -0.0500
  700TMC3    C610351   2.238   1.403  17.443  0.1743 -0.8364 -0.2210
  700TMC3     C10352   1.951   1.383  17.167 -0.7545  0.4284 -0.2842
  700TMC3     O10353   1.928   1.278  17.104 -0.1428 -0.0894  0.5615
  700TMC3     H10354   2.107   1.176  17.236  1.9330  0.5969 -0.7612
  700TMC3    H110355   1.951   1.561  17.352 -0.6396 -1.4507  0.3740
  700TMC3    H210356   2.319   1.422  17.512 -0.3277 -0.0453  0.1416
  700TMC3    C710357   2.140   1.610  17.542 -0.1867 -0.3327 -0.1637
  700TMC3    C810358   2.344   1.216  17.328  0.4053  0.3766  0.2742
  700TMC3    O110359   2.254   1.636  17.582  0.0203 -0.2654  0.5253
  700TMC3    O210360   2.338   1.157  17.221  0.0169  0.2210 -0.3252
  701TMC3    C110361   1.943   4.604  15.606  0.3687  0.1514 -0.3363
  701TMC3    C210362   1.959   4.532  15.495 -0.0290  0.8994 -0.5863
  701TMC3    C310363   2.067   4.566  15.416 -0.1343 -0.0673 -1.0678
  701TMC3    C410364   2.032   4.698  15.649 -0.6344  0.5218 -0.5272
  701TMC3    C510365   2.147   4.715  15.573 -0.6309 -0.1821  0.2858
  701TMC3    C610366   2.162   4.659  15.449  0.5989  0.5646 -0.5229
  701TMC3     C10367   1.843   4.556  15.701  0.0697  0.1909 -0.1621
  701TMC3     O10368   1.808   4.438  15.697 -0.0297  0.2456 -0.4890
  701TMC3     H10369   1.896   4.445  15.483  0.3344  0.8208 -2.0020
  701TMC3    H110370   2.009   0.037  15.736  0.1833  0.3778 -0.2059
  701TMC3    H210371   2.244   4.673  15.380  0.7362  1.3981 -0.1801
  701TMC3    C710372   2.209   0.124  15.574 -0.3417 -0.0557  0.2242
  701TMC3    C810373   2.104   4.455  15.325 -0.0603  0.9207  0.6826
  701TMC3    O110374   2.229   0.174  15.463  0.1291  0.8396 -0.9389
  701TMC3    O210375   2.217   4.405  15.325 -0.1317  0.2173  0.2248
  702MPD2     C10376   1.839   2.380  10.430 -0.9126  0.7098  0.0039
  702MPD2    C110377   1.805   2.493  10.497 -0.2682  0.3781 -0.1517
  702MPD2    C210378   1.886   2.602  10.479  0.2566 -0.7422 -0.0809
  702MPD2    C310379   2.006   2.600  10.399  0.0870 -0.2737  0.0082
  702MPD2    C410380   2.042   2.478  10.344 -0.4441  0.0432 -0.2339
  702MPD2    C510381   1.955   2.373  10.361 -0.4868  0.0948  0.3122
  702MPD2     H10382   1.848   2.691  10.528 -0.5974 -0.4823 -1.2115
  702MPD2    H110383   2.136   2.472  10.290  1.1685  1.4383  2.3706
  702MPD2    H210384   1.777   2.292  10.433  1.9117 -1.3380 -1.9313
  702MPD2    H310385   1.971   2.276  10.316 -2.4535  0.2869 -0.7823
  702MPD2     N10386   2.089   2.713  10.391 -0.3480 -0.4595  0.3480
  702MPD2    H510387   2.055   2.794  10.441  1.2791 -1.8780  3.7709
  702MPD2    N110388   1.703   2.499  10.594  0.4858  0.2438  0.4382
  702MPD2    H710389   1.707   2.580  10.656 -3.0746  1.7024 -1.2804
  703TMC3    C110390   2.259   2.862  10.349  0.6699 -0.0549 -0.5420
  703TMC3    C210391   2.201   2.939  10.448  1.0522  0.0578 -0.5262
  703TMC3    C310392   2.245   3.068  10.457 -0.3947  0.2599  0.0550
  703TMC3    C410393   2.356   2.909  10.265 -0.4375 -0.0829 -0.0355
  703TMC3    C510394   2.394   3.039  10.275  0.2615 -0.4413  1.1905
  703TMC3    C610395   2.337   3.118  10.372  0.2679 -0.0618 -0.0120
  703TMC3     C10396   2.200   2.728  10.311  0.1625  0.9023  0.4644
  703TMC3     O10397   2.251   2.653  10.224  0.2950 -0.2709  0.4817
  703TMC3     H10398   2.140   2.895  10.526  0.1054 -0.3791 -1.5035
  703TMC3    H110399   2.404   2.842  10.194 -0.1600 -0.2940  0.3493
  703TMC3    H210400   2.352   3.226  10.374  0.7826 -0.1598  1.3575
  703TMC3    C710401   2.518   3.090  10.208  0.5586  0.3025 -1.1136
  703TMC3    C810402   2.154   3.153  10.534 -0.0895 -0.1850 -0.3415
  703TMC3    O110403   2.566   3.195  10.248 -0.0283  0.0446  0.1019
  703TMC3    O210404   2.206   3.250  10.592 -0.4316 -0.8204  0.1189
  704TMC3    C110405   0.022   0.906  12.718 -0.0089  0.1552 -0.6722
  704TMC3    C210406   0.095   0.881  12.606 -0.1210 -0.6600  0.2218
  704TMC3    C310407   0.205   0.803  12.608 -0.3470  0.1245  0.0699
  704TMC3    C410408   0.069   0.863  12.838  0.1591  0.0113  0.5951
  704TMC3    C510409   0.172   0.768  12.835  1.0327 -0.9380 -0.2831
  704TMC3    C610410   0.243   0.739  12.725  0.4885  0.1624 -0.4589
  704TMC3     C10411   4.601   0.900  12.698  0.1142 -0.4939 -0.0741
  704TMC3     O10412   4.526   0.914  12.795 -1.1623  0.0788 -0.7542
  704TMC3     H10413   0.074   0.943  12.520  1.0402  1.7659  1.7026
  704TMC3    H110414   0.025   0.876  12.936 -0.6034  1.0972  0.0994
  704TMC3    H210415   0.327   0.669  12.723 -0.3701 -0.9235  1.1766
  704TMC3    C710416   0.233   0.727  12.958  0.4571 -0.8058 -0.3031
  704TMC3    C810417   0.270   0.776  12.480 -0.6031  0.0483  0.6152
  704TMC3    O110418   0.347   0.756  12.975  0.0265 -0.3047  0.1014
  704TMC3    O210419   0.194   0.784  12.385 -0.3043 -0.1125 -0.3547
  705MPD2     C10420   3.882   3.464  17.309 -0.1108 -0.8056 -0.4203
  705MPD2    C110421   3.842   3.495  17.182 -0.6916 -0.1402  0.2850
  705MPD2    C210422   3.713   3.515  17.158 -0.2382  0.5409  0.1572
  705MPD2    C310423   3.616   3.494  17.258  0.5335  0.7811  0.5077
  705MPD2    C410424   3.660   3.462  17.384 -0.3660  0.7742  0.3128
  705MPD2    C510425   3.789   3.444  17.402 -0.6350  0.4200  0.1453
  705MPD2     H10426   3.677   3.536  17.058  1.5277 -0.0423 -0.5894
  705MPD2    H110427   3.594   3.446  17.469  1.3804  1.0716  1.7242
  705MPD2    H210428   3.985   3.437  17.331  0.1412  0.7187  0.2653
  705MPD2    H310429   3.821   3.397  17.494  0.1270  0.0880 -0.2859
  705MPD2     N10430   3.477   3.523  17.231  0.0693  0.1885  0.0170
  705MPD2    H510431   3.417   3.533  17.312 -0.8046  0.7741 -0.7181
  705MPD2    N110432   3.932   3.510  17.080 -1.2822 -0.1581  0.3869
  705MPD2    H710433   3.885   3.549  17.000  1.6295 -1.7486 -2.0784
  706TMC3    C110434   4.151   3.346  16.735  0.2958 -0.3656  0.0330
  706TMC3    C210435   4.118   3.451  16.657  0.6522  0.1903 -0.3223
  706TMC3    C310436   4.096   3.572  16.718  0.0384  0.0540  0.5879
  706TMC3    C410437   4.162   3.359  16.869 -0.4043  0.0027 -0.3400
  706TMC3    C510438   4.125   3.475  16.930  0.5623 -0.0366  0.1599
  706TMC3    C610439   4.090   3.583  16.854 -0.6231  0.3321 -0.3808
  706TMC3     C10440   4.156   3.203  16.687  0.4908 -1.0099  0.1843
  706TMC3     O10441   4.174   3.122  16.773 -0.2213  0.2517  0.1818
  706TMC3     H10442   4.114   3.439  16.549 -1.6541  1.0253 -0.3339
  706TMC3    H110443   4.187   3.271  16.928 -0.1039  1.3483  1.5478
  706TMC3    H210444   4.060   3.678  16.898 -1.2464 -0.4309  0.8626
  706TMC3    C710445   4.064   3.462  17.068  0.1076  0.5704 -0.0565
  706TMC3    C810446   4.126   3.692  16.648  1.0182 -0.1618  1.0042
  706TMC3    O110447   4.119   3.387  17.149  0.1562  0.0071  0.0555
  706TMC3    O210448   4.073   3.706  16.535  0.4415 -0.2943  0.3995
  707TMC3    C110449   0.892   2.930   1.509  0.3895 -0.3456 -0.0907
  707TMC3    C210450   0.979   2.871   1.592 -0.1713 -0.1545 -0.2060
  707TMC3    C310451   0.935   2.848   1.718 -0.3793 -0.3955  0.0519
  707TMC3    C410452   0.763   2.962   1.542  0.2370 -0.5265  0.2378
  707TMC3    C510453   0.725   2.944   1.675 -0.1324  0.1750 -0.5422
  707TMC3    C610454   0.808   2.882   1.765  0.2925  0.7387  0.2059
  707TMC3     C10455   0.943   2.950   1.374 -0.9516  0.3897 -1.0408
  707TMC3     O10456   1.064   2.954   1.356  0.1767 -0.9300 -0.1963
  707TMC3     H10457   1.072   2.832   1.553 -0.7938 -1.7664 -0.0512
  707TMC3    H110458   0.689   2.989   1.468  1.7827  0.1992 -1.0403
  707TMC3    H210459   0.788   2.871   1.871 -3.1949 -0.1601 -0.5541
  707TMC3    C710460   0.585   2.972   1.700  0.6084  0.2112 -0.2898
  707TMC3    C810461   1.025   2.771   1.811  0.0155 -0.7685  0.3354
  707TMC3    O110462   0.510   2.983   1.604 -0.1468  0.1433  0.0079
  707TMC3    O210463   1.009   2.779   1.933 -0.1593 -0.2558  0.3969
  708MPD2     C10464   1.749   2.016  13.904 -0.4379  0.1034  0.3268
  708MPD2    C110465   1.671   1.907  13.936 -0.0993 -0.0720  0.6160
  708MPD2    C210466   1.733   1.815  14.023 -0.2637  0.0521 -0.3655
  708MPD2    C310467   1.859   1.825  14.080  0.1150 -0.6625 -0.4607
  708MPD2    C410468   1.933   1.934  14.037  0.8103  0.3214 -0.2400
  708MPD2    C510469   1.887   2.018  13.939 -0.2751  0.5300 -0.5383
  708MPD2     H10470   1.679   1.724  14.048 -0.3557  0.5119  1.0662
  708MPD2    H110471   2.035   1.936  14.073  0.2194  2.5628  1.3374
  708MPD2    H210472   1.703   2.093  13.843 -0.9713 -0.3360  0.1809
  708MPD2    H310473   1.966   2.084  13.907  0.1410  0.5032  0.4116
  708MPD2     N10474   1.912   1.734  14.170  0.1024  0.5414 -0.3483
  708MPD2    H510475   1.991   1.769  14.223  1.1555  1.3646 -2.4492
  708MPD2    N110476   1.538   1.899  13.888 -0.2977  0.1246  0.2331
  708MPD2    H710477   1.508   1.963  13.815  1.6484  1.0222  0.2104
  709TMC3    C110478   1.311   1.835  13.886 -0.4580  0.7235  1.2401
  709TMC3    C210479   1.281   1.958  13.832 -0.5202 -0.1299  0.5080
  709TMC3    C310480   1.162   2.020  13.863 -0.7614  0.1112  0.7105
  709TMC3    C410481   1.212   1.771  13.960  0.0932  0.6717 -0.1247
  709TMC3    C510482   1.102   1.849  14.005 -0.0296 -0.2632  0.0742
  709TMC3    C610483   1.073   1.964  13.944 -0.3456 -0.2259 -0.1933
  709TMC3     C10484   1.447   1.804  13.930 -0.3580  0.0386  0.3387
  709TMC3     O10485   1.453   1.721  14.022  0.3606 -0.0885 -0.1231
  709TMC3     H10486   1.352   2.017  13.775 -2.2219  0.4602 -0.9687
  709TMC3    H110487   1.218   1.674  14.006  0.1981  0.0824 -1.3750
  709TMC3    H210488   0.987   2.022  13.974 -0.9129 -1.1061 -0.1406
  709TMC3    C710489   1.121   1.872  14.148 -0.5800 -0.4633 -0.1025
  709TMC3    C810490   1.106   2.129  13.778  0.0918  0.1881 -0.2326
  709TMC3    O110491   1.052   1.958  14.198 -0.0554  0.6063 -0.4444
  709TMC3    O210492   0.982   2.132  13.766  0.4925  0.3077 -0.0223
  710TMC3    C110493   2.806   3.443   0.916  0.0574 -0.0227 -0.6190
  710TMC3    C210494   2.855   3.455   0.787  0.3063 -0.0914  0.1444
  710TMC3    C310495   2.988   3.430   0.778  0.1203  1.0336  0.3160
  710TMC3    C410496   2.877   3.415   1.027 -0.6301 -0.0419  0.5520
  710TMC3    C510497   3.014   3.389   1.010 -0.9869  0.4972 -0.2238
  710TMC3    C610498   3.069   3.399   0.885  0.2222 -0.0631  0.1809
  710TMC3     C10499   2.667   3.481   0.935  0.0037  0.4214  0.3741
  710TMC3     O10500   2.599   3.436   0.843 -0.2204  0.4316  0.4627
  710TMC3     H10501   2.788   3.490   0.710  0.5103 -0.6910 -0.3023
  710TMC3    H110502   2.826   3.403   1.122 -3.6809  2.8789 -0.7196
  710TMC3    H210503   3.173   3.368   0.876  0.0526 -0.8853  1.0975
  710TMC3    C710504   3.053   3.281   1.088 -1.2575  0.0747  0.3363
  710TMC3    C810505   3.046   3.451   0.640 -0.0090 -0.4190  0.1681
  710TMC3    O110506   2.973   3.216   1.153  0.5031 -0.1812 -0.3670
  710TMC3    O210507   2.963   3.476   0.549 -0.5155  0.0315  0.0881
  711TMC3    C110508   3.247   4.533  15.264  0.8124 -0.1160  0.6869
  711TMC3    C210509   3.259   4.585  15.388 -0.2720 -0.5088  0.2083
  711TMC3    C310510   3.361   4.556  15.475  0.2562 -0.3371 -0.1201
  711TMC3    C410511   3.345   4.458  15.209  0.5023  0.1700 -0.0342
  711TMC3    C510512   3.440   4.420  15.299  0.5665  0.8110 -0.4349
  711TMC3    C610513   3.452   4.470  15.425  0.2462  0.7921 -0.5277
  711TMC3     C10514   3.117   4.461  15.247  0.0505 -0.3782  0.2312
  711TMC3     O10515   3.113   4.386  15.151  0.0141  0.3989 -0.6647
  711TMC3     H10516   3.178   4.646  15.426 -0.5611 -1.1702  0.6537
  711TMC3    H110517   3.340   4.397  15.120 -2.0833  0.2853  0.0177
  711TMC3    H210518   3.526   4.422  15.488 -0.3621 -1.9702 -1.9098
  711TMC3    C710519   3.447   4.273  15.312 -0.1447  0.0146  0.6609
  711TMC3    C810520   3.333   4.563  15.617  0.4892  0.1575  0.2641
  711TMC3    O110521   3.533   4.231  15.386  0.1957  0.0270 -0.3703
  711TMC3    O210522   3.213   4.574  15.645  0.3071 -0.4885  0.1978
  712MPD2     C10523   4.454   0.385  14.118  0.0224  0.2149 -0.4884
  712MPD2    C110524   4.358   0.402  14.025 -0.4792 -0.1176  0.1659
  712MPD2    C210525   4.336   0.526  13.959 -0.2512  0.7454  0.2863
  712MPD2    C310526   4.430   0.632  13.983  0.7032  0.2801 -0.1321
  712MPD2    C410527   4.530   0.613  14.080 -0.1105 -0.3193 -0.1757
  712MPD2    C510528   4.535   0.494  14.148  0.4276  0.2365 -0.4014
  712MPD2     H10529   4.269   0.545  13.877 -1.1607 -0.7691  0.6819
  712MPD2    H110530   4.597   0.696  14.094  2.8995 -2.8839  0.6566
  712MPD2    H210531   4.468   0.294  14.176  1.7933 -0.4921 -2.0317
  712MPD2    H310532   4.606   0.473  14.228 -0.3436  0.8952  0.4517
  712MPD2     N10533   4.416   0.763  13.930 -0.0093  0.7470  0.8139
  712MPD2    H510534   4.490   0.832  13.937  0.9898 -0.4751  2.0705
  712MPD2    N110535   4.273   0.296  14.004 -0.4014  0.2398 -0.3615
  712MPD2    H710536   4.303   0.207  14.044 -1.3085 -0.0640 -0.3538
  713TMC3    C110537   4.316   0.948  13.813 -0.1524 -0.2766 -0.3475
  713TMC3    C210538   4.438   0.996  13.795 -0.2094 -0.3926  0.1146
  713TMC3    C310539   4.446   1.114  13.721  0.6059  0.6095  0.1415
  713TMC3    C410540   4.204   1.029  13.800 -0.0047  0.5930 -0.4446
  713TMC3    C510541   4.223   1.150  13.752 -0.4828  1.4352  0.7622
  713TMC3    C610542   4.344   1.198  13.704  0.4335 -0.0390 -0.5355
  713TMC3     C10543   4.304   0.814  13.868 -0.5661  0.1812 -0.2010
  713TMC3     O10544   4.197   0.759  13.851  0.3725 -0.0229  0.4822
  713TMC3     H10545   4.523   0.929  13.782  1.0890  1.1279  0.7528
  713TMC3    H110546   4.106   0.997  13.835  1.5043 -1.3156  2.0173
  713TMC3    H210547   4.363   1.293  13.656 -1.2991 -0.3934 -1.9231
  713TMC3    C710548   4.104   1.240  13.768  0.1024 -1.3037  0.2117
  713TMC3    C810549   4.580   1.164  13.674  0.4962 -0.2170 -0.2752
  713TMC3    O110550   4.041   1.241  13.873  0.4883  0.0615 -0.2805
  713TMC3    O210551   4.574   1.237  13.578  0.5263  0.4353  0.5240
  714MPD2     C10552   1.518   4.671   1.735  0.8403  0.0049 -0.4041
  714MPD2    C110553   1.533   4.544   1.692 -0.1606 -0.2666  0.4260
  714MPD2    C210554   1.430   4.480   1.623  0.6797 -0.9614 -0.0128
  714MPD2    C310555   1.315   4.549   1.593  0.0900  1.2846 -0.4623
  714MPD2    C410556   1.290   4.675   1.640 -0.9661 -0.2486 -0.4429
  714MPD2    C510557   1.395   0.004   1.714  0.0935  0.3271 -0.3517
  714MPD2     H10558   1.437   4.381   1.581  0.4065 -0.5920 -0.9241
  714MPD2    H110559   1.205   0.021   1.628 -1.2784 -0.0110  3.0835
  714MPD2    H210560   1.589   0.007   1.793 -0.8791  2.0166 -0.3138
  714MPD2    H310561   1.399   0.105   1.754  0.1343 -0.7344  2.3103
  714MPD2     N10562   1.213   4.489   1.520 -0.0028  0.4532 -0.0112
  714MPD2    H510563   1.233   4.398   1.480  0.9751  1.1643 -1.1548
  714MPD2    N110564   1.651   4.483   1.732  0.5661  0.0362  0.5941
  714MPD2    H710565   1.696   4.542   1.802  0.3428  0.8140  0.0786
  715TMC3    C110566   1.837   4.329   1.751 -0.1895  0.6019  0.0679
  715TMC3    C210567   1.882   4.202   1.737  0.0284  0.1113  0.3933
  715TMC3    C310568   2.017   4.183   1.767 -0.8897 -0.2196 -0.7723
  715TMC3    C410569   1.923   4.432   1.767  0.2893  0.0325 -0.0097
  715TMC3    C510570   2.054   4.408   1.806 -0.1402  0.3962  0.3088
  715TMC3    C610571   2.102   4.278   1.813 -0.2881  0.1382  0.4604
  715TMC3     C10572   1.695   4.354   1.722 -0.7450 -0.9732 -0.0353
  715TMC3     O10573   1.634   4.253   1.684 -0.2415  0.1440  0.1627
  715TMC3     H10574   1.813   4.119   1.722 -0.3286  0.3861  0.5177
  715TMC3    H110575   1.904   4.539   1.759  1.7493  0.2523 -0.5650
  715TMC3    H210576   2.206   4.254   1.830 -0.2524  1.0191  1.5187
  715TMC3    C710577   2.123   4.499   1.899 -0.1324  0.0092 -0.0268
  715TMC3    C810578   2.061   4.048   1.770 -0.1619 -0.3898 -0.4874
  715TMC3    O110579   2.229   4.460   1.940 -0.0721  0.1164 -1.0491
  715TMC3    O210580   1.990   3.970   1.714  0.3258 -0.4215 -1.0111
  716MPD2     C10581   1.567   2.466  10.024 -0.0629 -0.5504  0.0608
  716MPD2    C110582   1.529   2.409   9.902  0.1592  0.5948 -0.3835
  716MPD2    C210583   1.565   2.282   9.874 -0.3645  0.0879  0.0217
  716MPD2    C310584   1.629   2.203   9.966 -0.8326  0.3637 -0.1305
  716MPD2    C410585   1.683   2.266  10.075  0.4872 -0.0475 -0.1452
  716MPD2    C510586   1.651   2.396  10.107  0.7798  0.0210 -0.2671
  716MPD2     H10587   1.523   2.237   9.785  2.7892 -0.6653 -1.0728
  716MPD2    H110588   1.748   2.211  10.141  1.2685  0.4408 -0.5009
  716MPD2    H210589   1.557   2.573  10.040 -0.9548 -0.1852 -2.9879
  716MPD2    H310590   1.701   2.438  10.194 -1.1896 -0.7751  1.2479
  716MPD2     N10591   1.670   2.071   9.925  0.1800  0.4845 -0.0619
  716MPD2    H510592   1.631   2.029   9.841  1.9841 -0.4270 -0.4246
  716MPD2    N110593   1.432   2.478   9.822 -1.2324  0.3202  1.0814
  716MPD2    H710594   1.398   2.565   9.861 -2.2661  0.5790 -0.3609
  717TMC3    C110595   1.796   1.863   9.922  0.2197 -0.4722  0.2963
  717TMC3    C210596   1.776   1.859   9.790  0.2238  0.1549 -0.1371
  717TMC3    C310597   1.809   1.748   9.723  0.0638 -0.2340  0.1707
  717TMC3    C410598   1.864   1.756   9.986 -0.5585 -0.9025 -0.9371
  717TMC3    C510599   1.913   1.654   9.913  0.3929 -0.2237  0.0740
  717TMC3    C610600   1.873   1.639   9.782  0.2041 -0.4561 -0.6312
  717TMC3     C10601   1.754   1.983   9.993  0.6367  0.0404 -0.0162
  717TMC3     O10602   1.782   1.981  10.111  0.1238  0.0991 -0.5003
  717TMC3     H10603   1.729   1.939   9.734 -0.0379 -0.0948 -0.2788
  717TMC3    H110604   1.876   1.769  10.093 -0.7496  0.0489 -1.0337
  717TMC3    H210605   1.849   1.542   9.740  1.1588 -0.3620 -1.4198
  717TMC3    C710606   2.000   1.549   9.962  0.8704 -0.5761  0.0681
  717TMC3    C810607   1.729   1.716   9.609 -0.1379 -0.0081  0.1999
  717TMC3    O110608   2.044   1.459   9.893  0.1689  0.0305  0.4985
  717TMC3    O210609   1.636   1.791   9.590 -0.8671  0.1494  0.1561
  718MPD2     C10610   0.874   1.067  12.410 -0.0075  0.3096 -0.5790
  718MPD2    C110611   0.953   0.952  12.396  0.9232 -0.7675  0.4141
  718MPD2    C210612   0.961   0.873  12.502 -0.4239  0.0784 -0.1378
  718MPD2    C310613   0.906   0.907  12.632 -0.6033  0.6857 -0.2054
  718MPD2    C410614   0.824   1.016  12.638  0.4518  0.2845 -0.0402
  718MPD2    C510615   0.813   1.095  12.533  0.0452 -0.4934 -0.4796
  718MPD2     H10616   1.033   0.791  12.497 -2.3012 -1.5373 -0.5600
  718MPD2    H110617   0.780   1.052  12.730  1.4758 -1.1979  1.0299
  718MPD2    H210618   0.859   1.144  12.335  0.3838  1.6814  0.7481
  718MPD2    H310619   0.746   1.180  12.543 -2.1861 -2.4118  1.0021
  718MPD2     N10620   0.953   0.832  12.738 -0.1815 -0.4327 -0.7541
  718MPD2    H510621   1.003   0.749  12.709  1.6658  0.7584 -0.9668
  718MPD2    N110622   1.030   0.912  12.287 -0.2741  0.3541  0.4097
  718MPD2    H710623   1.080   0.824  12.288 -0.1897  0.4057  0.6042
  719TMC3    C110624   1.176   0.947  12.112  0.1704 -0.3927 -0.4319
  719TMC3    C210625   1.196   0.809  12.129 -0.2488  0.0406  0.0190
  719TMC3    C310626   1.308   0.759  12.177 -0.8059 -0.4239  0.4827
  719TMC3    C410627   1.285   1.029  12.138 -0.2989 -1.1043 -0.8689
  719TMC3    C510628   1.399   0.977  12.180  0.0051  0.4292  0.4495
  719TMC3    C610629   1.412   0.840  12.206 -0.4435 -0.3246 -0.5012
  719TMC3     C10630   1.072   1.002  12.192 -0.6896  0.2748  0.1454
  719TMC3     O10631   1.061   1.126  12.207  0.6793 -0.3463  0.1635
  719TMC3     H10632   1.105   0.753  12.108 -1.2541  0.7802  2.3666
  719TMC3    H110633   1.281   1.136  12.122 -1.9876 -1.0127  0.1261
  719TMC3    H210634   1.497   0.805  12.264 -0.1701 -2.7783 -2.3766
  719TMC3    C710635   1.520   1.060  12.189 -0.4283  0.5509 -0.1393
  719TMC3    C810636   1.289   0.647  12.268 -0.6450 -0.1743 -0.0368
  719TMC3    O110637   1.628   1.013  12.159  0.1825 -0.2395  0.3047
  719TMC3    O210638   1.174   0.626  12.310 -0.0729 -0.1461  0.1279
  720MPD2     C10639   4.012   2.717  14.227  0.0754 -0.9449 -0.7009
  720MPD2    C110640   4.105   2.692  14.131 -0.1730  0.6226  0.3519
  720MPD2    C210641   4.220   2.625  14.161 -0.6423  0.1023  0.3035
  720MPD2    C310642   4.258   2.583  14.281 -0.0198  0.7545  0.1084
  720MPD2    C410643   4.161   2.597  14.377  0.6288 -0.4462 -0.4544
  720MPD2    C510644   4.045   2.661  14.351 -0.0957 -0.2741  0.1496
  720MPD2     H10645   4.288   2.605  14.078 -1.9713  0.2893 -0.8401
  720MPD2    H110646   4.171   2.563  14.479 -1.7245 -1.8215 -0.7044
  720MPD2    H210647   3.924   2.779  14.214  0.2755 -0.2310  1.3684
  720MPD2    H310648   3.967   2.665  14.426  0.3215  1.2489  0.5019
  720MPD2     N10649   4.393   2.555  14.304  1.1064 -0.6485  0.1327
  720MPD2    H510650   4.447   2.557  14.218  0.4563 -0.9089 -0.2817
  720MPD2    N110651   4.100   2.751  14.002 -0.0184  0.2874 -1.3508
  720MPD2    H710652   4.168   2.719  13.933  1.8113 -0.8538  0.9589
  721TMC3    C110653   4.588   2.523  14.437 -0.7833 -0.2154 -0.0127
  721TMC3    C210654   4.644   2.458  14.545  0.3655 -0.4288 -0.0348
  721TMC3    C310655   0.056   2.490  14.575 -0.0005 -0.0980 -0.4171
  721TMC3    C410656   4.667   2.618  14.367 -0.4928  0.2483 -0.0383
  721TMC3    C510657   0.069   2.651  14.398 -0.1244 -0.1894  0.1032
  721TMC3    C610658   0.131   2.567  14.491  0.8320  0.0115  0.2524
  721TMC3     C10659   4.441   2.517  14.425 -0.1860  0.0843  0.3147
  721TMC3     O10660   4.378   2.483  14.521 -0.3858 -0.2563 -0.5361
  721TMC3     H10661   4.598   2.379  14.603 -0.9032  1.8599  2.1121
  721TMC3    H110662   4.620   2.664  14.281 -0.3947 -0.2505 -0.3580
  721TMC3    H210663   0.230   2.597  14.522 -0.0042  0.4285  2.4964
  721TMC3    C710664   0.143   2.762  14.337  0.7167  0.6858  0.5283
  721TMC3    C810665   0.109   2.423  14.691 -0.5236 -0.4346  0.4051
  721TMC3    O110666   0.264   2.776  14.347  0.0927  0.2335 -0.0067
  721TMC3    O210667   0.180   2.329  14.674  0.2052  0.2761 -0.0671
  722MPD2     C10668   3.489   1.321  12.838 -0.4241 -0.3637 -0.3203
  722MPD2    C110669   3.480   1.374  12.969 -0.2677 -0.0249  0.4845
  722MPD2    C210670   3.399   1.305  13.056  0.2018 -0.3639  0.2839
  722MPD2    C310671   3.324   1.196  13.018 -0.5966 -0.6002  0.3554
  722MPD2    C410672   3.324   1.166  12.884  0.0415  0.0546  0.3750
  722MPD2    C510673   3.407   1.222  12.791  0.1105  0.0972 -0.1104
  722MPD2     H10674   3.393   1.341  13.158 -0.1031  0.9608 -0.2080
  722MPD2    H110675   3.259   1.090  12.841  1.6331 -0.3887 -1.2712
  722MPD2    H210676   3.556   1.365  12.765  2.0436  0.1876  2.2822
  722MPD2    H310677   3.402   1.202  12.685 -0.6710 -1.4520  0.2312
  722MPD2     N10678   3.254   1.138  13.121 -0.1664 -0.0193 -0.8437
  722MPD2    H510679   3.268   1.187  13.209  0.9998 -1.4585 -0.2195
  722MPD2    N110680   3.552   1.488  13.014  0.6987 -0.2865  0.2146
  722MPD2    H710681   3.556   1.501  13.115  0.5932 -0.3455  0.2263
  723TMC3    C110682   3.108   1.012  13.243 -0.5405 -0.2220 -0.2596
  723TMC3    C210683   2.983   0.948  13.240 -0.3161  0.1426  0.1300
  723TMC3    C310684   2.902   0.945  13.355 -0.4766  0.3365 -0.2836
  723TMC3    C410685   3.148   1.061  13.358 -0.1065  0.3950 -0.5628
  723TMC3    C510686   3.061   1.067  13.468  0.9928  1.0219 -0.2257
  723TMC3    C610687   2.936   1.017  13.463 -0.3381 -0.0804  0.2357
  723TMC3     C10688   3.160   1.045  13.109  0.3055  0.0086 -0.8693
  723TMC3     O10689   3.121   0.978  13.011 -0.0779 -0.2605  0.2124
  723TMC3     H10690   2.953   0.909  13.144 -1.1009  0.7656  0.1205
  723TMC3    H110691   3.251   1.093  13.370 -0.1782 -0.1679  1.6302
  723TMC3    H210692   2.872   1.014  13.551  1.4086 -0.3819  1.4920
  723TMC3    C710693   3.120   1.121  13.594  0.4429 -1.0309  0.0308
  723TMC3    C810694   2.772   0.882  13.348 -0.2725 -0.1257 -0.8401
  723TMC3    O110695   3.240   1.121  13.607  0.1152  0.1030  0.1348
  723TMC3    O210696   2.680   0.933  13.413 -0.3384  0.6640  0.2417
  724TMC3    C110697   3.416   4.338   9.200  0.6000 -0.2577 -0.1610
  724TMC3    C210698   3.343   4.453   9.228 -1.1453 -0.4589 -0.4032
  724TMC3    C310699   3.415   4.570   9.233 -0.8935 -0.6336  0.0756
  724TMC3    C410700   3.546   4.349   9.169  0.1826  0.6124 -0.2913
  724TMC3    C510701   3.620   4.464   9.185  0.2518 -0.5635  0.2916
  724TMC3    C610702   3.551   4.577   9.223 -0.5744 -0.2152  0.0531
  724TMC3     C10703   3.342   4.219   9.198  0.2014  0.6105 -0.0692
  724TMC3     O10704   3.229   4.219   9.154  0.1348 -0.0848 -0.0541
  724TMC3     H10705   3.239   4.442   9.254 -1.3202 -0.5383 -1.1571
  724TMC3    H110706   3.601   4.257   9.147 -1.3256 -0.0554 -1.2560
  724TMC3    H210707   3.601   4.672   9.232 -1.5897  0.4987 -1.8432
  724TMC3    C710708   3.763   4.463   9.161 -0.2163 -0.5765 -0.1198
  724TMC3    C810709   3.336   4.686   9.279  0.6257 -0.3716 -0.8325
  724TMC3    O110710   3.800   4.356   9.124 -0.0570 -0.7210  0.2210
  724TMC3    O210711   3.225   4.705   9.232  0.4291 -0.3095 -0.0156
  725TMC3    C110712   4.577   3.802  12.621 -0.6641  0.2713 -0.3790
  725TMC3    C210713   4.475   3.868  12.565 -0.4850  0.1459  0.1058
  725TMC3    C310714   4.450   3.838  12.433 -0.7380  0.2334  0.6055
  725TMC3    C410715   4.655   3.712  12.550 -0.1948  1.0389 -0.5114
  725TMC3    C510716   4.622   3.686  12.421  0.4210  0.5365  0.3930
  725TMC3    C610717   4.521   3.748  12.359 -0.5517 -0.9130  0.0227
  725TMC3     C10718   4.648   3.880  12.721 -0.6888 -0.3290  0.6883
  725TMC3     O10719   0.049   3.872  12.720 -0.3290 -0.1635  0.3133
  725TMC3     H10720   4.408   3.925  12.627 -0.5041  0.5076 -0.2483
  725TMC3    H110721   0.017   3.662  12.601 -0.4347  2.7629  1.5544
  725TMC3    H210722   4.491   3.715  12.260  3.0100 -1.2214 -0.9403
  725TMC3    C710723   4.692   3.566  12.358  0.9722  0.2115  0.3117
  725TMC3    C810724   4.325   3.874  12.373  0.1132  0.3762  0.0875
  725TMC3    O110725   0.036   3.483  12.426 -0.5484 -0.8005 -0.2894
  725TMC3    O210726   4.289   3.803  12.283  0.1088 -0.0735  0.0245
  726MPD2     C10727   3.181   4.676  10.526  0.1448 -0.9764  0.3073
  726MPD2    C110728   3.078   4.714  10.446  0.6569 -0.2761  0.9326
  726MPD2    C210729   2.962   4.635  10.433  0.6506  0.2255 -0.7537
  726MPD2    C310730   2.957   4.522  10.510  0.2971  0.6608 -0.9572
  726MPD2    C410731   3.065   4.472  10.583  0.4812 -0.3588  0.0569
  726MPD2    C510732   3.175   4.552  10.589  0.1972 -0.5236 -0.6633
  726MPD2     H10733   2.886   4.668  10.363  1.8560 -1.1874 -2.7514
  726MPD2    H110734   3.055   4.380  10.640  1.7507 -0.2409  0.4843
  726MPD2    H210735   3.265   0.019  10.550 -0.0355 -0.4633 -0.4223
  726MPD2    H310736   3.256   4.515  10.652  0.1204  1.0966  0.3893
  726MPD2     N10737   2.833   4.457  10.521  0.0319 -0.2446  0.0716
  726MPD2    H510738   2.833   4.379  10.586 -0.8340  2.4008  3.2494
  726MPD2    N110739   3.079   0.108  10.368 -0.2943 -0.4701 -0.0768
  726MPD2    H710740   2.991   0.138  10.327 -0.4842 -0.0211  0.6650
  727TMC3    C110741   3.142   0.302  10.270  0.0730 -0.2048  0.0358
  727TMC3    C210742   3.214   0.420  10.276  0.3002  0.2267 -0.1243
  727TMC3    C310743   3.172   0.530  10.204  0.1552 -0.0538 -0.4920
  727TMC3    C410744   3.045   0.293  10.183 -0.2046  0.8183 -0.9130
  727TMC3    C510745   3.006   0.402  10.111 -0.4732  0.3908  1.5931
  727TMC3    C610746   3.070   0.525  10.113 -0.1219 -0.1395  0.4972
  727TMC3     C10747   3.188   0.189  10.347  0.7348  0.2364  0.2056
  727TMC3     O10748   3.296   0.194  10.403 -0.0034 -0.0594  0.0439
  727TMC3     H10749   3.300   0.431  10.341  0.6115 -0.4564 -0.4124
  727TMC3    H110750   3.000   0.196  10.169 -1.8328  1.4081  0.1691
  727TMC3    H210751   3.041   0.608  10.050  0.0716  1.4873  2.5684
  727TMC3    C710752   2.929   0.371   9.993  0.2932 -0.4345 -0.0579
  727TMC3    C810753   3.254   0.650  10.198  0.2529 -0.5518 -0.4885
  727TMC3    O110754   2.922   0.253   9.960  0.1150  0.3806  0.2063
  727TMC3    O210755   3.370   0.637  10.237  0.1167  0.4154 -0.3173
  728TMC3    C110756   2.194   2.924  15.847 -0.1989  0.1342  0.1975
  728TMC3    C210757   2.277   3.005  15.921 -1.0695 -0.3250 -0.4043
  728TMC3    C310758   2.321   3.123  15.863 -0.1024 -0.4717  0.6223
  728TMC3    C410759   2.163   2.940  15.718 -0.0363  0.4234  0.3088
  728TMC3    C510760   2.207   3.053  15.660  0.4930 -0.1646 -0.5334
  728TMC3    C610761   2.277   3.149  15.733  0.7997 -0.4492 -1.0349
  728TMC3     C10762   2.137   2.810  15.911  0.7028 -0.1252 -0.3541
  728TMC3     O10763   2.192   2.768  16.015  0.0525  0.0432 -0.2832
  728TMC3     H10764   2.283   2.986  16.027  3.3924  0.9086 -0.4389
  728TMC3    H110765   2.106   2.868  15.660 -0.2442 -0.1504  1.2212
  728TMC3    H210766   2.307   3.242  15.686  1.3998  0.2731  0.7995
  728TMC3    C710767   2.171   3.083  15.519  0.2339  0.2370  0.0825
  728TMC3    C810768   2.359   3.229  15.956  0.4457 -0.6133  0.4320
  728TMC3    O110769   2.068   3.034  15.476  0.1649  0.1426  0.4954
  728TMC3    O210770   2.371   3.198  16.075  0.0308  0.3002 -0.2499
  729MPD2     C10771   4.521   4.066  17.147  0.1151 -0.1124  0.4855
  729MPD2    C110772   4.649   4.006  17.167 -0.7353  0.5934  1.0670
  729MPD2    C210773   4.681   3.936  17.289  0.6694  0.0525  0.7183
  729MPD2    C310774   4.586   3.941  17.389 -0.1355  0.2274 -0.3356
  729MPD2    C410775   4.465   3.996  17.363 -0.5210 -0.2879  1.2285
  729MPD2    C510776   4.431   4.053  17.240  0.2417 -0.0968 -0.3336
  729MPD2     H10777   0.054   3.886  17.311  0.1410 -0.5108  1.6686
  729MPD2    H110778   4.386   4.006  17.436 -0.7866  1.6412  0.6882
  729MPD2    H210779   4.492   4.108  17.051  0.9577  2.3749  1.3057
  729MPD2    H310780   4.335   4.103  17.229 -0.2472 -1.1649 -0.9336
  729MPD2     N10781   4.613   3.904  17.524 -0.3098  0.0719 -0.4076
  729MPD2    H510782   4.540   3.904  17.595  1.4922  1.8252  1.4436
  729MPD2    N110783   0.015   4.017  17.056 -0.3091  0.9571 -0.1564
  729MPD2    H710784   4.710   4.063  16.970  0.6645  0.7946 -0.5281
  730TMC3    C110785   0.026   3.940   0.017  0.0893  0.1824  0.5054
  730TMC3    C210786   0.161   3.935   0.055 -0.5161  0.6250  0.4546
  730TMC3    C310787   0.214   4.029   0.131  0.0861  0.1521  0.4427
  730TMC3    C410788   4.671   4.052   0.054  0.3856  0.8329  0.3787
  730TMC3    C510789   0.009   4.145   0.130 -0.8976 -1.1052 -0.5410
  730TMC3    C610790   0.139   4.133   0.175 -0.4164 -0.0204 -0.1585
  730TMC3     C10791   0.016   3.876  17.576 -0.6343  1.0408  0.5728
  730TMC3     O10792   0.121   3.861  17.515 -0.1100  1.2036  0.2625
  730TMC3     H10793   0.227   3.855   0.026 -1.5119 -0.6562  1.7153
  730TMC3    H110794   4.572   4.059   0.010  0.9423  2.4693 -0.5873
  730TMC3    H210795   0.181   4.211   0.237 -0.1810 -2.4683  2.7474
  730TMC3    C710796   4.656   4.264   0.161 -0.3827 -0.7870  0.1060
  730TMC3    C810797   0.343   4.065   0.074  0.5868  0.1256 -0.3116
  730TMC3    O110798   4.624   4.282   0.281 -0.7456 -0.0382 -0.0292
  730TMC3    O210799   0.416   3.966   0.060 -0.5322  0.5978 -0.1752
  731MPD2     C10800   4.379   3.446  12.069 -1.1224  0.7694  0.5737
  731MPD2    C110801   4.432   3.323  12.054  0.4258 -0.2558 -0.2482
  731MPD2    C210802   4.474   3.256  12.168 -0.0404 -0.2724  0.1142
  731MPD2    C310803   4.451   3.306  12.291  0.1773  0.6778 -0.4252
  731MPD2    C410804   4.384   3.422  12.302 -0.3188 -0.3888  0.0157
  731MPD2    C510805   4.352   3.499  12.192 -0.2633  0.4845 -0.3939
  731MPD2     H10806   4.525   3.160  12.161  0.4028 -0.0107 -0.2678
  731MPD2    H110807   4.364   3.470  12.397  1.6046  1.1101 -0.3465
  731MPD2    H210808   4.346   3.502  11.983 -1.7765  0.8076  0.8507
  731MPD2    H310809   4.298   3.591  12.208  0.0427  0.1902  2.3137
  731MPD2     N10810   4.499   3.243  12.409  1.0071  0.0663  0.2961
  731MPD2    H510811   4.556   3.160  12.394  1.4139 -0.0075  2.3140
  731MPD2    N110812   4.439   3.270  11.925 -0.1460 -0.3781 -0.0051
  731MPD2    H710813   4.408   3.330  11.850  1.0572 -1.0999 -1.0707
  732TMC3    C110814   4.433   3.120  11.759 -0.7808  0.2268  0.4851
  732TMC3    C210815   4.357   3.019  11.718  0.8364  0.1440 -0.1255
  732TMC3    C310816   4.393   2.953  11.605 -0.2347 -0.4972 -0.5885
  732TMC3    C410817   4.546   3.157  11.689 -0.0836  0.0743 -0.9916
  732TMC3    C510818   4.567   3.105  11.566 -0.0752  0.1659  0.1962
  732TMC3    C610819   4.493   2.998  11.524  0.8055 -0.2387  0.4999
  732TMC3     C10820   4.446   3.142  11.898  0.4171 -0.1648 -0.5876
  732TMC3     O10821   4.446   3.042  11.974 -0.1716  0.3009 -0.1889
  732TMC3     H10822   4.273   2.992  11.782  0.6783 -0.8106 -0.7396
  732TMC3    H110823   4.618   3.229  11.726 -0.9630 -0.1164  1.0742
  732TMC3    H210824   4.514   2.951  11.428 -0.0269  3.2344 -1.3726
  732TMC3    C710825   4.704   3.109  11.514  0.3338 -0.1569  0.3902
  732TMC3    C810826   4.381   2.804  11.603 -0.5673 -0.7332 -0.7294
  732TMC3    O110827   0.004   3.124  11.397  0.2644 -0.0283 -0.3306
  732TMC3    O210828   4.437   2.750  11.505 -0.1686 -0.1016  0.1928
  733TMC3    C110829   1.002   0.624  13.135  0.9525 -0.3748 -0.6278
  733TMC3    C210830   0.941   0.723  13.065 -0.1983 -0.0166  0.3190
  733TMC3    C310831   0.986   0.746  12.943 -0.2324 -0.6052 -0.2257
  733TMC3    C410832   1.108   0.554  13.090 -0.2439  0.3343 -0.1642
  733TMC3    C510833   1.141   0.570  12.958 -0.3188 -0.2638  0.6932
  733TMC3    C610834   1.081   0.671  12.883 -0.1346 -0.0171 -0.6490
  733TMC3     C10835   0.962   0.589  13.272 -0.3878  0.4848 -0.1923
  733TMC3     O10836   1.042   0.553  13.362  0.4228  0.3599  0.1108
  733TMC3     H10837   0.854   0.782  13.092  0.1680  0.2297  0.9685
  733TMC3    H110838   1.154   0.472  13.145  0.6624  1.1086  0.2205
  733TMC3    H210839   1.134   0.710  12.797  0.9871 -0.1285 -0.0120
  733TMC3    C710840   1.265   0.514  12.903 -0.0915 -0.3028 -0.3307
  733TMC3    C810841   0.933   0.860  12.874  0.1464  0.1952 -0.1081
  733TMC3    O110842   1.348   0.455  12.971 -0.1880 -0.1208  0.6746
  733TMC3    O210843   0.860   0.940  12.929 -0.0409  0.1481  0.0739
  734MPD2     C10844   2.925   3.253  12.322 -0.1862  0.6346 -0.6784
  734MPD2    C110845   2.793   3.217  12.275  0.1222 -0.5717  0.0207
  734MPD2    C210846   2.739   3.280  12.161  0.1786 -0.4333 -0.0619
  734MPD2    C310847   2.798   3.385  12.102 -0.2871 -0.1056  0.0196
  734MPD2    C410848   2.915   3.431  12.155 -0.7926 -0.1148  0.4691
  734MPD2    C510849   2.977   3.369  12.259  0.0353 -0.2999 -1.1921
  734MPD2     H10850   2.652   3.236  12.114  1.2854 -2.7708  0.1084
  734MPD2    H110851   2.974   3.510  12.110 -1.0677  0.5661  1.3271
  734MPD2    H210852   2.975   3.193  12.397  1.6640  1.0211 -1.6173
  734MPD2    H310853   3.073   3.405  12.294 -0.5659  1.7682 -1.7007
  734MPD2     N10854   2.734   3.436  11.990  0.1629  0.6378  1.0643
  734MPD2    H510855   2.638   3.408  11.970  1.0185 -0.5107 -1.3754
  734MPD2    N110856   2.730   3.109  12.344  0.3570 -0.1510 -0.0207
  734MPD2    H710857   2.773   3.074  12.429 -1.4226  0.6191  1.2080
  735TMC3    C110858   2.603   2.910  12.351  0.7347  0.0473 -0.4852
  735TMC3    C210859   2.509   2.838  12.281 -0.4927 -0.0459 -0.8013
  735TMC3    C310860   2.530   2.711  12.235  0.5826 -0.7741 -0.5406
  735TMC3    C410861   2.714   2.841  12.394  0.1189 -0.0930 -0.2656
  735TMC3    C510862   2.736   2.710  12.346  0.2970  0.2506  0.8568
  735TMC3    C610863   2.644   2.649  12.271 -0.3290 -0.6274  0.1786
  735TMC3     C10864   2.613   3.044  12.302  0.6690 -0.3743  0.2206
  735TMC3     O10865   2.539   3.063  12.205 -0.0361 -0.0611 -0.5064
  735TMC3     H10866   2.420   2.883  12.238 -2.2596 -1.2200  1.5624
  735TMC3    H110867   2.798   2.891  12.441  2.2164 -0.7912 -3.2561
  735TMC3    H210868   2.661   2.552  12.226  0.6269  0.7232 -2.4111
  735TMC3    C710869   2.875   2.685  12.321 -0.3319  0.0581 -0.3865
  735TMC3    C810870   2.509   2.708  12.089  0.0003  0.5909 -0.1108
  735TMC3    O110871   2.957   2.781  12.314 -0.4666 -0.2398  0.1054
  735TMC3    O210872   2.520   2.600  12.037  0.8286 -0.4370  0.2260
  736MPD2     C10873   3.044   2.352  12.331 -0.4573  0.9474 -0.8508
  736MPD2    C110874   3.030   2.489  12.323 -0.0220 -0.3051 -0.2393
  736MPD2    C210875   3.147   2.564  12.293 -0.6700 -0.4183 -0.2617
  736MPD2    C310876   3.268   2.503  12.278  0.1767  0.2680 -0.0304
  736MPD2    C410877   3.278   2.370  12.291  0.1221 -0.4757 -0.4975
  736MPD2    C510878   3.169   2.294  12.316  0.4119  0.4545  0.4784
  736MPD2     H10879   3.142   2.671  12.275 -2.0621  0.1388  3.4609
  736MPD2    H110880   3.374   2.319  12.281  0.2230 -0.3967  0.0537
  736MPD2    H210881   2.956   2.290  12.351  0.2265  0.8345  1.8309
  736MPD2    H310882   3.191   2.188  12.325 -0.2483  0.2905  0.1433
  736MPD2     N10883   3.386   2.573  12.241  0.6078  0.7251 -0.3337
  736MPD2    H510884   3.465   2.509  12.238  0.4732  0.3950  3.3793
  736MPD2    N110885   2.903   2.551  12.332 -0.0324 -0.1639  0.4032
  736MPD2    H710886   2.823   2.489  12.346  0.3897 -0.0843  2.9901
  737TMC3    C110887   3.536   2.734  12.152  0.1043 -0.4038 -0.2254
  737TMC3    C210888   3.545   2.860  12.099  0.2198  0.6224 -0.7112
  737TMC3    C310889   3.609   2.889  11.988  0.6253  0.4213 -0.3864
  737TMC3    C410890   3.606   2.627  12.099 -0.7251  0.5036 -0.9333
  737TMC3    C510891   3.662   2.657  11.978 -0.5589 -0.3632 -0.0417
  737TMC3    C610892   3.670   2.782  11.923  0.3230 -0.6400 -0.8143
  737TMC3     C10893   3.405   2.709  12.211 -0.8563  0.6084 -0.0963
  737TMC3     O10894   3.320   2.802  12.198 -0.3607  0.3024 -0.1236
  737TMC3     H10895   3.484   2.941  12.137 -2.8791 -2.1726  0.1730
  737TMC3    H110896   3.603   2.530  12.147  1.2025  0.3161 -1.2012
  737TMC3    H210897   3.731   2.804  11.837 -0.1042 -0.1587 -0.9868
  737TMC3    C710898   3.743   2.553  11.924 -1.0790 -0.5886  0.4160
  737TMC3    C810899   3.594   3.016  11.932  0.2426 -0.2780 -0.9656
  737TMC3    O110900   3.771   2.470  12.005  0.4334 -0.4884 -0.0943
  737TMC3    O210901   3.599   3.112  12.008 -0.4162 -0.1672 -0.2548
  738MPD2     C10902   3.162   1.583  15.669 -0.3272 -0.4991 -0.3481
  738MPD2    C110903   3.189   1.566  15.528  0.0184  0.4371  0.3915
  738MPD2    C210904   3.296   1.632  15.470 -0.3312  0.8278  0.0265
  738MPD2    C310905   3.381   1.707  15.554 -0.3112 -0.7961 -0.2384
  738MPD2    C410906   3.362   1.713  15.689 -0.6432  0.6446  0.1521
  738MPD2    C510907   3.250   1.654  15.745 -0.9802 -0.3733 -0.4709
  738MPD2     H10908   3.313   1.636  15.363  0.9758 -0.6823  0.1888
  738MPD2    H110909   3.408   1.782  15.759 -0.8209  1.4751 -0.5541
  738MPD2    H210910   3.081   1.530  15.717 -0.3145  0.2995  0.5455
  738MPD2    H310911   3.220   1.665  15.849  0.5659  0.5407 -0.1259
  738MPD2     N10912   3.487   1.782  15.490 -0.1944 -0.1194 -0.0950
  738MPD2    H510913   3.494   1.766  15.390  0.2506 -0.4122 -0.0209
  738MPD2    N110914   3.089   1.507  15.441  0.2978  0.1213  0.1617
  738MPD2    H710915   3.124   1.512  15.346 -2.0861 -0.1294 -0.7272
  739TMC3    C110916   3.695   1.895  15.477 -0.0451 -0.2793  0.2702
  739TMC3    C210917   3.702   1.855  15.342  0.1401 -0.2720  0.5547
  739TMC3    C310918   3.808   1.901  15.265  0.1932  0.2817 -1.0356
  739TMC3    C410919   3.781   1.986  15.533  0.1291  0.1194 -0.1626
  739TMC3    C510920   3.877   2.037  15.450 -0.7046  0.3231 -0.3688
  739TMC3    C610921   3.898   1.991  15.322 -0.1544 -1.2565  0.0574
  739TMC3     C10922   3.586   1.856  15.561  0.5525  0.3850 -0.3637
  739TMC3     O10923   3.597   1.870  15.682 -0.7319 -0.3248  0.0927
  739TMC3     H10924   3.644   1.774  15.300  0.0036 -0.1294  0.4693
  739TMC3    H110925   3.777   2.016  15.637  0.0122  0.9995 -0.4201
  739TMC3    H210926   3.967   2.048  15.261 -1.2587 -1.4473 -1.3718
  739TMC3    C710927   3.983   2.115  15.502  0.0500  0.3773 -0.4860
  739TMC3    C810928   3.800   1.886  15.123  0.0542 -1.1741  0.1483
  739TMC3    O110929   3.956   2.218  15.564  0.4128 -0.3763  0.1418
  739TMC3    O210930   3.690   1.855  15.073 -0.5761 -0.5055  0.6549
  740TMC3    C110931   4.167   2.956  14.648 -0.4262  0.0345  0.6294
  740TMC3    C210932   4.217   2.865  14.734 -1.1525 -0.3094 -0.0256
  740TMC3    C310933   4.320   2.785  14.700 -0.3326  0.1935  1.1672
  740TMC3    C410934   4.209   2.960  14.518  0.6737 -0.1099 -0.0021
  740TMC3    C510935   4.319   2.894  14.484  0.5541 -0.4943  0.6987
  740TMC3    C610936   4.377   2.799  14.574  0.4154  0.5007  0.5983
  740TMC3     C10937   4.048   3.032  14.672 -0.0438  0.9882  0.3250
  740TMC3     O10938   4.011   3.116  14.590 -0.7872  0.6669  0.3853
  740TMC3     H10939   4.193   2.861  14.840 -2.4028 -0.9327 -0.3363
  740TMC3    H110940   4.170   3.040  14.456  0.2651 -0.1870  0.1535
  740TMC3    H210941   4.472   2.750  14.555  1.3229  2.6438 -0.4791
  740TMC3    C710942   4.391   2.910  14.363  0.3303 -0.2365  0.0248
  740TMC3    C810943   4.404   2.706  14.797 -0.2645  0.2687 -0.0989
  740TMC3    O110944   4.502   2.861  14.352 -0.0206 -0.9453 -0.1885
  740TMC3    O210945   4.516   2.674  14.762  0.3743  0.2398 -0.1079
  741TMC3    C110946   3.427   2.416  14.626  0.0034  0.2452 -0.2450
  741TMC3    C210947   3.316   2.412  14.707  0.6531  0.8136  0.8720
  741TMC3    C310948   3.338   2.353  14.828 -0.3637 -0.4290 -0.1762
  741TMC3    C410949   3.550   2.380  14.671  0.5669  0.1043  0.1677
  741TMC3    C510950   3.564   2.322  14.794 -0.9154  0.7634 -0.9631
  741TMC3    C610951   3.456   2.301  14.876 -0.3722  0.1152 -0.2379
  741TMC3     C10952   3.400   2.460  14.494  0.9901 -0.2143 -0.2806
  741TMC3     O10953   3.472   2.546  14.442 -0.4964  0.5332  0.2169
  741TMC3     H10954   3.220   2.427  14.659  0.9078 -1.6956 -0.4517
  741TMC3    H110955   3.639   2.401  14.613 -0.9185 -0.4123 -2.3430
  741TMC3    H210956   3.469   2.280  14.982 -1.4474 -2.4971 -0.6403
  741TMC3    C710957   3.694   2.271  14.830  0.2233 -0.0505 -0.5383
  741TMC3    C810958   3.220   2.296  14.881  0.4388 -0.5142  0.5324
  741TMC3    O110959   3.764   2.231  14.737 -0.8817  0.1106  0.3152
  741TMC3    O210960   3.122   2.361  14.858 -0.0914 -0.4575 -0.1178
  742TMC3    C110961   3.816   0.587  14.900 -0.1336  0.4597  0.4448
  742TMC3    C210962   3.779   0.534  14.778 -0.0819 -0.2886 -0.5489
  742TMC3    C310963   3.853   0.431  14.730  0.4017 -0.7760  0.1999
  742TMC3    C410964   3.922   0.531  14.973  0.5576 -0.1779 -0.3020
  742TMC3    C510965   3.991   0.422  14.925 -0.1252 -0.8945  0.4505
  742TMC3    C610966   3.955   0.377  14.798  0.5252  0.6324  0.6280
  742TMC3     C10967   3.717   0.673  14.963 -0.0617 -0.2836  0.1163
  742TMC3     O10968   3.630   0.696  14.880 -0.5663  0.3594  0.4920
  742TMC3     H10969   3.706   0.575  14.709  2.0959  0.4586 -2.4253
  742TMC3    H110970   3.954   0.567  15.071  2.1418 -2.1193 -0.1147
  742TMC3    H210971   4.008   0.291  14.758 -0.6583 -0.5915  1.6653
  742TMC3    C710972   4.123   0.388  14.977 -0.3103 -0.2692  0.3387
  742TMC3    C810973   3.845   0.389  14.588  0.3392  0.9497 -0.0110
  742TMC3    O110974   4.160   0.278  14.953 -0.4118  0.6201 -0.3123
  742TMC3    O210975   3.891   0.282  14.556 -0.1681  0.5978 -0.3348
  743MPD2     C10976   1.877   2.128   1.951 -0.0763 -0.6505  0.1830
  743MPD2    C110977   1.924   2.106   1.826 -0.0097 -0.2377  0.1828
  743MPD2    C210978   2.055   2.079   1.794  0.5062 -0.2351 -0.0583
  743MPD2    C310979   2.146   2.069   1.901  0.1104 -0.1005  0.0530
  743MPD2    C410980   2.091   2.085   2.034 -0.4038 -0.0545 -0.6463
  743MPD2    C510981   1.964   2.122   2.055  0.0384 -0.4441  0.5384
  743MPD2     H10982   2.098   2.067   1.695 -0.2207  0.2918 -0.4323
  743MPD2    H110983   2.140   2.076   2.130  1.4852  1.9615 -1.4050
  743MPD2    H210984   1.775   2.149   1.984  0.1902 -2.1307  1.9805
  743MPD2    H310985   1.914   2.133   2.151  0.9543  0.2358  0.9285
  743MPD2     N10986   2.281   2.041   1.872 -0.2730 -0.4183 -0.0268
  743MPD2    H510987   2.292   2.019   1.773  0.1553  2.4616 -0.6218
  743MPD2    N110988   1.818   2.111   1.728 -0.3800  0.0551 -0.4840
  743MPD2    H710989   1.726   2.123   1.771  0.7176  0.8879  1.6462
  744TMC3    C110990   1.690   2.069   1.536  0.3038  0.8870  0.3399
  744TMC3    C210991   1.602   2.160   1.590 -0.2081  0.0697 -0.4476
  744TMC3    C310992   1.481   2.175   1.520  0.2150 -0.4097  0.8039
  744TMC3    C410993   1.666   1.985   1.430  0.4068  0.6092 -0.4616
  744TMC3    C510994   1.544   2.006   1.369  0.4219 -0.5313  0.2142
  744TMC3    C610995   1.457   2.105   1.401 -0.0880  0.1630 -0.0564
  744TMC3     C10996   1.821   2.079   1.592 -0.1374  0.2793  0.3327
  744TMC3     O10997   1.908   2.039   1.518  0.8463  0.4376  0.3796
  744TMC3     H10998   1.637   2.241   1.653 -0.7114 -0.3553  0.3659
  744TMC3    H110999   1.737   1.921   1.380 -0.7322 -0.6041 -0.5224
  744TMC3    H211000   1.367   2.123   1.344  0.0012  0.5648 -0.0715
  744TMC3    C711001   1.524   1.972   1.229 -0.6915  0.5601 -0.5806
  744TMC3    C811002   1.373   2.265   1.567  0.4197 -0.1848 -0.1215
  744TMC3    O111003   1.622   1.993   1.157  0.0404 -0.0067  0.0166
  744TMC3    O211004   1.280   2.283   1.490  0.4009  0.1478  0.4440
  745TMC3    C111005   4.078   0.386  13.902  0.0744 -0.1092  0.9022
  745TMC3    C211006   4.039   0.456  14.014 -0.5659 -0.1061 -0.2712
  745TMC3    C311007   3.985   0.578  13.990 -0.0104  0.3061  0.5783
  745TMC3    C411008   4.033   0.415  13.776  0.0904  0.5149 -0.4385
  745TMC3    C511009   3.967   0.527  13.755 -0.2322 -0.4923  0.6593
  745TMC3    C611010   3.954   0.611  13.863  0.2009 -0.1445  0.0395
  745TMC3     C11011   4.175   0.284  13.905  0.2593 -0.0735  0.4902
  745TMC3     O11012   4.134   0.184  13.851  0.4147  0.1035 -0.9213
  745TMC3     H11013   4.084   0.439  14.111  0.4264  1.4323 -0.4512
  745TMC3    H111014   4.073   0.355  13.694  0.1220 -0.0193 -0.0341
  745TMC3    H211015   3.888   0.697  13.866 -3.5397 -2.9549 -2.5807
  745TMC3    C711016   3.982   0.589  13.630 -0.6322 -0.7214 -0.4130
  745TMC3    C811017   3.966   0.669  14.102  0.0408  0.7147  0.4472
  745TMC3    O111018   3.896   0.568  13.546 -0.0287  0.5766  0.8011
  745TMC3    O211019   3.884   0.761  14.095  0.1897 -0.3127 -0.2865
  746TMC3    C111020   1.542   2.471  10.951 -0.1735  0.4796  0.0939
  746TMC3    C211021   1.592   2.479  10.822  0.3429  0.3537 -0.3343
  746TMC3    C311022   1.520   2.449  10.715 -0.3120  0.7572 -0.1055
  746TMC3    C411023   1.408   2.438  10.971 -0.0860  0.4361  0.2171
  746TMC3    C511024   1.336   2.413  10.853 -0.3709  0.2179  0.1108
  746TMC3    C611025   1.389   2.414  10.726  0.7323  0.7870  0.1558
  746TMC3     C11026   1.591   2.557  11.050 -0.8972 -0.0473  0.5231
  746TMC3     O11027   1.494   2.600  11.109 -0.0129 -0.0980 -0.1436
  746TMC3     H11028   1.699   2.497  10.821 -0.0632  2.6759 -1.8928
  746TMC3    H111029   1.360   2.435  11.068 -0.0944 -3.0153  0.1327
  746TMC3    H211030   1.340   2.368  10.641  0.5961  1.0047  0.1158
  746TMC3    C711031   1.201   2.353  10.861 -0.1258 -0.3393  0.3543
  746TMC3    C811032   1.593   2.417  10.598 -0.2794  0.0663  0.0780
  746TMC3    O111033   1.127   2.385  10.763  0.1232 -0.1898 -0.0684
  746TMC3    O211034   1.546   2.335  10.517  0.3444 -0.2513  0.4644
  747TMC3    C111035   4.149   2.624  10.998 -0.5256 -0.1025 -0.5064
  747TMC3    C211036   4.123   2.521  11.080 -0.1706 -0.3056  0.2310
  747TMC3    C311037   4.145   2.534  11.214  0.5154 -0.1540  0.0009
  747TMC3    C411038   4.193   2.740  11.045  0.4017  0.2244  0.2195
  747TMC3    C511039   4.207   2.746  11.183 -0.3250 -0.1149  0.0228
  747TMC3    C611040   4.188   2.647  11.272 -0.5113  0.4063  0.3590
  747TMC3     C11041   4.075   2.633  10.878 -0.4883  0.2369  0.1986
  747TMC3     O11042   4.004   2.735  10.863  0.2542  0.0005 -0.0602
  747TMC3     H11043   4.072   2.433  11.043  0.8891 -0.2837 -1.2343
  747TMC3    H111044   4.189   2.826  10.979  0.1480  0.3230  0.3617
  747TMC3    H211045   4.218   2.646  11.376  2.0320  0.3005 -0.3523
  747TMC3    C711046   4.214   2.875  11.242 -0.4477 -0.3118  0.3989
  747TMC3    C811047   4.085   2.445  11.305  0.1028  0.5198 -0.1036
  747TMC3    O111048   4.176   2.898  11.359 -0.0527  0.6300  0.2662
  747TMC3    O211049   4.105   2.324  11.298  0.0697 -0.1450 -0.5388
  748MPD2     C11050   0.153   3.406   1.528 -0.3169 -0.3442  0.1278
  748MPD2    C111051   0.190   3.313   1.432 -0.4555 -0.6448  0.1009
  748MPD2    C211052   0.324   3.288   1.410  0.1831  0.1277 -0.1818
  748MPD2    C311053   0.419   3.346   1.489 -0.1295 -0.4053 -0.0765
  748MPD2    C411054   0.381   3.440   1.581 -0.2824  0.4666 -1.0745
  748MPD2    C511055   0.247   3.471   1.605 -0.3175  0.0059 -0.2132
  748MPD2     H11056   0.356   3.211   1.341 -0.0426 -0.4774  0.3949
  748MPD2    H111057   0.461   3.489   1.636  0.8609 -3.8275  1.1233
  748MPD2    H211058   0.053   3.424   1.565 -1.1850  1.3041 -3.0679
  748MPD2    H311059   0.220   3.546   1.678 -0.5720 -2.0226  1.7945
  748MPD2     N11060   0.554   3.322   1.459 -0.3022  0.0652  0.3744
  748MPD2    H511061   0.573   3.270   1.374 -1.0527  1.0437 -0.3901
  748MPD2    N111062   0.080   3.248   1.377  0.3949 -0.0284  0.2645
  748MPD2    H711063   4.712   3.287   1.404 -0.6302  0.2432 -3.4450
  749TMC3    C111064   0.782   3.318   1.506  0.1204 -0.3744  0.2438
  749TMC3    C211065   0.876   3.273   1.595  0.5246 -0.0016 -0.4278
  749TMC3    C311066   0.999   3.255   1.538 -0.3439  0.4575 -0.3485
  749TMC3    C411067   0.810   3.357   1.381 -0.1184 -0.5638 -0.1522
  749TMC3    C511068   0.942   3.347   1.341  0.4359 -0.0769 -0.1417
  749TMC3    C611069   1.039   3.291   1.412  1.1180  0.0610 -0.3824
  749TMC3     C11070   0.648   3.331   1.558 -0.1996 -0.4116  0.3196
  749TMC3     O11071   0.624   3.339   1.677  0.1633  0.0926  0.2158
  749TMC3     H11072   0.842   3.243   1.693  2.1849 -0.8594 -0.1333
  749TMC3    H111073   0.727   3.392   1.320 -1.6777  0.5522  2.6064
  749TMC3    H211074   1.133   3.266   1.366  1.6025  2.3940 -0.6189
  749TMC3    C711075   0.981   3.386   1.204 -0.5283 -0.3619 -0.4658
  749TMC3    C811076   1.088   3.178   1.632  0.8154 -0.4509 -0.1394
  749TMC3    O111077   1.093   3.426   1.188  0.0034  0.4601  0.3970
  749TMC3    O211078   1.053   3.163   1.746 -0.2663 -0.3527  0.0211
  750MPD2     C11079   2.042   3.878  11.052 -0.0435 -0.7752  0.1987
  750MPD2    C111080   1.916   3.870  10.995  0.0310 -0.0253 -0.0459
  750MPD2    C211081   1.895   3.793  10.880  0.0756 -0.4885  0.5983
  750MPD2    C311082   1.997   3.720  10.828  0.0072 -0.5982  0.0195
  750MPD2    C411083   2.117   3.723  10.891 -0.1953  0.2928  0.6768
  750MPD2    C511084   2.141   3.807  10.996  0.3197 -0.1291  0.0900
  750MPD2     H11085   1.792   3.782  10.846 -0.0498  0.7380  0.6107
  750MPD2    H111086   2.206   3.672  10.856 -0.3943  1.1277 -1.0560
  750MPD2    H211087   2.067   3.952  11.127  1.1471  0.5533 -1.5149
  750MPD2    H311088   2.234   3.807  11.051  1.4641 -2.1755 -1.8530
  750MPD2     N11089   1.993   3.638  10.712  0.1261  0.5256  0.0542
  750MPD2    H511090   2.065   3.566  10.711  0.5133  0.9370 -1.5004
  750MPD2    N111091   1.820   3.956  11.051  0.1039 -0.1252 -0.1074
  750MPD2    H711092   1.845   4.031  11.115  0.8206  1.9901 -2.8620
  751TMC3    C111093   1.899   3.530  10.531 -0.3533 -0.0410 -0.5562
  751TMC3    C211094   1.791   3.472  10.484  0.5236  0.6774  0.4194
  751TMC3    C311095   1.803   3.379  10.385  0.4911  0.6449  0.4327
  751TMC3    C411096   2.024   3.514  10.472 -0.1161 -0.6476  0.0949
  751TMC3    C511097   2.041   3.417  10.382  0.0861 -0.5054  0.2751
  751TMC3    C611098   1.927   3.347  10.338 -0.0448 -0.2923 -0.1826
  751TMC3     C11099   1.880   3.625  10.637  0.0806 -0.0973  0.0087
  751TMC3     O11100   1.766   3.667  10.652  0.4450  0.9454  0.2733
  751TMC3     H11101   1.696   3.484  10.534  0.8991  0.1844  1.2537
  751TMC3    H111102   2.107   3.578  10.500 -0.0641 -0.1491 -1.2042
  751TMC3    H211103   1.937   3.275  10.257 -0.5014 -0.9877  0.3700
  751TMC3    C711104   2.152   3.425  10.298  0.0680 -0.3012 -0.0453
  751TMC3    C811105   1.707   3.278  10.382  0.4678 -0.3955  0.2465
  751TMC3    O111106   2.257   3.466  10.356 -0.3946  0.1644 -0.1614
  751TMC3    O211107   1.747   3.161  10.368  0.2547  0.1862  0.1289
  752TMC3    C111108   0.974   4.666  17.365  0.4370  0.7846 -0.1464
  752TMC3    C211109   0.998   4.681  17.501  0.3376  0.5526 -0.3273
  752TMC3    C311110   0.964   0.082  17.553  0.4411 -0.0653 -0.0411
  752TMC3    C411111   0.930   0.045  17.286  0.7120 -0.3772 -0.3571
  752TMC3    C511112   0.898   0.165  17.346 -0.1110  0.2355 -0.6666
  752TMC3    C611113   0.919   0.188  17.482 -0.4801 -0.2154  0.3399
  752TMC3     C11114   0.995   4.536  17.312  0.2603 -0.5730 -0.1622
  752TMC3     O11115   1.092   4.472  17.353 -0.4309  0.4665  0.0175
  752TMC3     H11116   1.016   4.597  17.567  0.4812 -0.6324 -1.8858
  752TMC3    H111117   0.930   0.034  17.178 -1.4368 -0.3677 -0.3669
  752TMC3    H211118   0.893   0.282  17.530 -1.6761 -0.6371  0.5099
  752TMC3    C711119   0.859   0.282  17.271 -0.0869  0.6710  0.3327
  752TMC3    C811120   0.973   0.092   0.011  0.5626 -0.6315 -0.4952
  752TMC3    O111121   0.841   0.381  17.343 -0.2375 -0.3871  0.7410
  752TMC3    O211122   0.963   4.702   0.062  0.7150  0.1218  0.2775
  753TMC3    C111123   2.494   0.458  13.508 -0.0515 -0.4594  0.4333
  753TMC3    C211124   2.607   0.514  13.564  0.2633 -0.1353  0.1347
  753TMC3    C311125   2.724   0.475  13.507  0.1522 -0.5057 -0.2522
  753TMC3    C411126   2.499   0.365  13.412  0.5091 -0.1291 -0.2353
  753TMC3    C511127   2.614   0.329  13.361 -0.7008  0.4196  0.3553
  753TMC3    C611128   2.730   0.379  13.407 -0.8606  0.3280  0.5441
  753TMC3     C11129   2.361   0.528  13.528  0.1772 -0.1202 -0.4273
  753TMC3     O11130   2.355   0.621  13.607  0.1544  0.1475 -0.2532
  753TMC3     H11131   2.602   0.577  13.652  3.3889  2.4690 -1.5596
  753TMC3    H111132   2.422   0.291  13.393 -0.5583  0.9167  0.0208
  753TMC3    H211133   2.825   0.347  13.366 -1.1406  0.5314 -0.2540
  753TMC3    C711134   2.617   0.241  13.243 -0.0302  0.3068  0.3975
  753TMC3    C811135   2.849   0.543  13.538 -0.9356 -0.2082  0.4191
  753TMC3    O111136   2.506   0.188  13.214  0.7092 -0.2180 -0.2777
  753TMC3    O211137   2.955   0.499  13.494  0.0813  0.5733 -0.3941
  754MPD2     C11138   0.747   3.711  12.603  0.3072 -0.6336  0.3327
  754MPD2    C111139   0.763   3.718  12.739 -0.2976 -0.3491 -0.3090
  754MPD2    C211140   0.744   3.840  12.807  0.0007 -0.2422  0.3841
  754MPD2    C311141   0.691   3.950  12.736 -0.0368  0.7794 -0.8122
  754MPD2    C411142   0.663   3.931  12.604 -0.4542  0.0918  0.5586
  754MPD2    C511143   0.687   3.815  12.542  0.2751 -0.1965 -0.5969
  754MPD2     H11144   0.785   3.846  12.907 -4.4097 -2.0191  2.2908
  754MPD2    H111145   0.652   4.011  12.533  0.6562 -1.6542 -1.5791
  754MPD2    H211146   0.776   3.628  12.540  0.2627 -0.3568 -0.0517
  754MPD2    H311147   0.682   3.818  12.434 -1.0132  1.9577 -0.4812
  754MPD2     N11148   0.663   4.072  12.796  0.0296 -0.4912  0.8143
  754MPD2    H511149   0.606   4.137  12.745 -3.0681 -1.6356  2.7990
  754MPD2    N111150   0.821   3.608  12.813  0.2781 -0.2652  0.0297
  754MPD2    H711151   0.833   3.625  12.912 -0.1790  2.6851 -0.4258
  755MPD2     C11152   0.303   4.508  13.721  0.4735  0.5656  1.3757
  755MPD2    C111153   0.394   4.405  13.707 -0.3162 -0.3778  0.8918
  755MPD2    C211154   0.451   4.381  13.585 -0.0701 -0.5977 -0.0447
  755MPD2    C311155   0.424   4.461  13.478  0.5574  0.3695  0.3914
  755MPD2    C411156   0.333   4.559  13.493 -0.2493 -0.3503  0.2255
  755MPD2    C511157   0.273   4.589  13.616  0.0114 -0.4367  0.0252
  755MPD2     H11158   0.524   4.301  13.583 -0.4019 -0.9316  1.2068
  755MPD2    H111159   0.311   4.625  13.410  2.3220 -1.4716 -1.3436
  755MPD2    H211160   0.253   4.533  13.814  0.6877  0.7867  1.4335
  755MPD2    H311161   0.207   4.670  13.645 -0.7254 -1.8166  2.2382
  755MPD2     N11162   0.467   4.433  13.347 -0.5569  0.4546 -0.2790
  755MPD2    H511163   0.442   4.501  13.276 -0.1585  0.2286 -0.6280
  755MPD2    N111164   0.428   4.319  13.815 -0.5710 -0.4313 -0.0782
  755MPD2    H711165   0.484   4.238  13.791  1.3165  0.5238  1.0714
  756MPD2     C11166   1.735   0.479   9.499 -0.4807 -0.2488  0.0556
  756MPD2    C111167   1.662   0.375   9.556 -0.3156 -0.3661 -0.0826
  756MPD2    C211168   1.637   0.272   9.469  1.1990 -0.4171  0.5233
  756MPD2    C311169   1.665   0.274   9.333  0.2248 -0.5339 -0.8370
  756MPD2    C411170   1.719   0.387   9.277  0.1607 -0.2309 -0.5703
  756MPD2    C511171   1.758   0.483   9.362 -0.3014 -0.0256 -0.3926
  756MPD2     H11172   1.590   0.190   9.522 -1.5148 -0.0157 -1.2429
  756MPD2    H111173   1.756   0.394   9.176  2.3706  1.1527  0.3208
  756MPD2    H211174   1.780   0.560   9.555  2.2346 -1.1985 -0.7635
  756MPD2    H311175   1.817   0.566   9.324  0.5739 -1.6241 -2.4810
  756MPD2     N11176   1.637   0.158   9.257  0.5290  0.1832 -0.2579
  756MPD2    H511177   1.603   0.076   9.307  1.5897 -0.0618  0.0655
  756MPD2    N111178   1.642   0.361   9.695  0.3581 -0.3152 -0.0590
  756MPD2    H711179   1.575   0.289   9.722  0.3518 -0.5376 -0.6687
  757MPD2     C11180   0.876   4.388   8.746  0.0465 -0.6662  0.9273
  757MPD2    C111181   0.930   4.318   8.849 -0.6314 -0.0576  1.0883
  757MPD2    C211182   1.046   4.366   8.907  0.4948 -0.5278  0.3400
  757MPD2    C311183   1.115   4.477   8.853  0.1846 -0.4249 -0.1650
  757MPD2    C411184   1.060   4.538   8.744  0.5170  0.7457  0.3146
  757MPD2    C511185   0.945   4.493   8.691  0.4467  0.0379  0.2292
  757MPD2     H11186   1.093   4.315   8.990 -0.3034  1.4657  2.0410
  757MPD2    H111187   1.107   4.621   8.692 -1.1754  1.4812 -0.0531
  757MPD2    H211188   0.774   4.369   8.715 -0.1784  2.6353 -0.3286
  757MPD2    H311189   0.903   4.550   8.609 -0.4233 -2.1903 -0.8781
  757MPD2     N11190   1.240   4.504   8.915 -0.3684 -0.1857 -0.1605
  757MPD2    H511191   1.254   4.442   8.994 -1.6447 -0.4245 -0.1179
  757MPD2    N111192   0.865   4.204   8.896  0.6444  0.3747  0.7685
  757MPD2    H711193   0.771   4.183   8.863  0.3033  1.9370  0.7418
  758MPD2     C11194   1.166   3.638  16.302  0.2490  0.7707 -0.4177
  758MPD2    C111195   1.233   3.536  16.359  0.3776 -0.8296  0.1154
  758MPD2    C211196   1.187   3.497  16.478 -0.1472 -0.1774 -0.1166
  758MPD2    C311197   1.073   3.547  16.543  0.3156 -0.1704 -0.1421
  758MPD2    C411198   1.007   3.646  16.478 -0.3973 -0.6863 -0.5236
  758MPD2    C511199   1.054   3.690  16.356 -0.4674  0.0069 -0.0278
  758MPD2     H11200   1.246   3.429  16.539 -0.0234  0.9659  1.0490
  758MPD2    H111201   0.923   3.699  16.522 -0.8491  0.5993 -2.9646
  758MPD2    H211202   1.206   3.675  16.208 -0.7928  1.8380 -0.4427
  758MPD2    H311203   1.012   3.772  16.299 -4.7702 -0.6266  2.2494
  758MPD2     N11204   1.033   3.521  16.677 -0.0963 -0.3813  0.9137
  758MPD2    H511205   0.963   3.580  16.722 -1.5793 -1.1031 -0.4771
  758MPD2    N111206   1.352   3.482  16.301  0.0820  0.6410 -0.0644
  758MPD2    H711207   1.393   3.548  16.236 -1.1634  0.5513 -0.9417
  759MPD2     C11208   0.086   2.283  10.511 -0.3384  0.5969 -0.0850
  759MPD2    C111209   0.014   2.188  10.438  1.1646  0.0042  0.2561
  759MPD2    C211210   0.057   2.152  10.319  0.0978  0.2639 -0.8094
  759MPD2    C311211   0.172   2.215  10.265  1.0736 -0.2694 -0.3120
  759MPD2    C411212   0.238   2.310  10.338  0.5467 -0.3423  0.2446
  759MPD2    C511213   0.196   2.342  10.459 -0.1583  0.8284 -0.2904
  759MPD2     H11214   0.012   2.071  10.263 -0.1468  0.2741 -0.6270
  759MPD2    H111215   0.316   2.375  10.299 -0.7782  0.2868 -1.3586
  759MPD2    H211216   0.055   2.321  10.607  0.2571 -0.1419  0.4067
  759MPD2    H311217   0.243   2.417  10.522 -1.7633 -0.0983  1.9840
  759MPD2     N11218   0.224   2.177  10.135 -0.0309  0.4391 -0.2550
  759MPD2    H511219   0.170   2.116  10.074 -0.8999 -1.0413  1.9792
  759MPD2    N111220   4.632   2.113  10.495 -0.2374 -0.1005 -0.3637
  759MPD2    H711221   4.604   2.037  10.434  1.1367  1.3123 -2.7415
  760MPD2     C11222   3.998   0.277  11.575  0.0092 -0.2112  0.3798
  760MPD2    C111223   4.121   0.262  11.630 -0.6077  0.1455  0.4490
  760MPD2    C211224   4.135   0.215  11.760 -0.4393  0.5893  0.8658
  760MPD2    C311225   4.025   0.179  11.833 -0.6874 -0.3924 -0.0376
  760MPD2    C411226   3.906   0.196  11.774  0.2894  0.0872  0.1058
  760MPD2    C511227   3.890   0.240  11.643 -0.3389 -0.1680  0.2610
  760MPD2     H11228   4.235   0.211  11.799  0.9241 -0.1738 -2.6650
  760MPD2    H111229   3.822   0.162  11.833  1.8889 -4.0854 -0.0056
  760MPD2    H211230   3.981   0.303  11.471  1.5858  1.5575  0.5662
  760MPD2    H311231   3.793   0.265  11.601 -0.1633 -0.3994 -0.2834
  760MPD2     N11232   4.037   0.142  11.972 -0.1093  0.3044  0.2637
  760MPD2    H511233   3.950   0.130  12.024  1.6660 -0.6272  3.0067
  760MPD2    N111234   4.243   0.280  11.560 -0.5298  0.1867 -0.3037
  760MPD2    H711235   4.326   0.255  11.614  0.2457  2.3901 -0.4892
  761MPD2     C11236   1.211   3.149  10.444 -0.2845  0.9399  0.0549
  761MPD2    C111237   1.326   3.076  10.463  0.5059 -0.1477  0.5346
  761MPD2    C211238   1.450   3.135  10.435 -0.8342  0.7038  0.1012
  761MPD2    C311239   1.457   3.268  10.395  0.1881  0.0113 -0.4019
  761MPD2    C411240   1.337   3.342  10.382 -0.0927 -0.2288  0.1631
  761MPD2    C511241   1.213   3.281  10.402 -0.1865  0.9626  0.2344
  761MPD2     H11242   1.532   3.066  10.449 -0.9178  0.6387  0.2745
  761MPD2    H111243   1.332   3.448  10.361  1.2258  0.2581  2.3713
  761MPD2    H211244   1.113   3.103  10.448  0.9147 -1.6932 -0.8189
  761MPD2    H311245   1.116   3.326  10.383 -0.1207  1.2486  0.5879
  761MPD2     N11246   1.582   3.334  10.379  0.2479  0.0052 -0.0121
  761MPD2    H511247   1.576   3.435  10.366 -0.1685 -0.0415 -0.2004
  761MPD2    N111248   1.329   2.950  10.520  0.5605 -0.0201  0.4171
  761MPD2    H711249   1.424   2.914  10.523  0.1106 -1.2080  0.4921
  762MPD2     C11250   1.765   3.174  10.874 -0.2170 -0.0987  0.0577
  762MPD2    C111251   1.752   3.068  10.792  0.5114 -0.7069  0.1825
  762MPD2    C211252   1.845   3.048  10.693  0.1067  0.3152 -0.6524
  762MPD2    C311253   1.942   3.136  10.659  0.2037 -0.0366  0.4702
  762MPD2    C411254   1.961   3.248  10.747 -0.3291 -0.0460 -0.3565
  762MPD2    C511255   1.867   3.263  10.850 -0.4534 -0.1379 -0.1978
  762MPD2     H11256   1.835   2.954  10.640  1.2899 -1.1141  1.6541
  762MPD2    H111257   2.035   3.327  10.737 -1.1553  0.8571  0.6610
  762MPD2    H211258   1.695   3.176  10.957  1.3204  0.2172  1.3506
  762MPD2    H311259   1.873   3.354  10.909 -2.6093  0.9794 -1.7125
  762MPD2     N11260   2.032   3.102  10.554 -0.4207 -0.2168 -0.3832
  762MPD2    H511261   2.007   3.023  10.497  3.0060 -0.8688 -0.9802
  762MPD2    N111262   1.654   2.975  10.826  0.7025 -0.1172 -0.3845
  762MPD2    H711263   1.575   3.014  10.878  1.9644  1.4393  0.3735
  763MPD2     C11264   3.394   3.551  16.642  0.2519 -0.0438 -0.0958
  763MPD2    C111265   3.309   3.653  16.592 -0.0977  0.0280  0.0138
  763MPD2    C211266   3.300   3.782  16.656  0.1468  0.0011  0.0380
  763MPD2    C311267   3.381   3.810  16.768  0.1984 -1.0936  0.7441
  763MPD2    C411268   3.463   3.711  16.815 -0.1946 -0.3033 -0.4377
  763MPD2    C511269   3.470   3.586  16.751 -0.0730 -0.0905  0.2107
  763MPD2     H11270   3.234   3.858  16.616 -1.1243 -0.2675  1.6153
  763MPD2    H111271   3.541   3.730  16.888 -0.6232 -0.4198  0.0517
  763MPD2    H211272   3.409   3.461  16.582 -0.4263 -2.3782  3.2557
  763MPD2    H311273   3.545   3.516  16.785 -0.2885 -0.9079 -1.0080
  763MPD2     N11274   3.392   3.935  16.834  0.0100 -0.1412 -0.6506
  763MPD2    H511275   3.471   3.948  16.896  0.0659 -0.8742 -0.5708
  763MPD2    N111276   3.224   3.629  16.477 -0.4240 -0.4794 -0.5507
  763MPD2    H711277   3.171   3.710  16.446 -0.9405 -0.5090  0.2599
  764MPD2     C11278   1.199   0.960   0.422  0.3398  0.3019 -0.5321
  764MPD2    C111279   1.125   0.900   0.324 -0.4724  0.2813  0.3023
  764MPD2    C211280   1.028   0.811   0.349  0.4058 -0.0134  0.3818
  764MPD2    C311281   0.992   0.785   0.485  0.1130  0.0990 -0.1977
  764MPD2    C411282   1.059   0.851   0.580  0.6202  0.0670  0.0982
  764MPD2    C511283   1.164   0.934   0.548 -0.3132  0.1055 -0.3656
  764MPD2     H11284   0.982   0.759   0.266  1.4222 -0.9941  0.4391
  764MPD2    H111285   1.050   0.845   0.688 -1.0558 -0.9178 -0.0874
  764MPD2    H211286   1.283   1.027   0.407  0.6124  0.6967  2.7336
  764MPD2    H311287   1.224   0.975   0.628 -0.0292 -0.0591 -0.4938
  764MPD2     N11288   0.895   0.688   0.510  0.7036 -0.3592 -0.7637
  764MPD2    H511289   0.852   0.638   0.433 -0.5067  1.1686 -1.0775
  764MPD2    N111290   1.128   0.947   0.191 -0.7761  0.3314  0.2313
  764MPD2    H711291   1.044   0.929   0.137 -1.1963 -0.4346  1.1556
  765MPD2     C11292   0.674   2.614  16.232 -0.3869  0.3609 -0.1413
  765MPD2    C111293   0.756   2.717  16.194  0.4872 -0.2033 -0.7734
  765MPD2    C211294   0.848   2.696  16.092 -0.1615 -0.0210  0.1114
  765MPD2    C311295   0.867   2.580  16.034 -0.3705 -0.3337 -0.1948
  765MPD2    C411296   0.782   2.478  16.070  0.0745 -0.0017 -0.0354
  765MPD2    C511297   0.699   2.496  16.173  0.3991 -0.1494  0.4326
  765MPD2     H11298   0.907   2.780  16.057  1.2912 -0.4978  1.4371
  765MPD2    H111299   0.786   2.377  16.030  1.4796 -0.6522  1.7592
  765MPD2    H211300   0.605   2.623  16.315  0.6982  0.6754  0.7252
  765MPD2    H311301   0.650   2.406  16.208  0.5901 -0.6769 -0.6562
  765MPD2     N11302   0.972   2.568  15.932 -0.4061  0.3487  0.4696
  765MPD2    H511303   1.022   2.652  15.904  1.3877 -1.1232 -0.6714
  765MPD2    N111304   0.737   2.842  16.248  0.0792 -0.4255 -0.8720
  765MPD2    H711305   0.659   2.849  16.312  1.4045  1.3725  0.5242
  766MPD2     C11306   0.237   3.100  15.931 -0.4137 -0.4060 -0.2841
  766MPD2    C111307   0.374   3.107  15.920  0.4174 -0.5170  0.6463
  766MPD2    C211308   0.438   3.069  15.800  0.1126  0.1209  0.0812
  766MPD2    C311309   0.367   3.011  15.697  0.0317  0.6092 -0.0542
  766MPD2    C411310   0.231   3.009  15.708  0.0816 -0.0353  0.8840
  766MPD2    C511311   0.162   3.053  15.820 -0.1733  0.5670  0.2410
  766MPD2     H11312   0.542   3.096  15.788  0.3777 -2.0169 -2.3710
  766MPD2    H111313   0.178   2.966  15.623  1.3399  0.5028 -0.1650
  766MPD2    H211314   0.180   3.122  16.020 -1.7575 -0.5131 -1.1153
  766MPD2    H311315   0.055   3.046  15.835 -0.6322  1.8936 -2.4869
  766MPD2     N11316   0.426   2.970  15.576 -0.8584 -0.1164 -0.4243
  766MPD2    H511317   0.368   2.944  15.497 -1.2849 -0.9852  0.1638
  766MPD2    N111318   0.458   3.146  16.022  0.1123  0.0762  0.4432
  766MPD2    H711319   0.558   3.144  16.005  0.1457  1.7336  0.4002
  767MPD2     C11320   0.128   3.316  15.567  0.3087  0.8383 -0.3439
  767MPD2    C111321   0.245   3.302  15.490 -0.6959  1.0097 -0.7259
  767MPD2    C211322   0.232   3.230  15.366  0.5510 -0.0921 -0.1543
  767MPD2    C311323   0.107   3.178  15.328 -0.3477 -0.1147 -0.4392
  767MPD2    C411324   0.005   3.177  15.422  0.8292 -0.7355 -0.3725
  767MPD2    C511325   0.016   3.248  15.541 -0.4341  0.2060 -0.0094
  767MPD2     H11326   0.318   3.229  15.299  0.1929 -2.4689 -0.5648
  767MPD2    H111327   4.631   3.126  15.407  0.0124  1.4654 -2.5819
  767MPD2    H211328   0.124   3.370  15.661 -0.3496 -0.1258  0.1753
  767MPD2    H311329   4.646   3.249  15.599 -2.5394  0.9518 -3.3589
  767MPD2     N11330   0.096   3.097  15.209  0.3289 -0.2805  0.0523
  767MPD2    H511331   0.181   3.087  15.155  0.0386 -0.6536 -0.3361
  767MPD2    N111332   0.369   3.346  15.547  0.1683  0.1619  0.1272
  767MPD2    H711333   0.363   3.393  15.637  2.1445 -0.6217  0.6882
  768MPD2     C11334   0.971   2.201  10.376  0.1139 -0.0492 -0.5985
  768MPD2    C111335   0.936   2.088  10.449  0.0356 -0.6346  0.0159
  768MPD2    C211336   1.026   2.019  10.526 -0.9888 -0.1135  0.1160
  768MPD2    C311337   1.157   2.066  10.541  0.4372  0.1551  0.0033
  768MPD2    C411338   1.199   2.182  10.475  0.4441  0.3626 -0.1640
  768MPD2    C511339   1.104   2.248  10.394  0.9297  0.1501  0.2943
  768MPD2     H11340   1.001   1.921  10.566  1.0440 -0.2463  1.0304
  768MPD2    H111341   1.294   2.225  10.505 -0.3040  0.4414  2.0583
  768MPD2    H211342   0.907   2.258  10.310  1.8339  1.2519 -1.1476
  768MPD2    H311343   1.133   2.342  10.349 -1.4705  1.0735  0.7096
  768MPD2     N11344   1.250   2.007  10.628 -0.7731  0.2131  0.0902
  768MPD2    H511345   1.332   2.066  10.629  0.4351 -1.4600 -0.9346
  768MPD2    N111346   0.804   2.034  10.457 -0.5103  0.4889  0.4511
  768MPD2    H711347   0.790   1.957  10.522 -1.0099  0.5630  0.4262
  769MPD2     C11348   1.998   4.096  14.995  0.0315  0.5369 -0.2472
  769MPD2    C111349   1.917   4.205  14.970 -0.2323  0.9126 -0.8011
  769MPD2    C211350   1.922   4.316  15.051  0.2091  0.3719 -0.1326
  769MPD2    C311351   2.000   4.309  15.167  0.1792  0.1565  0.1848
  769MPD2    C411352   2.070   4.199  15.193  0.1184 -0.1590 -0.3123
  769MPD2    C511353   2.075   4.088  15.107  0.7239  0.0476  0.0841
  769MPD2     H11354   1.867   4.407  15.036  0.1484 -0.0731 -2.5768
  769MPD2    H111355   2.130   4.179  15.281 -1.0862 -0.7338  0.3809
  769MPD2    H211356   2.003   4.007  14.933 -3.1348 -0.1301  0.4829
  769MPD2    H311357   2.139   4.005  15.133  0.7652  0.5883  1.6589
  769MPD2     N11358   1.995   4.414  15.259  0.4556 -0.0726 -0.0854
  769MPD2    H511359   1.908   4.464  15.265  0.8118  0.7251 -1.7697
  769MPD2    N111360   1.833   4.185  14.861  0.9609 -0.6420  0.6136
  769MPD2    H711361   1.844   4.089  14.831  0.4197 -0.5215  0.0437
  770MPD2     C11362   1.405   3.474  14.926  0.0965  0.5499  0.5596
  770MPD2    C111363   1.523   3.533  14.962  0.0551 -0.2250  0.1495
  770MPD2    C211364   1.568   3.639  14.892  0.5262  0.5818  0.5142
  770MPD2    C311365   1.503   3.682  14.779 -0.3464  0.2234 -0.4089
  770MPD2    C411366   1.390   3.616  14.736 -0.3705  0.7147 -0.0213
  770MPD2    C511367   1.338   3.511  14.812  0.5090 -0.3136 -0.8192
  770MPD2     H11368   1.661   3.688  14.919  0.7643  1.8255 -2.4885
  770MPD2    H111369   1.328   3.645  14.652 -0.2367  1.2455  0.0628
  770MPD2    H211370   1.369   3.393  14.989  0.0197  1.1737  1.3089
  770MPD2    H311371   1.252   3.452  14.783 -0.1854  0.7518 -0.9367
  770MPD2     N11372   1.551   3.804  14.721  0.3292  0.0353  0.0241
  770MPD2    H511373   1.635   3.835  14.769  0.3650 -0.7838  0.5013
  770MPD2    N111374   1.591   3.465  15.060  0.1574  0.0947  0.2733
  770MPD2    H711375   1.544   3.388  15.108 -1.1925 -0.1902 -1.5349
  771MPD2     C11376   2.843   2.430  14.587 -0.7449 -0.0939 -0.0807
  771MPD2    C111377   2.771   2.462  14.465  0.4053 -0.2400 -0.1533
  771MPD2    C211378   2.764   2.356  14.374 -0.5810 -0.0349 -0.9194
  771MPD2    C311379   2.818   2.231  14.393  0.6435 -0.3217 -0.4737
  771MPD2    C411380   2.895   2.210  14.509  0.1907 -0.1131  0.4078
  771MPD2    C511381   2.901   2.308  14.604 -0.3041 -0.2055  0.5482
  771MPD2     H11382   2.708   2.364  14.281 -3.1646 -1.5002  0.4929
  771MPD2    H111383   2.933   2.112  14.534 -2.1664 -0.8304  1.2511
  771MPD2    H211384   2.848   2.504  14.667 -0.2199  0.1107 -0.2980
  771MPD2    H311385   2.946   2.291  14.701  0.8752  0.9371  0.1974
  771MPD2     N11386   2.779   2.130  14.306 -0.1272 -0.3653 -0.2625
  771MPD2    H511387   2.724   2.148  14.222 -0.2991 -1.1726 -0.3248
  771MPD2    N111388   2.706   2.585  14.429  0.0887 -0.8599 -0.0011
  771MPD2    H711389   2.641   2.585  14.351  0.2904  0.2244 -0.1673
  772MPD2     C11390   2.165   2.673  14.108  0.0228 -0.8905  0.2467
  772MPD2    C111391   2.164   2.765  14.214 -0.2619 -0.0417 -0.4225
  772MPD2    C211392   2.044   2.795  14.273 -0.5576 -0.3704  0.1992
  772MPD2    C311393   1.923   2.764  14.209 -0.3914 -0.2819  0.5468
  772MPD2    C411394   1.924   2.669  14.112  0.3334 -0.0910 -0.2214
  772MPD2    C511395   2.040   2.642  14.052  0.4794  1.0988 -0.0470
  772MPD2     H11396   2.043   2.860  14.360 -0.7371  0.1223 -0.1759
  772MPD2    H111397   1.838   2.616  14.073  0.6854  0.5221 -1.8088
  772MPD2    H211398   2.255   2.647  14.055 -0.0949  1.8524 -1.2961
  772MPD2    H311399   2.055   2.577  13.967 -1.2247  0.3445  0.2206
  772MPD2     N11400   1.796   2.796  14.262  0.6669  0.0579 -0.1185
  772MPD2    H511401   1.717   2.761  14.209 -1.5991  2.5263  1.6143
  772MPD2    N111402   2.291   2.812  14.267 -0.8503  0.4587  0.4063
  772MPD2    H711403   2.285   2.863  14.354 -0.0133 -1.4922  1.5977
  773MPD2     C11404   1.987   3.812   0.752 -0.4973 -0.1369  0.5625
  773MPD2    C111405   2.031   3.773   0.629  0.4779 -0.2785  0.0545
  773MPD2    C211406   2.081   3.647   0.612 -0.0750 -0.1041  0.1046
  773MPD2    C311407   2.091   3.566   0.718 -0.1331  0.4754  0.5343
  773MPD2    C411408   2.044   3.604   0.842 -0.4940  0.3237  0.3936
  773MPD2    C511409   1.991   3.722   0.854  0.3855 -0.2058 -0.5830
  773MPD2     H11410   2.129   3.609   0.522  1.3957 -0.3753  1.0107
  773MPD2    H111411   2.022   3.536   0.924  0.5383  0.4609  0.7784
  773MPD2    H211412   1.936   3.906   0.768  2.4691  1.4791  0.3399
  773MPD2    H311413   1.951   3.751   0.950  0.5008 -0.2537 -0.5214
  773MPD2     N11414   2.146   3.442   0.690  0.2897  0.0362 -0.6725
  773MPD2    H511415   2.180   3.434   0.595  1.2893  1.4047 -0.4148
  773MPD2    N111416   2.024   3.845   0.510 -0.3075  0.1249 -0.1139
  773MPD2    H711417   2.059   3.801   0.425  0.4815  1.4922 -0.5020
  774MPD2     C11418   0.911   2.758  13.264 -0.4183 -0.3641 -0.2554
  774MPD2    C111419   0.830   2.867  13.277  0.4160  0.3075  0.1006
  774MPD2    C211420   0.849   2.970  13.194 -0.4941  0.0249  0.0100
  774MPD2    C311421   0.949   2.967  13.096  0.7505 -0.3711 -0.2076
  774MPD2    C411422   1.025   2.855  13.084 -0.4109 -0.6983  0.0218
  774MPD2    C511423   1.002   2.747  13.166 -0.1298 -0.4001 -0.3974
  774MPD2     H11424   0.791   3.060  13.213  1.7021  1.7769 -1.7364
  774MPD2    H111425   1.099   2.845  13.005 -1.4932  3.1751 -1.4855
  774MPD2    H211426   0.903   2.670  13.327  0.3688  0.4654  0.9908
  774MPD2    H311427   1.064   2.659  13.155 -1.8421 -1.2074 -3.4034
  774MPD2     N11428   0.975   3.086  13.019  0.6940  0.1434  0.1257
  774MPD2    H511429   0.911   3.164  13.032  1.1844  0.3401  1.3128
  774MPD2    N111430   0.738   2.861  13.381  0.5235  0.0853  0.1591
  774MPD2    H711431   0.756   2.788  13.450  2.2324 -0.8654 -1.3096
  775MPD2     C11432   2.221   4.339  15.748  0.1260 -0.0003  0.1636
  775MPD2    C111433   2.243   4.453  15.826 -0.3223  0.1480 -0.4148
  775MPD2    C211434   2.349   4.537  15.796  0.2692  0.1963  0.1877
  775MPD2    C311435   2.433   4.510  15.684 -0.0699  0.3591 -0.4440
  775MPD2    C411436   2.401   4.398  15.610 -0.1361  0.0613  0.3927
  775MPD2    C511437   2.300   4.319  15.644  0.2292 -0.5798 -0.0075
  775MPD2     H11438   2.371   4.625  15.855 -0.9558  0.4819  0.2063
  775MPD2    H111439   2.457   4.370  15.522 -2.0965  1.7146 -1.3541
  775MPD2    H211440   2.143   4.265  15.765 -1.8004  2.0107  0.0605
  775MPD2    H311441   2.277   4.230  15.586 -0.2766 -1.1856  1.0966
  775MPD2     N11442   2.536   4.598  15.637  0.2387 -0.0412 -0.4260
  775MPD2    H511443   2.552   4.581  15.538 -3.0443 -0.5746 -0.8930
  775MPD2    N111444   2.154   4.484  15.929  0.0039  0.0103  0.0102
  775MPD2    H711445   2.093   4.415  15.972  0.4752 -0.9340 -0.8314
  776MPD2     C11446   2.039   4.508  11.202 -0.8206 -0.0954  0.2353
  776MPD2    C111447   1.915   4.548  11.154 -0.6822 -0.1509  0.4489
  776MPD2    C211448   1.882   4.681  11.132 -0.2510  0.5922  0.2432
  776MPD2    C311449   1.980   0.059  11.154  0.1436 -0.6270  0.3290
  776MPD2    C411450   2.103   0.013  11.190  0.1738 -0.2911 -0.1774
  776MPD2    C511451   2.138   4.605  11.210  0.1697  0.1076  0.0493
  776MPD2     H11452   1.778   4.706  11.115 -0.2862 -0.5604 -1.1929
  776MPD2    H111453   2.180   0.085  11.217 -0.2206  0.0173  0.1276
  776MPD2    H211454   2.056   4.408  11.240 -0.1408  0.5402  1.5970
  776MPD2    H311455   2.234   4.585  11.256 -0.5704  1.6642  2.2777
  776MPD2     N11456   1.947   0.196  11.165  0.3307  0.5497 -0.0679
  776MPD2    H511457   2.026   0.255  11.192  1.9005 -0.6292 -2.0963
  776MPD2    N111458   1.827   4.434  11.132 -0.1606 -0.3980 -0.1970
  776MPD2    H711459   1.870   4.342  11.134  0.5087 -0.0927 -0.6147
  777MPD2     C11460   1.579   2.831   0.726 -0.0165 -0.1238 -0.6843
  777MPD2    C111461   1.656   2.732   0.780 -0.0712  0.4228 -0.5507
  777MPD2    C211462   1.667   2.609   0.712 -0.1562  0.1583 -0.0165
  777MPD2    C311463   1.592   2.586   0.597 -0.2397  0.2351  0.7690
  777MPD2    C411464   1.512   2.692   0.552  0.4531  0.7502  0.8014
  777MPD2    C511465   1.504   2.809   0.615  0.2495  0.7786  0.4907
  777MPD2     H11466   1.735   2.534   0.750 -0.9566 -0.1570  0.7958
  777MPD2    H111467   1.444   2.683   0.468 -0.3705  2.8586  1.2397
  777MPD2    H211468   1.573   2.927   0.776  1.1876  0.0581 -0.8962
  777MPD2    H311469   1.443   2.888   0.573 -1.7572 -0.2673  1.4469
  777MPD2     N11470   1.591   2.453   0.547  0.3811 -0.0048  0.4753
  777MPD2    H511471   1.659   2.398   0.598 -2.3110 -1.1076  2.8726
  777MPD2    N111472   1.727   2.761   0.898 -0.3517 -0.4044 -0.2194
  777MPD2    H711473   1.709   2.849   0.945  1.1865 -0.1919 -0.0549
  778MPD2     C11474   2.788   2.355  15.631  0.5088  0.0444 -0.3020
  778MPD2    C111475   2.779   2.312  15.500  0.3633  1.4082  0.8979
  778MPD2    C211476   2.871   2.357  15.409  0.6161  0.2972 -0.0159
  778MPD2    C311477   2.971   2.444  15.453  0.3359  0.4984  1.1451
  778MPD2    C411478   2.988   2.476  15.586  0.1957  0.1441  0.6556
  778MPD2    C511479   2.896   2.432  15.679  0.3367 -0.0526  0.0769
  778MPD2     H11480   2.865   2.323  15.306  0.0620 -1.5665  0.6315
  778MPD2    H111481   3.070   2.529  15.633  0.1920  1.6150 -0.9823
  778MPD2    H211482   2.711   2.338  15.706 -0.3736 -0.1877 -1.2490
  778MPD2    H311483   2.906   2.458  15.783  1.3174 -0.9393  0.2076
  778MPD2     N11484   3.047   2.506  15.351  0.0724  0.5467  0.5573
  778MPD2    H511485   3.024   2.476  15.257 -1.1911  0.1013  1.0027
  778MPD2    N111486   2.668   2.243  15.455 -0.3114 -0.7703  0.1191
  778MPD2    H711487   2.648   2.233  15.356  0.0477 -1.9605  0.1624
  779MPD2     C11488   2.424   1.548  14.278  0.3514  0.1988 -0.2481
  779MPD2    C111489   2.546   1.559  14.343 -0.2921  0.1995 -0.0652
  779MPD2    C211490   2.572   1.671  14.414 -1.2589  0.0931 -0.3022
  779MPD2    C311491   2.482   1.772  14.419  0.3464 -0.3694  0.4386
  779MPD2    C411492   2.367   1.765  14.340  0.3559  0.7046  0.4091
  779MPD2    C511493   2.330   1.649  14.281  0.3129  1.0565 -0.4380
  779MPD2     H11494   2.663   1.688  14.470 -1.8806  1.0744  0.3971
  779MPD2    H111495   2.285   1.836  14.346 -0.8049 -0.7116  1.3415
  779MPD2    H211496   2.401   1.458  14.222 -0.5503 -1.5296  2.8932
  779MPD2    H311497   2.240   1.649  14.221  0.1921 -2.5233 -0.2214
  779MPD2     N11498   2.510   1.882  14.504  0.1167  0.3663  0.3733
  779MPD2    H511499   2.591   1.881  14.566  1.1060 -2.4782 -0.9703
  779MPD2    N111500   2.643   1.451  14.345 -0.4186  1.1639  0.1280
  779MPD2    H711501   2.704   1.449  14.426 -0.8151  0.6577  0.4094
  780MPD2     C11502   1.378   1.230   0.764 -0.0733 -0.3873  0.2809
  780MPD2    C111503   1.497   1.176   0.714 -1.2039  0.0510  0.0424
  780MPD2    C211504   1.593   1.257   0.657 -0.0176 -0.1199  0.4493
  780MPD2    C311505   1.570   1.389   0.649  0.1457  0.1770  0.2487
  780MPD2    C411506   1.451   1.446   0.697  0.3198  0.1756 -0.4924
  780MPD2    C511507   1.361   1.366   0.757 -0.2056 -0.1479  0.0784
  780MPD2     H11508   1.688   1.225   0.616 -1.3552 -1.5707 -1.5242
  780MPD2    H111509   1.425   1.548   0.672 -1.8365 -0.4767 -0.8630
  780MPD2    H211510   1.303   1.167   0.811 -1.1034 -0.0293 -0.8698
  780MPD2    H311511   1.270   1.409   0.797 -1.3344 -0.4089 -2.1900
  780MPD2     N11512   1.666   1.462   0.578 -0.4419 -0.1139  0.2142
  780MPD2    H511513   1.754   1.420   0.551  0.3218  1.5899  0.0516
  780MPD2    N111514   1.503   1.034   0.711 -0.1142 -0.3840  0.2147
  780MPD2    H711515   1.432   0.984   0.764 -0.4725  0.1002  0.1817
  781MPD2     C11516   3.854   3.700  12.263  0.1020 -0.0991  0.4266
  781MPD2    C111517   3.936   3.596  12.214  0.5757  0.0713  0.1521
  781MPD2    C211518   3.941   3.575  12.075  0.0826  0.3149 -0.1307
  781MPD2    C311519   3.884   3.671  11.989  0.7130 -0.5384  0.5387
  781MPD2    C411520   3.813   3.777  12.041  0.8283  0.6388 -0.0273
  781MPD2    C511521   3.791   3.787  12.177  0.4945 -0.5202 -0.1897
  781MPD2     H11522   4.005   3.500  12.029  0.3727  0.2818  0.3265
  781MPD2    H111523   3.765   3.848  11.975 -0.1635 -0.4719 -0.5055
  781MPD2    H211524   3.859   3.720  12.369  1.8346  2.6481 -0.1744
  781MPD2    H311525   3.724   3.866  12.207  1.5800  0.1992  0.3480
  781MPD2     N11526   3.898   3.670  11.847  0.3693  0.1170  0.3553
  781MPD2    H511527   3.859   3.742  11.787  0.5844 -0.7805 -0.8923
  781MPD2    N111528   3.997   3.497  12.292  0.6032 -0.7478 -0.1824
  781MPD2    H711529   4.019   3.409  12.246  0.5390  0.8206 -3.1817
  782MPD2     C11530   2.286   3.983   9.942 -0.1965 -0.1621 -0.4788
  782MPD2    C111531   2.420   4.007   9.964 -0.3153 -0.1031 -0.4890
  782MPD2    C211532   2.449   4.085  10.073  0.4039 -0.5589  0.2599
  782MPD2    C311533   2.355   4.117  10.170  0.0595 -0.2617 -0.1610
  782MPD2    C411534   2.224   4.081  10.151  0.2109 -0.0115 -0.6843
  782MPD2    C511535   2.195   4.028  10.028 -0.3784  0.5529  0.5614
  782MPD2     H11536   2.551   4.114  10.096 -0.4159  0.4877  2.5946
  782MPD2    H111537   2.138   4.119  10.204 -0.7645 -1.3669 -1.2868
  782MPD2    H211538   2.259   3.934   9.849 -1.3927 -2.1693  0.9318
  782MPD2    H311539   2.091   4.006  10.005 -0.3905  0.4176  0.7441
  782MPD2     N11540   2.393   4.196  10.278 -0.1809  0.2004  0.3955
  782MPD2    H511541   2.489   4.228  10.271  0.4020 -1.6493 -0.2261
  782MPD2    N111542   2.523   3.947   9.879  0.1200  0.5571 -0.8039
  782MPD2    H711543   2.491   3.865   9.828 -0.1980  0.2371 -0.0937
  783MPD2     C11544   2.214   3.276   9.963 -0.3338 -0.1792 -0.1514
  783MPD2    C111545   2.240   3.350  10.077  0.1593 -0.5145  0.0714
  783MPD2    C211546   2.364   3.407  10.087  0.5054 -0.4546 -0.4261
  783MPD2    C311547   2.451   3.407   9.978  0.3694  0.2689 -0.2144
  783MPD2    C411548   2.427   3.323   9.876 -0.4449  0.5722  0.7067
  783MPD2    C511549   2.311   3.252   9.871 -0.4467  0.2135 -0.1270
  783MPD2     H11550   2.394   3.478  10.163  3.3205 -0.9913 -1.0112
  783MPD2    H111551   2.501   3.301   9.801 -2.8750 -0.2168 -1.4662
  783MPD2    H211552   2.126   3.213   9.959 -0.4504 -0.2173  3.0413
  783MPD2    H311553   2.290   3.174   9.799 -3.0061 -0.3601  1.2394
  783MPD2     N11554   2.570   3.483   9.978 -0.0809  0.5827 -0.3724
  783MPD2    H511555   2.584   3.530  10.067  0.5395  1.3777 -0.8818
  783MPD2    N111556   2.136   3.357  10.179 -0.7649 -0.3722 -0.1132
  783MPD2    H711557   2.040   3.347  10.146 -0.0382 -2.4462 -1.5799
  784MPD2     C11558   3.376   4.213   1.823  0.5837  0.3743 -0.0144
  784MPD2    C111559   3.442   4.327   1.789 -0.1972 -0.2822  0.4802
  784MPD2    C211560   3.383   4.417   1.702  0.4132  0.7926  0.1679
  784MPD2    C311561   3.262   4.390   1.648  0.3067 -0.0518 -0.0606
  784MPD2    C411562   3.193   4.272   1.679 -0.2588  0.7346  0.5530
  784MPD2    C511563   3.260   4.182   1.755  0.0133  0.1984 -0.3826
  784MPD2     H11564   3.445   4.498   1.664  1.2844 -0.3681 -0.8743
  784MPD2    H111565   3.096   4.250   1.636  0.1830  4.9390 -2.7021
  784MPD2    H211566   3.429   4.141   1.885  1.5065 -0.2323 -1.4993
  784MPD2    H311567   3.233   4.077   1.756 -1.0341  0.4468 -2.2709
  784MPD2     N11568   3.205   4.495   1.573  0.1326  0.0038 -0.3105
  784MPD2    H511569   3.250   4.585   1.582  0.9059 -0.2745 -1.3414
  784MPD2    N111570   3.561   4.380   1.853  1.0143 -0.3564 -0.0037
  784MPD2    H711571   3.588   4.474   1.825 -0.1255  0.6030  2.0452
  785MPD2     C11572   0.251   2.490   9.612  0.5198 -0.1892  0.2125
  785MPD2    C111573   0.286   2.502   9.749 -0.6043 -0.6634  0.1527
  785MPD2    C211574   0.195   2.469   9.849  0.1590  0.4006  0.2389
  785MPD2    C311575   0.071   2.428   9.811 -0.2463 -0.3342  0.5273
  785MPD2    C411576   0.034   2.407   9.683  0.0066  0.6641 -0.2120
  785MPD2    C511577   0.128   2.440   9.582  0.9092  0.2613 -0.2464
  785MPD2     H11578   0.226   2.464   9.952  0.3137  4.1611  0.3868
  785MPD2    H111579   4.659   2.366   9.653  0.7048 -2.0681  1.3432
  785MPD2    H211580   0.324   2.517   9.536  0.6432  0.8893  0.7096
  785MPD2    H311581   0.099   2.434   9.477 -0.0638  0.3059  0.0247
  785MPD2     N11582   4.701   2.429   9.916  0.2242  0.5771  0.6230
  785MPD2    H511583   0.017   2.448  10.008 -0.0934  0.6069  0.7441
  785MPD2    N111584   0.413   2.550   9.795 -0.0288  0.1063 -0.1430
  785MPD2    H711585   0.422   2.571   9.894 -3.4613 -2.7642  0.7774
  786MPD2     C11586   3.682   0.471  14.104  0.4274  0.0835  0.0253
  786MPD2    C111587   3.755   0.374  14.160 -0.1056 -0.6935 -0.6552
  786MPD2    C211588   3.791   0.378  14.293 -0.5193 -0.0314  0.9349
  786MPD2    C311589   3.748   0.481  14.377 -0.0091  0.2636  0.0409
  786MPD2    C411590   3.677   0.582  14.315 -0.1506 -0.0281  0.0215
  786MPD2    C511591   3.635   0.572  14.183 -0.3016 -0.1510 -0.0528
  786MPD2     H11592   3.848   0.292  14.326  0.0444  1.5792  4.0662
  786MPD2    H111593   3.647   0.672  14.368 -1.4287 -0.3440 -0.1535
  786MPD2    H211594   3.643   0.465  14.003  0.0673 -0.9208  0.2182
  786MPD2    H311595   3.566   0.648  14.145 -0.4677 -1.0212 -1.4950
  786MPD2     N11596   3.789   0.494  14.513  0.2888  0.3773 -0.3879
  786MPD2    H511597   3.752   0.569  14.570 -0.1664  0.9624 -1.4751
  786MPD2    N111598   3.789   0.258  14.094  0.3154 -0.3523 -0.1347
  786MPD2    H711599   3.843   0.189  14.146  0.9574 -0.7197 -1.2977
  787MPD2     C11600   3.521   4.575  14.457 -0.6658  0.1318  0.7007
  787MPD2    C111601   3.649   4.544  14.404 -0.4822  0.0348  0.5662
  787MPD2    C211602   3.752   4.532  14.491  0.4009  0.1226  0.9338
  787MPD2    C311603   3.742   4.546  14.624 -0.2843  0.4443 -0.8722
  787MPD2    C411604   3.622   4.580  14.685  0.7500  0.8948  0.3618
  787MPD2    C511605   3.511   4.580  14.598 -0.3009  0.8624 -0.1265
  787MPD2     H11606   3.850   4.511  14.451 -0.4465  1.1930 -1.7139
  787MPD2    H111607   3.595   4.589  14.790  0.1540 -3.5722  0.5910
  787MPD2    H211608   3.432   4.619  14.414 -0.2716  3.0666  2.8607
  787MPD2    H311609   3.412   4.605  14.633 -0.4702  0.1928 -0.1406
  787MPD2     N11610   3.865   4.547  14.704  0.3546  0.1291 -0.5698
  787MPD2    H511611   3.946   4.503  14.660 -0.4688 -1.5432 -0.4140
  787MPD2    N111612   3.666   4.553  14.265  0.1442 -0.2207 -0.4236
  787MPD2    H711613   3.586   4.567  14.203  0.7127  1.4999 -0.7739
  788MPD2     C11614   0.008   3.970   1.562  0.4631  0.2033 -0.1820
  788MPD2    C111615   0.021   3.928   1.431  0.1283  0.3743  0.1267
  788MPD2    C211616   4.656   3.975   1.330  0.1820  0.1197 -0.4863
  788MPD2    C311617   4.565   4.071   1.360  0.0577  0.6803  0.3272
  788MPD2    C411618   4.550   4.105   1.493  0.4075 -0.1407  0.0980
  788MPD2    C511619   4.630   4.057   1.595 -0.2838  0.5060 -0.4858
  788MPD2     H11620   4.672   3.950   1.226  0.5716 -0.5426 -0.2702
  788MPD2    H111621   4.476   4.181   1.517 -0.4619 -0.5779 -1.2186
  788MPD2    H211622   0.065   3.926   1.644  1.6581  1.2825 -0.4415
  788MPD2    H311623   4.621   4.074   1.702 -2.2409  1.1756 -0.7713
  788MPD2     N11624   4.475   4.122   1.267 -0.0511  0.2249 -0.8857
  788MPD2    H511625   4.419   4.197   1.306  0.3966  1.4950 -2.6755
  788MPD2    N111626   0.117   3.838   1.385 -0.1043  0.0307 -0.2752
  788MPD2    H711627   0.135   3.826   1.286  2.7523  0.3981  0.1961
  789MPD2     C11628   0.957   3.127  16.663 -0.2029 -0.3693 -0.2246
  789MPD2    C111629   0.928   3.106  16.799 -0.1060 -0.4878 -0.6720
  789MPD2    C211630   0.842   3.191  16.860 -0.2028 -0.0505  0.1491
  789MPD2    C311631   0.767   3.286  16.793 -0.2268 -0.4336  0.5993
  789MPD2    C411632   0.791   3.301  16.661  0.1728  0.0868  0.6424
  789MPD2    C511633   0.884   3.223  16.597  0.3275  0.5951 -0.5437
  789MPD2     H11634   0.833   3.174  16.967 -0.9443 -2.2857 -0.2746
  789MPD2    H111635   0.725   3.358  16.597 -1.9363 -1.2308  1.6481
  789MPD2    H211636   1.028   3.067  16.607 -0.5207 -1.8902  0.9802
  789MPD2    H311637   0.906   3.232  16.491  1.2363  2.5145 -0.1944
  789MPD2     N11638   0.666   3.356  16.861  0.4516 -0.0150 -0.0226
  789MPD2    H511639   0.590   3.395  16.806 -0.3844 -0.5263  0.7696
  789MPD2    N111640   0.968   2.990  16.863 -0.1838 -0.4799 -0.0070
  789MPD2    H711641   0.932   2.990  16.958 -0.8192 -2.9641 -0.2553
  790MPD2     C11642   1.991   0.271  13.614 -0.4205  0.4322  0.0751
  790MPD2    C111643   2.056   0.187  13.529 -0.2531 -0.1636 -0.3444
  790MPD2    C211644   1.996   0.150  13.410  0.3874  0.0898  0.3695
  790MPD2    C311645   1.870   0.201  13.376 -0.9939 -0.9018  0.0707
  790MPD2    C411646   1.802   0.282  13.464 -0.3578 -0.0600  0.0789
  790MPD2    C511647   1.860   0.318  13.579  0.2274 -0.2582  0.3453
  790MPD2     H11648   2.051   0.085  13.342 -1.6179 -0.7065 -0.4846
  790MPD2    H111649   1.712   0.339  13.443  0.3486  1.1527  0.3002
  790MPD2    H211650   2.046   0.309  13.699 -0.0008  0.6885 -0.3111
  790MPD2    H311651   1.815   0.394  13.641 -1.1163  0.1734 -1.1932
  790MPD2     N11652   1.810   0.154  13.257 -0.3573  0.0203 -0.2286
  790MPD2    H511653   1.864   0.087  13.204 -1.8602 -1.5160  0.1964
  790MPD2    N111654   2.184   0.155  13.573 -0.0169  0.3259 -0.4140
  790MPD2    H711655   2.199   0.166  13.673  0.4182 -0.0398 -0.4352
  791MPD2     C11656   1.180   0.199  12.547 -0.0590 -0.4102  0.2947
  791MPD2    C111657   1.178   0.157  12.681  1.3026  0.7696  0.6686
  791MPD2    C211658   1.057   0.130  12.742 -0.2048 -0.3940  0.2097
  791MPD2    C311659   0.939   0.162  12.678 -0.3405 -0.3491 -0.2981
  791MPD2    C411660   0.941   0.210  12.548  0.0939 -0.7950 -0.6920
  791MPD2    C511661   1.059   0.227  12.490 -0.9208 -0.4892 -0.1818
  791MPD2     H11662   1.060   0.096  12.845 -0.8627 -2.2738 -0.4083
  791MPD2    H111663   0.855   0.216  12.483 -1.4083 -1.5878  1.2154
  791MPD2    H211664   1.276   0.202  12.497 -1.1152 -1.4086 -1.8241
  791MPD2    H311665   1.055   0.252  12.384 -0.1309 -0.4916 -0.2179
  791MPD2     N11666   0.815   0.136  12.750  1.6798  0.4162 -0.0930
  791MPD2    H511667   0.825   0.107  12.846 -0.9718  0.3983  0.1785
  791MPD2    N111668   1.302   0.168  12.748  0.8569 -0.6960  0.6562
  791MPD2    H711669   1.389   0.181  12.698  0.3041 -1.4206 -0.5076
  792MPD2     C11670   1.867   4.212  10.715 -0.8688 -0.5123  0.2651
  792MPD2    C111671   1.764   4.301  10.723 -0.1791 -0.4300 -0.7835
  792MPD2    C211672   1.637   4.248  10.710  0.5341 -0.2924 -0.0435
  792MPD2    C311673   1.609   4.119  10.688 -0.0381  0.6438 -0.0255
  792MPD2    C411674   1.717   4.031  10.672  0.4820 -0.4646 -0.2640
  792MPD2    C511675   1.847   4.082  10.678 -0.5642 -0.1689  0.3140
  792MPD2     H11676   1.553   4.313  10.732 -0.0119 -1.0176 -0.0176
  792MPD2    H111677   1.695   3.929  10.642 -0.3447 -0.3804  0.0392
  792MPD2    H211678   1.971   4.240  10.723 -0.4371 -2.3731  1.1534
  792MPD2    H311679   1.930   4.014  10.662 -0.7815 -0.3106 -0.2083
  792MPD2     N11680   1.483   4.078  10.651  0.0417  0.2624  0.1741
  792MPD2    H511681   1.479   3.988  10.605  0.7694  0.0096  0.5989
  792MPD2    N111682   1.795   4.436  10.746 -0.4830  0.2131 -0.2389
  792MPD2    H711683   1.895   4.454  10.750 -0.4267 -0.4911  1.7358
  793MPD2     C11684   1.108   0.068  10.151 -0.4209  0.4264 -0.1811
  793MPD2    C111685   1.235   0.020  10.140 -0.2791  0.4394  0.4738
  793MPD2    C211686   1.257   4.612  10.186  0.6035  0.2801  0.2074
  793MPD2    C311687   1.163   4.532  10.246 -0.4230 -0.0842 -0.2256
  793MPD2    C411688   1.036   4.577  10.242  0.0889 -0.2228 -0.4226
  793MPD2    C511689   1.014   4.708  10.197  0.8394 -0.3687  0.2528
  793MPD2     H11690   1.358   4.573  10.189 -0.2257 -1.7677  1.6005
  793MPD2    H111691   0.951   4.517  10.274 -2.0669  2.1829 -1.6368
  793MPD2    H211692   1.084   0.170  10.124 -0.3189  1.1231  2.3485
  793MPD2    H311693   0.912   0.022  10.194  0.5956 -1.2674 -1.8190
  793MPD2     N11694   1.200   4.405  10.299  0.5625 -0.3746  0.1522
  793MPD2    H511695   1.295   4.368  10.291  1.1720  0.8008  2.0171
  793MPD2    N111696   1.353   0.089  10.090 -0.9566  0.3367 -0.2580
  793MPD2    H711697   1.434   0.028  10.086  0.0982  1.8699 -1.9673
  794MPD2     C11698   1.717   4.608   0.230 -0.3426  0.3231 -0.0136
  794MPD2    C111699   1.668   4.505   0.150 -0.3540  0.3592 -0.2371
  794MPD2    C211700   1.614   4.542   0.029 -0.0278  0.7888 -0.5257
  794MPD2    C311701   1.615   4.671  17.670  0.3052  0.2458 -0.2044
  794MPD2    C411702   1.675   0.047   0.069  1.1475 -0.4682  0.2758
  794MPD2    C511703   1.733   0.013   0.181 -0.6062  0.5031 -0.3379
  794MPD2     H11704   1.576   4.459  17.658  0.7593 -0.4112  0.6691
  794MPD2    H111705   1.672   0.147   0.028 -0.6847 -0.7893 -0.3787
  794MPD2    H211706   1.747   4.595   0.333 -1.1492  2.4230  0.4856
  794MPD2    H311707   1.771   0.096   0.240 -0.1852  2.0400 -2.7778
  794MPD2     N11708   1.563   4.719  17.547  0.3312 -0.3067  0.7099
  794MPD2    H511709   1.561   0.098  17.531  1.0319 -0.8582 -2.8310
  794MPD2    N111710   1.686   4.365   0.175 -1.2097 -0.4199  0.6168
  794MPD2    H711711   1.673   4.295   0.102  0.4039 -1.4846  1.3526
  795MPD2     C11712   3.789   1.609  13.597  0.5243  0.0959  0.4718
  795MPD2    C111713   3.888   1.582  13.501 -0.2843 -0.7703  0.2115
  795MPD2    C211714   3.989   1.490  13.521  0.1627  0.0704 -0.4169
  795MPD2    C311715   3.988   1.424  13.643 -0.4049 -0.2385 -0.8415
  795MPD2    C411716   3.904   1.468  13.745 -0.3555 -1.2427 -0.7076
  795MPD2    C511717   3.805   1.555  13.720  0.0547  0.1453  0.4085
  795MPD2     H11718   4.058   1.464  13.441  0.4563 -0.5385  0.0427
  795MPD2    H111719   3.910   1.426  13.844 -0.2066 -2.3222 -1.1708
  795MPD2    H211720   3.707   1.676  13.575  2.6384  2.4618 -0.1375
  795MPD2    H311721   3.742   1.574  13.806 -0.3963 -1.4112  0.4277
  795MPD2     N11722   4.090   1.320  13.658  0.6286  0.1860 -0.2341
  795MPD2    H511723   4.123   1.280  13.571  0.5574  2.1616 -1.1733
  795MPD2    N111724   3.871   1.634  13.370 -0.0399  0.1491  0.2727
  795MPD2    H711725   3.910   1.583  13.290  2.4070  2.2805  0.1063
  796MPD2     C11726   3.501   3.192  16.387 -0.8468 -0.2936  0.0413
  796MPD2    C111727   3.606   3.248  16.458  0.5318  0.3523  0.0456
  796MPD2    C211728   3.639   3.379  16.435  0.4963 -0.5982 -0.0406
  796MPD2    C311729   3.577   3.461  16.349 -0.1230 -0.2827  0.4032
  796MPD2    C411730   3.472   3.408  16.278  0.0554 -0.4118 -0.6182
  796MPD2    C511731   3.444   3.271  16.297 -0.4349  0.1669 -0.2940
  796MPD2     H11732   3.717   3.422  16.497 -2.2757 -0.6270  3.4648
  796MPD2    H111733   3.403   3.461  16.213  0.1564 -1.5533 -1.6564
  796MPD2    H211734   3.461   3.092  16.399 -0.7798 -0.1283  1.6768
  796MPD2    H311735   3.352   3.241  16.249 -2.2170  0.5626  2.8604
  796MPD2     N11736   3.606   3.600  16.351 -0.2161 -0.6405 -0.5946
  796MPD2    H511737   3.677   3.628  16.418 -1.7133  2.3007 -0.2459
  796MPD2    N111738   3.665   3.162  16.549  0.2929  0.0096 -0.4149
  796MPD2    H711739   3.647   3.064  16.531 -1.0821  0.4314 -1.3168
  797MPD2     C11740   3.955   2.636   0.606 -0.5084  0.7660  0.2028
  797MPD2    C111741   4.059   2.697   0.536  0.4740 -0.0271 -0.3406
  797MPD2    C211742   4.030   2.817   0.468  0.2581 -0.3714 -0.0140
  797MPD2    C311743   3.903   2.871   0.474 -0.4155  0.2152  0.5329
  797MPD2    C411744   3.803   2.799   0.530  0.1469  0.2073  0.6307
  797MPD2    C511745   3.829   2.691   0.607  0.3782  0.4100 -0.4846
  797MPD2     H11746   4.109   2.860   0.409 -0.2183  0.2839 -0.1708
  797MPD2    H111747   3.698   2.825   0.538 -0.2283 -1.0120 -0.4518
  797MPD2    H211748   3.972   2.540   0.655 -1.7399  0.0534 -0.7653
  797MPD2    H311749   3.745   2.642   0.654  0.7688 -0.3612 -0.5903
  797MPD2     N11750   3.882   3.004   0.432  0.4443  0.9675 -0.2401
  797MPD2    H511751   3.786   3.035   0.426 -0.4680 -1.4051  1.7611
  797MPD2    N111752   4.192   2.642   0.519 -0.1383  0.1284  0.3930
  797MPD2    H711753   4.253   2.675   0.445 -1.6001 -0.6166 -1.1293
  798MPD2     C11754   4.539   3.170   0.159 -0.5736 -0.2554  0.0329
  798MPD2    C111755   4.418   3.111   0.162  0.3455  0.5118  0.8334
  798MPD2    C211756   4.416   2.977   0.195  0.1729 -0.4409 -0.1321
  798MPD2    C311757   4.533   2.902   0.217 -0.5144 -0.7301  0.2596
  798MPD2    C411758   4.663   2.964   0.203 -0.3406 -0.4130 -0.3362
  798MPD2    C511759   4.658   3.104   0.178  0.2431  0.7276  0.0834
  798MPD2     H11760   4.321   2.927   0.210 -1.1592  2.2709  0.4914
  798MPD2    H111761   0.041   2.926   0.226 -0.5122 -0.7242 -0.1035
  798MPD2    H211762   4.536   3.277   0.143  3.1443 -0.2562 -0.6486
  798MPD2    H311763   0.023   3.169   0.188  1.5745 -0.9806 -0.3306
  798MPD2     N11764   4.514   2.772   0.257  0.4135  0.1827 -0.0691
  798MPD2    H511765   4.421   2.733   0.269  0.5446 -0.1550 -0.1580
  798MPD2    N111766   4.300   3.184   0.128 -0.6701 -0.3587  0.2059
  798MPD2    H711767   4.302   3.285   0.136 -3.4728 -0.2939 -0.1301
  799MPD2     C11768   3.572   4.213  14.982 -0.0173 -0.5076 -0.3050
  799MPD2    C111769   3.471   4.123  14.973  0.0339  0.1399 -0.4671
  799MPD2    C211770   3.348   4.154  14.923  0.2967  0.4181 -1.0851
  799MPD2    C311771   3.334   4.279  14.867 -0.3287  0.2244  0.5252
  799MPD2    C411772   3.438   4.370  14.877  0.0352  0.0021  0.3420
  799MPD2    C511773   3.552   4.342  14.943  0.3885  0.3038 -0.1802
  799MPD2     H11774   3.260   4.090  14.929  2.1799 -2.0366  0.0919
  799MPD2    H111775   3.437   4.472  14.840 -0.6469 -0.2201 -0.2547
  799MPD2    H211776   3.675   4.192  15.010 -0.2735 -0.2402  0.8060
  799MPD2    H311777   3.631   4.415  14.957  0.4659  0.1385  0.2585
  799MPD2     N11778   3.221   4.309  14.790 -0.0934 -0.9586 -0.9646
  799MPD2    H511779   3.218   4.404  14.756  2.1831 -0.0456  1.3718
  799MPD2    N111780   3.479   3.990  15.019  0.5300 -0.1381 -0.4260
  799MPD2    H711781   3.399   3.928  15.015  0.3747 -0.0403  0.9069
  800MPD2     C11782   4.132   0.900  14.516 -0.4845  0.4584 -0.4110
  800MPD2    C111783   4.237   0.844  14.452 -0.7608  0.6080  0.1542
  800MPD2    C211784   4.216   0.770  14.337  0.2992  0.0935 -0.2898
  800MPD2    C311785   4.088   0.747  14.293  0.0114 -0.5679  0.2506
  800MPD2    C411786   3.978   0.802  14.364 -0.8894 -0.0640 -0.5774
  800MPD2    C511787   4.004   0.882  14.475  0.7471 -0.4079 -0.1051
  800MPD2     H11788   4.304   0.745  14.279 -1.4605 -1.0724 -2.4711
  800MPD2    H111789   3.875   0.784  14.337  0.0713 -1.5514 -3.2737
  800MPD2    H211790   4.146   0.955  14.608  1.8594 -1.6048  0.4788
  800MPD2    H311791   3.921   0.921  14.532 -0.0515 -0.5398 -1.1717
  800MPD2     N11792   4.072   0.660  14.189  0.0862 -0.0892  0.1432
  800MPD2    H511793   4.155   0.609  14.161  0.1435 -0.4322  0.9240
  800MPD2    N111794   4.364   0.895  14.492  0.7005  0.0679  0.3793
  800MPD2    H711795   4.366   0.957  14.572  2.9782  1.8163 -1.0125
  801MPD2     C11796   4.459   1.505  14.717 -0.0740 -0.2476  0.1031
  801MPD2    C111797   4.407   1.374  14.693  0.2588 -0.1533 -0.3140
  801MPD2    C211798   4.282   1.343  14.735 -0.0282 -0.1127 -0.0999
  801MPD2    C311799   4.197   1.435  14.795  0.2393 -0.3419 -0.0486
  801MPD2    C411800   4.252   1.567  14.820  0.3317 -0.4520 -0.3432
  801MPD2    C511801   4.379   1.598  14.773 -0.2388 -0.0795  0.7872
  801MPD2     H11802   4.251   1.242  14.712 -2.5762  0.5531  0.4034
  801MPD2    H111803   4.194   1.642  14.873  1.2396  0.1321 -0.1769
  801MPD2    H211804   4.552   1.542  14.675  0.1193  0.6209  1.2857
  801MPD2    H311805   4.412   1.701  14.769 -1.4777  0.1935 -2.4911
  801MPD2     N11806   4.060   1.406  14.823  0.9523 -0.4448  0.2683
  801MPD2    H511807   4.002   1.471  14.877  3.2028  2.1500 -0.4263
  801MPD2    N111808   4.490   1.278  14.629  0.0011  0.1511  0.3862
  801MPD2    H711809   4.443   1.188  14.628 -0.0406  0.1781 -0.7229
  802MPD2     C11810   3.123   1.549   0.566 -0.9026 -0.1497  0.4461
  802MPD2    C111811   3.082   1.633   0.466  0.3694  0.1794  0.0751
  802MPD2    C211812   3.098   1.596   0.331  0.4051 -0.0935  0.1239
  802MPD2    C311813   3.173   1.485   0.304  0.0456 -0.4448 -0.3263
  802MPD2    C411814   3.212   1.405   0.402  0.2746 -0.3145  0.6992
  802MPD2    C511815   3.187   1.432   0.534  0.5357 -0.1269  0.3731
  802MPD2     H11816   3.054   1.654   0.251 -2.4626  0.5203  2.1630
  802MPD2    H111817   3.263   1.312   0.383  1.2007  0.6441 -1.4599
  802MPD2    H211818   3.103   1.573   0.670  2.9123 -1.4866  1.4667
  802MPD2    H311819   3.233   1.369   0.609  1.9168 -0.9552 -1.1600
  802MPD2     N11820   3.195   1.457   0.165  0.3025 -0.4957 -0.1563
  802MPD2    H511821   3.150   1.530   0.112 -1.9176 -0.7435  1.4208
  802MPD2    N111822   3.005   1.749   0.494  0.4712  0.4865  0.1323
  802MPD2    H711823   2.963   1.795   0.414 -0.4264 -0.2580  0.1718
  803MPD2     C11824   4.434   0.531  11.863 -0.2488  0.9661  0.0502
  803MPD2    C111825   4.541   0.558  11.947 -0.7773  0.1470  0.7766
  803MPD2    C211826   4.521   0.549  12.082 -0.2920  0.2105  0.0847
  803MPD2    C311827   4.400   0.502  12.132 -0.2811  0.5221 -0.3003
  803MPD2    C411828   4.293   0.470  12.047  0.0448 -0.3213  0.1879
  803MPD2    C511829   4.310   0.496  11.913 -0.2225  0.5401  0.6792
  803MPD2     H11830   4.599   0.574  12.153  0.1056  1.7226 -0.8865
  803MPD2    H111831   4.204   0.425  12.088  1.0875 -3.4217 -0.9374
  803MPD2    H211832   4.438   0.547  11.755 -1.1314  1.7697  0.1346
  803MPD2    H311833   4.234   0.470  11.840 -0.2335  0.7684  0.6099
  803MPD2     N11834   4.374   0.485  12.264  0.7229 -0.0663 -0.8658
  803MPD2    H511835   4.285   0.443  12.288  1.7086 -1.7395 -0.2162
  803MPD2    N111836   4.670   0.599  11.897  0.1581  0.1602 -0.1892
  803MPD2    H711837   0.012   0.627  11.971 -0.3450 -3.5686  1.5931
  804MPD2     C11838   3.939   1.260  17.247  0.2516 -0.1486 -0.1158
  804MPD2    C111839   3.871   1.224  17.362 -0.1334  0.6396  0.0306
  804MPD2    C211840   3.858   1.322  17.463 -0.2032  0.2843 -0.3918
  804MPD2    C311841   3.898   1.454  17.430  0.2361 -0.5561 -0.0346
  804MPD2    C411842   3.958   1.480  17.307 -0.1568  0.2456  0.4514
  804MPD2    C511843   3.992   1.382  17.224  0.4999 -0.4032  0.3400
  804MPD2     H11844   3.821   1.292  17.560  0.5307  0.9051  0.0736
  804MPD2    H111845   3.986   1.580  17.276 -0.3755 -0.0729 -0.7544
  804MPD2    H211846   3.963   1.182  17.176  1.5960  0.8661 -0.7757
  804MPD2    H311847   4.032   1.414  17.128  0.4035 -0.6556  0.2131
  804MPD2     N11848   3.908   1.556  17.530 -0.0034  0.6485 -0.4646
  804MPD2    H511849   3.965   1.639  17.514 -0.1350  0.9905  0.7686
  804MPD2    N111850   3.833   1.087  17.395  0.6067  0.1860  0.1177
  804MPD2    H711851   3.797   1.074  17.489 -0.2390  1.5473 -0.0222
  805MPD2     C11852   3.307   4.454  15.888  0.7250 -0.0728 -0.3149
  805MPD2    C111853   3.429   4.482  15.825  0.1888  0.8315  0.7213
  805MPD2    C211854   3.538   4.465  15.905 -0.6087 -0.3340  0.1840
  805MPD2    C311855   3.540   4.411  16.036 -0.9282 -0.4004  0.3492
  805MPD2    C411856   3.421   4.377  16.097 -0.1204  0.0054 -0.6787
  805MPD2    C511857   3.309   4.396  16.015 -0.4272  0.3053  0.0116
  805MPD2     H11858   3.633   4.493  15.859  0.0056 -0.9326  1.0921
  805MPD2    H111859   3.408   4.331  16.194 -1.8872  0.5798 -0.6368
  805MPD2    H211860   3.214   4.454  15.832  1.1667 -1.0904 -1.0604
  805MPD2    H311861   3.215   4.373  16.063 -0.9402  2.2607 -0.0496
  805MPD2     N11862   3.663   4.426  16.110  0.1107  0.3864  0.4398
  805MPD2    H511863   3.736   4.477  16.063  1.4079  0.1651  2.2027
  805MPD2    N111864   3.438   4.522  15.692 -0.3163  0.0364 -0.1556
  805MPD2    H711865   3.528   4.518  15.646 -0.0383 -1.8298  0.5675
  806MPD2     C11866   2.941   3.827   0.471 -0.5625  0.8043 -0.3151
  806MPD2    C111867   3.058   3.815   0.539 -0.0982  0.1122 -0.5559
  806MPD2    C211868   3.169   3.768   0.467  0.1507 -0.3085  0.4446
  806MPD2    C311869   3.162   3.775   0.331  0.5985 -1.2239 -0.9777
  806MPD2    C411870   3.051   3.813   0.260  0.2334  0.1438 -0.0663
  806MPD2    C511871   2.938   3.828   0.337  0.3881  0.7291 -1.7198
  806MPD2     H11872   3.261   3.733   0.512  0.9374  2.1944  0.7999
  806MPD2    H111873   3.049   3.830   0.153 -1.4249  1.5321  0.1864
  806MPD2    H211874   2.845   3.853   0.515 -0.8054 -1.3688  0.4174
  806MPD2    H311875   2.840   3.840   0.292 -0.6627 -1.5467 -0.0182
  806MPD2     N11876   3.294   3.760   0.276  0.7231 -0.3375 -0.3743
  806MPD2    H511877   3.369   3.761   0.345  0.0065  1.8573  0.3780
  806MPD2    N111878   3.053   3.817   0.680 -0.6490 -0.3709  0.3766
  806MPD2    H711879   2.973   3.870   0.712 -0.8858  0.2358 -1.1964
  807MPD2     C11880   2.881   3.599   1.412  0.3081 -0.4252  0.1301
  807MPD2    C111881   3.007   3.584   1.359  0.3098  0.3858  0.1500
  807MPD2    C211882   3.092   3.484   1.409  0.1390  0.3343  0.1311
  807MPD2    C311883   3.058   3.401   1.518 -0.3482  0.2062  0.6265
  807MPD2    C411884   2.920   3.407   1.557 -0.2834  0.4781  0.6911
  807MPD2    C511885   2.838   3.511   1.506 -0.2468  0.1279  0.0953
  807MPD2     H11886   3.189   3.474   1.361 -0.1543  1.2208 -0.6475
  807MPD2    H111887   2.890   3.350   1.644  0.7646 -1.1765 -0.0303
  807MPD2    H211888   2.818   3.681   1.381  0.1033 -1.4747 -2.2542
  807MPD2    H311889   2.737   3.527   1.543 -0.2524 -0.3724  0.2932
  807MPD2     N11890   3.153   3.312   1.571 -0.2145 -0.8467 -0.3568
  807MPD2    H511891   3.250   3.330   1.546 -0.7020  0.3572 -1.3918
  807MPD2    N111892   3.062   3.682   1.268 -0.0989 -0.3763  0.8799
  807MPD2    H711893   3.162   3.697   1.260  0.1733 -1.6506  1.9998
  808MPD2     C11894   4.359   0.487   9.939  0.5829  0.2121  0.2626
  808MPD2    C111895   4.269   0.583   9.978 -0.5904  0.7026 -0.7197
  808MPD2    C211896   4.329   0.701  10.033 -0.0739 -0.1687  0.5936
  808MPD2    C311897   4.462   0.723  10.029  1.3321 -0.3815 -0.1503
  808MPD2    C411898   4.547   0.629   9.974  0.0649  0.0769 -0.0601
  808MPD2    C511899   4.494   0.512   9.939 -0.0428 -0.5742  0.6068
  808MPD2     H11900   4.266   0.774  10.082 -0.8731  0.1258 -0.8965
  808MPD2    H111901   4.654   0.636   9.958 -0.1663  2.2544 -0.7625
  808MPD2    H211902   4.335   0.394   9.887  0.1728  1.2191 -1.3472
  808MPD2    H311903   4.560   0.438   9.896 -1.3451 -1.1526 -0.4027
  808MPD2     N11904   4.520   0.841  10.078  0.0184  0.6236  0.4064
  808MPD2    H511905   4.621   0.854  10.072 -0.3157  2.6388 -0.8089
  808MPD2    N111906   4.132   0.575   9.978 -0.6667  0.1553  0.2851
  808MPD2    H711907   4.081   0.663   9.988 -1.3415 -0.3354  1.1386
  809MPD2     C11908   0.420   1.411   9.596 -0.2041 -0.2359  0.2972
  809MPD2    C111909   0.409   1.277   9.635  0.1670 -0.2524  0.2178
  809MPD2    C211910   0.294   1.237   9.697 -0.4294 -0.4329 -0.8710
  809MPD2    C311911   0.186   1.330   9.729 -0.1700 -0.4116 -0.8262
  809MPD2    C411912   0.198   1.451   9.681  0.1076  0.2921 -0.1637
  809MPD2    C511913   0.315   1.498   9.620  0.4021  0.8518  0.2483
  809MPD2     H11914   0.284   1.133   9.727  0.5303 -0.2571  0.0585
  809MPD2    H111915   0.122   1.524   9.704  0.2785  0.5537 -0.4224
  809MPD2    H211916   0.510   1.450   9.550 -0.7939 -0.3151 -0.9050
  809MPD2    H311917   0.327   1.598   9.580  1.0229  0.5632 -0.2738
  809MPD2     N11918   0.074   1.299   9.803 -0.0728 -0.1587  0.1352
  809MPD2    H511919   0.010   1.375   9.823 -0.5711 -0.6079  0.2778
  809MPD2    N111920   0.512   1.190   9.606  0.3360  0.0124 -0.2337
  809MPD2    H711921   0.605   1.226   9.589 -0.3595  1.6431 -0.6203
  810MPD2     C11922   4.191   0.403  10.310  0.7517 -0.2101 -0.0742
  810MPD2    C111923   4.060   0.442  10.310 -0.1672 -0.1737  0.4600
  810MPD2    C211924   4.032   0.576  10.310  0.4778  0.3764 -0.4171
  810MPD2    C311925   4.132   0.672  10.326 -0.3138  0.0103 -0.0314
  810MPD2    C411926   4.265   0.629  10.350 -0.5674  0.1581 -0.8745
  810MPD2    C511927   4.290   0.495  10.343  0.1124 -1.2333  0.4511
  810MPD2     H11928   3.937   0.618  10.277  1.2881  1.2464 -1.6510
  810MPD2    H111929   4.343   0.703  10.368 -0.4360 -0.5553  1.4407
  810MPD2    H211930   4.211   0.297  10.322 -1.3288 -0.6764 -0.6606
  810MPD2    H311931   4.388   0.458  10.372  0.8749  0.5453  0.1891
  810MPD2     N11932   4.105   0.810  10.325 -0.0555 -0.5685 -0.4258
  810MPD2    H511933   4.189   0.867  10.320 -1.2756  1.3023  0.8404
  810MPD2    N111934   3.950   0.358  10.289 -0.0170 -0.0527 -1.0178
  810MPD2    H711935   3.857   0.398  10.296  0.2926  0.2687  1.2034
  811MPD2     C11936   3.238   0.311   9.873  0.0493  0.0181 -0.2289
  811MPD2    C111937   3.350   0.363   9.936 -0.8331 -0.6139  0.6765
  811MPD2    C211938   3.375   0.500   9.916 -0.0849  0.3590  0.2745
  811MPD2    C311939   3.288   0.581   9.842 -0.9582  0.1942  0.1431
  811MPD2    C411940   3.190   0.522   9.774 -0.1784 -0.5740  0.1476
  811MPD2    C511941   3.167   0.389   9.787  0.2238 -0.1669 -0.0304
  811MPD2     H11942   3.467   0.543   9.954 -0.3463  0.1869  1.0926
  811MPD2    H111943   3.133   0.580   9.703 -3.1870 -1.6180  1.6849
  811MPD2    H211944   3.217   0.204   9.874 -4.4832  0.9324  1.0974
  811MPD2    H311945   3.075   0.353   9.744  0.5173 -0.1999 -0.6266
  811MPD2     N11946   3.305   0.724   9.830 -0.2798 -0.2245 -0.1489
  811MPD2    H511947   3.389   0.768   9.867 -0.5239  0.6272 -0.6146
  811MPD2    N111948   3.438   0.271  10.011  0.0864 -0.3156  0.9092
  811MPD2    H711949   3.414   0.173  10.000 -3.0993  0.4687  0.9105
  812MPD2     C11950   2.502   4.414  12.017  0.1159 -0.1013 -0.0856
  812MPD2    C111951   2.436   4.515  12.082  0.3211  0.0640  0.8733
  812MPD2    C211952   2.471   4.540  12.210 -0.3723 -0.8508  0.2897
  812MPD2    C311953   2.576   4.478  12.271 -0.2779  0.8517  0.0875
  812MPD2    C411954   2.647   4.379  12.199 -0.2853  0.6279 -0.2886
  812MPD2    C511955   2.599   4.344  12.085 -0.4820 -0.1824  0.6519
  812MPD2     H11956   2.445   4.634  12.257 -3.0637 -0.9851 -0.9353
  812MPD2    H111957   2.728   4.316  12.232  0.3118  0.9269 -1.2039
  812MPD2    H211958   2.478   4.378  11.917  0.9707  3.1850 -1.5013
  812MPD2    H311959   2.643   4.265  12.025  0.5140  1.4494 -0.7615
  812MPD2     N11960   2.612   4.521  12.402  0.2585  0.1852  0.0880
  812MPD2    H511961   2.559   4.597  12.442  0.8573  0.2011  0.8477
  812MPD2    N111962   2.342   4.586  12.003 -0.0014  0.4116 -0.1540
  812MPD2    H711963   2.343   4.558  11.906  1.0706  1.1090 -0.3367
  813MPD2     C11964   1.874   2.105  13.461 -0.1235  0.5450  1.4132
  813MPD2    C111965   1.795   2.157  13.359 -0.6400  0.1372 -0.0821
  813MPD2    C211966   1.663   2.105  13.340 -0.3117  0.9619 -0.0481
  813MPD2    C311967   1.615   2.008  13.427  0.5005  0.2239 -0.0399
  813MPD2    C411968   1.697   1.966  13.527  0.2847 -0.0671  0.0295
  813MPD2    C511969   1.824   2.009  13.546  0.5123 -0.2089 -0.1952
  813MPD2     H11970   1.598   2.147  13.264 -0.2806  1.1709  0.0385
  813MPD2    H111971   1.653   1.897  13.598  1.4217  1.8313  2.5545
  813MPD2    H211972   1.972   2.149  13.478 -0.3680  1.0612  1.4973
  813MPD2    H311973   1.871   1.988  13.641 -0.8818  1.5984  0.9045
  813MPD2     N11974   1.484   1.967  13.399  0.8616 -0.4821  0.6523
  813MPD2    H511975   1.449   2.004  13.311 -0.9747 -2.6808  0.4825
  813MPD2    N111976   1.850   2.256  13.280 -0.2657 -0.1819  0.0904
  813MPD2    H711977   1.931   2.302  13.320 -1.4758  0.9707  1.2233
  814MPD2     C11978   1.645   3.031  12.941  0.1451  0.8320 -0.2431
  814MPD2    C111979   1.640   3.143  12.861 -0.7808  0.3358  0.3382
  814MPD2    C211980   1.603   3.261  12.924 -0.0401  0.6914  0.7034
  814MPD2    C311981   1.588   3.274  13.060  0.6272 -0.1293  0.8822
  814MPD2    C411982   1.600   3.168  13.141 -0.9561 -0.8590  0.5937
  814MPD2    C511983   1.618   3.043  13.081 -0.1717  0.1539 -0.3253
  814MPD2     H11984   1.592   3.353  12.867 -0.1404  0.9529  1.1436
  814MPD2    H111985   1.564   3.178  13.243  0.6799 -1.8147  1.2555
  814MPD2    H211986   1.653   2.934  12.894  1.5272  1.0276 -0.4097
  814MPD2    H311987   1.605   2.951  13.136 -0.6190  0.2252 -0.3167
  814MPD2     N11988   1.544   3.392  13.124 -0.4967 -0.6777  0.1138
  814MPD2    H511989   1.502   3.383  13.215 -0.6776 -2.6750 -0.1788
  814MPD2    N111990   1.662   3.142  12.721 -0.7965 -0.1348  0.4952
  814MPD2    H711991   1.639   3.228  12.672  1.2093 -0.0225 -0.2241
  815MPD2     C11992   2.711   1.604  11.398  0.1608 -0.1336 -0.4709
  815MPD2    C111993   2.604   1.554  11.332  0.2358  0.0579  0.4827
  815MPD2    C211994   2.480   1.566  11.394  1.3052 -0.5652 -0.0387
  815MPD2    C311995   2.462   1.611  11.523  0.1290 -0.7254 -0.0861
  815MPD2    C411996   2.577   1.654  11.591  0.1369 -0.2825 -0.3657
  815MPD2    C511997   2.694   1.662  11.516  0.5681  0.1255  0.3087
  815MPD2     H11998   2.396   1.530  11.336  0.7976 -2.0153  1.6239
  815MPD2    H111999   2.576   1.698  11.691  1.0717  1.0414 -0.9369
  815MPD2    H212000   2.809   1.605  11.351 -0.1245  1.1161 -1.0654
  815MPD2    H312001   2.778   1.714  11.560  1.7429  0.4825 -2.4029
  815MPD2     N12002   2.332   1.600  11.580  0.1824  0.2019 -0.0149
  815MPD2    H512003   2.264   1.558  11.518  1.5702 -1.2211 -0.5902
  815MPD2    N112004   2.622   1.503  11.207 -0.7739 -0.4678  0.3544
  815MPD2    H712005   2.719   1.484  11.184 -0.7098  0.3082 -0.0135
  816MPD2     C12006   2.658   1.268  17.491  0.1794 -0.6208 -0.0317
  816MPD2    C112007   2.579   1.203  17.402 -0.4815 -0.4619  0.5215
  816MPD2    C212008   2.634   1.120  17.302  0.6309  0.9380  0.2190
  816MPD2    C312009   2.767   1.085  17.297  0.2214  0.0071  0.8340
  816MPD2    C412010   2.851   1.149  17.393 -0.3978 -0.4485 -0.5504
  816MPD2    C512011   2.793   1.234  17.487 -0.0058  0.0268  0.8922
  816MPD2     H12012   2.572   1.083  17.221  1.2115  0.0304  0.1877
  816MPD2    H112013   2.957   1.128  17.400 -0.2329 -0.6807 -3.7962
  816MPD2    H212014   2.625   1.344  17.561 -0.5965 -0.4569 -0.5749
  816MPD2    H312015   2.858   1.277  17.562  1.0567  0.5674 -0.3280
  816MPD2     N12016   2.817   0.991  17.200 -0.1269  0.3459 -0.1215
  816MPD2    H512017   2.748   0.943  17.143  1.4921 -0.0206 -1.7799
  816MPD2    N112018   2.447   1.240  17.418 -0.3751 -0.7113 -0.4889
  816MPD2    H712019   2.430   1.304  17.495  0.2414 -1.1532  0.0222
  817MPD2     C12020   1.645   2.724   9.645  0.6797 -0.5329  0.6343
  817MPD2    C112021   1.687   2.657   9.538 -0.1509  0.3243 -0.8710
  817MPD2    C212022   1.654   2.714   9.414  0.1155  0.6471 -0.5154
  817MPD2    C312023   1.586   2.840   9.405  0.5061 -0.0546  0.1746
  817MPD2    C412024   1.549   2.903   9.528 -0.1864  0.3124 -0.2475
  817MPD2    C512025   1.588   2.842   9.640  0.6997 -0.2528 -0.2843
  817MPD2     H12026   1.681   2.651   9.330 -2.4257 -0.8144 -0.2435
  817MPD2    H112027   1.499   2.998   9.545 -0.1457  0.3256 -0.2007
  817MPD2    H212028   1.669   2.688   9.745 -0.0817 -0.5938  0.7984
  817MPD2    H312029   1.576   2.892   9.735 -1.7477  2.3469 -1.9471
  817MPD2     N12030   1.566   2.901   9.282 -0.1651  0.3150  0.4834
  817MPD2    H512031   1.599   2.853   9.199 -1.3631 -0.6729  0.5773
  817MPD2    N112032   1.736   2.525   9.538 -0.2090  0.4045  0.3575
  817MPD2    H712033   1.750   2.481   9.448  2.2551 -0.2325  1.0534
  818MPD2     C12034   0.971   2.763   9.874  0.6129  0.7311 -0.7307
  818MPD2    C112035   1.038   2.736   9.994  0.2312  0.8485  0.6503
  818MPD2    C212036   1.087   2.609  10.008  0.0061 -0.7347  0.2848
  818MPD2    C312037   1.074   2.512   9.915  0.6038  0.2349  0.3777
  818MPD2    C412038   1.005   2.537   9.803  0.7828  0.4429  0.0701
  818MPD2    C512039   0.957   2.663   9.781 -0.1245  0.3225 -0.5559
  818MPD2     H12040   1.147   2.587  10.095 -1.5118 -1.2792  1.1775
  818MPD2    H112041   0.982   2.453   9.738 -0.6824  0.2803  0.8055
  818MPD2    H212042   0.933   2.861   9.846 -0.7063 -0.3806 -2.7915
  818MPD2    H312043   0.904   2.684   9.689 -2.7049  1.7008  1.2780
  818MPD2     N12044   1.106   2.377   9.939 -0.0631 -0.6216  0.5926
  818MPD2    H512045   1.086   2.305   9.871  1.9198  0.6216 -1.2901
  818MPD2    N112046   1.046   2.828  10.100  1.2523  0.4240 -0.8085
  818MPD2    H712047   1.093   2.791  10.182  3.0649 -1.3638 -2.6449
  819MPD2     C12048   3.834   4.151  15.955  0.4240 -0.2702 -0.2876
  819MPD2    C112049   3.834   4.028  16.003  0.7425  0.6835  0.2292
  819MPD2    C212050   3.937   3.994  16.091 -0.2731 -0.1226  0.2490
  819MPD2    C312051   4.037   4.080  16.130 -0.6237  0.6767  0.6086
  819MPD2    C412052   4.038   4.200  16.069 -0.1663  0.5202 -0.0006
  819MPD2    C512053   3.936   4.235  15.988  0.3796  0.1022  0.4631
  819MPD2     H12054   3.949   3.888  16.107 -2.3343 -0.6299 -1.5990
  819MPD2    H112055   4.120   4.269  16.084 -0.7166  0.6988  2.1553
  819MPD2    H212056   3.745   4.188  15.905 -0.1839  0.6413  1.4485
  819MPD2    H312057   3.932   4.337  15.953  2.2337 -0.4654 -1.4044
  819MPD2     N12058   4.144   4.016  16.199 -0.0312  0.2544 -0.2372
  819MPD2    H512059   4.132   3.919  16.226 -2.2267  0.0542 -1.9130
  819MPD2    N112060   3.737   3.940  15.958 -0.4815 -0.6161  0.0824
  819MPD2    H712061   3.677   3.984  15.889 -0.7291  0.4642  0.9747
  820MPD2     C12062   3.129   4.076  15.270  0.1529 -0.3815  0.3081
  820MPD2    C112063   3.258   4.099  15.311 -0.2326  0.3368 -0.3786
  820MPD2    C212064   3.319   4.014  15.394  0.3558 -0.0243  0.0928
  820MPD2    C312065   3.252   3.906  15.451 -0.3577 -0.7174  0.5271
  820MPD2    C412066   3.122   3.891  15.405  0.1609  0.2867  0.5680
  820MPD2    C512067   3.059   3.971  15.322 -0.1782 -0.2499  0.2428
  820MPD2     H12068   3.423   4.029  15.420  0.5969  1.7928 -1.9103
  820MPD2    H112069   3.061   3.810  15.444  0.4355  1.2410  2.9722
  820MPD2    H212070   3.076   4.136  15.197  3.9122  0.4128 -1.7653
  820MPD2    H312071   2.953   3.955  15.305 -0.2051  0.2005  0.0051
  820MPD2     N12072   3.301   3.821  15.548  0.2271  0.0641  0.2514
  820MPD2    H512073   3.234   3.761  15.596  0.5569 -1.0423 -0.6968
  820MPD2    N112074   3.322   4.215  15.274  0.4173  0.1847  0.2775
  820MPD2    H712075   3.264   4.279  15.221  0.3468  0.2407  0.4218
  821MPD2     C12076   4.116   0.657  13.384 -0.3331 -0.4662 -0.0054
  821MPD2    C112077   4.170   0.675  13.505  0.1450 -0.0511 -0.7163
  821MPD2    C212078   4.295   0.729  13.528 -0.4615  0.0267  0.3246
  821MPD2    C312079   4.369   0.763  13.413 -0.1194  0.0704 -0.1087
  821MPD2    C412080   4.313   0.748  13.292 -0.4028  0.6736  0.5695
  821MPD2    C512081   4.190   0.688  13.277  0.1640 -0.3416  0.1479
  821MPD2     H12082   4.341   0.743  13.625  2.2051  1.7785 -1.1670
  821MPD2    H112083   4.362   0.768  13.197 -2.4356 -1.0539 -0.8530
  821MPD2    H212084   4.016   0.624  13.357  0.4664 -0.6427 -2.7599
  821MPD2    H312085   4.145   0.666  13.181  1.4483 -0.8571 -0.3485
  821MPD2     N12086   4.502   0.812  13.416 -0.2774  0.7996  0.0171
  821MPD2    H512087   4.530   0.855  13.329  1.7901 -0.5268  0.0065
  821MPD2    N112088   4.108   0.639  13.619  0.1474  0.6564  0.0778
  821MPD2    H712089   4.135   0.671  13.711  0.5384  1.3637 -0.2876
  822MPD2     C12090   4.644   0.637  15.926 -0.3733 -0.4011 -0.3080
  822MPD2    C112091   4.618   0.570  16.040  0.2807  0.4703  0.1058
  822MPD2    C212092   4.555   0.636  16.146  0.4227 -0.2682  0.4675
  822MPD2    C312093   4.523   0.769  16.141  0.1302 -0.1930  0.3931
  822MPD2    C412094   4.546   0.837  16.020  0.3176 -0.0994  0.0265
  822MPD2    C512095   4.595   0.765  15.917  0.2177 -0.2769 -0.0748
  822MPD2     H12096   4.535   0.584  16.239 -2.4656 -1.3634 -0.7395
  822MPD2    H112097   4.516   0.938  15.997 -2.8075 -0.4711  2.5253
  822MPD2    H212098   4.681   0.587  15.837  0.1136  0.8924 -0.8324
  822MPD2    H312099   4.604   0.820  15.823  2.3200 -2.0067 -0.8922
  822MPD2     N12100   4.465   0.831  16.250 -0.5838  0.5841 -0.7590
  822MPD2    H512101   4.458   0.783  16.339 -0.5914 -2.1329 -2.2473
  822MPD2    N112102   4.647   0.430  16.066 -0.1562  0.0043  0.1930
  822MPD2    H712103   4.619   0.396  16.158  2.6314  0.6712  1.2935
  823MPD2     C12104   4.187   0.841  17.035 -0.3844 -0.0483  0.4817
  823MPD2    C112105   4.255   0.783  16.926 -0.0838 -0.4320 -0.0306
  823MPD2    C212106   4.311   0.656  16.939  0.3598 -0.4017  0.3939
  823MPD2    C312107   4.287   0.589  17.055 -0.4078 -0.4157 -0.2925
  823MPD2    C412108   4.225   0.647  17.165  0.3739 -0.4468 -0.2404
  823MPD2    C512109   4.181   0.775  17.151 -0.1749 -0.1592 -0.1510
  823MPD2     H12110   4.362   0.606  16.858  0.9410 -0.0475  0.5441
  823MPD2    H112111   4.224   0.591  17.258  1.5588  1.4356  0.8817
  823MPD2    H212112   4.145   0.941  17.030  0.6970  0.3697 -0.2325
  823MPD2    H312113   4.142   0.830  17.236  1.9419  1.6572 -0.3172
  823MPD2     N12114   4.346   0.466  17.083 -0.0986  0.1152 -0.0964
  823MPD2    H512115   4.302   0.436  17.169 -1.2071 -0.0614 -0.7200
  823MPD2    N112116   4.257   0.865  16.811  0.2877 -0.0272 -0.3740
  823MPD2    H712117   4.208   0.954  16.824 -2.5374 -1.3739 -1.7270
  824MPD2     C12118   0.271   4.353  15.929  0.0772 -0.8141  0.5374
  824MPD2    C112119   0.349   4.427  16.015  0.2536  0.1244  0.0219
  824MPD2    C212120   0.477   4.392  16.032  0.5838  0.4862  0.2463
  824MPD2    C312121   0.534   4.286  15.955  0.4566 -0.0371 -0.4479
  824MPD2    C412122   0.460   4.215  15.867  0.0907  0.2230 -0.3818
  824MPD2    C512123   0.326   4.242  15.865  0.1910 -0.2565 -0.3730
  824MPD2     H12124   0.541   4.465  16.081 -1.4682  2.1277  0.4353
  824MPD2    H112125   0.490   4.129  15.808  0.4535  1.0116 -1.3414
  824MPD2    H212126   0.165   4.376  15.916 -0.3340 -2.6508  0.6294
  824MPD2    H312127   0.271   4.180  15.795 -0.0331 -0.2664 -0.1869
  824MPD2     N12128   0.677   4.269  15.957  0.2191  0.0589 -1.2087
  824MPD2    H512129   0.719   4.316  16.036 -0.4757  1.2746 -1.5681
  824MPD2    N112130   0.302   4.556  16.061  0.0677  0.1188  0.5147
  824MPD2    H712131   0.363   4.606  16.126 -0.7369  1.6784  0.0888
  825MPD2     C12132   1.411   4.542  15.794  0.2155 -0.4329 -0.2171
  825MPD2    C112133   1.318   4.557  15.888  1.0226 -0.1486  0.8288
  825MPD2    C212134   1.268   4.684  15.932 -0.6887  0.4825 -0.0378
  825MPD2    C312135   1.325   0.077  15.881 -0.0505  0.2715  0.3668
  825MPD2    C412136   1.418   0.058  15.784  0.5805 -0.4365 -0.4606
  825MPD2    C512137   1.456   4.659  15.737  0.0055  0.3323 -0.3305
  825MPD2     H12138   1.184   4.690  16.001 -0.8901  0.3757 -0.2766
  825MPD2    H112139   1.470   0.140  15.735 -2.0017  0.3765 -1.8399
  825MPD2    H212140   1.430   4.446  15.746 -0.7066 -0.3601 -0.7143
  825MPD2    H312141   1.537   4.666  15.665  0.3848 -2.1719 -0.1525
  825MPD2     N12142   1.283   0.208  15.907 -0.0873 -0.2705  0.0218
  825MPD2    H512143   1.338   0.286  15.874 -0.1272 -0.6263 -0.8818
  825MPD2    N112144   1.260   4.435  15.935 -0.0521 -0.7782 -0.1096
  825MPD2    H712145   1.301   4.351  15.897  0.4401 -0.9602  0.8371
  826MPD2     C12146   0.848   4.344  13.777 -0.5898 -0.1971  0.2439
  826MPD2    C112147   0.806   4.438  13.694 -0.3079  0.8193 -0.5241
  826MPD2    C212148   0.718   4.549  13.738 -0.1688  0.2475 -0.2963
  826MPD2    C312149   0.676   4.547  13.868 -0.3445  0.0712 -0.2027
  826MPD2    C412150   0.726   4.451  13.950  0.0189 -0.2971  0.1221
  826MPD2    C512151   0.810   4.353  13.908  0.6279 -0.4399  0.4302
  826MPD2     H12152   0.680   4.620  13.665  2.9095 -0.2648 -2.4123
  826MPD2    H112153   0.703   4.446  14.056 -0.1578 -0.4608  0.0758
  826MPD2    H212154   0.914   4.260  13.758 -0.3968  0.4122 -1.6899
  826MPD2    H312155   0.855   4.281  13.975  1.3362 -2.3944 -2.1204
  826MPD2     N12156   0.577   4.638  13.928 -0.6972 -0.1225  0.4064
  826MPD2    H512157   0.569   4.639  14.029 -1.3670 -3.7766  0.3925
  826MPD2    N112158   0.858   4.424  13.563  0.6961 -0.3047  0.2928
  826MPD2    H712159   0.919   4.344  13.551  3.5540  1.4531  2.9727
  827MPD2     C12160   1.222   1.278   9.963  0.2319  0.4059  0.1133
  827MPD2    C112161   1.263   1.146   9.967  0.3670 -0.2705  0.5233
  827MPD2    C212162   1.220   1.072   9.853  0.6443  0.9111  0.0475
  827MPD2    C312163   1.149   1.127   9.751  0.2440  0.3213  0.1409
  827MPD2    C412164   1.097   1.255   9.767 -0.2718  0.1908  0.1949
  827MPD2    C512165   1.145   1.333   9.869 -0.0148  0.1781  0.2296
  827MPD2     H12166   1.248   0.968   9.839  2.0854  1.3932 -0.7035
  827MPD2    H112167   1.035   1.302   9.692 -0.5915 -0.2734  0.1668
  827MPD2    H212168   1.256   1.348  10.038 -0.1441 -0.0610  0.7191
  827MPD2    H312169   1.120   1.438   9.873 -0.5254  0.1559 -2.6153
  827MPD2     N12170   1.117   1.050   9.637  0.0838 -0.1061  0.9297
  827MPD2    H512171   1.161   0.959   9.629 -0.9117 -0.3268 -1.9197
  827MPD2    N112172   1.341   1.105  10.073  0.3438 -0.3306  0.4584
  827MPD2    H712173   1.373   1.176  10.138 -0.2717  0.3312  0.0515
  828MPD2     C12174   0.306   1.152  12.521 -0.1380  0.7349  0.1407
  828MPD2    C112175   0.241   1.169  12.406  0.1841 -0.0804  0.2210
  828MPD2    C212176   0.307   1.140  12.292 -0.2997  0.2451 -0.4678
  828MPD2    C312177   0.440   1.093  12.295 -0.6486 -0.3594  0.1615
  828MPD2    C412178   0.495   1.061  12.415 -0.1380 -0.2779  0.2019
  828MPD2    C512179   0.424   1.094  12.524  0.4753  0.1899 -0.5077
  828MPD2     H12180   0.267   1.156  12.192 -1.1067  1.7788  0.0991
  828MPD2    H112181   0.594   1.017  12.421  0.2959  0.7094  0.2251
  828MPD2    H212182   0.259   1.179  12.615 -0.7364 -1.6535  0.5263
  828MPD2    H312183   0.463   1.088  12.625  1.4168  2.1840 -0.7459
  828MPD2     N12184   0.520   1.073  12.185 -0.1382 -0.1022  0.2325
  828MPD2    H512185   0.620   1.075  12.197  0.2735  0.2944 -3.1860
  828MPD2    N112186   0.110   1.205  12.401 -0.4333 -1.0037  0.0753
  828MPD2    H712187   0.067   1.217  12.309  0.0418  0.4433  0.0420
  829MPD2     C12188   4.455   1.263  11.663  0.2404  0.6877 -0.2846
  829MPD2    C112189   4.336   1.235  11.731  0.5793  0.4499  0.0775
  829MPD2    C212190   4.345   1.247  11.868  0.3792  0.1551  0.5094
  829MPD2    C312191   4.466   1.279  11.934  0.6616 -0.4671 -0.3826
  829MPD2    C412192   4.577   1.311  11.857  0.1594 -0.4023 -0.4867
  829MPD2    C512193   4.572   1.305  11.718 -0.9566  0.1873  0.0993
  829MPD2     H12194   4.256   1.216  11.921 -0.0818 -2.2675 -1.6948
  829MPD2    H112195   4.670   1.340  11.905 -0.6689 -2.3209  2.3528
  829MPD2    H212196   4.451   1.257  11.555  0.1453 -2.2167 -0.1149
  829MPD2    H312197   4.662   1.318  11.658 -0.9372  0.1526  0.1206
  829MPD2     N12198   4.486   1.280  12.072  0.0177 -0.0496 -0.3323
  829MPD2    H512199   4.579   1.304  12.103 -0.4908  0.4094  0.8450
  829MPD2    N112200   4.217   1.196  11.665 -0.5279 -0.5399 -0.3407
  829MPD2    H712201   4.218   1.206  11.564 -0.1585 -1.1681 -0.3972
  830MPD2     C12202   4.499   3.500  15.885 -0.5817  0.5017  0.1842
  830MPD2    C112203   4.465   3.629  15.895  0.4552  0.4888 -0.1455
  830MPD2    C212204   4.440   3.696  15.777 -0.2833  0.4553  0.4620
  830MPD2    C312205   4.467   3.643  15.650 -0.1775 -0.0032 -0.0926
  830MPD2    C412206   4.518   3.520  15.644  0.2449  0.1653 -0.5066
  830MPD2    C512207   4.537   3.451  15.762 -0.5924  0.3101  0.2496
  830MPD2     H12208   4.406   3.799  15.784  0.6075  0.8253 -0.7138
  830MPD2    H112209   4.535   3.466  15.551 -1.4560  1.6292 -1.6681
  830MPD2    H212210   4.520   3.445  15.976 -0.7568  1.3063  0.7124
  830MPD2    H312211   4.563   3.346  15.762 -2.0841 -0.0683 -0.9345
  830MPD2     N12212   4.438   3.728  15.536 -0.3258  0.2703  0.7217
  830MPD2    H512213   4.382   3.810  15.556 -1.7789 -0.6125  0.2061
  830MPD2    N112214   4.438   3.703  16.012  0.2752 -0.0481 -0.1972
  830MPD2    H712215   4.412   3.800  16.002 -1.0806 -0.3524  0.3052
  831MPD2     C12216   0.009   0.937  16.585 -0.4517 -0.4053  0.4225
  831MPD2    C112217   0.016   0.866  16.468  0.9742  0.0536  0.4599
  831MPD2    C212218   4.682   0.741  16.466 -0.0657 -1.1454  0.5371
  831MPD2    C312219   4.632   0.683  16.583 -0.0060  0.2435 -0.5955
  831MPD2    C412220   4.618   0.757  16.694  0.3228  0.3241 -0.4906
  831MPD2    C512221   4.678   0.883  16.699  0.2130 -0.4847 -0.7447
  831MPD2     H12222   4.694   0.677  16.379 -0.1388 -0.5759  0.1065
  831MPD2    H112223   4.568   0.721  16.784 -3.9124  0.5639 -2.7132
  831MPD2    H212224   0.047   1.039  16.585 -1.7776  0.0796 -0.4423
  831MPD2    H312225   4.685   0.944  16.788  0.1812  0.0364 -1.1003
  831MPD2     N12226   4.572   0.555  16.602  0.3432  0.2372  0.3529
  831MPD2    H512227   4.515   0.526  16.681 -1.1055 -1.3642 -1.2929
  831MPD2    N112228   0.077   0.931  16.357  0.4261  0.3416  0.2512
  831MPD2    H712229   0.092   1.031  16.356 -0.5801  0.5025  0.7671
  832MPD2     C12230   2.648   2.129  17.444  0.0713  0.0849  0.4782
  832MPD2    C112231   2.703   2.210  17.345 -0.6372  0.6519 -0.3714
  832MPD2    C212232   2.627   2.247  17.234  0.9104 -0.8135 -0.4385
  832MPD2    C312233   2.498   2.203  17.225  0.5355 -0.7487 -0.6862
  832MPD2    C412234   2.438   2.136  17.329  0.6698 -0.3087  0.1046
  832MPD2    C512235   2.513   2.096  17.436 -0.4131  0.0284  0.1948
  832MPD2     H12236   2.670   2.299  17.149  0.8805 -2.3873 -1.4164
  832MPD2    H112237   2.332   2.116  17.323  0.6258 -0.8141  2.2817
  832MPD2    H212238   2.702   2.086  17.528 -0.2008 -0.2260  0.4926
  832MPD2    H312239   2.458   2.037  17.509  0.4348 -1.5137 -0.4258
  832MPD2     N12240   2.420   2.209  17.106 -0.7910 -0.3971 -0.0348
  832MPD2    H512241   2.329   2.165  17.116 -0.6917 -0.3651  0.9883
  832MPD2    N112242   2.837   2.257  17.367 -0.0845 -0.0799  0.2979
  832MPD2    H712243   2.880   2.227  17.453 -0.2745  1.3992  0.9055
  833MPD2     C12244   0.291   3.796  12.476  0.1684  0.1464  0.2948
  833MPD2    C112245   0.282   3.917  12.420 -0.5941  0.0529 -0.3865
  833MPD2    C212246   0.324   3.937  12.290 -0.3315  0.3707  0.1756
  833MPD2    C312247   0.381   3.824  12.224 -0.2575  0.3397  0.0406
  833MPD2    C412248   0.375   3.698  12.274  0.2140 -0.0945 -0.5298
  833MPD2    C512249   0.329   3.686  12.400 -0.0786 -0.3305  0.4215
  833MPD2     H12250   0.319   4.033  12.241 -1.1611 -0.3138 -1.0904
  833MPD2    H112251   0.417   3.614  12.219  0.4470 -0.1789 -0.2210
  833MPD2    H212252   0.258   3.768  12.576  1.2235 -1.2891  0.2467
  833MPD2    H312253   0.336   3.590  12.452  0.5986 -0.9703 -0.8521
  833MPD2     N12254   0.425   3.854  12.096 -0.0144  0.1825  0.5155
  833MPD2    H512255   0.408   3.952  12.073  0.5385  0.4345  1.1830
  833MPD2    N112256   0.230   4.026  12.502  0.4725  0.6414  0.0350
  833MPD2    H712257   0.186   4.004  12.590 -0.2626 -1.3782 -0.8317
  834MPD2     C12258   4.596   3.483  11.421  0.0827  0.3272  0.1500
  834MPD2    C112259   0.001   3.488  11.374 -0.5269 -0.0306  0.1161
  834MPD2    C212260   0.100   3.565  11.435 -0.6684 -0.6347  0.4890
  834MPD2    C312261   0.062   3.648  11.536  0.1330 -0.5152  0.3048
  834MPD2    C412262   4.663   3.649  11.586  0.3439 -0.0210  0.0006
  834MPD2    C512263   4.566   3.561  11.530 -0.1030 -0.1644 -0.5446
  834MPD2     H12264   0.198   3.580  11.391 -2.3196  1.2107 -2.4978
  834MPD2    H112265   4.641   3.717  11.668 -0.4229  0.6591 -0.7588
  834MPD2    H212266   4.513   3.422  11.389  0.5381 -0.9555  1.4162
  834MPD2    H312267   4.463   3.569  11.563  0.6783 -0.4311  2.0214
  834MPD2     N12268   0.168   3.729  11.584 -0.2134 -0.2946 -0.2963
  834MPD2    H512269   0.264   3.704  11.564  0.2806  1.1708  0.2321
  834MPD2    N112270   0.019   3.418  11.249 -0.0004  0.5145  0.0741
  834MPD2    H712271   4.664   3.362  11.213 -1.6606  1.9232  1.3706
  835MPD2     C12272   0.603   1.243  11.086  0.0153 -0.0544  0.7942
  835MPD2    C112273   0.536   1.234  11.207 -0.1567  0.0336  0.3441
  835MPD2    C212274   0.609   1.201  11.321 -0.2612 -0.4098 -0.6816
  835MPD2    C312275   0.744   1.216  11.331 -0.2349 -0.3263  0.8841
  835MPD2    C412276   0.811   1.220  11.208  0.0366  0.5110 -0.7729
  835MPD2    C512277   0.740   1.230  11.092  0.4495  0.2072  0.2665
  835MPD2     H12278   0.545   1.179  11.406  1.2121 -2.3487 -0.0695
  835MPD2    H112279   0.918   1.210  11.196  0.1480 -1.9651  2.1735
  835MPD2    H212280   0.557   1.254  10.988  2.0795  0.1795 -0.1575
  835MPD2    H312281   0.797   1.236  11.001 -0.9319  0.8926 -0.5513
  835MPD2     N12282   0.808   1.217  11.455 -0.1175  0.1032 -0.0197
  835MPD2    H512283   0.901   1.177  11.464 -1.7820 -3.3943  1.3891
  835MPD2    N112284   0.395   1.238  11.219  0.2148 -0.4695  0.0795
  835MPD2    H712285   0.347   1.257  11.307  1.1477 -1.2466  0.7601
  836MPD2     C12286   0.917   1.426  12.359  0.2559 -0.8019 -0.8081
  836MPD2    C112287   0.807   1.399  12.276 -0.7905 -0.3841 -0.0509
  836MPD2    C212288   0.674   1.413  12.319  0.4107 -0.6772 -0.3987
  836MPD2    C312289   0.652   1.453  12.454  0.2987  0.6024 -0.4981
  836MPD2    C412290   0.758   1.460  12.539 -0.2093  0.5087  0.1056
  836MPD2    C512291   0.887   1.465  12.488 -0.4434 -0.2789 -0.2853
  836MPD2     H12292   0.592   1.400  12.249  0.0909  0.9660 -0.3240
  836MPD2    H112293   0.752   1.494  12.641  2.1423  0.8617  0.1362
  836MPD2    H212294   1.020   1.424  12.326  1.2494 -0.3134  2.2743
  836MPD2    H312295   0.976   1.488  12.545 -1.3535  0.4232  0.8448
  836MPD2     N12296   0.518   1.472  12.513 -0.5991 -0.2420 -0.1236
  836MPD2    H512297   0.514   1.491  12.612  1.9739 -0.7137  0.0779
  836MPD2    N112298   0.845   1.363  12.142 -0.3062 -0.1162 -0.1190
  836MPD2    H712299   0.942   1.334  12.133  0.1941  1.5431 -0.0841
  837MPD2     C12300   3.577   1.312   9.464 -0.5880  0.1812 -0.1249
  837MPD2    C112301   3.496   1.371   9.561  0.7917  0.1943  0.1869
  837MPD2    C212302   3.472   1.509   9.549 -0.3110  0.1778  0.4967
  837MPD2    C312303   3.524   1.587   9.457  0.2395  0.3519  0.1944
  837MPD2    C412304   3.616   1.533   9.366  0.0843 -0.0966  0.1151
  837MPD2    C512305   3.637   1.397   9.371  0.0162 -0.5605  0.1478
  837MPD2     H12306   3.407   1.557   9.621 -0.8123 -0.1740  0.2825
  837MPD2    H112307   3.653   1.589   9.281 -0.9249  0.3410 -0.0337
  837MPD2    H212308   3.597   1.207   9.451 -0.8119  0.1359 -0.0922
  837MPD2    H312309   3.705   1.361   9.293 -2.9152 -0.6286 -2.3806
  837MPD2     N12310   3.473   1.717   9.450  0.2019  0.4178 -0.7881
  837MPD2    H512311   3.404   1.730   9.523  1.5225  0.2569  0.5025
  837MPD2    N112312   3.446   1.300   9.674  0.3477 -0.0485  0.0893
  837MPD2    H712313   3.414   1.359   9.750 -2.4763 -0.1277 -1.0461
  838MPD2     C12314   2.096   4.298  11.999 -0.1798  0.5489  0.2306
  838MPD2    C112315   2.018   4.282  11.885 -0.4602  0.0655  0.1700
  838MPD2    C212316   1.882   4.306  11.889  0.3775  0.2342  0.6905
  838MPD2    C312317   1.823   4.349  12.010 -0.2898  0.3352  0.3168
  838MPD2    C412318   1.902   4.374  12.122  0.3545 -0.7751  1.2841
  838MPD2    C512319   2.039   4.351  12.113  0.1249 -0.3014 -0.1262
  838MPD2     H12320   1.828   4.276  11.800  0.9496  1.7210 -0.1655
  838MPD2    H112321   1.870   4.408  12.220  0.9077  1.9430  0.5408
  838MPD2    H212322   2.204   4.289  12.007 -0.2468  0.0521  0.5487
  838MPD2    H312323   2.095   4.359  12.205 -1.8017  1.3564  0.8915
  838MPD2     N12324   1.679   4.359  12.024 -0.4258  0.1609  0.1971
  838MPD2    H512325   1.627   4.327  11.943 -0.9973 -1.1998  1.1031
  838MPD2    N112326   2.068   4.235  11.761 -0.1458 -0.0976 -0.1499
  838MPD2    H712327   1.999   4.221  11.687 -1.1300  0.1448  0.7239
  839MPD2     C12328   1.485   3.841  11.406 -0.1964  0.0913 -0.7417
  839MPD2    C112329   1.589   3.749  11.387  0.4115  0.0882 -0.0380
  839MPD2    C212330   1.719   3.792  11.410  0.6626  0.0287  0.1042
  839MPD2    C312331   1.744   3.922  11.441  0.2058 -0.7268  0.4414
  839MPD2    C412332   1.640   4.010  11.452 -0.1373  0.0283 -0.1690
  839MPD2    C512333   1.515   3.968  11.437  0.6530 -0.3203  0.3300
  839MPD2     H12334   1.801   3.721  11.412 -0.1504 -0.8956  0.3752
  839MPD2    H112335   1.667   4.110  11.485  2.1596 -1.2405  1.7569
  839MPD2    H212336   1.378   3.823  11.396 -0.5632  0.8080  1.8036
  839MPD2    H312337   1.437   4.039  11.466  0.7186  0.1691 -0.6918
  839MPD2     N12338   1.878   3.971  11.464  0.0760  0.1632 -0.8222
  839MPD2    H512339   1.891   4.068  11.492 -0.1458  0.0227 -0.2435
  839MPD2    N112340   1.568   3.614  11.366 -0.1114 -0.0061 -0.2863
  839MPD2    H712341   1.649   3.557  11.391 -2.4923 -2.9291  0.8132
  840MPD2     C12342   1.726   1.469  10.347  1.5774 -0.9477 -0.2271
  840MPD2    C112343   1.735   1.362  10.430  0.4014 -0.3480  0.0500
  840MPD2    C212344   1.821   1.372  10.544 -0.2581 -0.1940  0.6674
  840MPD2    C312345   1.888   1.492  10.569  1.1148 -0.3628  0.1202
  840MPD2    C412346   1.858   1.599  10.483  0.5692 -0.5717 -0.6687
  840MPD2    C512347   1.783   1.586  10.374  1.5101  0.3055  0.6491
  840MPD2     H12348   1.835   1.281  10.602  1.7895 -0.9236 -0.9442
  840MPD2    H112349   1.904   1.696  10.501 -1.6712  0.2333  0.7517
  840MPD2    H212350   1.654   1.470  10.266  1.3411  2.1352  0.0286
  840MPD2    H312351   1.761   1.675  10.316 -1.7462  1.4304  3.6211
  840MPD2     N12352   1.964   1.518  10.685 -0.2575 -0.4922 -0.0492
  840MPD2    H512353   2.002   1.612  10.683 -0.1612 -0.5289  0.0747
  840MPD2    N112354   1.653   1.254  10.398  0.2654  1.0578  0.0509
  840MPD2    H712355   1.588   1.274  10.323  0.7166  1.8796 -0.1228
  841MPD2     C12356   1.680   0.700  14.757 -0.1029 -0.4894 -0.6812
  841MPD2    C112357   1.629   0.756  14.644 -1.0730  0.8429 -0.1612
  841MPD2    C212358   1.659   0.889  14.615  0.0498  0.5782 -0.0846
  841MPD2    C312359   1.723   0.965  14.708  0.7279 -0.5758  1.2039
  841MPD2    C412360   1.775   0.909  14.821 -0.2196  0.5402  0.4664
  841MPD2    C512361   1.750   0.778  14.844  0.2277 -0.2882 -0.5371
  841MPD2     H12362   1.626   0.935  14.523 -2.2847 -2.2826 -0.6704
  841MPD2    H112363   1.847   0.959  14.885  0.0275  0.2922  0.3820
  841MPD2    H212364   1.663   0.599  14.791 -0.3293 -0.3443 -0.3590
  841MPD2    H312365   1.791   0.723  14.928 -1.9341  0.5215  1.0420
  841MPD2     N12366   1.736   1.102  14.674 -0.0246 -0.7415 -0.3937
  841MPD2    H512367   1.691   1.142  14.592 -0.3128  0.8156  0.5074
  841MPD2    N112368   1.550   0.686  14.562 -1.1318  0.5351 -0.5275
  841MPD2    H712369   1.524   0.736  14.477 -0.7314  0.8778 -0.4467
  842MPD2     C12370   1.252   1.840  16.345  0.1538 -0.2716  0.3844
  842MPD2    C112371   1.330   1.950  16.366  0.0950  1.0540  0.1328
  842MPD2    C212372   1.411   1.958  16.474  0.2447  0.1090  0.1902
  842MPD2    C312373   1.410   1.853  16.561  0.9612  0.1131 -0.7353
  842MPD2    C412374   1.336   1.739  16.537 -0.1334  0.1564 -0.1960
  842MPD2    C512375   1.255   1.731  16.424  0.4214 -0.6224  0.1938
  842MPD2     H12376   1.457   2.052  16.503  1.3016 -0.0296 -1.0163
  842MPD2    H112377   1.340   1.654  16.604 -2.4060 -2.2893 -3.2131
  842MPD2    H212378   1.186   1.835  16.259 -0.9642  3.8906  1.0067
  842MPD2    H312379   1.191   1.646  16.406 -0.4680 -0.4298  2.3543
  842MPD2     N12380   1.495   1.847  16.674  1.0319 -0.4045  0.4597
  842MPD2    H512381   1.486   1.762  16.728  3.2569 -0.5118  0.6320
  842MPD2    N112382   1.322   2.057  16.269 -0.8403 -0.1660  0.5280
  842MPD2    H712383   1.243   2.056  16.205 -0.6118  2.6871  0.2214
  843MPD2     C12384   4.291   2.768   0.826  0.4808 -0.0595  0.0550
  843MPD2    C112385   4.423   2.736   0.802  0.0906 -0.7744  0.4096
  843MPD2    C212386   4.506   2.819   0.724 -0.3343  0.5372 -0.3454
  843MPD2    C312387   4.455   2.939   0.676 -0.5207 -0.3016  0.4723
  843MPD2    C412388   4.318   2.967   0.702 -0.1615  0.2795  0.0376
  843MPD2    C512389   4.238   2.884   0.773 -0.1165  0.3439  0.2778
  843MPD2     H12390   4.609   2.787   0.713 -0.9852 -1.2952 -0.9520
  843MPD2    H112391   4.283   3.066   0.677 -2.6988  0.4647  4.4504
  843MPD2    H212392   4.222   2.696   0.868 -1.3819  2.4587  1.3313
  843MPD2    H312393   4.133   2.909   0.783 -0.6532 -1.3529 -1.1760
  843MPD2     N12394   4.523   3.045   0.619  0.3292  0.3441 -0.8205
  843MPD2    H512395   4.476   3.135   0.619 -1.9685 -0.8801  2.0868
  843MPD2    N112396   4.465   2.613   0.862  0.0182  1.0713  0.0496
  843MPD2    H712397   4.406   2.568   0.931 -1.7681  1.5525 -1.1585
  844MPD2     C12398   2.324   1.449  16.778  0.0792 -0.3540 -0.2789
  844MPD2    C112399   2.381   1.508  16.674 -0.8052  0.7818  0.4953
  844MPD2    C212400   2.430   1.637  16.689 -0.4211 -0.0797 -0.2468
  844MPD2    C312401   2.427   1.696  16.814  0.1736 -0.0043 -0.1406
  844MPD2    C412402   2.374   1.629  16.920  0.1686  0.0544 -0.3023
  844MPD2    C512403   2.323   1.509  16.903 -0.6851  0.0452  0.5366
  844MPD2     H12404   2.471   1.692  16.605  0.6424 -2.8321 -1.5386
  844MPD2    H112405   2.370   1.675  17.018 -1.3677 -1.1914  0.2225
  844MPD2    H212406   2.275   1.353  16.771 -1.9671  0.4116  3.3007
  844MPD2    H312407   2.282   1.455  16.988  0.7033 -1.1082  0.4718
  844MPD2     N12408   2.504   1.809  16.845 -0.2009  0.0716 -0.1149
  844MPD2    H512409   2.529   1.823  16.943  0.2962 -0.4863 -0.1630
  844MPD2    N112410   2.402   1.443  16.547  0.2569 -0.7009  0.4946
  844MPD2    H712411   2.438   1.502  16.473  0.6006  0.0968  1.2864
  845MPD2     C12412   2.989   2.722  16.711 -0.9158 -0.5331  0.2033
  845MPD2    C112413   2.937   2.705  16.838  0.1636  0.2035 -0.2330
  845MPD2    C212414   2.909   2.578  16.877  0.1847  0.0858 -0.5255
  845MPD2    C312415   2.945   2.466  16.802 -0.4457  0.6929 -0.2931
  845MPD2    C412416   2.998   2.488  16.680 -0.2793 -0.4098 -0.0120
  845MPD2    C512417   3.013   2.612  16.632 -0.4948 -0.0898 -0.3997
  845MPD2     H12418   2.864   2.548  16.971 -1.0982  0.2629 -1.0787
  845MPD2    H112419   3.017   2.406  16.612  3.1012  0.3017  0.0813
  845MPD2    H212420   3.017   2.817  16.667 -1.9064 -0.7279 -0.8464
  845MPD2    H312421   3.053   2.625  16.533  2.7791 -1.5230  0.7353
  845MPD2     N12422   2.905   2.339  16.848  0.7638 -0.2612  0.6928
  845MPD2    H512423   2.868   2.338  16.942 -1.3767  2.6725 -0.0833
  845MPD2    N112424   2.909   2.826  16.911  0.0415  0.1729 -0.2204
  845MPD2    H712425   2.941   2.907  16.859 -0.1859  0.1136 -0.4529
  846MPD2     C12426   4.409   2.958  13.858 -0.0972 -0.3156 -0.2172
  846MPD2    C112427   4.361   3.078  13.906  0.9894  0.1428  0.5538
  846MPD2    C212428   4.333   3.091  14.040 -0.0550  0.1156  0.4661
  846MPD2    C312429   4.363   2.987  14.126  0.9537  0.2045  0.0381
  846MPD2    C412430   4.436   2.873  14.079  0.0262  0.4011 -0.0727
  846MPD2    C512431   4.459   2.861  13.944 -0.6285  0.3550 -0.0811
  846MPD2     H12432   4.297   3.188  14.075 -1.6174  0.4599 -2.0998
  846MPD2    H112433   4.469   2.790  14.141 -3.3732  0.0129  1.2272
  846MPD2    H212434   4.422   2.951  13.751  0.6950  0.7473 -0.1917
  846MPD2    H312435   4.511   2.773  13.908 -0.8652 -0.7694  2.3357
  846MPD2     N12436   4.323   2.985  14.262  0.0221  0.1024 -0.0386
  846MPD2    H512437   4.245   3.046  14.284  0.6272  1.3180 -1.2884
  846MPD2    N112438   4.352   3.195  13.833  0.0968 -0.3771 -0.7462
  846MPD2    H712439   4.341   3.284  13.881  1.7874  0.0284 -1.1007
  847MPD2     C12440   4.220   4.009  14.701  0.2592 -0.5858 -1.0549
  847MPD2    C112441   4.284   3.889  14.672 -0.2521  0.5975 -0.1400
  847MPD2    C212442   4.236   3.777  14.739 -0.0057 -0.5166  0.2104
  847MPD2    C312443   4.146   3.787  14.842 -0.2273 -0.5676  0.1251
  847MPD2    C412444   4.079   3.904  14.868 -0.1175  0.0536 -0.4798
  847MPD2    C512445   4.112   4.010  14.791 -0.2623  0.0048  1.3141
  847MPD2     H12446   4.288   3.683  14.727 -1.3604 -0.8086 -3.3517
  847MPD2    H112447   4.012   3.915  14.953 -1.8243  0.5506 -1.9092
  847MPD2    H212448   4.248   4.109  14.668 -0.0772 -0.2853 -0.4205
  847MPD2    H312449   4.060   4.103  14.811 -2.5554 -1.6127  2.8651
  847MPD2     N12450   4.126   3.674  14.921 -0.2594 -0.7826 -0.2818
  847MPD2    H512451   4.173   3.588  14.893  2.1987  0.7269 -0.8372
  847MPD2    N112452   4.400   3.873  14.598 -0.2243  0.3937  0.1714
  847MPD2    H712453   4.433   3.780  14.575 -0.4158  0.8491 -2.0150
  848MPD2     C12454   2.343   2.279  16.267  0.2181 -0.5600 -0.1926
  848MPD2    C112455   2.343   2.345  16.391 -0.6826  0.4214  0.0205
  848MPD2    C212456   2.321   2.479  16.387 -0.1176  0.0617 -0.4493
  848MPD2    C312457   2.287   2.547  16.267 -0.4741 -0.1498  0.1637
  848MPD2    C412458   2.283   2.476  16.150  0.3475  0.0930 -0.0167
  848MPD2    C512459   2.315   2.343  16.151  0.6071  0.6213 -0.5797
  848MPD2     H12460   2.316   2.533  16.480 -0.3175  1.7289 -1.4363
  848MPD2    H112461   2.263   2.533  16.060  2.6810 -0.9691 -1.1969
  848MPD2    H212462   2.348   2.171  16.256  1.2522 -0.5359  0.0744
  848MPD2    H312463   2.312   2.290  16.056  0.0908  0.0290 -0.2346
  848MPD2     N12464   2.251   2.685  16.263 -0.0681 -0.3928  0.2522
  848MPD2    H512465   2.210   2.721  16.178 -1.1262 -0.1668  0.8652
  848MPD2    N112466   2.363   2.283  16.514 -0.1912 -0.1033 -0.0252
  848MPD2    H712467   2.362   2.352  16.590 -0.5575 -0.4210  0.2589
  849MPD2     C12468   1.235   1.949  14.418  0.6200  0.6461  0.4605
  849MPD2    C112469   1.278   1.847  14.338  0.2769 -0.0917  0.6479
  849MPD2    C212470   1.398   1.782  14.378  0.4131  0.1413  0.4154
  849MPD2    C312471   1.461   1.811  14.497  1.0651  0.4565 -0.3442
  849MPD2    C412472   1.425   1.918  14.564  0.0089 -0.3748  0.6963
  849MPD2    C512473   1.310   1.984  14.528 -0.3805  0.0616  0.5992
  849MPD2     H12474   1.418   1.693  14.321 -2.5929 -1.9622  2.5805
  849MPD2    H112475   1.484   1.951  14.648  4.9480 -1.0760 -2.4978
  849MPD2    H212476   1.146   2.005  14.392 -0.1198 -0.8392 -0.2049
  849MPD2    H312477   1.269   2.059  14.595 -2.6179  0.5702 -1.3708
  849MPD2     N12478   1.578   1.749  14.538 -0.0636 -0.4200  0.7464
  849MPD2    H512479   1.639   1.795  14.605  0.4727 -0.4388  0.2733
  849MPD2    N112480   1.235   1.816  14.209  0.3917  0.4363 -0.7370
  849MPD2    H712481   1.285   1.750  14.150  2.7288  1.3432  0.2195
  850MPD2     C12482   0.701   4.542  15.220 -0.4062  0.1806 -0.1535
  850MPD2    C112483   0.594   4.588  15.296 -0.1045 -0.2859  0.1318
  850MPD2    C212484   0.597   4.582  15.430 -0.2647  0.3691  0.4498
  850MPD2    C312485   0.702   4.544  15.507 -0.3421 -0.5771  0.3332
  850MPD2    C412486   0.804   4.496  15.429  0.4683 -0.5393 -0.1683
  850MPD2    C512487   0.804   4.488  15.288 -0.0898  0.3038 -0.4087
  850MPD2     H12488   0.500   4.592  15.478  0.2441  0.8952  1.3891
  850MPD2    H112489   0.895   4.463  15.477  1.1067 -0.8315 -1.5943
  850MPD2    H212490   0.702   4.536  15.111 -4.1946 -0.4999 -0.1614
  850MPD2    H312491   0.889   4.456  15.229 -1.2505 -0.0871 -1.8617
  850MPD2     N12492   0.721   4.552  15.646 -0.9688  0.7251  0.2633
  850MPD2    H512493   0.806   4.513  15.686 -0.6223  0.7122 -0.4946
  850MPD2    N112494   0.481   4.628  15.226  0.1452  0.5133  0.3428
  850MPD2    H712495   0.481   4.609  15.127  0.1619  1.0863  0.2361
  851MPD2     C12496   0.201   4.201  14.943 -0.1737 -0.5068  0.6317
  851MPD2    C112497   0.091   4.265  14.995 -0.6530 -0.0550 -0.5252
  851MPD2    C212498   4.688   4.204  15.011 -0.9291  0.1657 -0.1683
  851MPD2    C312499   4.668   4.073  14.986  0.4637  0.3790  0.3126
  851MPD2    C412500   0.057   4.004  14.930  0.1375 -0.7501  1.7698
  851MPD2    C512501   0.184   4.066  14.917  0.2011  0.0349  1.1339
  851MPD2     H12502   4.609   4.257  15.063 -3.4128 -1.1623 -2.6152
  851MPD2    H112503   0.051   3.897  14.917  1.5757 -0.5074 -0.9213
  851MPD2    H212504   0.296   4.252  14.936 -1.6991  2.6389  2.6487
  851MPD2    H312505   0.262   4.005  14.874 -0.1493 -1.0716  2.0739
  851MPD2     N12506   4.535   4.018  15.009 -0.0070 -0.1873 -0.4260
  851MPD2    H512507   4.469   4.091  15.034  1.5755  2.3066 -3.4878
  851MPD2    N112508   0.107   4.399  15.037 -0.2806 -0.2745 -0.4977
  851MPD2    H712509   0.196   4.441  15.014 -1.4054  1.9103 -0.8457
  852MPD2     C12510   4.189   2.982   9.923 -0.4103  0.3054  0.3559
  852MPD2    C112511   4.308   2.965   9.981 -0.3444 -0.1448  0.0095
  852MPD2    C212512   4.397   3.077   9.990 -0.0286 -0.3448  0.1074
  852MPD2    C312513   4.373   3.201   9.945 -0.8918 -0.2097 -0.5227
  852MPD2    C412514   4.246   3.224   9.896 -0.5586 -0.5554  0.0450
  852MPD2    C512515   4.161   3.115   9.881 -0.1403  1.0523  0.5737
  852MPD2     H12516   4.496   3.048  10.023 -0.2246  0.5794  1.4638
  852MPD2    H112517   4.211   3.321   9.864 -0.2965 -0.5848 -0.3191
  852MPD2    H212518   4.123   2.899   9.898  2.2113 -0.8824 -2.5848
  852MPD2    H312519   4.068   3.118   9.824  0.0995 -2.3944  0.0005
  852MPD2     N12520   4.486   3.296   9.929 -0.0645 -0.1143 -0.1540
  852MPD2    H512521   4.579   3.261   9.952  0.5010  2.0384  0.8765
  852MPD2    N112522   4.343   2.837  10.030  0.3161 -0.4228  0.2768
  852MPD2    H712523   4.283   2.756  10.017 -1.6209  0.9434  0.6797
  853MPD2     C12524   1.485   2.308  12.465  0.8790  0.7607  0.1020
  853MPD2    C112525   1.402   2.393  12.394  0.9595 -0.4509 -0.1125
  853MPD2    C212526   1.414   2.409  12.254 -0.0855  0.3631  0.4607
  853MPD2    C312527   1.534   2.365  12.187 -0.2376  0.6883  0.3635
  853MPD2    C412528   1.624   2.295  12.263  0.1482 -0.0866 -0.2897
  853MPD2    C512529   1.596   2.267  12.398  0.2400 -0.0107 -0.4408
  853MPD2     H12530   1.338   2.467  12.205 -0.2512 -1.0980 -1.0011
  853MPD2    H112531   1.709   2.254  12.210  0.3522  1.4226 -1.1283
  853MPD2    H212532   1.478   2.283  12.570  0.6159 -3.5496 -0.9205
  853MPD2    H312533   1.658   2.202  12.459  0.4209  0.4033 -0.1878
  853MPD2     N12534   1.563   2.382  12.050  0.2167  0.3754 -0.5125
  853MPD2    H512535   1.647   2.336  12.016  0.6037  0.4062  0.4195
  853MPD2    N112536   1.295   2.442  12.474 -0.3679  0.0028 -0.1804
  853MPD2    H712537   1.296   2.408  12.569  0.6461 -1.7740 -0.8094
  854MPD2     C12538   3.049   2.826  13.310  0.5066  0.0291 -0.3359
  854MPD2    C112539   3.147   2.819  13.216  0.6688 -0.4570 -0.1114
  854MPD2    C212540   3.255   2.731  13.237  0.5627 -0.0980 -0.5523
  854MPD2    C312541   3.266   2.660  13.353  0.7103  0.0202  0.0798
  854MPD2    C412542   3.168   2.670  13.448 -0.3692 -0.8386  0.1458
  854MPD2    C512543   3.060   2.755  13.430  0.3178  0.5101 -0.1317
  854MPD2     H12544   3.325   2.718  13.156  1.3972  1.8641 -0.1390
  854MPD2    H112545   3.159   2.608  13.537  2.1637  1.1005  1.7607
  854MPD2    H212546   2.960   2.888  13.299 -0.5970 -2.1014 -3.2459
  854MPD2    H312547   2.979   2.757  13.502 -0.0365  0.5051 -0.5263
  854MPD2     N12548   3.367   2.570  13.390 -0.5883 -0.0019 -0.1104
  854MPD2    H512549   3.376   2.534  13.485  1.0318 -0.5675 -0.4710
  854MPD2    N112550   3.126   2.891  13.095  0.2828 -0.3903 -0.2212
  854MPD2    H712551   3.040   2.945  13.091  1.5297  1.7012  1.2983
  855MPD2     C12552   3.709   2.540  14.169  0.1661  0.4415  0.5951
  855MPD2    C112553   3.708   2.419  14.106 -0.5622  0.8143  0.1489
  855MPD2    C212554   3.711   2.419  13.968  0.1855  0.2335 -0.7191
  855MPD2    C312555   3.716   2.533  13.895 -0.0960 -0.4701 -0.6086
  855MPD2    C412556   3.712   2.653  13.959 -0.0970 -0.6018  0.4316
  855MPD2    C512557   3.707   2.654  14.092 -0.0677  0.0539  0.3415
  855MPD2     H12558   3.715   2.318  13.930  1.7350  0.7169 -1.8470
  855MPD2    H112559   3.716   2.738  13.892 -0.7596 -1.9147 -1.2672
  855MPD2    H212560   3.699   2.553  14.276  0.5285 -0.5307  0.7474
  855MPD2    H312561   3.694   2.751  14.139 -0.7848  0.3742 -0.5236
  855MPD2     N12562   3.717   2.526  13.753 -0.2731  0.2996  0.3343
  855MPD2    H512563   3.708   2.611  13.697  1.3329  0.1741 -0.1133
  855MPD2    N112564   3.694   2.296  14.167  0.7391 -0.3225 -0.2674
  855MPD2    H712565   3.679   2.213  14.110  0.0921 -2.0461  2.4176
  856MPD2     C12566   1.211   3.114  14.800  0.1800  0.2311 -0.0758
  856MPD2    C112567   1.248   3.163  14.679 -0.3064  0.2772 -0.1178
  856MPD2    C212568   1.146   3.202  14.590 -0.1160 -0.9704  0.6979
  856MPD2    C312569   1.015   3.165  14.611 -0.3371  0.3012 -0.3145
  856MPD2    C412570   0.986   3.113  14.736  0.6512  0.5860 -0.1273
  856MPD2    C512571   1.083   3.085  14.829 -0.0220  0.5814 -1.0468
  856MPD2     H12572   1.167   3.263  14.503 -0.3611  1.9842  2.7118
  856MPD2    H112573   0.883   3.085  14.757  1.3742  0.2694  2.9122
  856MPD2    H212574   1.273   3.096  14.887 -1.2187 -1.6240  0.5272
  856MPD2    H312575   1.059   3.041  14.926 -2.0710  0.8771 -1.4059
  856MPD2     N12576   0.905   3.188  14.523 -0.2474 -0.3746  0.4891
  856MPD2    H512577   0.816   3.160  14.562  1.5023 -2.0789  3.2990
  856MPD2    N112578   1.384   3.178  14.649 -0.0937  0.2883 -0.1274
  856MPD2    H712579   1.413   3.232  14.568 -1.5533  1.8101  0.3603
  857MPD2     C12580   2.425   0.608  13.099 -0.8539 -0.1335  0.2986
  857MPD2    C112581   2.552   0.571  13.063  0.1064 -0.0601  0.4384
  857MPD2    C212582   2.660   0.609  13.135  0.0829  0.2979  0.3675
  857MPD2    C312583   2.647   0.707  13.231  0.5199 -0.2335 -0.1844
  857MPD2    C412584   2.519   0.737  13.273  0.4080  0.7378 -0.1932
  857MPD2    C512585   2.408   0.687  13.210  0.1675 -0.2312  0.4698
  857MPD2     H12586   2.756   0.564  13.111  0.2663  2.0499 -2.2510
  857MPD2    H112587   2.500   0.805  13.356 -1.9870 -2.2082  1.6448
  857MPD2    H212588   2.340   0.568  13.045  0.1201 -0.6865 -0.8316
  857MPD2    H312589   2.314   0.725  13.250  0.8288 -0.1466  1.9421
  857MPD2     N12590   2.773   0.763  13.268  0.1483 -0.3559 -0.1292
  857MPD2    H512591   2.858   0.719  13.232 -0.4629 -1.3655 -0.3497
  857MPD2    N112592   2.565   0.502  12.940 -0.2563 -0.5637 -0.8889
  857MPD2    H712593   2.477   0.477  12.896 -0.7654 -2.0936  1.0045
  858MPD2     C12594   2.992   4.641  16.814 -0.8881 -0.1781  0.3737
  858MPD2    C112595   3.122   4.647  16.859  0.0656 -0.5433  0.3508
  858MPD2    C212596   3.163   0.037  16.931 -0.7321  0.4244 -0.1049
  858MPD2    C312597   3.074   0.139  16.964 -0.2277  0.8939  0.0774
  858MPD2    C412598   2.940   0.134  16.924 -0.4898  0.3742  0.0513
  858MPD2    C512599   2.904   0.022  16.854 -0.1915  0.3598 -0.2734
  858MPD2     H12600   3.259   0.031  16.981 -1.4268 -3.1496  0.7573
  858MPD2    H112601   2.874   0.215  16.951 -2.2756 -0.8457 -0.7103
  858MPD2    H212602   2.952   4.553  16.765 -2.6444 -1.3059  3.8617
  858MPD2    H312603   2.797   0.014  16.837 -0.3373  1.1997  0.2337
  858MPD2     N12604   3.107   0.248  17.042  0.3666  0.0041  0.3765
  858MPD2    H512605   3.034   0.313  17.068 -0.0361  1.2563 -3.9678
  858MPD2    N112606   3.201   4.535  16.830  0.3950  0.2869  0.0246
  858MPD2    H712607   3.158   4.452  16.789 -0.8223  1.9068 -1.9539
  859MPD2     C12608   1.649   1.622  14.904  0.1665  1.0181 -0.3483
  859MPD2    C112609   1.765   1.665  14.964 -0.6312 -0.7540 -0.2763
  859MPD2    C212610   1.846   1.569  15.024 -0.0865  0.3947  0.0250
  859MPD2    C312611   1.807   1.439  15.021 -0.5895  0.2420 -0.3334
  859MPD2    C412612   1.693   1.393  14.958  0.6754 -0.2898  0.7827
  859MPD2    C512613   1.614   1.490  14.901  0.0217 -0.0106  0.0239
  859MPD2     H12614   1.939   1.590  15.075  0.1092  3.3850 -1.5440
  859MPD2    H112615   1.673   1.287  14.946  0.6975 -0.1178 -0.7580
  859MPD2    H212616   1.576   1.693  14.866 -1.2156 -0.1078  0.2370
  859MPD2    H312617   1.524   1.455  14.851  0.0443 -1.7198  1.1614
  859MPD2     N12618   1.880   1.333  15.090 -0.0035  0.0806 -0.1786
  859MPD2    H512619   1.839   1.241  15.100 -0.2733  0.1131 -0.9888
  859MPD2    N112620   1.789   1.807  14.972  0.5744 -0.5183  0.9336
  859MPD2    H712621   1.710   1.866  14.948  0.7480 -1.1885 -1.2828
  860MPD2     C12622   4.374   2.523  11.667 -0.6664  0.7084 -0.3202
  860MPD2    C112623   4.332   2.620  11.757 -1.4614  0.2913  0.3168
  860MPD2    C212624   4.288   2.583  11.883  0.0142 -0.3083 -0.0802
  860MPD2    C312625   4.274   2.450  11.917  0.3713  0.1272  0.9824
  860MPD2    C412626   4.300   2.353  11.818  0.6019  0.2528  0.4169
  860MPD2    C512627   4.362   2.393  11.704 -0.5530 -0.3111  0.2054
  860MPD2     H12628   4.257   2.652  11.961 -0.5250  0.3195 -0.8492
  860MPD2    H112629   4.289   2.245  11.821  1.2727  0.1325 -1.4136
  860MPD2    H212630   4.428   2.538  11.574 -1.4169  0.6462 -0.7607
  860MPD2    H312631   4.409   2.317  11.643 -1.0659  0.3733 -1.0414
  860MPD2     N12632   4.201   2.425  12.035  0.0161  0.9667  0.2622
  860MPD2    H512633   4.183   2.506  12.093  0.4512  0.9212  0.4608
  860MPD2    N112634   4.346   2.755  11.724 -0.1566  0.4983  0.0314
  860MPD2    H712635   4.315   2.818  11.797 -1.3062 -0.8422  0.6863
  861MPD2     C12636   3.317   0.554  10.888  0.4366 -0.0016 -0.2247
  861MPD2    C112637   3.204   0.479  10.916  0.5671 -0.3952 -0.5087
  861MPD2    C212638   3.108   0.483  10.817 -0.0800  0.2990 -0.2815
  861MPD2    C312639   3.137   0.529  10.686  0.5890  0.2929  0.4033
  861MPD2    C412640   3.255   0.590  10.663 -0.2591  0.0832  0.0904
  861MPD2    C512641   3.351   0.593  10.761  0.5477 -0.6587 -0.2671
  861MPD2     H12642   3.007   0.447  10.833 -0.1923  0.9493  0.4799
  861MPD2    H112643   3.269   0.636  10.565 -1.2921 -0.6385 -0.4047
  861MPD2    H212644   3.401   0.556  10.957 -1.6454 -1.1967  2.3218
  861MPD2    H312645   3.437   0.655  10.739  0.1646 -0.0148  0.0501
  861MPD2     N12646   3.039   0.527  10.581  0.9683 -0.9422 -0.4360
  861MPD2    H512647   3.054   0.600  10.513 -1.4221  0.2719  0.3373
  861MPD2    N112648   3.177   0.428  11.046 -0.1835 -0.5619  0.3059
  861MPD2    H712649   3.085   0.389  11.061 -0.4473  1.0852  3.1882
  862MPD2     C12650   2.525   0.594   9.994  0.7558  0.6292 -0.0511
  862MPD2    C112651   2.625   0.578  10.093  0.4279  0.2074 -0.1675
  862MPD2    C212652   2.640   0.455  10.160 -0.0398  0.0281 -0.6058
  862MPD2    C312653   2.551   0.353  10.139  0.6133 -0.8765 -0.5395
  862MPD2    C412654   2.450   0.369  10.048 -0.0156  0.2611  0.1529
  862MPD2    C512655   2.438   0.490   9.977 -0.4135 -0.1125 -0.2190
  862MPD2     H12656   2.722   0.447  10.230  0.1192 -1.4637 -0.9688
  862MPD2    H112657   2.379   0.295  10.010  1.7095 -0.4084 -1.7324
  862MPD2    H212658   2.512   0.675   9.924  2.1732  1.4705  0.6790
  862MPD2    H312659   2.351   0.500   9.912 -1.1151 -1.9828  0.4177
  862MPD2     N12660   2.555   0.235  10.218  0.1092 -0.7741  0.3601
  862MPD2    H512661   2.467   0.184  10.210  1.3152 -3.0769  1.7435
  862MPD2    N112662   2.700   0.694  10.115  0.0387  0.5423 -0.0737
  862MPD2    H712663   2.697   0.769  10.047  0.4486  0.3901 -0.2557
  863MPD2     C12664   1.389   3.892  17.221  0.0539  0.0396 -0.2885
  863MPD2    C112665   1.404   3.756  17.236 -0.4577  0.2344  0.0883
  863MPD2    C212666   1.517   3.706  17.294 -0.0949  0.4012 -0.0430
  863MPD2    C312667   1.622   3.792  17.323 -0.5301 -0.5023  0.3560
  863MPD2    C412668   1.599   3.931  17.325 -0.2770 -0.0869  0.6021
  863MPD2    C512669   1.480   3.981  17.278 -0.3631 -0.3282  0.4100
  863MPD2     H12670   1.521   3.601  17.318 -0.3223  0.0627 -1.5161
  863MPD2    H112671   1.673   4.008  17.345 -0.5634  0.0282  1.2171
  863MPD2    H212672   1.299   3.940  17.183  1.1770  1.6717 -0.8829
  863MPD2    H312673   1.464   4.087  17.260 -0.2216 -0.2268  0.8769
  863MPD2     N12674   1.744   3.743  17.377 -0.2263 -0.4651  0.7640
  863MPD2    H512675   1.798   3.823  17.409  0.2539 -0.2468 -0.5911
  863MPD2    N112676   1.298   3.681  17.195 -0.3517 -0.3625  0.6247
  863MPD2    H712677   1.219   3.738  17.168 -0.8805 -1.2442  0.2875
  864MPD2     C12678   1.923   0.513  17.307  0.1077  0.1277  1.0912
  864MPD2    C112679   1.919   0.400  17.231 -0.0704 -0.1074 -0.1422
  864MPD2    C212680   1.953   0.409  17.092  0.6236  0.8808 -0.6409
  864MPD2    C312681   1.991   0.531  17.046  0.1561 -0.2507 -0.3745
  864MPD2    C412682   1.990   0.643  17.123  0.1275  0.3278 -0.0020
  864MPD2    C512683   1.951   0.634  17.252  0.0914 -0.0818  0.2398
  864MPD2     H12684   1.955   0.320  17.030 -1.0322  0.2542  0.2268
  864MPD2    H112685   2.022   0.733  17.072  0.7573  0.4279  0.5649
  864MPD2    H212686   1.883   0.510  17.407  2.2286 -0.1660  1.9429
  864MPD2    H312687   1.952   0.728  17.306 -2.0469 -1.2836  2.3271
  864MPD2     N12688   2.038   0.557  16.916  0.6369  0.4785 -0.0175
  864MPD2    H512689   2.047   0.657  16.902  2.8504  0.0049 -1.9628
  864MPD2    N112690   1.874   0.282  17.296 -0.1547 -0.1114  0.5310
  864MPD2    H712691   1.901   0.274  17.394  0.3556 -3.6291  0.1079
  865MPD2     C12692   1.868   0.442  16.031  0.3360  0.9009  0.2022
  865MPD2    C112693   1.890   0.399  16.161 -0.2027  0.0863  0.6366
  865MPD2    C212694   1.894   0.492  16.266 -0.3655 -0.1622  0.1329
  865MPD2    C312695   1.896   0.625  16.238 -0.0641  0.5046  0.9386
  865MPD2    C412696   1.880   0.668  16.110 -0.1617 -0.0026  0.2768
  865MPD2    C512697   1.853   0.577  16.006  0.0443  0.7636 -0.2057
  865MPD2     H12698   1.916   0.458  16.366 -0.1864 -0.0752  0.1231
  865MPD2    H112699   1.879   0.774  16.088 -0.1044 -0.0263  0.1609
  865MPD2    H212700   1.860   0.377  15.945 -2.9935  0.2111  1.0309
  865MPD2    H312701   1.837   0.617  15.907 -0.5837 -1.3259 -0.9341
  865MPD2     N12702   1.909   0.718  16.342  0.0132  0.1002  0.5415
  865MPD2    H512703   1.950   0.808  16.318  0.6511  0.2856  2.3347
  865MPD2    N112704   1.898   0.261  16.172  0.7010  0.0661  0.0179
  865MPD2    H712705   1.874   0.200  16.095  2.6081 -0.7697  0.0864
  866MPD2     C12706   3.516   0.993  11.149  0.0151  0.4106 -0.2656
  866MPD2    C112707   3.506   0.986  11.013  0.0871  0.0611  0.6187
  866MPD2    C212708   3.386   0.940  10.962  0.5914  0.2463 -0.0633
  866MPD2    C312709   3.290   0.883  11.043  0.9175 -0.1556 -0.5593
  866MPD2    C412710   3.309   0.868  11.179 -0.2050 -0.0668 -0.4475
  866MPD2    C512711   3.423   0.930  11.223 -0.2323 -0.0789  0.0938
  866MPD2     H12712   3.383   0.934  10.854  1.1937 -0.3860 -0.0441
  866MPD2    H112713   3.234   0.833  11.248 -0.2121  1.1173  0.1334
  866MPD2    H212714   3.607   1.040  11.184  0.8117  0.1507 -2.0011
  866MPD2    H312715   3.438   0.925  11.330 -0.0813  2.9045  0.2095
  866MPD2     N12716   3.174   0.845  10.983  0.1092 -0.1962 -0.0720
  866MPD2    H512717   3.169   0.855  10.883  1.2098  1.2219  0.0265
  866MPD2    N112718   3.617   1.047  10.944  0.0981  1.2137 -0.6904
  866MPD2    H712719   3.694   1.089  10.995 -0.9431  1.4433  0.6860
  867MPD2     C12720   1.140   0.530  17.017  0.2672  0.2186  0.7198
  867MPD2    C112721   1.177   0.484  17.143  0.7546 -0.3739  0.1550
  867MPD2    C212722   1.178   0.567  17.254  0.7488 -0.4265 -0.0532
  867MPD2    C312723   1.143   0.703  17.250 -0.3944 -0.0737  0.0463
  867MPD2    C412724   1.104   0.746  17.123 -0.2224  0.0013 -0.0948
  867MPD2    C512725   1.105   0.661  17.012  0.3785 -0.0708 -0.2993
  867MPD2     H12726   1.235   0.535  17.341  1.5323 -1.5636 -0.9868
  867MPD2    H112727   1.083   0.849  17.097  1.6344  0.4446  0.1231
  867MPD2    H212728   1.156   0.472  16.927  3.2617  2.5924 -0.2812
  867MPD2    H312729   1.071   0.698  16.916  0.9196  0.1323 -0.4144
  867MPD2     N12730   1.161   0.787  17.369  0.2099 -0.0066  0.0508
  867MPD2    H512731   1.224   0.750  17.440  0.8865  1.5973  0.2961
  867MPD2    N112732   1.235   0.354  17.161 -0.4765 -0.3877 -0.0451
  867MPD2    H712733   1.262   0.306  17.076 -0.3363 -0.0691 -0.1798
  868MPD2     C12734   2.164   3.473  13.187 -0.2071 -0.9169 -0.5258
  868MPD2    C112735   2.204   3.535  13.303 -0.4308 -0.5301 -0.1498
  868MPD2    C212736   2.110   3.564  13.407 -0.9252 -0.6732  0.0086
  868MPD2    C312737   1.979   3.527  13.390 -0.2356 -0.3035 -0.2185
  868MPD2    C412738   1.939   3.468  13.272 -0.3953  0.5775  0.2348
  868MPD2    C512739   2.036   3.440  13.175  0.3359  0.5436  0.0754
  868MPD2     H12740   2.140   3.603  13.504 -1.7550  1.0834 -0.4253
  868MPD2    H112741   1.835   3.446  13.251 -0.9439  3.0684  0.3915
  868MPD2    H212742   2.227   3.438  13.107 -1.7011  0.2886 -2.2185
  868MPD2    H312743   1.999   3.400  13.080  0.3679 -1.5967  0.9649
  868MPD2     N12744   1.898   3.568  13.493  0.5034 -0.2340  0.2327
  868MPD2    H512745   1.941   3.634  13.558  1.3392 -0.8209  0.2712
  868MPD2    N112746   2.343   3.555  13.324 -0.5714 -0.1109 -0.0649
  868MPD2    H712747   2.399   3.521  13.246  1.0334  0.9305  0.6380
  869MPD2     C12748   4.186   1.464   2.010 -0.2597  0.6097 -0.5925
  869MPD2    C112749   4.050   1.446   1.986  0.1017 -0.0324 -0.1216
  869MPD2    C212750   3.988   1.497   1.874  0.0265 -0.0202 -0.1883
  869MPD2    C312751   4.057   1.589   1.797 -0.2207 -0.0528  0.2213
  869MPD2    C412752   4.197   1.599   1.811  0.5311  0.0410  0.3813
  869MPD2    C512753   4.262   1.530   1.915 -0.5221 -0.1595  0.2400
  869MPD2     H12754   3.881   1.501   1.862  0.0948 -0.6541 -1.0126
  869MPD2    H112755   4.249   1.673   1.751 -1.0275 -0.0036 -1.0508
  869MPD2    H212756   4.241   1.421   2.092 -2.3910 -2.3391 -0.7248
  869MPD2    H312757   4.369   1.540   1.927 -0.2911 -0.3094 -1.7297
  869MPD2     N12758   3.993   1.675   1.702  0.8775 -0.3015 -0.0650
  869MPD2    H512759   4.056   1.725   1.641 -0.9538  1.4423 -0.5133
  869MPD2    N112760   3.989   1.359   2.075  0.5230  0.2748  0.3857
  869MPD2    H712761   4.047   1.338   2.156 -1.4375  0.2676  1.7892
  870MPD2     C12762   2.708   1.307   1.733 -0.0208  0.1682  0.1806
  870MPD2    C112763   2.841   1.301   1.703 -0.2570  0.6077 -0.5461
  870MPD2    C212764   2.891   1.362   1.591 -0.9457  0.0075 -0.8285
  870MPD2    C312765   2.801   1.432   1.509  0.0623 -0.2064 -0.0032
  870MPD2    C412766   2.670   1.435   1.541  0.0111  0.5620 -0.3937
  870MPD2    C512767   2.623   1.376   1.660  0.1833 -0.3296 -0.1908
  870MPD2     H12768   2.995   1.346   1.564  0.0013  2.4400  1.3255
  870MPD2    H112769   2.601   1.492   1.479  0.7608  0.9884 -0.8430
  870MPD2    H212770   2.670   1.254   1.819 -0.6190  0.7843  0.2955
  870MPD2    H312771   2.519   1.392   1.683  0.6845 -0.6719  2.2960
  870MPD2     N12772   2.850   1.495   1.398  0.1225  0.3202 -0.6102
  870MPD2    H512773   2.943   1.473   1.364  0.9075 -0.4923  2.0202
  870MPD2    N112774   2.920   1.220   1.788 -0.0966 -0.3278 -0.0234
  870MPD2    H712775   2.876   1.168   1.863 -0.2265  0.0878  0.1866
  871MPD2     C12776   4.478   4.539  16.616  0.1879 -0.2685  0.3382
  871MPD2    C112777   4.560   4.550  16.725  0.5715  0.5917 -0.2684
  871MPD2    C212778   4.673   4.466  16.742 -0.6647 -0.6312  0.0477
  871MPD2    C312779   4.697   4.371  16.641  0.6265 -0.6492 -0.1440
  871MPD2    C412780   4.609   4.356  16.535  0.1839 -0.4026 -0.4170
  871MPD2    C512781   4.506   4.445  16.524 -0.2763  0.0624 -0.2364
  871MPD2     H12782   0.027   4.480  16.819 -1.0279 -1.0700  0.4845
  871MPD2    H112783   4.622   4.277  16.462  2.1805 -0.0388 -0.4437
  871MPD2    H212784   4.385   4.594  16.600  0.5148 -0.0248 -0.7724
  871MPD2    H312785   4.439   4.429  16.440  0.9205 -0.7006 -1.0589
  871MPD2     N12786   0.077   4.277  16.657 -0.6000  0.1566 -0.4690
  871MPD2    H512787   0.069   4.191  16.603  3.1587  0.2858 -1.2134
  871MPD2    N112788   4.526   4.652  16.817 -0.3786  0.6215  0.1231
  871MPD2    H712789   4.452   4.717  16.789 -1.1093  1.1528  3.2388
  872MPD2     C12790   0.103   3.103  13.958 -0.5797 -0.7572  0.5288
  872MPD2    C112791   0.203   3.019  13.991  0.1784 -0.2618  0.8761
  872MPD2    C212792   0.189   2.934  14.100  0.0605  0.1758  0.1535
  872MPD2    C312793   0.075   2.939  14.172 -0.1341  0.3838 -0.1363
  872MPD2    C412794   4.702   3.033  14.145  0.2787 -0.0238  0.0990
  872MPD2    C512795   4.713   3.116  14.036  0.5418 -0.1197 -0.3021
  872MPD2     H12796   0.271   2.867  14.125  0.6891  0.6915 -0.5057
  872MPD2    H112797   4.608   3.041  14.199  0.6820  0.2071  0.7615
  872MPD2    H212798   0.104   3.162  13.867 -2.4379 -1.2428  0.1920
  872MPD2    H312799   4.632   3.185  14.013 -0.6988 -1.7474 -0.7942
  872MPD2     N12800   0.053   2.848  14.281  0.2087 -0.1545 -0.1090
  872MPD2    H512801   4.679   2.855  14.315  0.1049  0.7785 -0.5840
  872MPD2    N112802   0.325   3.004  13.916  0.0206  0.3529  0.3525
  872MPD2    H712803   0.395   2.940  13.951 -0.1838 -1.2967 -2.2172
  873MPD2     C12804   2.405   3.082   0.943 -0.4050 -0.4759  0.0999
  873MPD2    C112805   2.290   3.006   0.959  0.4174  0.1140  0.2197
  873MPD2    C212806   2.278   2.877   0.904  0.0490  0.7208 -0.4938
  873MPD2    C312807   2.392   2.828   0.836  0.4684  0.4744  0.1513
  873MPD2    C412808   2.504   2.911   0.807 -0.3833  0.6118 -0.4052
  873MPD2    C512809   2.515   3.033   0.874 -0.7121  0.1223 -0.2647
  873MPD2     H12810   2.198   2.811   0.935 -1.1303  2.4168  0.0668
  873MPD2    H112811   2.594   2.864   0.769  0.2672  1.1230  0.4968
  873MPD2    H212812   2.410   3.178   0.994 -0.2303 -0.5257  0.1768
  873MPD2    H312813   2.607   3.089   0.871 -2.0617  2.3098 -1.0595
  873MPD2     N12814   2.399   2.691   0.797 -0.0536  0.0826  0.1929
  873MPD2    H512815   2.485   2.660   0.752  0.5028  2.8696 -0.6489
  873MPD2    N112816   2.192   3.058   1.041  0.4218 -0.9011 -0.1548
  873MPD2    H712817   2.204   3.142   1.097 -0.3532 -0.6823 -0.3068
  874MPD2     C12818   1.448   2.987  16.108 -0.2009 -0.1009  0.2171
  874MPD2    C112819   1.505   2.867  16.150 -0.6892  0.0541 -0.4642
  874MPD2    C212820   1.646   2.871  16.153 -0.4769  0.5745  0.2362
  874MPD2    C312821   1.727   2.982  16.125 -0.6984  0.3410  0.6822
  874MPD2    C412822   1.664   3.097  16.078  0.2477  0.5967 -0.2208
  874MPD2    C512823   1.527   3.092  16.064 -0.1571  0.2829  0.3798
  874MPD2     H12824   1.710   2.788  16.179 -1.6088 -0.8688 -1.6388
  874MPD2    H112825   1.712   3.189  16.046 -0.1463  1.2021  0.9121
  874MPD2    H212826   1.340   2.986  16.095 -0.1417 -0.5326 -0.2749
  874MPD2    H312827   1.479   3.179  16.022 -1.2373 -0.3328  0.3456
  874MPD2     N12828   1.866   2.971  16.148  0.4229 -0.0405 -0.3820
  874MPD2    H512829   1.887   2.897  16.214 -1.0166  0.8302  1.0512
  874MPD2    N112830   1.429   2.748  16.183 -0.3159  0.3933  0.5207
  874MPD2    H712831   1.331   2.747  16.156  0.1936  2.0017 -1.3655
  875MPD2     C12832   3.217   1.288  14.634 -0.4909  1.0012  0.7166
  875MPD2    C112833   3.101   1.224  14.654 -0.2515 -0.0687 -0.5714
  875MPD2    C212834   3.050   1.211  14.785  0.2559  0.5096  0.1700
  875MPD2    C312835   3.132   1.249  14.893  0.5405 -0.6625 -0.0848
  875MPD2    C412836   3.237   1.331  14.868  0.3699 -0.2585 -0.0227
  875MPD2    C512837   3.283   1.341  14.741  0.0621 -0.5481 -0.5880
  875MPD2     H12838   2.969   1.141  14.802  1.9226 -1.8066 -1.4100
  875MPD2    H112839   3.286   1.377  14.953  2.2370  1.1189 -1.8537
  875MPD2    H212840   3.271   1.295  14.541 -0.7862  1.2374  0.5634
  875MPD2    H312841   3.382   1.386  14.739 -0.1254 -0.2766 -3.4290
  875MPD2     N12842   3.094   1.249  15.034 -0.3859  0.0370  0.4176
  875MPD2    H512843   3.158   1.284  15.105 -2.4103  1.6169  1.4449
  875MPD2    N112844   3.019   1.192  14.543 -0.2978  1.2672 -0.4626
  875MPD2    H712845   2.932   1.146  14.567  0.7891 -1.4312 -1.7050
  876MPD2     C12846   1.478   2.079  15.878  0.4590  0.0763 -0.0280
  876MPD2    C112847   1.613   2.073  15.868 -0.5166 -0.0120  0.3346
  876MPD2    C212848   1.674   1.953  15.915  0.8471  0.6013  0.3185
  876MPD2    C312849   1.607   1.838  15.951 -0.0850 -0.7534  0.2981
  876MPD2    C412850   1.476   1.846  15.954  0.3828  0.0654 -0.7133
  876MPD2    C512851   1.412   1.966  15.921 -0.0053 -0.7359  0.1723
  876MPD2     H12852   1.781   1.935  15.910  0.9003  0.9998  0.1054
  876MPD2    H112853   1.406   1.771  15.989 -1.6629  0.9763 -2.8217
  876MPD2    H212854   1.429   2.169  15.842 -0.6358  0.2613  1.9221
  876MPD2    H312855   1.304   1.968  15.921  0.0345  1.5910  1.3816
  876MPD2     N12856   1.684   1.723  15.992  0.7268  0.1823 -0.0227
  876MPD2    H512857   1.785   1.724  15.984  0.8393 -2.8321  1.0047
  876MPD2    N112858   1.684   2.184  15.814  0.1922 -0.0743  0.2845
  876MPD2    H712859   1.634   2.269  15.792 -0.5420 -0.7359 -0.6206
  877MPD2     C12860   1.570   2.723  15.300  0.8553  0.5406 -0.4302
  877MPD2    C112861   1.695   2.660  15.285  0.3714 -0.7739 -0.3814
  877MPD2    C212862   1.743   2.646  15.152  0.2382 -0.0767  0.2351
  877MPD2    C312863   1.665   2.682  15.045  0.1671  0.3460 -0.2976
  877MPD2    C412864   1.548   2.756  15.064  0.6379  0.1114 -0.5817
  877MPD2    C512865   1.506   2.770  15.196  0.7807  0.1082  0.3616
  877MPD2     H12866   1.838   2.598  15.132  0.1939  0.3520 -0.9698
  877MPD2    H112867   1.492   2.776  14.974  1.6604  0.1206 -1.2219
  877MPD2    H212868   1.523   2.740  15.397 -0.2742  0.8047 -1.0261
  877MPD2    H312869   1.411   2.815  15.223  1.1827 -0.5138  2.7669
  877MPD2     N12870   1.704   2.661  14.913 -0.0520 -0.5821 -0.6744
  877MPD2    H512871   1.639   2.671  14.835  0.3021  1.6618 -0.6792
  877MPD2    N112872   1.765   2.602  15.394 -0.5227  0.4547  0.1377
  877MPD2    H712873   1.856   2.562  15.372 -0.3394  1.8538 -1.6103
  878MPD2     C12874   1.164   2.519  13.437 -0.4329 -1.0741  0.5807
  878MPD2    C112875   1.292   2.473  13.478 -0.2175 -0.0893  0.3039
  878MPD2    C212876   1.301   2.370  13.570 -0.2942  0.0607  1.4441
  878MPD2    C312877   1.189   2.311  13.630 -0.0315  1.0154 -0.2988
  878MPD2    C412878   1.067   2.351  13.579 -0.2339  0.2125  0.5059
  878MPD2    C512879   1.057   2.456  13.493 -0.6737 -0.1785  0.1232
  878MPD2     H12880   1.398   2.334  13.603  0.9149  0.3545 -1.7335
  878MPD2    H112881   0.977   2.300  13.612  0.8589 -2.2919 -0.3736
  878MPD2    H212882   1.156   2.607  13.375  1.0026 -0.4696  1.2455
  878MPD2    H312883   0.956   2.475  13.457 -1.0926 -0.4063  1.2036
  878MPD2     N12884   1.205   2.207  13.720 -0.0347 -0.3187 -0.6412
  878MPD2    H512885   1.301   2.183  13.742 -0.4915 -0.9714  0.6755
  878MPD2    N112886   1.399   2.540  13.412 -0.1153  0.4921  0.7482
  878MPD2    H712887   1.370   2.589  13.328 -0.8356 -3.1574 -1.1421
  879MPD2     C12888   2.347   3.616  17.068 -0.4885 -0.3780 -0.0339
  879MPD2    C112889   2.388   3.542  17.174  0.0002 -0.0966  0.0918
  879MPD2    C212890   2.346   3.412  17.179  0.5190 -1.0302  0.0538
  879MPD2    C312891   2.270   3.356  17.081 -0.5366 -0.5424 -0.1901
  879MPD2    C412892   2.235   3.429  16.978 -0.3894 -0.5268  0.5355
  879MPD2    C512893   2.270   3.563  16.970 -0.1984  0.4073 -0.5866
  879MPD2     H12894   2.381   3.352  17.262  0.5175 -0.9138  0.1388
  879MPD2    H112895   2.173   3.384  16.901  1.6208 -1.1738 -0.6898
  879MPD2    H212896   2.369   3.721  17.054  0.1093 -0.2659  1.7499
  879MPD2    H312897   2.238   3.616  16.881 -3.1233 -1.3146 -0.5508
  879MPD2     N12898   2.239   3.221  17.066  0.3203 -0.0176 -0.3150
  879MPD2    H512899   2.184   3.200  16.983 -0.3849  0.5969 -0.0094
  879MPD2    N112900   2.469   3.591  17.279 -0.5565  0.6098 -0.0852
  879MPD2    H712901   2.471   3.553  17.373 -0.6887 -2.0282 -1.1552
  880MPD2     C12902   3.704   0.365   1.092 -0.2395 -0.1565  0.0064
  880MPD2    C112903   3.584   0.428   1.080  1.4768  0.0196  0.2493
  880MPD2    C212904   3.468   0.374   1.129 -0.1992  0.2207  0.1969
  880MPD2    C312905   3.471   0.245   1.174  0.5089 -0.0426  0.3550
  880MPD2    C412906   3.594   0.179   1.183 -0.7110  0.1836 -0.2006
  880MPD2    C512907   3.710   0.244   1.153  1.0465 -0.6337 -0.3900
  880MPD2     H12908   3.374   0.426   1.119 -0.0622  0.8591  2.3501
  880MPD2    H112909   3.602   0.079   1.225  4.3118 -0.4913 -2.8662
  880MPD2    H212910   3.798   0.403   1.052 -0.3542 -0.7313 -0.8061
  880MPD2    H312911   3.807   0.196   1.161  0.7516 -0.9547  1.2875
  880MPD2     N12912   3.353   0.192   1.219  0.2752  0.5096  0.0727
  880MPD2    H512913   3.284   0.266   1.228  0.5211  0.6743  0.5922
  880MPD2    N112914   3.595   0.556   1.016 -0.1980  0.4781 -0.3705
  880MPD2    H712915   3.685   0.578   0.973  0.1923 -1.1018 -0.3549
  881MPD2     C12916   3.570   0.426   0.173 -0.2319 -0.6278  0.4420
  881MPD2    C112917   3.619   0.551   0.169 -0.1566 -0.6135 -0.0166
  881MPD2    C212918   3.642   0.619   0.292  0.2411 -0.8726 -1.1155
  881MPD2    C312919   3.616   0.561   0.415  0.4132 -1.2495 -0.3279
  881MPD2    C412920   3.580   0.429   0.419  0.5032 -0.0545  0.6426
  881MPD2    C512921   3.562   0.365   0.295 -0.2604 -0.1179  0.3646
  881MPD2     H12922   3.695   0.713   0.285  1.0719 -1.2309  0.4637
  881MPD2    H112923   3.549   0.370   0.505  1.1822 -0.1434  0.8284
  881MPD2    H212924   3.553   0.371   0.081 -1.3560 -2.2796  1.6252
  881MPD2    H312925   3.531   0.260   0.295 -1.6039  0.2682 -2.5620
  881MPD2     N12926   3.616   0.628   0.535 -0.4886 -0.4291  0.3106
  881MPD2    H512927   3.584   0.573   0.614  0.2292 -2.6784 -0.9708
  881MPD2    N112928   3.652   0.593   0.043  0.0969 -0.1399 -0.8045
  881MPD2    H712929   3.633   0.531  17.652 -0.7211 -0.8826 -0.0175
  882MPD2     C12930   1.526   2.181  14.241 -1.2458 -0.2742 -0.6722
  882MPD2    C112931   1.511   2.300  14.315  0.2048  0.2886  0.2734
  882MPD2    C212932   1.393   2.371  14.295  0.0796  0.1011 -0.7713
  882MPD2    C312933   1.291   2.313  14.236  0.5641 -0.1923  0.5948
  882MPD2    C412934   1.305   2.197  14.164  0.6726  0.6254  0.2188
  882MPD2    C512935   1.419   2.124  14.173  0.5063 -0.2415  0.7455
  882MPD2     H12936   1.385   2.474  14.327 -3.8825 -0.7809  1.1236
  882MPD2    H112937   1.232   2.157  14.094  0.1833  0.3820  0.8770
  882MPD2    H212938   1.617   2.124  14.230  0.3925  1.9230  1.6029
  882MPD2    H312939   1.421   2.026  14.127  3.5925 -0.5522  1.5789
  882MPD2     N12940   1.182   2.391  14.240  0.3123  0.7836 -0.2263
  882MPD2    H512941   1.198   2.478  14.289 -0.2865  0.8133 -0.0815
  882MPD2    N112942   1.618   2.359  14.386  0.0489  0.1668 -0.5965
  882MPD2    H712943   1.712   2.320  14.381 -0.7070 -1.7855  0.2106
  883MPD2     C12944   3.988   2.388  16.575 -0.2484 -0.3860 -0.6802
  883MPD2    C112945   4.094   2.347  16.499  0.3234  0.6959  0.5269
  883MPD2    C212946   4.218   2.358  16.562 -0.1838 -0.3848  0.6809
  883MPD2    C312947   4.235   2.413  16.688  0.3409 -0.0719 -0.2357
  883MPD2    C412948   4.128   2.459  16.754 -0.4196  0.1998 -0.2917
  883MPD2    C512949   4.003   2.450  16.698 -0.0248  0.1454 -0.0648
  883MPD2     H12950   4.312   2.342  16.511 -1.0234  1.4823 -1.4602
  883MPD2    H112951   4.139   2.493  16.857  1.5723  2.1548 -1.1654
  883MPD2    H212952   3.885   2.382  16.543 -0.4708  0.3641 -0.0986
  883MPD2    H312953   3.917   2.481  16.757 -1.3207 -0.5403 -1.5978
  883MPD2     N12954   4.368   2.427  16.740  0.0725 -0.0595 -0.4492
  883MPD2    H512955   4.438   2.370  16.693  1.4261  0.5213  0.8792
  883MPD2    N112956   4.078   2.299  16.370  0.3998 -1.0224 -0.1850
  883MPD2    H712957   4.156   2.254  16.325  1.5937  0.0703  0.8067
  884MPD2     C12958   1.424   3.162  15.688 -0.0805  0.2365 -1.0151
  884MPD2    C112959   1.406   3.235  15.572  0.2294  0.2925 -0.2365
  884MPD2    C212960   1.290   3.298  15.549 -0.1738 -0.6099 -0.2966
  884MPD2    C312961   1.176   3.269  15.630  0.0701 -0.8503 -0.2788
  884MPD2    C412962   1.192   3.171  15.730  0.6799 -0.0829  0.7188
  884MPD2    C512963   1.319   3.124  15.761  1.0685 -0.5453  0.0058
  884MPD2     H12964   1.278   3.371  15.470 -3.6819 -1.9863 -1.0475
  884MPD2    H112965   1.108   3.142  15.792 -0.4950  0.0691 -0.7953
  884MPD2    H212966   1.523   3.127  15.716 -0.2027 -0.2388 -1.1802
  884MPD2    H312967   1.324   3.067  15.853  0.5696  2.4250  1.8911
  884MPD2     N12968   1.053   3.331  15.599 -0.3375  0.5433 -0.2934
  884MPD2    H512969   1.055   3.410  15.535 -0.1478 -0.1416 -1.1248
  884MPD2    N112970   1.514   3.270  15.494 -0.3119  0.0274 -0.8124
  884MPD2    H712971   1.490   3.341  15.425  2.6009  2.3263  0.5140
  885MPD2     C12972   3.760   3.494   0.289  0.3042 -0.5703 -0.2447
  885MPD2    C112973   3.876   3.561   0.311  0.4559  0.2148 -0.2981
  885MPD2    C212974   3.936   3.633   0.211  0.2910  0.1246 -0.2088
  885MPD2    C312975   3.870   3.635   0.087 -0.5694 -0.0512 -0.4439
  885MPD2    C412976   3.760   3.559   0.061 -0.8941 -0.1908 -0.3558
  885MPD2    C512977   3.704   3.489   0.162 -0.2070  0.2864  0.4493
  885MPD2     H12978   4.028   3.688   0.228 -1.1389  2.4135  0.1956
  885MPD2    H112979   3.707   3.540  17.655 -1.2558  0.6702 -0.3280
  885MPD2    H212980   3.700   3.436   0.358  0.3172 -0.8340 -0.4556
  885MPD2    H312981   3.616   3.427   0.158 -0.2480  0.3200  0.8981
  885MPD2     N12982   3.927   3.686  17.653 -0.6099 -0.0198 -0.0007
  885MPD2    H512983   3.874   3.686  17.566 -0.7657 -0.4073  0.0934
  885MPD2    N112984   3.935   3.534   0.436  0.5998 -0.1592 -0.3918
  885MPD2    H712985   3.885   3.495   0.516  1.6661  2.6668  1.6454
  886MPD2     C12986   0.629   1.976  15.935  0.6636  0.9999  0.7955
  886MPD2    C112987   0.676   1.934  15.814  0.3851  0.0531 -0.4152
  886MPD2    C212988   0.689   2.022  15.709 -0.0389  0.7336 -0.0455
  886MPD2    C312989   0.679   2.157  15.728 -0.1941 -0.2303  1.1210
  886MPD2    C412990   0.635   2.205  15.852  0.2141  0.2046 -0.1410
  886MPD2    C512991   0.618   2.110  15.950  0.8545 -0.1094 -0.5324
  886MPD2     H12992   0.700   1.973  15.614 -1.5491  0.6908 -0.1975
  886MPD2    H112993   0.629   2.310  15.877  0.6790  0.0433  0.6224
  886MPD2    H212994   0.629   1.915  16.025  1.3433 -0.4553 -0.2020
  886MPD2    H312995   0.609   2.143  16.053 -0.2149  2.3826 -1.4208
  886MPD2     N12996   0.713   2.244  15.620 -0.2070  0.3301  0.4659
  886MPD2    H512997   0.692   2.342  15.636  0.0973 -0.0722  3.2440
  886MPD2    N112998   0.709   1.800  15.774 -0.1108  0.5812  0.0256
  886MPD2    H712999   0.729   1.790  15.675 -1.8043  0.8155 -0.3240
  887MPD2     C13000   1.214   1.704  15.489 -0.3387  0.5690 -0.2846
  887MPD2    C113001   1.119   1.745  15.578 -0.1025 -0.6134  0.5091
  887MPD2    C213002   1.129   1.878  15.622  0.5485  0.2119  0.2124
  887MPD2    C313003   1.219   1.966  15.566  0.6391  0.2215  0.4774
  887MPD2    C413004   1.313   1.921  15.478 -0.2078  0.6252 -0.2955
  887MPD2    C513005   1.305   1.791  15.437  0.2889 -0.2833 -0.5541
  887MPD2     H13006   1.053   1.909  15.692 -0.1744  0.3106 -0.6154
  887MPD2    H113007   1.395   1.984  15.445  0.5355 -0.1870 -0.0270
  887MPD2    H213008   1.207   1.603  15.450  1.0424  0.1868  0.4270
  887MPD2    H313009   1.368   1.742  15.363  0.0270 -0.7057 -0.4969
  887MPD2     N13010   1.209   2.101  15.610 -0.0637 -0.6082 -0.0847
  887MPD2    H513011   1.127   2.125  15.664  0.2527 -0.6406  0.4114
  887MPD2    N113012   1.015   1.662  15.618 -0.3611  0.0610  0.4802
  887MPD2    H713013   0.942   1.696  15.680  1.2193 -1.0486  2.9375
  888MPD2     C13014   3.341   2.084  15.301 -0.7036 -0.2095 -0.2786
  888MPD2    C113015   3.245   2.155  15.364 -0.2837  0.6781  0.7121
  888MPD2    C213016   3.279   2.272  15.431  0.1899 -0.2795 -1.1799
  888MPD2    C313017   3.404   2.322  15.414  0.3103 -0.0868 -0.1819
  888MPD2    C413018   3.495   2.244  15.337 -0.2451 -0.0016 -1.0207
  888MPD2    C513019   3.466   2.124  15.281  0.7653  0.6127  0.0066
  888MPD2     H13020   3.211   2.324  15.497 -0.7335 -1.6908 -1.0208
  888MPD2    H113021   3.598   2.275  15.328 -0.0573  0.3529  2.1703
  888MPD2    H213022   3.318   1.989  15.255  1.2324 -0.4735 -0.6789
  888MPD2    H313023   3.533   2.067  15.217 -1.4259 -1.2767 -0.5938
  888MPD2     N13024   3.446   2.456  15.465 -0.2613  0.1207  0.1282
  888MPD2    H513025   3.377   2.526  15.491 -0.1429  0.2251  0.1631
  888MPD2    N113026   3.116   2.110  15.386  0.8443  0.3084  0.2145
  888MPD2    H713027   3.061   2.162  15.452  2.7386  0.3734  1.7474
  889MPD2     C13028   3.155   1.226  13.876 -0.1832  0.4437 -0.2708
  889MPD2    C113029   3.052   1.263  13.792  0.4974 -0.1211 -0.0881
  889MPD2    C213030   2.958   1.343  13.852  0.4086  0.6703  0.3610
  889MPD2    C313031   2.977   1.397  13.977  0.1170  0.0907  0.4345
  889MPD2    C413032   3.076   1.350  14.059 -0.1817 -0.5356  0.4235
  889MPD2    C513033   3.156   1.253  14.010  0.2574 -0.2158  0.6940
  889MPD2     H13034   2.873   1.376  13.793 -1.1286  0.1798  2.2954
  889MPD2    H113035   3.094   1.378  14.162  0.4602  0.9579 -0.0967
  889MPD2    H213036   3.227   1.155  13.836  0.7550  0.9817  0.4443
  889MPD2    H313037   3.229   1.212  14.079  0.4260 -0.8827  0.1145
  889MPD2     N13038   2.887   1.498  14.009  0.5615  0.4144 -1.1618
  889MPD2    H513039   2.828   1.528  13.932 -1.2108 -0.6466 -0.2205
  889MPD2    N113040   3.027   1.196  13.669  0.4157  0.0854  0.3732
  889MPD2    H713041   2.935   1.207  13.627  0.8760  1.4635 -0.2688
  890MPD2     C13042   2.221   3.347  15.068  0.3633 -0.2881 -0.0357
  890MPD2    C113043   2.298   3.409  15.167 -0.4573  0.3637  0.2099
  890MPD2    C213044   2.304   3.354  15.292  0.3217  0.0361 -0.2979
  890MPD2    C313045   2.230   3.247  15.332  0.3826  0.5319 -0.2944
  890MPD2    C413046   2.146   3.189  15.234 -0.1770  0.0441  0.6126
  890MPD2    C513047   2.150   3.232  15.107 -0.2441 -0.1221  0.6726
  890MPD2     H13048   2.360   3.397  15.375  1.1563  0.6792 -1.1992
  890MPD2    H113049   2.091   3.099  15.259 -0.6124  0.0455 -0.3774
  890MPD2    H213050   2.219   3.383  14.965  2.3754  1.4448  0.5295
  890MPD2    H313051   2.106   3.169  15.030  0.6902 -1.3115  1.1126
  890MPD2     N13052   2.248   3.183  15.459 -0.3212  0.4929 -0.2185
  890MPD2    H513053   2.324   3.215  15.520 -1.9196  0.7763  1.6386
  890MPD2    N113054   2.372   3.529  15.140 -0.7644  0.6910 -0.0450
  890MPD2    H713055   2.387   3.557  15.043 -1.4007  1.7158  0.1580
  891MPD2     C13056   4.554   1.324  17.041  0.2265 -0.6966  0.2293
  891MPD2    C113057   4.503   1.429  17.105  0.3277  0.2555 -0.2167
  891MPD2    C213058   4.573   1.483  17.213 -0.3873 -0.4283  0.5375
  891MPD2    C313059   4.698   1.437  17.244 -0.1602  0.8282 -0.1967
  891MPD2    C413060   0.036   1.331  17.180 -0.3300 -0.2070  0.3800
  891MPD2    C513061   4.679   1.278  17.082 -0.1753 -0.8950  0.0843
  891MPD2     H13062   4.534   1.571  17.264  1.0212  0.5725 -0.1174
  891MPD2    H113063   0.134   1.298  17.211  0.4109  0.2615 -1.4604
  891MPD2    H213064   4.506   1.285  16.952  1.1021 -1.2553  0.0052
  891MPD2    H313065   4.704   1.183  17.036 -0.6042  0.0812 -2.1674
  891MPD2     N13066   0.048   1.511  17.345  0.8967  0.0700  0.5183
  891MPD2    H513067   4.714   1.591  17.376 -0.4198 -0.8036  0.4132
  891MPD2    N113068   4.379   1.479  17.057 -0.5075 -0.8033 -0.3676
  891MPD2    H713069   4.341   1.430  16.977 -0.6906 -0.0152 -0.7717
  892MPD2     C13070   1.100   2.733  15.036 -0.0934 -0.2327 -0.7977
  892MPD2    C113071   0.964   2.755  14.992  0.1377 -0.0425  0.1003
  892MPD2    C213072   0.939   2.726  14.862 -0.6901  0.1263  0.5931
  892MPD2    C313073   1.034   2.670  14.774  0.2716 -0.2188 -0.2273
  892MPD2    C413074   1.156   2.650  14.821  0.6629  0.5542  0.7323
  892MPD2    C513075   1.193   2.677  14.954 -0.1795  0.3131 -0.2625
  892MPD2     H13076   0.836   2.720  14.829 -1.2148 -1.5454  2.5833
  892MPD2    H113077   1.237   2.614  14.759 -0.8823  1.7740 -2.0005
  892MPD2    H213078   1.136   2.769  15.132 -1.8263  0.8674 -0.5455
  892MPD2    H313079   1.296   2.674  14.989 -0.1089 -1.7978 -0.6043
  892MPD2     N13080   1.013   2.638  14.636 -0.4869  0.7223 -0.1095
  892MPD2    H513081   1.096   2.613  14.583  1.4674  0.4165  3.1133
  892MPD2    N113082   0.865   2.812  15.073  0.2140  0.9779  0.3536
  892MPD2    H713083   0.776   2.831  15.029  0.8667  0.7999 -1.0225
  893MPD2     C13084   2.442   1.664   2.174 -0.1499 -0.1983  0.2334
  893MPD2    C113085   2.451   1.641   2.040  0.2254  0.7521  0.3194
  893MPD2    C213086   2.338   1.664   1.958  0.0250 -0.0284  0.4408
  893MPD2    C313087   2.213   1.702   2.017  0.4461  0.1561 -0.2453
  893MPD2    C413088   2.209   1.720   2.151 -0.1393  0.4325  0.1293
  893MPD2    C513089   2.325   1.707   2.228  0.3731  0.3184 -0.2432
  893MPD2     H13090   2.341   1.661   1.850  0.5310 -2.7305  0.5232
  893MPD2    H113091   2.122   1.752   2.208 -0.6533  1.1656 -1.0835
  893MPD2    H213092   2.514   1.639   2.251 -0.4567 -0.0195  0.5805
  893MPD2    H313093   2.312   1.732   2.333 -0.5482  0.3378 -0.3649
  893MPD2     N13094   2.096   1.724   1.946  0.0519 -0.0546 -0.1767
  893MPD2    H513095   2.013   1.746   2.000  0.9728  2.8357  0.0873
  893MPD2    N113096   2.585   1.607   1.984  0.0299 -0.2718  0.3792
  893MPD2    H713097   2.655   1.577   2.051 -0.6632  1.4113  1.8439
  894MPD2     C13098   0.618   3.714   1.769  0.3137  0.0715  0.0867
  894MPD2    C113099   0.531   3.819   1.776  0.7659 -0.0156  0.7785
  894MPD2    C213100   0.571   3.940   1.734  0.0171 -0.2523  0.7892
  894MPD2    C313101   0.696   3.973   1.687  0.0414 -0.5351  0.0815
  894MPD2    C413102   0.779   3.862   1.678 -0.1490 -0.4395  1.1070
  894MPD2    C513103   0.745   3.734   1.723  0.0223 -0.4032 -0.6381
  894MPD2     H13104   0.508   4.028   1.735 -0.8789 -0.8623 -1.1785
  894MPD2    H113105   0.878   3.876   1.635 -0.2143 -1.6480  0.5487
  894MPD2    H213106   0.580   3.616   1.796  0.2753  0.2162  0.5633
  894MPD2    H313107   0.816   3.652   1.725  0.7176  0.1999 -0.2072
  894MPD2     N13108   0.729   4.095   1.622 -0.1193  0.3885  0.8415
  894MPD2    H513109   0.652   4.156   1.598 -0.7484  0.1554  2.2711
  894MPD2    N113110   0.405   3.805   1.849  0.7542 -0.0086  0.1154
  894MPD2    H713111   0.379   3.714   1.885  0.2895  0.0668 -0.0345
  895MPD2     C13112   0.262   2.425  13.822 -0.1777 -0.3457  0.4017
  895MPD2    C113113   0.209   2.425  13.700  0.4015 -0.6691  0.0991
  895MPD2    C213114   0.219   2.304  13.635  0.6609 -0.0425  0.0153
  895MPD2    C313115   0.283   2.191  13.684 -0.1784  0.6786  0.1020
  895MPD2    C413116   0.326   2.198  13.808  0.3901 -0.1493 -0.0060
  895MPD2    C513117   0.322   2.313  13.875 -0.3245  0.3207 -0.3397
  895MPD2     H13118   0.179   2.300  13.534  2.3366 -1.1852 -0.6169
  895MPD2    H113119   0.358   2.109  13.861  1.5963 -0.3134 -1.0179
  895MPD2    H213120   0.252   2.514  13.883 -2.9549  0.3131 -1.0183
  895MPD2    H313121   0.375   2.324  13.969 -2.0580  1.6076  0.4951
  895MPD2     N13122   0.284   2.061  13.616 -0.0373 -0.1772  0.3937
  895MPD2    H513123   0.323   1.984  13.669  3.1491  0.1419 -1.4340
  895MPD2    N113124   0.145   2.531  13.635 -0.7499 -0.3437  0.4083
  895MPD2    H713125   0.103   2.516  13.543  1.4673 -1.0901 -0.4765
  896MPD2     C13126   2.161   0.191   1.748  0.3068 -0.1388  0.6339
  896MPD2    C113127   2.219   0.101   1.665 -0.3346  0.0264 -0.1837
  896MPD2    C213128   2.132   0.027   1.586  0.0499 -0.1639  0.0603
  896MPD2    C313129   1.997   0.046   1.592 -0.0053  0.4879  0.7642
  896MPD2    C413130   1.938   0.130   1.691 -0.8688 -0.1825  0.4719
  896MPD2    C513131   2.025   0.196   1.773 -0.3500 -0.6409  0.2060
  896MPD2     H13132   2.161   4.683   1.505  2.9133  0.5754  0.5005
  896MPD2    H113133   1.831   0.130   1.710 -0.8958  2.3061  0.3626
  896MPD2    H213134   2.230   0.251   1.806 -0.8042  0.0543  1.7455
  896MPD2    H313135   1.997   0.270   1.847  0.4615 -0.8913  0.7608
  896MPD2     N13136   1.909   4.701   1.504  0.4879 -0.6293  0.2533
  896MPD2    H513137   1.948   4.634   1.439 -1.8741 -2.1761  0.4341
  896MPD2    N113138   2.358   0.120   1.640  0.1843 -0.5907  0.1556
  896MPD2    H713139   2.411   0.186   1.696 -0.2354 -2.5524  2.8195
  897MPD2     C13140   3.645   1.351  10.549  0.1176 -0.1697  0.1350
  897MPD2    C113141   3.676   1.479  10.604  0.0214  0.1452  0.3094
  897MPD2    C213142   3.583   1.531  10.692  0.6699  0.2132 -0.2015
  897MPD2    C313143   3.456   1.481  10.717  0.5780 -0.0815  0.1708
  897MPD2    C413144   3.429   1.364  10.646  0.2249 -0.1512 -0.1529
  897MPD2    C513145   3.522   1.296  10.572 -0.2220  0.0164  0.2073
  897MPD2     H13146   3.600   1.624  10.745  0.8829  0.2921 -0.4054
  897MPD2    H113147   3.334   1.312  10.654  0.4659 -0.2847  1.9937
  897MPD2    H213148   3.710   1.296  10.482 -1.4181 -1.0548 -0.6420
  897MPD2    H313149   3.500   1.200  10.528 -2.5475 -0.4009  2.2985
  897MPD2     N13150   3.373   1.545  10.813 -0.0624  0.1229  1.2634
  897MPD2    H513151   3.411   1.629  10.855 -0.0349  1.1142 -0.7497
  897MPD2    N113152   3.796   1.548  10.561 -0.3214  0.6925  0.1707
  897MPD2    H713153   3.853   1.517  10.483  0.1652 -2.9727  1.9687
  898MPD2     C13154   0.608   1.967  17.441  0.2077  0.0092 -0.0543
  898MPD2    C113155   0.636   2.058  17.542 -0.1503 -0.0277  0.1369
  898MPD2    C213156   0.532   2.130  17.600  0.1114 -0.3402 -0.1303
  898MPD2    C313157   0.396   2.104  17.573  0.1408 -0.7189 -0.3217
  898MPD2    C413158   0.374   2.016  17.470 -0.5703 -0.4367  0.5311
  898MPD2    C513159   0.474   1.957  17.408  0.0279  0.4675  0.0882
  898MPD2     H13160   0.551   2.212  17.668  1.9922 -2.0705  1.4537
  898MPD2    H113161   0.276   1.982  17.438 -0.6462 -0.0272  0.3392
  898MPD2    H213162   0.689   1.920  17.386  1.0514 -0.0197  1.1975
  898MPD2    H313163   0.460   1.905  17.314 -2.5551 -1.1513  1.3716
  898MPD2     N13164   0.296   2.189  17.622  0.0905  0.4475  0.4883
  898MPD2    H513165   0.317   2.247   0.016  0.9879  1.6793 -0.6337
  898MPD2    N113166   0.772   2.099  17.580  0.0884 -0.5044  0.0136
  898MPD2    H713167   0.778   2.176  17.646 -2.1054  0.8465 -1.3605
  899MPD2     C13168   1.964   3.044  17.685 -0.0683  0.2699 -0.6776
  899MPD2    C113169   1.970   3.167   0.065 -0.2109 -0.0131 -0.1442
  899MPD2    C213170   1.937   3.168   0.200 -0.3400  0.8796  0.3286
  899MPD2    C313171   1.915   3.052   0.268 -0.3809 -0.0293  0.9238
  899MPD2    C413172   1.912   2.933   0.200  0.3157  0.7587  0.4194
  899MPD2    C513173   1.930   2.929   0.064  0.5999  0.4874  0.4633
  899MPD2     H13174   1.929   3.264   0.250 -1.7209  0.2939  1.2309
  899MPD2    H113175   1.893   2.837   0.247  1.0823  1.3446  1.9081
  899MPD2    H213176   1.986   3.039  17.579 -1.2671  1.6386 -0.9960
  899MPD2    H313177   1.926   2.839   0.004 -0.4392 -0.4917  2.0258
  899MPD2     N13178   1.856   3.054   0.394  0.6016 -0.8595 -0.1191
  899MPD2    H513179   1.803   2.972   0.422  2.7397 -3.4008 -3.5886
  899MPD2    N113180   2.000   3.281  17.671 -0.3810  0.4186  0.6985
  899MPD2    H713181   2.011   3.264  17.571  2.2675  1.8352  0.7532
  900MPD2     C13182   1.310   0.090  12.241  0.6684  0.0964 -0.0167
  900MPD2    C113183   1.193   0.024  12.212  0.4376  0.1571 -0.3917
  900MPD2    C213184   1.097   0.097  12.148  0.2483  0.1042 -0.2530
  900MPD2    C313185   1.114   0.233  12.118 -0.6498 -0.4010 -0.7478
  900MPD2    C413186   1.230   0.299  12.153 -0.0076  0.1988  0.0843
  900MPD2    C513187   1.324   0.223  12.212 -0.5295  0.5576  0.1431
  900MPD2     H13188   1.005   0.055  12.109 -0.4050  2.7122 -1.4870
  900MPD2    H113189   1.251   0.402  12.127 -1.4145 -0.1275 -2.3224
  900MPD2    H213190   1.388   0.039  12.296  1.2033 -0.6707 -1.4935
  900MPD2    H313191   1.412   0.280  12.240 -0.3297  1.1671 -1.6991
  900MPD2     N13192   1.013   0.290  12.043  0.0346  0.3491 -0.8881
  900MPD2    H513193   0.939   0.225  12.016  0.4067  0.0386 -1.1656
  900MPD2    N113194   1.174   4.609  12.263  0.1288  0.6461 -0.5496
  900MPD2    H713195   1.246   4.563  12.318 -0.4004  2.2184  1.4505
  901MPD2     C13196   0.790   3.576  12.248 -0.0037 -0.5911  0.6866
  901MPD2    C113197   0.925   3.602  12.284 -0.4868  0.2944 -0.0137
  901MPD2    C213198   0.980   3.725  12.272 -0.4727  0.1364  0.4547
  901MPD2    C313199   0.897   3.827  12.235  0.3173 -0.2933  0.0353
  901MPD2    C413200   0.764   3.806  12.200 -0.5492  0.0813  0.9315
  901MPD2    C513201   0.713   3.678  12.203  0.2869  0.9875  0.4917
  901MPD2     H13202   1.082   3.738  12.308 -0.4503  0.4945  0.2572
  901MPD2    H113203   0.695   3.886  12.174 -0.8171 -0.3911  0.2011
  901MPD2    H213204   0.742   3.480  12.256  2.6087 -1.9556 -0.1094
  901MPD2    H313205   0.608   3.659  12.187  0.1680 -0.9016  3.5167
  901MPD2     N13206   0.952   3.956  12.255  0.0963 -0.1261 -0.3098
  901MPD2    H513207   1.034   3.959  12.315  0.1826 -2.0497 -0.3114
  901MPD2    N113208   1.010   3.498  12.331  0.0433 -0.5349  0.5127
  901MPD2    H713209   1.103   3.522  12.363 -0.1682 -0.6545  1.2247
  902MPD2     C13210   0.031   3.528  11.998 -0.3032 -0.9028  0.3618
  902MPD2    C113211   0.048   3.508  12.132  0.2527 -0.2274  0.1501
  902MPD2    C213212   0.170   3.446  12.171 -0.2371  0.0927  0.6579
  902MPD2    C313213   0.251   3.380  12.080  0.3172  0.8559  1.2790
  902MPD2    C413214   0.221   3.410  11.945 -0.6906  0.3709  0.0801
  902MPD2    C513215   0.116   3.484  11.905  0.3429 -0.1556 -0.3629
  902MPD2     H13216   0.199   3.447  12.276 -1.2758  1.9682  0.9123
  902MPD2    H113217   0.279   3.372  11.861  0.2789  2.3145 -0.1139
  902MPD2    H213218   4.677   3.598  11.963  0.2873  1.1685  3.2257
  902MPD2    H313219   0.098   3.513  11.802 -1.7015 -0.2578 -0.0472
  902MPD2     N13220   0.370   3.310  12.109  0.8645 -0.2592  0.0642
  902MPD2    H513221   0.428   3.287  12.029 -1.5022  0.6131 -1.8936
  902MPD2    N113222   4.679   3.561  12.222 -0.3907  0.1259 -0.1422
  902MPD2    H713223   4.601   3.616  12.188 -0.2547 -0.2865 -1.1051
  903MPD2     C13224   0.466   3.237  11.636  0.0688 -0.3558 -0.0602
  903MPD2    C113225   0.428   3.143  11.724 -0.8039 -0.1188  0.6212
  903MPD2    C213226   0.297   3.090  11.717  0.1027  0.9783  0.8536
  903MPD2    C313227   0.210   3.131  11.610 -0.2014  1.0409  0.5059
  903MPD2    C413228   0.259   3.219  11.518 -0.0596  0.6814  0.2274
  903MPD2    C513229   0.388   3.267  11.530 -0.6024 -0.7770  0.3521
  903MPD2     H13230   0.264   3.023  11.796 -0.0099 -0.2205 -0.2131
  903MPD2    H113231   0.201   3.245  11.430 -0.6368 -2.2623 -0.2839
  903MPD2    H213232   0.566   3.277  11.649  0.6403 -0.9131 -2.5639
  903MPD2    H313233   0.429   3.339  11.459  0.6481 -1.9589 -0.1199
  903MPD2     N13234   0.070   3.101  11.616 -0.4271  0.7051 -0.1307
  903MPD2    H513235   0.038   3.058  11.703  2.0945  1.1109  0.9919
  903MPD2    N113236   0.505   3.125  11.842 -0.6557  0.5105  0.0008
  903MPD2    H713237   0.593   3.176  11.843 -0.9148  0.9621 -0.0394
  904MPD2     C13238   4.351   1.164  14.116  0.2858 -0.6345  0.6374
  904MPD2    C113239   4.401   1.284  14.088 -0.1661  0.8870  0.7991
  904MPD2    C213240   4.538   1.302  14.083  0.1693  0.4234  0.3674
  904MPD2    C313241   4.631   1.204  14.111 -0.8152 -0.2421 -0.6192
  904MPD2    C413242   4.578   1.080  14.138 -0.6284 -0.5070  0.5080
  904MPD2    C513243   4.442   1.058  14.135 -0.1627  0.4358 -0.2958
  904MPD2     H13244   4.575   1.403  14.068 -1.0481  0.9089  0.5603
  904MPD2    H113245   4.641   0.997  14.169  0.5204  0.4504  0.6930
  904MPD2    H213246   4.244   1.149  14.125  0.6612 -5.1129 -2.0009
  904MPD2    H313247   4.408   0.962  14.172  0.9100 -0.5085 -1.7043
  904MPD2     N13248   0.048   1.241  14.114  0.3583  0.1437  0.1661
  904MPD2    H513249   0.059   1.337  14.084  0.7163 -0.9122 -3.1451
  904MPD2    N113250   4.328   1.400  14.054  0.2644  0.1834 -1.1518
  904MPD2    H713251   4.375   1.486  14.027 -0.5323  0.4062 -1.8344
  905MPD2     C13252   4.188   1.899  13.405  0.0108  0.2467 -0.0117
  905MPD2    C113253   4.265   1.812  13.480 -0.6518  0.5980 -0.2973
  905MPD2    C213254   4.397   1.771  13.446  0.0339 -0.1659  0.2027
  905MPD2    C313255   4.454   1.830  13.331 -0.6297  0.8151  0.3221
  905MPD2    C413256   4.384   1.921  13.255 -0.1993 -0.4122 -0.0945
  905MPD2    C513257   4.248   1.953  13.291  0.3725 -0.3821 -0.0445
  905MPD2     H13258   4.453   1.696  13.500 -2.2854 -0.3328  2.3649
  905MPD2    H113259   4.436   1.982  13.182  0.5497  1.0962  1.6955
  905MPD2    H213260   4.089   1.935  13.431 -0.4220  1.9397 -3.9674
  905MPD2    H313261   4.205   2.036  13.238  1.0241  1.1400  1.8125
  905MPD2     N13262   4.595   1.818  13.312  0.0486  0.2021 -0.8541
  905MPD2    H513263   4.636   1.886  13.248  0.9167  2.7985  2.4602
  905MPD2    N113264   4.205   1.773  13.604 -0.6519  0.5921 -0.2172
  905MPD2    H713265   4.110   1.801  13.627 -1.2865 -0.9913 -0.8882
  906MPD2     C13266   2.084   1.231  11.490  0.4867  0.4168 -0.1502
  906MPD2    C113267   1.973   1.256  11.404 -0.7483 -0.0247  0.1202
  906MPD2    C213268   1.859   1.170  11.405 -0.3298 -0.0858  0.0002
  906MPD2    C313269   1.856   1.071  11.502  0.1596  0.1210 -0.5917
  906MPD2    C413270   1.973   1.042  11.580 -0.4938 -0.4107 -0.2795
  906MPD2    C513271   2.083   1.117  11.569 -0.0345  0.3710 -0.0256
  906MPD2     H13272   1.770   1.186  11.346 -0.6657 -0.8710  0.3015
  906MPD2    H113273   1.975   0.957  11.647 -2.1814 -0.2678 -0.0393
  906MPD2    H213274   2.171   1.296  11.494 -0.3571  1.4797  0.9399
  906MPD2    H313275   2.176   1.102  11.623 -0.3236  0.5713  0.5208
  906MPD2     N13276   1.751   0.975  11.523  0.0068 -0.3250  0.3404
  906MPD2    H513277   1.763   0.903  11.592  3.1893 -1.2184 -1.1250
  906MPD2    N113278   1.975   1.350  11.298 -0.3002 -0.1341  0.2963
  906MPD2    H713279   1.894   1.346  11.237  1.4640  0.6457 -2.1336
  907MPD2     C13280   1.067   0.714  16.512 -0.9920  0.3545  0.5745
  907MPD2    C113281   1.149   0.631  16.441 -0.2451 -0.0685  0.0833
  907MPD2    C213282   1.256   0.578  16.512 -0.3557 -0.0144  0.0377
  907MPD2    C313283   1.282   0.619  16.636 -0.2540 -1.0241 -0.3577
  907MPD2    C413284   1.207   0.718  16.692  0.2122 -0.1105  0.0972
  907MPD2    C513285   1.096   0.763  16.634  0.3559  0.2867  0.3752
  907MPD2     H13286   1.312   0.495  16.470  3.4451  0.8784  3.3407
  907MPD2    H113287   1.229   0.761  16.789  1.8216  0.1071 -0.3547
  907MPD2    H213288   0.973   0.744  16.466  0.7604  2.8748 -1.3684
  907MPD2    H313289   1.037   0.842  16.680  2.3884  2.4454 -0.6807
  907MPD2     N13290   1.390   0.558  16.706 -0.0771 -0.0422 -0.2881
  907MPD2    H513291   1.419   0.468  16.668 -0.0784 -0.2998  0.3129
  907MPD2    N113292   1.124   0.581  16.308 -0.0695  0.6374 -0.3821
  907MPD2    H713293   1.188   0.508  16.280 -0.7913  0.1850 -0.8387
  908MPD2     C13294   3.828   1.362   9.768 -0.6228  0.2557  0.3378
  908MPD2    C113295   3.940   1.332   9.834  0.4785  0.2175 -0.4074
  908MPD2    C213296   3.976   1.404   9.949 -0.4283 -0.7150  0.8264
  908MPD2    C313297   3.904   1.516   9.987 -0.2896 -0.3124  0.4936
  908MPD2    C413298   3.784   1.539   9.919  0.5219  0.2194  0.2515
  908MPD2    C513299   3.750   1.464   9.808 -0.0626 -0.8433  0.3398
  908MPD2     H13300   4.055   1.383  10.019 -0.3125  2.7963  1.7815
  908MPD2    H113301   3.721   1.622   9.951 -0.1093  0.3783 -1.4379
  908MPD2    H213302   3.793   1.307   9.682  0.2508  0.5209 -0.1886
  908MPD2    H313303   3.654   1.492   9.766  0.9622 -1.5819 -2.4762
  908MPD2     N13304   3.928   1.589  10.101 -0.4269  0.5968  0.4170
  908MPD2    H513305   4.000   1.558  10.166 -0.7639 -0.3922  0.3213
  908MPD2    N113306   4.000   1.211   9.812  0.2826  0.0933  0.2307
  908MPD2    H713307   3.936   1.158   9.754  0.1943  0.6161 -0.1533
  909MPD2     C13308   3.837   4.182  11.665  1.2483  0.2278 -0.5277
  909MPD2    C113309   3.758   4.283  11.620 -0.5483 -0.1303 -0.5233
  909MPD2    C213310   3.690   4.357  11.706 -0.1051 -0.2930  0.1792
  909MPD2    C313311   3.698   4.337  11.842 -0.3637 -0.3480  0.6438
  909MPD2    C413312   3.783   4.236  11.884 -0.0394  0.2977  0.0730
  909MPD2    C513313   3.845   4.159  11.798  0.2546  0.2776  0.2304
  909MPD2     H13314   3.630   4.439  11.667  1.9781  0.2301 -1.9235
  909MPD2    H113315   3.806   4.211  11.987  0.4961 -0.7634 -0.2991
  909MPD2    H213316   3.893   4.111  11.607  0.6335 -0.0980 -0.7241
  909MPD2    H313317   3.913   4.078  11.821  1.3495  0.9242 -0.7399
  909MPD2     N13318   3.622   4.411  11.932  0.3969 -0.3997 -1.0126
  909MPD2    H513319   3.573   4.494  11.900 -2.1422 -1.6477 -0.3452
  909MPD2    N113320   3.755   4.310  11.484 -0.0396  0.1179  0.3055
  909MPD2    H713321   3.712   4.399  11.461  0.0473  0.7351  2.4859
  910MPD2     C13322   0.500   1.263  15.986 -0.2220 -0.7263 -0.1665
  910MPD2    C113323   0.600   1.177  15.955 -0.1395  0.1805  0.0360
  910MPD2    C213324   0.640   1.176  15.819 -0.2800 -0.2466  0.7722
  910MPD2    C313325   0.575   1.251  15.723 -0.1282  0.0462 -0.0415
  910MPD2    C413326   0.471   1.330  15.760  0.5285  0.0627  0.3074
  910MPD2    C513327   0.439   1.341  15.892 -0.2607  0.2006 -0.7604
  910MPD2     H13328   0.724   1.112  15.794 -1.6076 -1.8038  0.3037
  910MPD2    H113329   0.423   1.394  15.687  0.6886  1.4028  1.3795
  910MPD2    H213330   0.474   1.266  16.091  0.8598 -0.0862  0.0797
  910MPD2    H313331   0.368   1.414  15.930 -2.5672 -2.8631  0.7441
  910MPD2     N13332   0.599   1.248  15.584  0.0008 -0.4603  0.0377
  910MPD2    H513333   0.536   1.304  15.528 -1.0381  0.7683  2.4440
  910MPD2    N113334   0.658   1.089  16.044  0.1917  0.0219 -0.1105
  910MPD2    H713335   0.717   1.020  15.999 -1.3305  0.1944 -2.3672
  911MPD2     C13336   2.819   1.580  16.527 -0.3027  0.3032  0.7473
  911MPD2    C113337   2.882   1.684  16.584 -0.2221 -0.0008 -0.5510
  911MPD2    C213338   2.867   1.807  16.529 -0.0587 -0.1329  0.5024
  911MPD2    C313339   2.773   1.824  16.431 -0.1219  0.2609  0.2467
  911MPD2    C413340   2.710   1.713  16.374  0.5167 -0.0907  0.0085
  911MPD2    C513341   2.724   1.589  16.432 -0.1722 -0.4821 -0.1158
  911MPD2     H13342   2.926   1.891  16.564  1.2052 -1.1267  0.7528
  911MPD2    H113343   2.652   1.714  16.283 -1.0915  0.7781  1.0332
  911MPD2    H213344   2.846   1.478  16.551  0.0724  0.0425 -0.8066
  911MPD2    H313345   2.670   1.507  16.387 -4.1463  0.5543  2.7279
  911MPD2     N13346   2.742   1.943  16.363 -0.1585  0.1023 -0.1317
  911MPD2    H513347   2.672   1.950  16.290  0.0736  1.3627 -0.2267
  911MPD2    N113348   2.983   1.658  16.683  0.5626  0.8699 -0.0245
  911MPD2    H713349   2.992   1.563  16.715  2.1209  0.9121 -0.2925
  912MPD2     C13350   2.521   1.799  15.696  0.4350 -0.0878  0.5860
  912MPD2    C113351   2.536   1.822  15.830 -0.5853 -0.9564  0.4005
  912MPD2    C213352   2.539   1.710  15.909  0.1696 -0.2781  0.1189
  912MPD2    C313353   2.509   1.580  15.863 -0.3494 -0.4111  0.3691
  912MPD2    C413354   2.485   1.566  15.732 -0.6295 -0.4865  0.4645
  912MPD2    C513355   2.493   1.673  15.652  0.1575 -0.1821 -0.2458
  912MPD2     H13356   2.567   1.714  16.014 -2.5103  0.6103  0.8016
  912MPD2    H113357   2.470   1.472  15.682 -0.8628 -1.0419  1.5738
  912MPD2    H213358   2.523   1.881  15.625  1.2767 -0.8965 -0.3205
  912MPD2    H313359   2.465   1.661  15.548 -0.6932 -0.6786  0.0436
  912MPD2     N13360   2.494   1.471  15.954  0.0491  0.7841 -0.4313
  912MPD2    H513361   2.492   1.380  15.909 -0.9365 -0.6749  2.5155
  912MPD2    N113362   2.555   1.956  15.877  0.0419  0.3797 -0.4392
  912MPD2    H713363   2.580   2.025  15.807 -2.0806 -1.3544 -2.9415
  913MPD2     C13364   3.854   2.987  10.634 -0.0845 -0.2471  0.3885
  913MPD2    C113365   3.887   3.090  10.718  0.3774  0.1243  0.9007
  913MPD2    C213366   3.850   3.220  10.690  0.5101  0.0508  0.5334
  913MPD2    C313367   3.779   3.241  10.568 -0.2927 -0.2409  0.0984
  913MPD2    C413368   3.754   3.134  10.486  0.5074 -0.3035  0.8216
  913MPD2    C513369   3.781   3.011  10.522 -0.0204  0.4309  0.0076
  913MPD2     H13370   3.883   3.308  10.744 -4.5229  1.8056  0.7764
  913MPD2    H113371   3.697   3.149  10.395  0.2850 -1.2570  0.8112
  913MPD2    H213372   3.871   2.886  10.668  0.5354  0.0135  0.8536
  913MPD2    H313373   3.746   2.926  10.465  1.4799 -1.4181  1.8838
  913MPD2     N13374   3.757   3.371  10.515  0.2468  0.1159  0.2566
  913MPD2    H513375   3.723   3.372  10.419  0.9646  0.5530  0.0063
  913MPD2    N113376   3.933   3.054  10.848  0.0218  0.0491 -0.3566
  913MPD2    H713377   3.956   2.956  10.865 -0.5815  0.0215  0.3514
  914MPD2     C13378   1.566   3.921  12.577 -0.3138  0.2866 -0.2761
  914MPD2    C113379   1.450   3.919  12.504  0.6374  0.0243 -0.5529
  914MPD2    C213380   1.364   3.805  12.514 -0.8829 -0.1495  0.5609
  914MPD2    C313381   1.405   3.704  12.602 -0.0293 -0.4418  0.1256
  914MPD2    C413382   1.519   3.711  12.676 -0.9371 -0.6235  1.0460
  914MPD2    C513383   1.602   3.816  12.664  0.1722 -0.1148 -0.5860
  914MPD2     H13384   1.266   3.794  12.467 -0.4609 -0.3671 -0.2688
  914MPD2    H113385   1.551   3.638  12.749 -1.1648 -0.5789  1.1909
  914MPD2    H213386   1.630   4.008  12.577  2.3326 -1.6870  1.0435
  914MPD2    H313387   1.690   3.836  12.724 -1.9008 -1.0396  2.7873
  914MPD2     N13388   1.323   3.587  12.600 -0.0383 -0.1776 -0.0487
  914MPD2    H513389   1.243   3.591  12.537 -0.3212 -2.4282  0.1606
  914MPD2    N113390   1.436   4.039  12.423  0.5681 -0.2788 -0.1432
  914MPD2    H713391   1.505   4.113  12.431  1.0927 -1.0014  2.1959
  915MPD2     C13392   4.113   2.811  16.366  0.5530  0.0592 -0.3026
  915MPD2    C113393   4.110   2.923  16.290 -0.5898  0.0898 -0.3485
  915MPD2    C213394   4.113   3.047  16.354  0.0317 -0.1547 -0.1761
  915MPD2    C313395   4.125   3.057  16.497  0.2453 -0.7539  0.2119
  915MPD2    C413396   4.131   2.933  16.563  0.7893 -0.0391 -0.2684
  915MPD2    C513397   4.118   2.812  16.499  0.3359 -0.5617 -0.3099
  915MPD2     H13398   4.105   3.138  16.294  1.7095  0.3797  0.4271
  915MPD2    H113399   4.144   2.918  16.669 -0.7424  2.3380  0.2273
  915MPD2    H213400   4.118   2.714  16.318  1.7893 -0.7996  1.5554
  915MPD2    H313401   4.126   2.726  16.564  1.2201 -0.3363 -0.1187
  915MPD2     N13402   4.117   3.182  16.556 -0.4003  0.4602 -0.1297
  915MPD2    H513403   4.095   3.265  16.502 -2.1023  1.9129  2.7833
  915MPD2    N113404   4.107   2.910  16.152  0.4255 -0.1339  0.6942
  915MPD2    H713405   4.090   2.819  16.110 -0.7109  0.8965 -1.0932
  916MPD2     C13406   2.145   1.615  15.653 -0.5802  0.0597  0.0372
  916MPD2    C113407   2.134   1.503  15.734 -0.1682  0.0237 -0.3439
  916MPD2    C213408   2.182   1.389  15.684  0.3260 -0.2585 -0.3797
  916MPD2    C313409   2.240   1.377  15.561  0.8603  0.4169  0.2607
  916MPD2    C413410   2.254   1.485  15.480 -0.0447  0.1481 -0.4240
  916MPD2    C513411   2.210   1.606  15.533 -0.4824  0.1292  0.1419
  916MPD2     H13412   2.180   1.293  15.735 -1.6238  0.2179  0.4157
  916MPD2    H113413   2.290   1.486  15.378 -1.0464  0.7040 -0.7736
  916MPD2    H213414   2.109   1.712  15.683 -0.3135 -0.1523  1.0299
  916MPD2    H313415   2.212   1.694  15.470  0.5686  0.1531  0.2169
  916MPD2     N13416   2.266   1.243  15.513  0.5781 -0.2525 -0.1189
  916MPD2    H513417   2.265   1.171  15.584  1.2743  1.7850  1.9497
  916MPD2    N113418   2.064   1.517  15.857 -0.2645  0.1184  0.5406
  916MPD2    H713419   2.020   1.604  15.884  0.6250  0.2803  1.4666
  917MPD2     C13420   2.558   3.659  11.281  0.2744  0.1912 -0.0781
  917MPD2    C113421   2.558   3.741  11.393 -0.5637  0.6730  0.8011
  917MPD2    C213422   2.643   3.851  11.393 -0.1996 -0.4445 -0.2334
  917MPD2    C313423   2.727   3.885  11.293 -0.1467 -0.3201  0.2034
  917MPD2    C413424   2.720   3.812  11.175 -0.2389  0.2510  0.1335
  917MPD2    C513425   2.639   3.698  11.177 -0.1211  0.4002 -0.3030
  917MPD2     H13426   2.638   3.920  11.476 -3.5905 -2.2438  1.0710
  917MPD2    H113427   2.788   3.836  11.094  1.0339 -0.8457  0.8900
  917MPD2    H213428   2.496   3.570  11.270 -0.5992  0.9779 -1.5336
  917MPD2    H313429   2.638   3.632  11.091  0.8456  1.7658 -1.3522
  917MPD2     N13430   2.811   4.003  11.288 -0.4337 -0.5503 -0.1178
  917MPD2    H513431   2.872   3.994  11.207  1.2347 -0.5187  1.1374
  917MPD2    N113432   2.459   3.718  11.493  0.2141  0.0408  0.3367
  917MPD2    H713433   2.385   3.651  11.474  0.2080  0.1111  0.1050
  918MPD2     C13434   2.338   4.145  12.412  0.0674 -0.4446  0.0714
  918MPD2    C113435   2.444   4.086  12.348  0.0609  0.5100  0.2111
  918MPD2    C213436   2.419   4.016  12.232  0.1353  0.1092 -0.1987
  918MPD2    C313437   2.295   3.999  12.173  0.3403  0.1017 -1.0971
  918MPD2    C413438   2.190   4.066  12.242  0.5576 -0.1070 -0.0602
  918MPD2    C513439   2.216   4.140  12.362 -0.2311  0.6898  0.2411
  918MPD2     H13440   2.504   3.981  12.175  0.1947  1.8224 -1.1654
  918MPD2    H113441   2.091   4.051  12.201 -0.0282  2.3558  0.4649
  918MPD2    H213442   2.362   4.213  12.493 -0.7817 -2.2688  1.8496
  918MPD2    H313443   2.144   4.192  12.424  0.6112  0.6005  1.2967
  918MPD2     N13444   2.282   3.933  12.045  0.0306  0.5459 -0.1917
  918MPD2    H513445   2.361   3.886  12.002 -1.3119 -0.4122 -1.5934
  918MPD2    N113446   2.575   4.080  12.401 -0.0427  0.0312  0.2889
  918MPD2    H713447   2.648   4.048  12.338  1.7060 -0.1515  2.4143
  919MPD2     C13448   3.525   3.243  11.777  0.2342  0.2508  0.1449
  919MPD2    C113449   3.559   3.123  11.712  0.4667  0.3086 -0.5761
  919MPD2    C213450   3.562   3.118  11.578  0.4044  0.8280 -0.5005
  919MPD2    C313451   3.524   3.222  11.495  0.2434 -0.3414  0.2081
  919MPD2    C413452   3.491   3.338  11.563  0.5055  0.1737  0.4784
  919MPD2    C513453   3.499   3.351  11.702 -0.7473  0.0202  0.2291
  919MPD2     H13454   3.598   3.026  11.535  0.4157 -1.5533  4.5676
  919MPD2    H113455   3.478   3.422  11.496  2.0760 -0.1313 -0.2083
  919MPD2    H213456   3.531   3.270  11.882 -0.3632  0.2213  0.1842
  919MPD2    H313457   3.480   3.446  11.752  0.5798  1.6772 -2.4091
  919MPD2     N13458   3.531   3.223  11.357  0.0157  0.5093  0.6205
  919MPD2    H513459   3.492   3.310  11.323  0.2345 -0.3917 -1.9324
  919MPD2    N113460   3.582   3.015  11.794  0.1075 -0.0366  0.5593
  919MPD2    H713461   3.581   2.924  11.749 -0.8464  1.7614 -3.0451
  920MPD2     C13462   3.362   3.707  10.518 -0.4368  0.0351  0.1851
  920MPD2    C113463   3.344   3.577  10.471 -0.0551  0.8119  0.6639
  920MPD2    C213464   3.377   3.476  10.558 -0.3381 -0.0992 -0.4711
  920MPD2    C313465   3.415   3.510  10.691  0.7681  0.0304 -0.4241
  920MPD2    C413466   3.411   3.635  10.737  0.3557  0.2512 -0.4460
  920MPD2    C513467   3.385   3.738  10.650 -0.3847  0.2063 -0.8724
  920MPD2     H13468   3.379   3.370  10.535  0.0948 -0.1824 -0.0316
  920MPD2    H113469   3.444   3.667  10.835 -0.8095  1.4692 -0.4467
  920MPD2    H213470   3.345   3.787  10.447  0.0419 -0.4283 -0.4505
  920MPD2    H313471   3.369   3.841  10.681  0.5575  0.0726  0.0514
  920MPD2     N13472   3.457   3.405  10.780 -0.4479 -0.0704 -0.0460
  920MPD2    H513473   3.457   3.312  10.740  1.2179 -2.0101  4.4174
  920MPD2    N113474   3.299   3.542  10.341 -0.0350  0.4808 -0.0557
  920MPD2    H713475   3.276   3.444  10.331  1.5668 -0.0371  1.3371
  921MPD2     C13476   3.771   2.129  16.857  1.1342 -0.0448 -0.3447
  921MPD2    C113477   3.779   2.017  16.942 -0.7099 -0.1885  0.0053
  921MPD2    C213478   3.665   1.961  16.990 -0.3977 -0.1744  0.3159
  921MPD2    C313479   3.542   1.997  16.939  0.4384  0.4118 -0.2690
  921MPD2    C413480   3.535   2.101  16.851  0.3247 -0.1638  0.1880
  921MPD2    C513481   3.646   2.182  16.830 -0.2401  0.7777  0.0950
  921MPD2     H13482   3.675   1.872  17.050  0.6905 -0.1485  0.1724
  921MPD2    H113483   3.437   2.124  16.812 -0.1416 -1.5709  0.5248
  921MPD2    H213484   3.854   2.189  16.821  1.1592  0.5841  0.7683
  921MPD2    H313485   3.641   2.271  16.769  0.8802  0.1885 -0.8526
  921MPD2     N13486   3.423   1.926  16.971 -0.7030  0.3398  0.3821
  921MPD2    H513487   3.349   1.938  16.903  0.8156 -0.8281 -1.4425
  921MPD2    N113488   3.906   1.955  16.948  0.3984  0.3584  0.1718
  921MPD2    H713489   3.980   1.988  16.886  0.9624  0.7031  1.0330
  922MPD2     C13490   0.638   4.369  17.467 -0.6885 -0.0130  0.1373
  922MPD2    C113491   0.551   4.443  17.539  0.4150 -0.1088  0.2590
  922MPD2    C213492   0.467   4.384  17.629  0.2717 -0.9790 -0.1283
  922MPD2    C313493   0.454   4.252  17.657  0.4891  0.4286  0.8241
  922MPD2    C413494   0.537   4.177  17.574  0.3408 -0.0212  0.6147
  922MPD2    C513495   0.621   4.233  17.482 -0.0982 -0.2661  0.1173
  922MPD2     H13496   0.389   4.448  17.669  2.6953  1.0931  1.2653
  922MPD2    H113497   0.541   4.069  17.573  1.6076  0.0281  1.0702
  922MPD2    H213498   0.719   4.400  17.401 -1.1379 -0.2124 -0.5039
  922MPD2    H313499   0.683   4.175  17.414 -2.4247 -3.2622  0.6110
  922MPD2     N13500   0.355   4.201   0.055  0.5381  0.5986  0.1338
  922MPD2    H513501   0.297   4.267   0.104 -1.2309 -0.9023  0.0525
  922MPD2    N113502   0.539   4.585  17.517 -0.0815 -0.4948 -0.1667
  922MPD2    H713503   0.492   4.650  17.580 -0.6711 -0.0611 -1.0484
  923MPD2     C13504   1.583   1.461   9.182 -0.8672  0.2299 -0.4345
  923MPD2    C113505   1.523   1.571   9.247 -0.1281 -0.5300  0.5655
  923MPD2    C213506   1.576   1.622   9.367 -0.0306 -0.4917  0.7393
  923MPD2    C313507   1.685   1.557   9.425 -0.4119  0.1308  0.3544
  923MPD2    C413508   1.734   1.441   9.366  0.4884  1.1494 -0.4409
  923MPD2    C513509   1.695   1.403   9.239  0.5500  0.0706 -0.7267
  923MPD2     H13510   1.542   1.716   9.410  0.9542  0.2551 -0.0805
  923MPD2    H113511   1.809   1.381   9.417 -0.8269 -0.4336 -0.3727
  923MPD2    H213512   1.547   1.422   9.087 -0.2098 -1.8084  0.1635
  923MPD2    H313513   1.750   1.324   9.189  2.4484 -0.6184  2.4661
  923MPD2     N13514   1.753   1.604   9.539  0.1774 -0.3581 -0.4796
  923MPD2    H513515   1.832   1.548   9.567  0.6569  0.7734  0.4114
  923MPD2    N113516   1.411   1.625   9.186 -0.0652 -0.4682 -0.3588
  923MPD2    H713517   1.385   1.593   9.094  0.9938 -1.0243 -0.4664
  924MPD2     C13518   1.439   0.365  16.188 -0.2778  0.0476 -0.1659
  924MPD2    C113519   1.454   0.257  16.277  0.6852 -0.0525 -0.0546
  924MPD2    C213520   1.540   0.265  16.385  0.3294 -0.1644  0.1759
  924MPD2    C313521   1.598   0.393  16.416 -0.2759  0.2651 -0.3481
  924MPD2    C413522   1.568   0.498  16.328 -0.3644 -0.2728  0.1210
  924MPD2    C513523   1.494   0.484  16.214  0.4475 -0.1438  0.9156
  924MPD2     H13524   1.564   0.179  16.447 -3.9253 -0.7007  1.0958
  924MPD2    H113525   1.605   0.598  16.345 -0.1883 -0.2241 -0.5613
  924MPD2    H213526   1.383   0.357  16.095  1.1707 -0.7709 -0.9630
  924MPD2    H313527   1.494   0.563  16.140 -0.1217 -1.6954 -0.7573
  924MPD2     N13528   1.676   0.418  16.531  0.6516 -0.1714  0.4498
  924MPD2    H513529   1.704   0.515  16.544  0.4713 -0.0227 -0.2938
  924MPD2    N113530   1.367   0.140  16.258  0.6080  0.0122 -0.2021
  924MPD2    H713531   1.288   0.139  16.194  1.0675 -1.2571 -0.7355
  925MPD2     C13532   0.232   2.385  14.952 -0.4443  0.1682 -0.6201
  925MPD2    C113533   0.141   2.485  14.933 -0.2915 -0.6027  0.5189
  925MPD2    C213534   0.109   2.576  15.032  0.1132 -0.3010  0.6200
  925MPD2    C313535   0.173   2.567  15.158 -0.4131  0.3446 -0.1870
  925MPD2    C413536   0.282   2.478  15.172 -0.4006  0.7291 -0.4564
  925MPD2    C513537   0.312   2.387  15.073  0.4200  0.3346 -0.2244
  925MPD2     H13538   0.022   2.640  15.020  0.5381  0.0107 -0.8444
  925MPD2    H113539   0.333   2.474  15.268  1.4867  1.4559 -1.4187
  925MPD2    H213540   0.269   2.312  14.880  2.8146  1.7938 -0.6119
  925MPD2    H313541   0.398   2.323  15.084 -1.2178 -1.9354 -0.5094
  925MPD2     N13542   0.126   2.631  15.269  0.5129  0.2443 -1.0443
  925MPD2    H513543   0.183   2.603  15.348 -2.9614  0.4664  1.4906
  925MPD2    N113544   0.074   2.496  14.807 -0.1143 -0.0572  0.3986
  925MPD2    H713545   0.012   2.575  14.796  1.7007  1.2988  0.0346
  926MPD2     C13546   4.076   1.048  13.427  0.7441 -0.5387 -0.7654
  926MPD2    C113547   3.982   1.148  13.404  0.4792 -0.2293  0.0576
  926MPD2    C213548   4.017   1.256  13.326  0.6242 -0.5323 -0.9142
  926MPD2    C313549   4.141   1.270  13.270  0.2580  1.1160  0.6432
  926MPD2    C413550   4.235   1.175  13.299 -0.5251 -0.3403 -0.1353
  926MPD2    C513551   4.198   1.064  13.377  0.2012  0.1133  0.1388
  926MPD2     H13552   3.944   1.327  13.290  0.1032  0.1790  1.5309
  926MPD2    H113553   4.336   1.180  13.263 -0.3556  0.5744  0.4561
  926MPD2    H213554   4.054   0.962  13.489  3.4406 -1.8762 -1.6593
  926MPD2    H313555   4.276   0.996  13.409 -0.7958  0.1656  2.7248
  926MPD2     N13556   4.187   1.380  13.193 -0.6029 -0.6621 -0.7771
  926MPD2    H513557   4.284   1.393  13.166 -0.3835 -2.0880 -0.6407
  926MPD2    N113558   3.853   1.149  13.468  0.2522 -0.2359  0.5342
  926MPD2    H713559   3.789   1.221  13.438 -0.0401  0.5260  2.9991
  927MPD2     C13560   3.375   3.354   0.506 -0.5671  0.4663 -0.3543
  927MPD2    C113561   3.247   3.402   0.498  0.3295 -0.3121 -0.3547
  927MPD2    C213562   3.198   3.448   0.381  0.1055  0.0386 -0.7786
  927MPD2    C313563   3.274   3.432   0.269 -0.6274 -0.4735  0.6595
  927MPD2    C413564   3.386   3.351   0.277  0.3470 -0.6863  0.5632
  927MPD2    C513565   3.445   3.325   0.396  0.3443  0.0071 -0.0407
  927MPD2     H13566   3.101   3.495   0.367  1.1565  1.3782 -3.5811
  927MPD2    H113567   3.447   3.333   0.189 -2.2967 -1.9417 -1.0312
  927MPD2    H213568   3.419   3.327   0.601  0.0001  0.6954 -0.5484
  927MPD2    H313569   3.545   3.285   0.402  0.6753  0.7344 -0.6533
  927MPD2     N13570   3.201   3.461   0.152 -0.2152  0.2931 -0.6214
  927MPD2    H513571   3.119   3.519   0.169 -0.3059  0.3546 -1.2880
  927MPD2    N113572   3.175   3.413   0.625  0.0284 -0.3507 -0.3927
  927MPD2    H713573   3.208   3.350   0.697  1.0423 -0.1061 -0.6524
  928MPD2     C13574   1.244   1.820   1.060 -0.5408  0.1551 -0.3362
  928MPD2    C113575   1.370   1.875   1.067  0.2792 -0.2993  0.1984
  928MPD2    C213576   1.443   1.911   0.948 -0.3688 -0.8280  0.2013
  928MPD2    C313577   1.390   1.874   0.829  0.0129 -0.1535  0.0654
  928MPD2    C413578   1.273   1.802   0.826  1.0716 -0.0103  0.3001
  928MPD2    C513579   1.197   1.789   0.938 -0.1638  1.1831  0.1825
  928MPD2     H13580   1.537   1.965   0.948 -1.2407  0.6998  1.0413
  928MPD2    H113581   1.233   1.753   0.737  1.0376  0.7755 -0.1115
  928MPD2    H213582   1.180   1.801   1.145 -0.0319  1.0164  0.2493
  928MPD2    H313583   1.100   1.740   0.933  0.1810  0.4715  0.4293
  928MPD2     N13584   1.441   1.921   0.708  0.1376 -0.2080  0.6312
  928MPD2    H513585   1.400   1.889   0.621  2.4382 -1.7500  0.1150
  928MPD2    N113586   1.403   1.922   1.196 -0.5548 -0.2671 -0.7006
  928MPD2    H713587   1.336   1.907   1.270  1.0856  1.8185  1.2058
  929MPD2     C13588   1.660   1.837  10.590  0.0278  0.0377 -0.0791
  929MPD2    C113589   1.550   1.762  10.556  0.6984  0.1779 -0.0696
  929MPD2    C213590   1.460   1.808  10.459 -0.1818  0.1550  0.1544
  929MPD2    C313591   1.486   1.924  10.387 -0.3681 -0.5912 -0.4209
  929MPD2    C413592   1.600   1.989  10.417  0.2908 -0.1394  0.3623
  929MPD2    C513593   1.687   1.945  10.515  0.2121  0.3534  0.3476
  929MPD2     H13594   1.364   1.757  10.468 -0.5486  0.8386  0.1829
  929MPD2    H113595   1.615   2.085  10.369 -0.6189  0.6824  1.7526
  929MPD2    H213596   1.720   1.809  10.676  0.6145 -0.0156 -0.5037
  929MPD2    H313597   1.770   2.010  10.541  0.9466 -0.3946 -0.1416
  929MPD2     N13598   1.397   1.981  10.292 -0.4763  0.7970  0.4739
  929MPD2    H513599   1.412   2.069  10.243 -0.3864 -0.5411 -1.9061
  929MPD2    N113600   1.513   1.648  10.637 -0.0822 -0.3027 -0.0164
  929MPD2    H713601   1.580   1.634  10.713 -1.2867 -1.5428  0.8035
  930MPD2     C13602   2.918   3.539  14.688  0.0135 -0.1654  0.2300
  930MPD2    C113603   2.855   3.596  14.578 -0.1600  0.0153  0.0615
  930MPD2    C213604   2.750   3.522  14.518 -0.1518  0.2812  0.5538
  930MPD2    C313605   2.728   3.387  14.555  0.8374  0.1689  0.7031
  930MPD2    C413606   2.793   3.336  14.664 -0.1309  0.1938  0.0154
  930MPD2    C513607   2.880   3.417  14.734 -0.1618  0.3113 -0.4521
  930MPD2     H13608   2.698   3.558  14.430 -1.1894 -1.1505  0.5808
  930MPD2    H113609   2.776   3.233  14.695  1.0051 -0.2801 -0.9288
  930MPD2    H213610   3.006   3.585  14.732 -0.0697  1.4666 -1.3106
  930MPD2    H313611   2.935   3.371  14.816 -1.1220  0.8305  0.4867
  930MPD2     N13612   2.639   3.300  14.490  0.8275  0.1463  0.1722
  930MPD2    H513613   2.608   3.223  14.549  1.2680  1.2655  1.8603
  930MPD2    N113614   2.903   3.716  14.525  0.3742  0.3764 -0.5590
  930MPD2    H713615   2.964   3.774  14.582 -0.6570  0.8759  0.0314
  931MPD2     C13616   3.386   3.230   1.225  0.4399 -0.3053 -0.1044
  931MPD2    C113617   3.261   3.190   1.172  0.3889  0.2135 -0.6718
  931MPD2    C213618   3.213   3.059   1.199  0.1751 -0.1418 -0.8800
  931MPD2    C313619   3.281   2.969   1.280 -0.0417  0.1001 -0.4770
  931MPD2    C413620   3.405   3.011   1.324 -0.0864  0.8828 -0.9887
  931MPD2    C513621   3.455   3.133   1.294 -0.0941  0.5498 -0.5012
  931MPD2     H13622   3.112   3.041   1.164  1.5105 -2.6699 -3.4972
  931MPD2    H113623   3.468   2.949   1.387 -0.9685  0.8023 -0.1899
  931MPD2    H213624   3.429   3.328   1.207 -1.2836  0.6912  1.2769
  931MPD2    H313625   3.550   3.158   1.340  0.8166 -0.3023 -1.9289
  931MPD2     N13626   3.226   2.853   1.335 -0.3932  0.0803  0.3585
  931MPD2    H513627   3.287   2.788   1.384 -2.2298 -1.7657  0.1969
  931MPD2    N113628   3.183   3.297   1.114 -0.7704 -0.1869 -0.2395
  931MPD2    H713629   3.233   3.382   1.090  0.2278 -0.3655  1.1958
  932MPD2     C13630   4.525   2.819  10.910 -0.1892  0.2367  0.2140
  932MPD2    C113631   4.593   2.883  11.012  0.9011 -0.4853 -0.4480
  932MPD2    C213632   4.618   2.818  11.130 -0.0610  0.6313  0.1390
  932MPD2    C313633   4.574   2.691  11.148 -0.0626 -0.1242 -0.9166
  932MPD2    C413634   4.499   2.622  11.060 -0.2517  0.2702 -0.1288
  932MPD2    C513635   4.480   2.684  10.940  1.2152 -0.5468 -0.8863
  932MPD2     H13636   4.670   2.876  11.206  0.8004  0.6165 -0.4433
  932MPD2    H113637   4.456   2.524  11.080  1.1164  0.0936  1.9268
  932MPD2    H213638   4.514   2.869  10.815 -2.8447  4.5366  2.7740
  932MPD2    H313639   4.433   2.625  10.863 -2.7007  0.7405  0.4945
  932MPD2     N13640   4.601   2.623  11.271  0.1468  0.2083 -0.4568
  932MPD2    H513641   4.563   2.529  11.275 -0.8590  0.5659 -1.5898
  932MPD2    N113642   4.650   3.010  11.001 -0.2239 -0.2216  0.1261
  932MPD2    H713643   0.003   3.033  11.066  0.0683 -4.7801  1.3759
  933MPD2     C13644   1.388   2.433   1.898  0.4611  0.4826  0.2954
  933MPD2    C113645   1.337   2.406   1.773  0.3656  0.2179  0.1043
  933MPD2    C213646   1.242   2.496   1.716  0.0983  0.2529 -0.8303
  933MPD2    C313647   1.202   2.601   1.794 -0.4343  0.6949  0.6066
  933MPD2    C413648   1.250   2.620   1.920 -0.5378 -0.6309  0.4194
  933MPD2    C513649   1.347   2.536   1.977  0.9378 -0.7472  0.2097
  933MPD2     H13650   1.204   2.476   1.617 -1.2685 -2.4683  0.2472
  933MPD2    H113651   1.231   2.713   1.972  0.2037  1.0751 -2.3208
  933MPD2    H213652   1.477   2.383   1.935  0.2383 -1.3079 -1.6049
  933MPD2    H313653   1.408   2.564   2.061 -0.4454  0.0296  0.9439
  933MPD2     N13654   1.109   2.693   1.741  0.4758  0.0134 -0.4279
  933MPD2    H513655   1.098   2.682   1.641 -2.3870 -0.3147 -0.0592
  933MPD2    N113656   1.393   2.297   1.699  0.1153  0.1407 -0.0590
  933MPD2    H713657   1.469   2.250   1.746  0.1625 -0.6022 -0.8749
  934MPD2     C13658   2.180   0.195   2.200 -0.4206 -0.3102 -0.5421
  934MPD2    C113659   2.268   0.100   2.160 -0.1870  0.1799  0.1494
  934MPD2    C213660   2.226   0.001   2.075 -0.1030 -0.6270 -0.9510
  934MPD2    C313661   2.093   4.700   2.035 -0.1097 -0.6293  0.0442
  934MPD2    C413662   2.003   0.066   2.089  0.2899 -0.1942 -0.4565
  934MPD2    C513663   2.045   0.170   2.176 -0.4824  0.1178 -0.6866
  934MPD2     H13664   2.302   4.649   2.050  0.6747  0.4034 -1.5676
  934MPD2    H113665   1.897   0.061   2.065  0.0925 -0.6362  0.4981
  934MPD2    H213666   2.202   0.270   2.276 -0.9856  2.5415 -3.1994
  934MPD2    H313667   1.966   0.233   2.216 -1.5961 -1.3481 -0.5327
  934MPD2     N13668   2.057   4.605   1.940  0.7505  0.3626 -0.9994
  934MPD2    H513669   1.960   4.615   1.912  0.2334 -0.4188  0.5006
  934MPD2    N113670   2.409   0.109   2.190  0.2615  0.2123 -0.1709
  934MPD2    H713671   2.472   0.041   2.152  0.1342  0.4799 -0.8563
  935MPD2     C13672   2.437   3.724   1.893  0.8020  0.4735  0.6566
  935MPD2    C113673   2.338   3.714   1.796 -0.0355 -0.1503 -0.4278
  935MPD2    C213674   2.247   3.815   1.774 -0.9298  0.4223 -0.0489
  935MPD2    C313675   2.252   3.927   1.859 -0.2282  0.9021  0.2713
  935MPD2    C413676   2.350   3.936   1.951  0.5322  0.0315  0.1933
  935MPD2    C513677   2.442   3.838   1.968  0.0367  0.4701 -0.0083
  935MPD2     H13678   2.175   3.801   1.694 -0.1497  0.5754 -0.7804
  935MPD2    H113679   2.362   4.027   2.010  1.6767 -0.2955  0.4753
  935MPD2    H213680   2.505   3.641   1.910 -0.4425 -0.3763  1.4441
  935MPD2    H313681   2.510   3.844   2.052 -0.7251  0.8711  0.5863
  935MPD2     N13682   2.165   4.035   1.856  0.0778 -0.7633 -0.1339
  935MPD2    H513683   2.180   4.113   1.920  4.8250 -0.9661 -1.0621
  935MPD2    N113684   2.346   3.615   1.698  0.2003  0.3392 -0.3363
  935MPD2    H713685   2.272   3.621   1.629  0.9381 -0.5056 -1.1977
  936MPD2     C13686   1.483   0.457  12.695 -0.7949  0.2458  0.6367
  936MPD2    C113687   1.362   0.496  12.666 -0.2066  0.4742 -0.4797
  936MPD2    C213688   1.327   0.522  12.536 -0.2394 -0.6468  0.4379
  936MPD2    C313689   1.423   0.517  12.437 -0.0213  0.1618 -0.0672
  936MPD2    C413690   1.544   0.461  12.466 -0.2444 -0.3524 -0.0396
  936MPD2    C513691   1.576   0.436  12.596 -0.2318  0.4893  0.0955
  936MPD2     H13692   1.224   0.552  12.519  0.5600  1.0572 -1.3884
  936MPD2    H113693   1.621   0.460  12.390 -0.1041  0.7324  0.0883
  936MPD2    H213694   1.531   0.450  12.792  0.3964  0.4608  0.0682
  936MPD2    H313695   1.670   0.394  12.630 -0.9163 -1.3247 -0.2086
  936MPD2     N13696   1.407   0.580  12.303 -0.6731  0.3962  0.0171
  936MPD2    H513697   1.490   0.581  12.243 -0.0656 -2.8434  0.8020
  936MPD2    N113698   1.258   0.525  12.767  0.2769  0.1744 -0.3104
  936MPD2    H713699   1.166   0.550  12.733  1.1179  2.0109 -1.2191
  937MPD2     C13700   3.904   2.360  11.772  0.0254 -0.2743  1.0274
  937MPD2    C113701   3.874   2.490  11.732  0.6641 -0.3265 -0.2704
  937MPD2    C213702   3.909   2.531  11.608  0.0727  0.1152  0.0676
  937MPD2    C313703   3.994   2.453  11.529  0.3901  0.0146 -0.2282
  937MPD2    C413704   4.037   2.329  11.579  0.1959  0.3529 -0.4635
  937MPD2    C513705   3.990   2.286  11.700 -0.4737 -0.1413 -0.3085
  937MPD2     H13706   3.881   2.628  11.570 -0.0694 -0.2388 -0.7475
  937MPD2    H113707   4.113   2.267  11.532 -0.9076 -1.0162 -0.4279
  937MPD2    H213708   3.864   2.311  11.860 -1.1670 -2.0186 -0.4816
  937MPD2    H313709   4.017   2.184  11.725  0.6567 -0.0094 -0.9738
  937MPD2     N13710   4.017   2.507  11.401  0.3896  1.0947 -0.4027
  937MPD2    H513711   3.972   2.596  11.382  0.3896  1.5383  1.5805
  937MPD2    N113712   3.778   2.574  11.794 -0.5047  0.2258  1.1068
  937MPD2    H713713   3.737   2.649  11.739  0.3411 -0.9347 -1.1227
  938MPD2     C13714   0.910   3.396   0.695 -0.5673 -0.0135 -0.0332
  938MPD2    C113715   1.016   3.443   0.773  0.1693  0.2289 -0.2206
  938MPD2    C213716   1.014   3.425   0.907 -0.1105  0.7290 -0.5217
  938MPD2    C313717   0.910   3.344   0.969  0.2901  0.4223 -0.8377
  938MPD2    C413718   0.809   3.296   0.887 -0.4642 -0.8057  0.4139
  938MPD2    C513719   0.810   3.326   0.754  0.1004  0.0040  0.6358
  938MPD2     H13720   1.074   3.483   0.976 -0.2723 -1.5253  1.5581
  938MPD2    H113721   0.716   3.250   0.918 -0.4517 -1.5311 -0.6301
  938MPD2    H213722   0.904   3.422   0.590  1.0809 -2.6462 -0.7707
  938MPD2    H313723   0.728   3.281   0.700  1.2114  0.3495 -1.3340
  938MPD2     N13724   0.895   3.333   1.110 -0.7975 -0.2751 -0.3116
  938MPD2    H513725   0.811   3.283   1.138 -0.2876  0.2682  2.2006
  938MPD2    N113726   1.125   3.517   0.726 -0.3580 -0.0644 -0.1082
  938MPD2    H713727   1.189   3.553   0.796  0.7987  0.7483 -1.5859
  939MPD2     C13728   2.319   4.588   1.003 -0.0328  1.0417  0.3615
  939MPD2    C113729   2.365   4.711   1.054 -0.3824 -0.2122 -0.5830
  939MPD2    C213730   2.490   0.043   1.019  0.3273  0.2992 -0.1863
  939MPD2    C313731   2.555   4.702   0.919 -0.4143  0.1825 -0.5497
  939MPD2    C413732   2.502   4.587   0.862  0.5525  0.2604  0.0019
  939MPD2    C513733   2.393   4.529   0.911 -0.0195  0.4299  0.7236
  939MPD2     H13734   2.531   0.130   1.068  2.0036 -1.2088  1.0668
  939MPD2    H113735   2.538   4.537   0.773 -1.3371  1.3812 -1.3931
  939MPD2    H213736   2.235   4.527   1.034 -1.1641  1.3006 -2.1750
  939MPD2    H313737   2.365   4.435   0.864 -1.6396  0.7274  1.0988
  939MPD2     N13738   2.671   0.047   0.877  0.3376  0.0333  0.0879
  939MPD2    H513739   2.689   0.139   0.917 -0.0877 -0.0246  0.4085
  939MPD2    N113740   2.284   0.047   1.154 -0.2276  0.5395  0.3690
  939MPD2    H713741   2.201   4.717   1.182  0.8650  0.0450  2.6922
  940MPD2     C13742   1.308   0.919  12.788  0.3812 -0.4772 -0.0267
  940MPD2    C113743   1.398   0.874  12.886 -0.3995  0.1239  0.1174
  940MPD2    C213744   1.525   0.827  12.844  0.3189  0.3449 -0.5542
  940MPD2    C313745   1.561   0.840  12.713  0.0991  0.2878 -0.5227
  940MPD2    C413746   1.469   0.884  12.617  0.0985 -0.0715  0.1831
  940MPD2    C513747   1.348   0.925  12.661  0.2739  0.1400  0.0922
  940MPD2     H13748   1.595   0.797  12.921 -0.6928  1.3555  0.7692
  940MPD2    H113749   1.488   0.888  12.510 -0.8190 -0.8146 -0.0091
  940MPD2    H213750   1.203   0.939  12.808  0.6937  0.5622  0.5493
  940MPD2    H313751   1.282   0.977  12.592 -2.6702 -1.3790  1.7552
  940MPD2     N13752   1.685   0.805  12.656  0.1813  0.5490 -0.3869
  940MPD2    H513753   1.689   0.823  12.556 -2.3786 -1.5343 -0.8952
  940MPD2    N113754   1.383   0.872  13.025  0.8333 -0.0232 -0.1609
  940MPD2    H713755   1.457   0.828  13.078  1.1457 -0.5333 -1.0217
  941MPD2     C13756   0.963   0.081   8.950 -0.2936  0.4194 -1.2665
  941MPD2    C113757   0.980   0.055   9.081 -0.2983 -0.8708 -0.2129
  941MPD2    C213758   0.894   4.691   9.152 -0.3862  0.4186 -0.3193
  941MPD2    C313759   0.779   4.636   9.086 -0.1716  0.0004  0.3790
  941MPD2    C413760   0.757   4.683   8.961  0.3275  0.2159  0.1868
  941MPD2    C513761   0.851   0.034   8.890 -0.0656 -0.2876  0.2882
  941MPD2     H13762   0.918   4.660   9.253  1.1016 -0.1567 -0.8529
  941MPD2    H113763   0.665   4.653   8.912  1.0183  0.6311 -1.3791
  941MPD2    H213764   1.021   0.154   8.894  1.6393  1.1428  1.6735
  941MPD2    H313765   0.831   0.061   8.787 -0.6361  2.8193  1.2183
  941MPD2     N13766   0.672   4.560   9.145  0.4920 -0.3770  0.5067
  941MPD2    H513767   0.595   4.537   9.083 -0.8366  1.6132  1.4243
  941MPD2    N113768   1.083   0.109   9.161  0.0663  0.5284  0.4076
  941MPD2    H713769   1.088   0.073   9.256  1.6587 -0.6778 -0.1308
  942MPD2     C13770   0.555   1.762   8.517 -0.8989 -0.1007  0.6463
  942MPD2    C113771   0.654   1.752   8.616 -0.9144  0.6259 -0.5876
  942MPD2    C213772   0.617   1.767   8.752  0.1165  0.3049 -0.3629
  942MPD2    C313773   0.483   1.773   8.775 -0.6298 -0.0336 -0.1405
  942MPD2    C413774   0.389   1.788   8.676 -0.2284  1.0613  0.0380
  942MPD2    C513775   0.425   1.786   8.544 -0.1810 -0.5322 -0.8375
  942MPD2     H13776   0.693   1.757   8.829  0.8954 -0.0997 -1.1819
  942MPD2    H113777   0.282   1.795   8.692 -0.1159 -1.5918  1.9755
  942MPD2    H213778   0.576   1.770   8.411 -2.4820  0.9540  0.4134
  942MPD2    H313779   0.348   1.787   8.468 -0.5249 -1.6617 -0.4993
  942MPD2     N13780   0.434   1.781   8.908 -0.0814 -1.0702  0.4257
  942MPD2    H513781   0.349   1.834   8.924  0.7944  0.5233 -0.1489
  942MPD2    N113782   0.793   1.753   8.594 -0.3108 -0.1458  0.2606
  942MPD2    H713783   0.860   1.756   8.671 -0.8824 -0.4871  0.7674
  943MPD2     C13784   0.248   4.439   9.870 -0.1760 -0.2602 -0.7345
  943MPD2    C113785   0.161   4.340   9.900 -0.8413  0.0590 -0.0739
  943MPD2    C213786   0.092   4.279   9.799  0.1002 -0.0899  0.0746
  943MPD2    C313787   0.101   4.325   9.666  0.8667 -0.1229  0.2919
  943MPD2    C413788   0.183   4.432   9.639  0.2170 -0.6751  0.5601
  943MPD2    C513789   0.257   4.486   9.743 -0.1987  0.3443 -0.0921
  943MPD2     H13790   0.032   4.191   9.818 -1.5318  1.2718  1.1974
  943MPD2    H113791   0.198   4.463   9.537 -0.3426 -1.1540  0.3364
  943MPD2    H213792   0.297   4.496   9.947 -2.2781  0.9279 -0.2812
  943MPD2    H313793   0.313   4.578   9.729 -0.9973  0.7180 -0.7766
  943MPD2     N13794   0.026   4.280   9.561  0.2968 -0.6256  0.4729
  943MPD2    H513795   0.039   4.332   9.475 -0.6507 -0.4080  0.4565
  943MPD2    N113796   0.136   4.298  10.034 -0.1849 -0.3239  0.2002
  943MPD2    H713797   0.193   4.341  10.106 -1.0113 -0.0830  0.7145
  944MPD2     C13798   3.845   3.518  11.287 -0.0125 -0.0274 -0.2641
  944MPD2    C113799   3.891   3.642  11.255  0.9451 -0.4936  0.2292
  944MPD2    C213800   3.857   3.758  11.313  1.5880  0.3941 -0.4063
  944MPD2    C313801   3.771   3.748  11.418 -0.6296  0.0884  0.6948
  944MPD2    C413802   3.730   3.626  11.466 -0.1470  0.2895 -0.4931
  944MPD2    C513803   3.770   3.512  11.399  0.3436 -0.5224 -0.3730
  944MPD2     H13804   3.882   3.855  11.272  0.6644  0.4201 -0.9141
  944MPD2    H113805   3.664   3.615  11.552 -1.0804  0.3615 -1.2047
  944MPD2    H213806   3.867   3.431  11.227  1.0408  0.7642 -1.0154
  944MPD2    H313807   3.727   3.418  11.430 -1.3080  0.6560  0.9045
  944MPD2     N13808   3.711   3.865  11.474 -0.1549  0.3870  0.1699
  944MPD2    H513809   3.723   3.946  11.414  1.1565 -0.3995 -0.6274
  944MPD2    N113810   3.982   3.647  11.144  0.4744  0.0009  0.2924
  944MPD2    H713811   3.984   3.571  11.076 -1.9220  2.6465 -2.7222
    1TCq1    O113812   2.626   4.285  14.683 -0.5972 -0.0098 -0.2500
    1TCq1    C113813   2.679   4.388  14.745 -0.4383 -0.9230 -0.2326
    1TCq1    O213814   2.760   4.387  14.837 -0.4362 -0.3851 -0.0834
    1TCq1    C213815   2.600   4.503  14.716 -0.3385 -0.0070  0.3267
    1TCq1    C313816   2.558   4.508  14.586  0.6005  0.0441 -0.6355
    1TCq1    C413817   2.508   4.628  14.543 -0.3885 -1.0041  0.2817
    1TCq1    C513818   2.479   0.013  14.632 -0.4499  0.2023 -0.1375
    1TCq1    C613819   2.525   0.000  14.760  1.8995  0.0946  0.3325
    1TCq1    C713820   2.584   4.606  14.804 -0.0096 -0.7689 -0.2693
    1TCq1    C813821   2.517   0.105  14.854 -1.1475  0.7014 -0.3776
    1TCq1    O413822   2.515   0.068  14.970  0.3969  0.1960  0.0984
    1TCq1    C913823   2.474   4.639  14.402  0.1419 -0.6056  0.7103
    1TCq1    O513824   2.502   4.547  14.324  0.4217  0.4834  0.0925
    1TCq1    O613825   2.409   0.029  14.380  0.3872  0.2303  0.4030
    1TCq1    H113826   2.541   4.316  14.644  0.0757  0.0629 -1.6460
    1TCq1    H213827   2.579   4.434  14.510  2.2223 -0.4180  0.2622
    1TCq1    H313828   2.424   0.095  14.588 -0.1691  0.0574 -0.7721
    1TCq1    H413829   2.620   4.591  14.905 -0.3915  0.6964  0.0818
    2MPD2     C13830   2.407   0.599  14.925 -0.2891 -0.2561 -0.4058
    2MPD2    C113831   2.420   0.571  14.787  0.2963 -0.0748  0.0976
    2MPD2    C213832   2.437   0.444  14.741  0.6501 -0.4044  0.5761
    2MPD2    C313833   2.447   0.346  14.834  0.1670  0.7741  0.4623
    2MPD2    C413834   2.443   0.371  14.966  0.0993  0.2643  0.2200
    2MPD2    C513835   2.432   0.495  15.012  0.7285  0.1866  0.9456
    2MPD2     H13836   2.459   0.419  14.637 -2.7530 -2.1314  0.2843
    2MPD2    H113837   2.457   0.290  15.038 -0.6539 -1.4341 -1.5481
    2MPD2    H213838   2.399   0.698  14.969  3.6409 -0.6055  1.0702
    2MPD2    H313839   2.434   0.518  15.118 -0.7622  0.0880  0.9965
    2MPD2     N13840   2.484   0.218  14.785  0.4989 -0.4663 -0.0375
    2MPD2    H513841   2.496   0.214  14.684 -1.9507  0.0534 -0.3600
    2MPD2    N113842   2.412   0.681  14.697  0.4021  0.1018 -0.4891
    2MPD2    H713843   2.410   0.764  14.755  0.4066 -0.2988  0.0948
    3TMC2    C113844   2.442   0.829  14.510 -0.3454  0.6952 -0.1898
    3TMC2    C213845   2.447   0.937  14.593  0.1551 -0.4925  0.5539
    3TMC2    C313846   2.472   1.053  14.537 -0.2918  0.3167 -0.5279
    3TMC2    C413847   2.459   0.841  14.375 -0.4874 -0.0313 -0.0053
    3TMC2    C513848   2.462   0.967  14.324  0.1085  0.8054 -0.0546
    3TMC2    C613849   2.467   1.075  14.400  0.2810 -0.6429  0.2189
    3TMC2     C13850   2.415   0.690  14.562 -0.0230 -0.1286  0.2379
    3TMC2     O13851   2.392   0.599  14.484 -0.0129 -0.2046  0.1795
    3TMC2     H13852   2.456   0.930  14.701 -3.3587  0.5221  0.9103
    3TMC2    H113853   2.471   0.750  14.318 -1.1912  0.7700 -1.4375
    3TMC2    H213854   2.460   1.176  14.363 -1.5525 -1.1591 -0.8212
    3TMC2    C713855   2.423   0.969  14.187 -0.5032  0.8764 -0.1624
    3TMC2    C813856   2.478   1.170  14.613 -0.1092 -0.7018 -0.2777
    3TMC2    O113857   2.399   0.861  14.136 -0.0412  0.2505 -0.0154
    3TMC2    O213858   2.377   1.238  14.611 -0.4205 -0.1575 -0.1180
    3TMC2    O513859   2.609   1.209  14.586  0.5396  0.1618 -0.3052
    3TMC2    H513860   2.672   1.135  14.574  0.3344 -0.4234  2.2459
    4MPD2     C13861   1.267   1.433  13.564  0.1714  0.4668 -0.9502
    4MPD2    C113862   1.336   1.509  13.467 -0.7614  0.4937  0.0786
    4MPD2    C213863   1.468   1.548  13.487  0.0073 -0.6065 -0.2282
    4MPD2    C313864   1.530   1.524  13.602 -0.3154  0.0056 -0.5488
    4MPD2    C413865   1.461   1.456  13.694  0.1248  0.2765 -0.0364
    4MPD2    C513866   1.339   1.401  13.676  0.4646 -0.4268 -1.0806
    4MPD2     H13867   1.522   1.604  13.411 -0.2365  0.2767  0.2475
    4MPD2    H113868   1.507   1.426  13.787  0.8782 -1.1627 -0.8676
    4MPD2    H213869   1.167   1.395  13.546  0.8927 -2.2207  0.8449
    4MPD2    H313870   1.295   1.349  13.761 -2.5514  0.2214 -2.2488
    4MPD2     N13871   1.654   1.588  13.625 -0.0044 -0.3441 -0.2570
    4MPD2    H513872   1.703   1.634  13.549  1.6659 -1.6599  0.0256
    4MPD2    N113873   1.265   1.528  13.347 -0.1689 -0.5370  0.3222
    4MPD2    H713874   1.178   1.476  13.348 -0.5455  0.1236  1.6694
    5TCq2    C113875   1.717   1.584  13.747 -0.0508  0.3907  0.2285
    5TCq2    O213876   1.684   1.525  13.852  0.1731  0.5940 -0.0639
    5TCq2    C213877   1.856   1.640  13.743  0.1371 -0.1604 -0.4298
    5TCq2    C313878   1.916   1.679  13.624  0.5040  0.6149  0.0785
    5TCq2    C413879   2.052   1.673  13.613 -0.1267  0.7726 -0.8964
    5TCq2    C513880   2.128   1.640  13.721 -0.4833 -0.2971 -0.7094
    5TCq2    C613881   2.065   1.605  13.835 -0.0140  0.1176  0.2138
    5TCq2    C713882   1.930   1.599  13.851 -0.3434 -0.3947 -0.5116
    5TCq2    C813883   2.131   1.506  13.915  0.4408  0.3945  1.1431
    5TCq2    O413884   2.081   1.477  14.026  0.2830 -0.2831 -0.5015
    5TCq2    C913885   2.117   1.717  13.493  0.1281  0.1431 -0.1141
    5TCq2    O513886   2.048   1.725  13.387  0.0239 -0.3130 -0.1647
    5TCq2    O613887   2.245   1.735  13.495  0.0862  0.0180  0.5016
    5TCq2    H213888   1.854   1.707  13.539  2.1279  1.0849 -0.9591
    5TCq2    H313889   2.235   1.648  13.709 -0.4686  0.4339 -0.0908
    5TCq2    H413890   1.891   1.566  13.946 -0.1982 -1.7989 -0.9483
    6MPD1     C13891   0.119   2.860  13.163  0.5093 -0.9922  0.5684
    6MPD1    C113892   0.218   2.890  13.070  0.2430 -0.0322 -0.8758
    6MPD1    C213893   0.272   2.775  12.998  0.0712  0.6552 -1.0345
    6MPD1    C313894   0.228   2.642  13.015  0.2183 -0.4052  0.2610
    6MPD1    C413895   0.121   2.625  13.098  0.3730  0.4616  0.1245
    6MPD1    C513896   0.071   2.728  13.172  0.0454 -0.1764 -0.0329
    6MPD1     H13897   0.337   2.800  12.915 -0.1679 -0.7161 -1.6377
    6MPD1    H113898   0.083   2.525  13.113  0.3005  0.4267 -0.2908
    6MPD1    H213899   0.074   2.935  13.226  1.4279  0.5608 -0.6316
    6MPD1    H313900   4.707   2.705  13.235 -0.6333  0.8497 -0.5750
    6MPD1     N13901   0.286   2.539  12.945  0.3082 -0.0322  0.3077
    6MPD1    H513902   0.250   2.444  12.954  0.9216 -0.4601 -1.8279
    6MPD1    N113903   0.280   3.019  13.060  0.5296  0.1436 -0.3831
    6MPD1    H613904   0.296   3.052  12.965 -2.9754 -1.1860 -1.4234
    6MPD1    H713905   0.223   3.092  13.101  2.8428  1.7604 -0.0499
    7MPD2     C13906   0.558   1.947  13.291  0.1430 -0.0145  0.8310
    7MPD2    C113907   0.593   1.931  13.159  0.3033 -0.2601  0.2264
    7MPD2    C213908   0.670   1.823  13.124 -0.0593  0.0550  0.0108
    7MPD2    C313909   0.720   1.735  13.213 -0.2282  0.1985 -0.4723
    7MPD2    C413910   0.669   1.744  13.344  0.1827  0.0320  0.4223
    7MPD2    C513911   0.604   1.856  13.382 -0.2427 -0.0891  0.3872
    7MPD2     H13912   0.700   1.819  13.020  1.6460 -0.5214  0.5152
    7MPD2    H113913   0.700   1.668  13.416  0.1234 -0.3857  0.0047
    7MPD2    H213914   0.512   2.028  13.347 -1.4525 -0.4183  0.0876
    7MPD2    H313915   0.592   1.877  13.488 -1.0672 -0.5377  0.3847
    7MPD2     N13916   0.819   1.640  13.188 -0.5323  0.0641 -0.7396
    7MPD2    H513917   0.864   1.600  13.270 -0.5197 -1.6121 -1.5639
    7MPD2    N113918   0.576   2.034  13.064 -0.0006 -0.2978  0.7096
    7MPD2    H713919   0.622   2.014  12.976  0.1801 -1.1217  0.9898
    8TMC3    C113920   0.999   1.575  13.050 -0.3353  0.5783 -0.2707
    8TMC3    C213921   1.085   1.589  13.156 -0.6082  0.3825 -0.2478
    8TMC3    C313922   1.217   1.597  13.130  0.3468  0.1639  0.0653
    8TMC3    C413923   1.042   1.597  12.920 -0.6911 -0.3391  0.2847
    8TMC3    C513924   1.173   1.627  12.908 -1.6936  0.0480 -0.5876
    8TMC3    C613925   1.262   1.634  13.009  0.3054  0.5856 -0.4043
    8TMC3     C13926   0.857   1.601  13.061  0.2043 -0.5482 -0.4866
    8TMC3     O13927   0.793   1.624  12.958  0.8168 -0.0918  0.1396
    8TMC3     H13928   1.049   1.579  13.258 -1.6242 -0.7254 -0.7093
    8TMC3    H113929   0.979   1.587  12.832  0.9455 -2.2356 -0.6650
    8TMC3    H213930   1.357   1.684  12.997  1.4194 -1.3549  0.2471
    8TMC3    C713931   1.197   1.727  12.802  0.3385 -0.4382  0.0881
    8TMC3    C813932   1.314   1.595  13.239 -0.3935  0.1759  0.2952
    8TMC3    O113933   1.313   1.759  12.773  0.0746 -0.2498 -0.4792
    8TMC3    O213934   1.414   1.660  13.214  0.3733  0.2447  0.4616
    9TMC3    C113935   0.458   2.414  12.856  1.1007  0.3332  0.7349
    9TMC3    C213936   0.572   2.414  12.777  0.6768 -0.3170 -0.1341
    9TMC3    C313937   0.668   2.327  12.806  0.6107 -0.1660 -0.1073
    9TMC3    C413938   0.440   2.331  12.958 -0.0921 -0.2345  0.3959
    9TMC3    C513939   0.540   2.245  12.986 -0.4097 -0.0044 -0.7469
    9TMC3    C613940   0.657   2.237  12.912  0.4557  0.7382  0.4665
    9TMC3     C13941   0.404   2.543  12.882 -0.3430 -0.2219 -0.0577
    9TMC3     O13942   0.476   2.639  12.848 -0.0813  0.7197  0.4486
    9TMC3     H13943   0.592   2.490  12.701  0.5847 -0.0902  0.0682
    9TMC3    H113944   0.352   2.323  13.022 -1.4147  0.5134 -1.3104
    9TMC3    H213945   0.746   2.195  12.957  1.1317  0.3205 -1.2353
    9TMC3    C713946   0.510   2.148  13.090  0.0095 -0.4560  0.0802
    9TMC3    C813947   0.771   2.297  12.706 -0.3545 -0.1652  0.0686
    9TMC3    O113948   0.429   2.172  13.176  0.5687 -0.4374  0.1154
    9TMC3    O213949   0.806   2.379  12.620 -0.2669 -0.0640  0.2005
   10MPD2     C13950   1.174   1.979  12.636 -0.4302  0.3738 -0.1357
   10MPD2    C113951   1.071   1.915  12.705 -0.4998 -0.3001 -0.6041
   10MPD2    C213952   0.959   1.987  12.739  0.5125 -0.2458 -0.3931
   10MPD2    C313953   0.942   2.110  12.687 -0.2961  1.0243 -0.0381
   10MPD2    C413954   1.031   2.168  12.600 -0.3294 -0.2300  0.1073
   10MPD2    C513955   1.149   2.098  12.571 -0.0726 -0.0440 -0.9184
   10MPD2     H13956   0.883   1.949  12.806  2.4551 -3.4980 -0.0088
   10MPD2    H113957   1.011   2.263  12.551  2.3842 -0.3638 -1.2794
   10MPD2    H213958   1.276   1.945  12.623 -0.3616  1.1097 -1.5477
   10MPD2    H313959   1.219   2.137  12.499  1.2481 -1.4560 -0.3949
   10MPD2     N13960   0.827   2.172  12.736 -0.1381 -0.0993  0.4472
   10MPD2    H513961   0.781   2.121  12.812 -0.6379 -1.7908 -0.9880
   10MPD2    N113962   1.082   1.792  12.778  0.0233 -0.1732  0.6731
   10MPD2    H713963   1.001   1.759  12.828 -0.8841 -2.7131 -2.4231
   11MPD2     C13964   2.371   1.048  13.912 -0.1088 -0.1523 -0.3178
   11MPD2    C113965   2.340   1.132  14.022 -0.4156  0.4886 -0.1807
   11MPD2    C213966   2.283   1.255  14.004  0.3147 -0.0398  0.4429
   11MPD2    C313967   2.240   1.297  13.872 -0.0799  0.0521  0.7435
   11MPD2    C413968   2.272   1.214  13.771 -0.7236  0.3500 -0.1801
   11MPD2    C513969   2.339   1.098  13.790 -0.5601  0.3682 -0.2669
   11MPD2     H13970   2.275   1.326  14.085 -0.6557  3.2563 -2.5611
   11MPD2    H113971   2.246   1.253  13.673  0.8922  2.0082  0.0638
   11MPD2    H213972   2.427   0.960  13.943 -1.4665 -1.3826 -1.3406
   11MPD2    H313973   2.367   1.040  13.704 -0.7038 -0.6669  0.3781
   11MPD2     N13974   2.201   1.427  13.834  0.2924  0.1408  0.1619
   11MPD2    H513975   2.200   1.449  13.735  0.1486  0.5314  0.2489
   11MPD2    N113976   2.392   1.099  14.150  0.6448 -0.0441 -0.3045
   11MPD2    H713977   2.377   1.183  14.205  0.6388  0.0955 -0.5195
    1MPD1     C13978   3.535   2.344  17.659 -0.2830  0.6815 -0.3011
    1MPD1    C113979   3.584   2.469  17.673  0.3655  0.0565  0.6519
    1MPD1    C213980   3.715   2.506  17.630 -0.5589  0.1885  0.3389
    1MPD1    C313981   3.798   2.407  17.570  0.2214 -0.4003  0.4474
    1MPD1    C413982   3.746   2.280  17.568  0.2769 -0.5099 -0.0562
    1MPD1    C513983   3.616   2.248  17.606 -0.4750 -0.2598 -0.4666
    1MPD1     H13984   3.752   2.607  17.642 -1.1249  0.4304  0.0723
    1MPD1    H113985   3.803   2.196  17.530  2.5601  1.7384 -1.5208
    1MPD1    H213986   3.440   2.314   0.014  0.7021  0.6402  1.8544
    1MPD1    H313987   3.578   2.148  17.587  2.3923 -1.9026  2.3228
    1MPD1     N13988   3.925   2.436  17.524 -0.0644  0.2075 -0.0986
    1MPD1    H513989   3.966   2.358  17.474 -1.5922 -2.1131  2.2437
    1MPD1    N113990   3.510   2.557   0.062  0.2679 -0.2325 -0.1833
    1MPD1    H613991   3.409   2.542   0.053  0.5355 -0.9590 -1.8895
    1MPD1    H713992   3.534   2.655   0.048  2.2454 -0.6646  0.2464
    2MPD1     C13993   4.529   3.253  17.362 -0.2825 -0.5489 -0.0644
    2MPD1    C113994   4.422   3.227  17.282 -0.0404 -0.5208  0.5741
    2MPD1    C213995   4.366   3.101  17.287 -0.6034  0.1319  0.4938
    2MPD1    C313996   4.420   2.997  17.364  0.6466  0.5833  0.4192
    2MPD1    C413997   4.534   3.030  17.440 -0.4421  0.2997 -0.0353
    2MPD1    C513998   4.579   3.154  17.442  0.4008 -0.3745 -0.5341
    2MPD1     H13999   4.283   3.088  17.218 -0.9560  0.4793  0.8486
    2MPD1    H114000   4.572   2.959  17.513  1.8154 -0.5572 -2.0218
    2MPD1    H214001   4.573   3.352  17.360  1.3021 -1.2544  0.6696
    2MPD1    H314002   4.662   3.178  17.507 -0.2963  0.7690 -0.0557
    2MPD1     N14003   4.352   2.872  17.362  0.4463 -0.1621  0.5017
    2MPD1    H514004   4.262   2.874  17.316  0.7014 -0.0588 -0.0031
    2MPD1    N114005   4.385   3.327  17.192 -0.8331 -1.3486  0.5512
    2MPD1    H614006   4.436   3.413  17.210 -1.2429 -0.8191 -0.8174
    2MPD1    H714007   4.285   3.332  17.175 -0.6795 -1.6074 -0.4434
    3TMC3    C114008   4.326   2.642  17.424  0.4016  0.1496  0.2170
    3TMC3    C214009   4.384   2.533  17.368  0.3782 -0.3119 -0.1620
    3TMC3    C314010   4.303   2.428  17.356 -0.5260 -0.3186 -0.1221
    3TMC3    C414011   4.196   2.651  17.462 -0.1213 -0.3428 -0.7014
    3TMC3    C514012   4.121   2.535  17.455  0.6822 -0.4881 -0.4385
    3TMC3    C614013   4.170   2.424  17.388  0.3348 -0.0435 -0.1353
    3TMC3     C14014   4.411   2.756  17.419  0.2806  0.2070  0.4422
    3TMC3     O14015   4.530   2.730  17.438  0.2237  0.0823  0.3233
    3TMC3     H14016   4.487   2.534  17.335 -0.3042 -1.1990 -2.3517
    3TMC3    H114017   4.170   2.734  17.527 -2.4942 -1.6037 -0.0424
    3TMC3    H214018   4.119   2.329  17.391 -1.6123  0.9772 -0.7285
    3TMC3    C714019   3.996   2.549  17.529  0.5147 -0.0956 -0.1786
    3TMC3    C814020   4.341   2.341  17.248 -0.1975  0.3604  0.1506
    3TMC3    O114021   3.962   2.663  17.553 -0.0066  0.6280 -0.5480
    3TMC3    O214022   4.459   2.318  17.245 -0.0592  0.2390 -0.3184
    4MPD1     C14023   4.298   2.014  16.861  0.3946  0.2006  0.1310
    4MPD1    C114024   4.189   2.104  16.854  0.3307  0.3562  0.3802
    4MPD1    C214025   4.165   2.188  16.963  0.0246 -0.7089  0.1121
    4MPD1    C314026   4.256   2.194  17.077 -0.0426 -0.0957  0.3389
    4MPD1    C414027   4.360   2.099  17.080 -1.2402 -0.4233 -0.5234
    4MPD1    C514028   4.381   2.016  16.972  0.0526 -0.1243  0.3320
    4MPD1     H14029   4.081   2.257  16.968  0.9834  0.4202  0.7915
    4MPD1    H114030   4.438   2.103  17.155 -1.8773  2.2825  0.0060
    4MPD1    H214031   4.323   1.946  16.779 -0.3634  0.0831 -0.0036
    4MPD1    H314032   4.465   1.949  16.982 -0.1374 -0.3530  0.4261
    4MPD1     N14033   4.242   2.298  17.173  0.1225 -0.4187  0.1998
    4MPD1    H514034   4.163   2.362  17.166  1.3498  0.7587 -2.7765
    4MPD1    N114035   4.101   2.110  16.746  0.0339 -0.2183 -0.4354
    4MPD1    H614036   4.078   2.207  16.730 -0.7457  0.0367  2.1587
    4MPD1    H714037   4.146   2.079  16.660  0.3045  0.2420 -0.4579
    1TCq1    O114038   0.172   2.079  11.838  0.1198 -0.1492  0.3970
    1TCq1    C114039   0.291   2.019  11.849  0.7793  0.6597  0.3677
    1TCq1    O214040   0.355   2.007  11.957 -0.5147 -0.2927  0.5222
    1TCq1    C214041   0.349   1.972  11.727  0.6381 -0.1750  0.8687
    1TCq1    C314042   0.484   1.942  11.730 -0.7093 -0.2249 -0.6962
    1TCq1    C414043   0.538   1.912  11.609 -1.0789 -0.5110 -0.8754
    1TCq1    C514044   0.466   1.869  11.498  0.3992  0.8131 -0.3330
    1TCq1    C614045   0.331   1.885  11.511 -0.1706  0.0887 -0.2976
    1TCq1    C714046   0.270   1.943  11.613 -0.1914  0.4049  0.8991
    1TCq1    C814047   0.250   1.826  11.406 -0.3201  0.1428 -0.1196
    1TCq1    O414048   0.130   1.854  11.399 -0.0438 -0.5763 -0.0544
    1TCq1    C914049   0.671   1.861  11.604  0.4386  0.3370  0.2035
    1TCq1    O514050   0.727   1.853  11.490  0.4288 -0.1459 -0.2581
    1TCq1    O614051   0.731   1.842  11.715  0.2337  0.9012  0.3757
    1TCq1    H114052   0.144   2.108  11.749 -0.6887  2.9121  1.6556
    1TCq1    H214053   0.542   1.974  11.816 -1.5925 -2.0551  0.5663
    1TCq1    H314054   0.525   1.836  11.413  0.5276  2.3410 -0.8225
    1TCq1    H414055   0.165   1.918  11.625 -0.2395  0.0897 -0.1281
    2MPD1     C14056   0.222   1.550  10.976 -0.2724 -0.6072  0.2435
    2MPD1    C114057   0.348   1.536  11.026  0.4022  0.7369 -0.5742
    2MPD1    C214058   0.379   1.603  11.147 -0.2731 -0.6757  0.7066
    2MPD1    C314059   0.279   1.670  11.216  0.2364  0.1961 -0.2533
    2MPD1    C414060   0.150   1.671  11.169  0.0461 -0.0560  0.1233
    2MPD1    C514061   0.121   1.609  11.054  0.4817  0.3375 -0.1445
    2MPD1     H14062   0.479   1.604  11.189  0.4515 -1.3637 -0.9670
    2MPD1    H114063   0.068   1.726  11.214  0.5069  0.5105  0.2739
    2MPD1    H214064   0.207   1.511  10.876  3.4947 -0.4871 -0.3741
    2MPD1    H314065   0.016   1.609  11.028 -0.4865  0.0759  3.8148
    2MPD1     N14066   0.322   1.743  11.325  0.5488  0.2484  0.6608
    2MPD1    H514067   0.423   1.749  11.336  0.4640  1.1248  0.9457
    2MPD1    N114068   0.448   1.487  10.942  0.1858 -0.4856 -0.1362
    2MPD1    H614069   0.535   1.463  10.990  0.2207  0.8769  0.5054
    2MPD1    H714070   0.424   1.431  10.861  0.6591  0.1804 -0.7411
    1TCq1    O114071   0.159   1.214   1.710 -0.1403  0.4808 -0.5368
    1TCq1    C114072   0.186   1.242   1.837  0.6722  0.1150 -0.2021
    1TCq1    O214073   0.282   1.295   1.888 -0.0366 -0.0906 -0.1164
    1TCq1    C214074   0.055   1.244   1.891  0.3843  0.5711 -0.1785
    1TCq1    C314075   0.027   1.351   1.966  0.5042 -0.1032 -1.1507
    1TCq1    C414076   4.622   1.365   2.015 -0.0725 -0.0810 -0.9549
    1TCq1    C514077   4.528   1.269   1.990 -0.2136  0.1741 -0.0686
    1TCq1    C614078   4.564   1.150   1.925 -0.2033  0.4682 -0.7694
    1TCq1    C714079   4.687   1.141   1.868  0.2113 -0.1760  0.1154
    1TCq1    C814080   4.463   1.076   1.859  0.2816 -0.5437  0.4377
    1TCq1    O414081   4.486   0.965   1.816  0.3582  0.8224 -0.0797
    1TCq1    C914082   4.609   1.443   2.133  0.6201  0.3647 -0.1868
    1TCq1    O514083   4.692   1.533   2.155 -0.0192  0.1975  0.3590
    1TCq1    O614084   4.515   1.422   2.213  0.3234  0.0054  0.4485
    1TCq1    H114085   0.065   1.216   1.685 -0.1928 -2.3508 -0.6035
    1TCq1    H214086   0.106   1.420   1.991 -0.0214 -0.1531  0.6351
    1TCq1    H314087   4.433   1.264   2.042 -0.0677  1.7318  0.3609
    1TCq1    H414088   4.706   1.048   1.816 -0.9136 -1.7691  2.5292
    2MPD1     C14089   4.048   1.064   1.568  0.4280 -0.1136  0.6349
    2MPD1    C114090   4.065   1.195   1.601 -1.0644 -0.2794  0.7680
    2MPD1    C214091   4.166   1.220   1.694 -0.1786  0.4518 -0.3920
    2MPD1    C314092   4.253   1.125   1.742 -0.4829  0.4637 -0.4223
    2MPD1    C414093   4.224   0.993   1.714  0.5304 -0.0714 -0.2775
    2MPD1    C514094   4.117   0.964   1.629 -0.4225 -0.0531 -0.1781
    2MPD1     H14095   4.185   1.321   1.727  1.5346  0.1162 -0.3385
    2MPD1    H114096   4.287   0.905   1.730 -0.6461 -0.6449  1.2228
    2MPD1    H214097   3.978   1.042   1.488 -0.0324 -0.8742  1.2485
    2MPD1    H314098   4.099   0.860   1.604  1.3675 -0.4011 -0.0159
    2MPD1     N14099   4.365   1.165   1.816  0.0121 -0.5734  0.3898
    2MPD1    H514100   4.394   1.260   1.837  1.0414 -0.5695 -0.9836
    2MPD1    N114101   3.989   1.294   1.541 -0.3944  0.1861 -0.0660
    2MPD1    H614102   3.899   1.271   1.499 -0.6440  2.3882 -0.7426
    2MPD1    H714103   3.966   1.366   1.609  2.1145  1.2907 -0.3662
    1MPD1     C14104   2.931   2.572  11.413  0.5549  0.2838  0.2259
    1MPD1    C114105   2.960   2.704  11.393  0.1252  0.1473  0.1306
    1MPD1    C214106   2.945   2.799  11.494  0.3120 -0.0837  0.0433
    1MPD1    C314107   2.920   2.763  11.627  0.4961  0.1606 -0.1765
    1MPD1    C414108   2.905   2.630  11.653 -0.1200  0.9210 -0.3796
    1MPD1    C514109   2.907   2.542  11.546 -0.1332  0.0191 -0.4337
    1MPD1     H14110   2.976   2.903  11.486 -0.4611  0.2017  0.7350
    1MPD1    H114111   2.856   2.593  11.742  1.4147 -1.1709 -0.4170
    1MPD1    H214112   2.925   2.488  11.345  1.5398 -1.5031  2.3529
    1MPD1    H314113   2.873   2.444  11.575  1.4183 -1.0914 -2.3529
    1MPD1     N14114   2.903   2.864  11.725 -0.2145 -0.6992  0.0881
    1MPD1    H514115   2.918   2.961  11.699 -0.8153 -0.4578  0.6543
    1MPD1    N114116   2.982   2.745  11.261  0.7629  0.3060  0.2299
    1MPD1    H614117   3.019   2.665  11.211 -1.1628 -0.6188  0.2652
    1MPD1    H714118   3.049   2.819  11.242 -0.6445  1.9232  1.5808
    2MPD1     C14119   1.963   2.299  11.890 -0.5023  0.9316  0.4094
    2MPD1    C114120   2.068   2.390  11.876 -0.4335  0.2470  0.0587
    2MPD1    C214121   2.155   2.369  11.764 -0.6260 -0.2492  0.3555
    2MPD1    C314122   2.127   2.272  11.667  0.6981 -0.1016  0.3851
    2MPD1    C414123   2.014   2.190  11.684 -0.1410  0.1933  0.7237
    2MPD1    C514124   1.933   2.209  11.790  0.0080  0.2430  0.2206
    2MPD1     H14125   2.244   2.431  11.765 -0.9151  0.1741 -0.0275
    2MPD1    H114126   1.988   2.119  11.606  2.0546  3.1310 -2.7048
    2MPD1    H214127   1.903   2.301  11.980 -1.8597  2.5205 -0.5253
    2MPD1    H314128   1.842   2.152  11.801  1.4938 -1.5851  3.0892
    2MPD1     N14129   2.190   2.268  11.546  0.1172 -0.4442 -0.1970
    2MPD1    H514130   2.157   2.194  11.485  1.3345 -1.6470  0.5936
    2MPD1    N114131   2.097   2.487  11.977  0.0179 -0.2110 -0.0167
    2MPD1    H614132   2.141   2.566  11.931  1.1271 -0.3634  0.7909
    2MPD1    H714133   2.016   2.525  12.026 -0.2213  2.1916 -2.2565
    3MPD1     C14134   1.848   1.804  10.978 -0.1263 -0.6724 -0.2979
    3MPD1    C114135   1.883   1.801  11.108  0.6444  0.2442 -0.1516
    3MPD1    C214136   1.972   1.897  11.161  0.1763 -0.5334 -0.8790
    3MPD1    C314137   2.032   1.986  11.080 -0.8388 -0.1538 -0.5166
    3MPD1    C414138   2.001   1.986  10.944 -0.1072  0.4950  0.3419
    3MPD1    C514139   1.901   1.898  10.898  0.5704  0.3389 -0.7001
    3MPD1     H14140   1.990   1.901  11.268  0.5755 -2.2114 -0.8775
    3MPD1    H114141   2.035   2.068  10.882  2.1889 -1.0325 -0.3934
    3MPD1    H214142   1.768   1.739  10.942  0.5379 -2.0955  0.8088
    3MPD1    H314143   1.854   1.925  10.804  1.1962 -1.7903 -1.6163
    3MPD1     N14144   2.124   2.085  11.130  0.0717  0.0827 -0.0073
    3MPD1    H514145   2.143   2.086  11.230  1.5420 -1.4579 -0.2616
    3MPD1    N114146   1.815   1.716  11.192  0.3830  1.0095  0.1085
    3MPD1    H614147   1.874   1.685  11.270  1.9946  1.9061 -0.7493
    3MPD1    H714148   1.777   1.631  11.149  1.2563  0.3781  0.5699
    4MPD2     C14149   3.099   3.157  11.418 -0.2303  0.1651  0.2142
    4MPD2    C114150   3.175   3.080  11.503 -0.3341  1.0144  0.4317
    4MPD2    C214151   3.254   2.981  11.454 -0.0986 -0.5154 -0.0488
    4MPD2    C314152   3.258   2.955  11.315 -0.3478  0.4207 -0.2563
    4MPD2    C414153   3.193   3.036  11.225 -0.2245  0.2510 -0.4106
    4MPD2    C514154   3.102   3.135  11.282 -0.5551  0.9859 -0.3237
    4MPD2     H14155   3.293   2.905  11.520 -2.6290  0.4512  2.5016
    4MPD2    H114156   3.208   3.028  11.118  0.7830 -2.6055 -0.0717
    4MPD2    H214157   3.028   3.230  11.454 -0.6755  0.6279 -1.6027
    4MPD2    H314158   3.058   3.201  11.208 -2.5849  1.1060  0.9958
    4MPD2     N14159   3.320   2.835  11.272 -0.0718 -0.5052  0.3673
    4MPD2    H514160   3.382   2.790  11.338  0.6112 -1.2035 -0.7656
    4MPD2    N114161   3.170   3.088  11.640 -0.1164 -0.2481  0.3667
    4MPD2    H714162   3.225   3.017  11.686  2.1936  0.4862 -1.2519
    5TMC3    C114163   3.075   3.132  11.850 -0.4409  0.4260 -0.2453
    5TMC3    C214164   2.955   3.069  11.865 -0.7303  0.7104 -0.1169
    5TMC3    C314165   2.943   2.953  11.933 -0.5673  0.2352 -0.4627
    5TMC3    C414166   3.187   3.069  11.899  0.1579  0.8730  0.7704
    5TMC3    C514167   3.175   2.951  11.968  0.1338 -0.2580 -0.3529
    5TMC3    C614168   3.049   2.910  12.005 -0.2532  0.0222  0.4393
    5TMC3     C14169   3.091   3.172  11.712 -0.2678 -0.5151 -0.1975
    5TMC3     O14170   3.014   3.262  11.680 -0.2533  0.3719 -0.1194
    5TMC3     H14171   2.862   3.109  11.824 -0.9379 -1.0437 -1.3556
    5TMC3    H114172   3.287   3.108  11.881 -0.6289  2.3508 -0.4105
    5TMC3    H214173   3.039   2.819  12.063 -0.4515 -0.5100 -0.4309
    5TMC3    C714174   3.243   2.852  11.891  0.1917 -0.6198 -0.4397
    5TMC3    C814175   2.884   2.846  11.859  0.4313  0.0835 -0.2374
    5TMC3    O114176   3.312   2.880  11.794 -0.4496 -0.0498 -0.3124
    5TMC3    O214177   2.872   2.741  11.926  0.4193  0.0630 -0.5741
    6TMC3    C114178   2.340   2.323  11.369  0.1630  0.6743 -0.2248
    6TMC3    C214179   2.249   2.280  11.283 -0.3272  0.5353  0.2364
    6TMC3    C314180   2.280   2.260  11.145 -0.3923  0.0443 -0.1488
    6TMC3    C414181   2.465   2.358  11.334  0.6611 -0.1668  0.6018
    6TMC3    C514182   2.496   2.332  11.206  0.4745  0.0745  0.3074
    6TMC3    C614183   2.411   2.285  11.107 -0.1641  0.4632  0.6351
    6TMC3     C14184   2.301   2.350  11.506  0.0231  0.2963 -0.4229
    6TMC3     O14185   2.364   2.436  11.566 -0.0368  0.0436 -0.2502
    6TMC3     H14186   2.148   2.252  11.310  0.1531 -2.6004 -1.1721
    6TMC3    H114187   2.537   2.393  11.407 -0.0887 -1.0856  1.7757
    6TMC3    H214188   2.438   2.254  11.007 -0.8619  0.0474  0.5756
    6TMC3    C714189   2.633   2.362  11.159  0.2898  0.4391  0.1974
    6TMC3    C814190   2.199   2.172  11.062 -0.0894 -0.0634 -0.2135
    6TMC3    O114191   2.723   2.376  11.244 -0.0858 -0.2409 -0.2661
    6TMC3    O214192   2.226   2.174  10.945 -0.4131  0.4020 -0.2860
    7MPD2     C14193   3.307   2.362  11.747 -0.2605 -0.7098 -0.0186
    7MPD2    C114194   3.333   2.478  11.679  0.1563 -0.7651 -0.0135
    7MPD2    C214195   3.307   2.598  11.743 -0.3704  0.1333 -0.7909
    7MPD2    C314196   3.242   2.602  11.866 -0.1189 -1.2830 -0.1826
    7MPD2    C414197   3.197   2.486  11.918 -0.5340 -0.0146 -0.1817
    7MPD2    C514198   3.236   2.370  11.859  1.0237 -0.1478 -0.3043
    7MPD2     H14199   3.318   2.688  11.683 -1.3903  1.5129  1.1050
    7MPD2    H114200   3.160   2.471  12.019  1.0969  0.1152  0.4277
    7MPD2    H214201   3.340   2.264  11.715  0.7154 -1.0220  1.9282
    7MPD2    H314202   3.215   2.276  11.910 -0.5325 -0.6627 -1.9065
    7MPD2     N14203   3.208   2.725  11.931  0.0755 -0.2942 -0.3369
    7MPD2    H514204   3.161   2.713  12.020 -0.9541  4.1430 -0.2725
    7MPD2    N114205   3.389   2.461  11.551  0.2266  0.6522  0.8868
    7MPD2    H714206   3.400   2.362  11.535  0.5796  0.6860  0.9058
    8TMC3    C114207   3.425   2.526  11.321  0.3442 -0.1879 -0.6799
    8TMC3    C214208   3.320   2.450  11.274 -0.1316 -0.3701 -0.3483
    8TMC3    C314209   3.286   2.462  11.139 -0.3295  0.8146  0.9729
    8TMC3    C414210   3.461   2.639  11.250 -0.2755 -0.0714 -0.4121
    8TMC3    C514211   3.401   2.666  11.133  0.8368 -0.0163  0.1102
    8TMC3    C614212   3.329   2.568  11.063  0.0501 -0.3551  1.0478
    8TMC3     C14213   3.422   2.566  11.462 -0.6774  0.4366  0.3063
    8TMC3     O14214   3.441   2.686  11.481 -0.5150  0.9641 -0.0268
    8TMC3     H14215   3.273   2.384  11.346  0.6717 -0.9493 -0.3643
    8TMC3    H114216   3.541   2.703  11.284 -0.2978 -0.2207 -0.0712
    8TMC3    H214217   3.295   2.598  10.965  1.2262 -0.8398  0.4932
    8TMC3    C714218   3.314   2.785  11.146  0.2691 -0.4649  0.5491
    8TMC3    C814219   3.160   2.397  11.098 -0.1088  0.4747  0.2681
    8TMC3    O114220   3.244   2.810  11.051 -0.2637 -0.6736 -0.9483
    8TMC3    O214221   3.107   2.323  11.178  0.3433  0.6247 -0.4810
    9MPD2     C14222   2.992   2.405  10.786  0.2862  0.0256  0.1589
    9MPD2    C114223   2.996   2.410  10.923  0.0678 -0.1349  0.4384
    9MPD2    C214224   2.881   2.404  11.001  0.4678 -0.5549  0.6383
    9MPD2    C314225   2.759   2.384  10.947 -0.3508  0.0792 -0.6267
    9MPD2    C414226   2.756   2.377  10.811  0.4469 -0.5801  0.0327
    9MPD2    C514227   2.861   2.401  10.731  0.3708 -0.1579 -0.0695
    9MPD2     H14228   2.893   2.425  11.106  1.3345  1.5396  0.1409
    9MPD2    H114229   2.664   2.369  10.754  0.6898  0.2342 -0.4712
    9MPD2    H214230   3.080   2.411  10.723  1.6067  0.8314  2.0730
    9MPD2    H314231   2.850   2.406  10.623  0.1029  3.3560  0.1217
    9MPD2     N14232   2.641   2.372  11.020  0.9652  0.1379  0.5588
    9MPD2    H514233   2.554   2.373  10.968  1.8191 -2.7870 -0.9103
    9MPD2    N114234   3.123   2.425  10.971 -0.8460 -0.4601  0.1913
    9MPD2    H714235   3.195   2.462  10.909 -1.5537  2.4574  1.0986
    1MPD1     C14236   2.760   1.545  17.131  0.6823  0.7630 -0.0486
    1MPD1    C114237   2.830   1.445  17.065 -0.2508  0.3725 -0.1202
    1MPD1    C214238   2.764   1.335  17.012 -0.7856  0.0344 -0.0174
    1MPD1    C314239   2.628   1.321  17.035 -0.9072  0.2807 -0.4406
    1MPD1    C414240   2.563   1.423  17.101 -0.0990  0.3482  0.4439
    1MPD1    C514241   2.627   1.533  17.147  0.1449  0.1732 -0.0681
    1MPD1     H14242   2.821   1.253  16.970 -1.4459 -0.4523  0.0369
    1MPD1    H114243   2.458   1.414  17.129  0.1284 -1.0789  0.8176
    1MPD1    H214244   2.809   1.637  17.163  0.4157  0.2701  1.7608
    1MPD1    H314245   2.574   1.611  17.199  1.1737  0.6575  0.2563
    1MPD1     N14246   2.551   1.214  16.991  0.6163  0.4990 -0.0598
    1MPD1    H514247   2.458   1.203  17.028  0.3261  2.8333 -0.0807
    1MPD1    N114248   2.972   1.472  17.048  0.4788 -0.4897 -0.3641
    1MPD1    H614249   3.013   1.531  17.121 -0.3799 -1.4159  0.8796
    1MPD1    H714250   3.027   1.387  17.036 -1.1108 -1.6113  0.2336
    2MPD1     C14251   2.150   0.896  16.075 -0.0187 -0.1604 -0.8559
    2MPD1    C114252   2.081   0.964  16.175 -0.1963  0.0886  0.0567
    2MPD1    C214253   2.136   0.966  16.303 -0.1998 -0.8205 -0.4385
    2MPD1    C314254   2.260   0.925  16.335 -0.2658 -0.6641 -0.2994
    2MPD1    C414255   2.333   0.870  16.237  0.4110 -0.7076  0.2210
    2MPD1    C514256   2.284   0.851  16.108  0.1886  0.1542  0.0016
    2MPD1     H14257   2.078   0.998  16.390 -0.6181 -1.0963 -0.6167
    2MPD1    H114258   2.436   0.841  16.252  0.5123 -0.3333  0.2427
    2MPD1    H214259   2.110   0.878  15.977  2.1649  1.3894 -2.0375
    2MPD1    H314260   2.345   0.806  16.031  1.1922  0.2285  0.7554
    2MPD1     N14261   2.307   0.936  16.469  0.1911  0.3885 -0.4413
    2MPD1    H514262   2.244   0.988  16.530 -1.4192  1.1534 -2.7299
    2MPD1    N114263   1.945   0.991  16.172 -0.1541  0.5139  0.3928
    2MPD1    H614264   1.921   1.012  16.076 -1.1654 -0.2222  0.4786
    2MPD1    H714265   1.922   1.068  16.236 -0.7869  0.8132 -0.1984
    3TCq2    C114266   2.416   0.875  16.528 -0.1258 -0.1323  0.2927
    3TCq2    O214267   2.509   0.815  16.476  0.0933  0.5105 -0.0383
    3TCq2    C214268   2.414   0.914  16.666  0.3298 -0.6585 -0.5624
    3TCq2    C314269   2.293   0.898  16.717 -0.6665 -0.7749 -0.3341
    3TCq2    C414270   2.277   0.945  16.849 -0.2508  0.6405 -0.0436
    3TCq2    C514271   2.371   1.019  16.912 -0.5154  0.3538 -0.0112
    3TCq2    C614272   2.490   1.041  16.849  0.5357  0.0552  0.1844
    3TCq2    C714273   2.520   0.975  16.731 -0.3701 -0.8314 -0.4200
    3TCq2    C814274   2.589   1.135  16.891 -0.4556  0.0938  0.5564
    3TCq2    O414275   2.693   1.143  16.823 -0.3186 -0.3512  0.1547
    3TCq2    C914276   2.154   0.908  16.919 -0.2815  0.4977 -0.1647
    3TCq2    O514277   2.090   0.815  16.864  0.3469 -0.0229 -0.7631
    3TCq2    O614278   2.134   0.955  17.037 -0.9294  0.0913  0.2445
    3TCq2    H214279   2.214   0.847  16.663 -1.2699  2.8908 -2.9211
    3TCq2    H314280   2.347   1.066  17.007 -2.2606 -1.4854  0.4526
    3TCq2    H414281   2.614   0.981  16.679 -1.0496 -2.0867 -1.8014
    1TCq1    O114282   0.118   0.395  12.586  0.4609  0.0586  0.0260
    1TCq1    C114283   0.037   0.372  12.690 -0.4168  0.0026 -0.6463
    1TCq1    O214284   4.636   0.382  12.683  0.1312 -0.3406 -0.7576
    1TCq1    C214285   0.109   0.335  12.806  0.6819 -0.2827  1.2069
    1TCq1    C314286   0.040   0.283  12.918  0.7959  0.1101 -0.4560
    1TCq1    C414287   0.095   0.293  13.045  0.2690 -0.1072 -0.3507
    1TCq1    C514288   0.222   0.335  13.057  0.0582  0.5329 -0.2774
    1TCq1    C614289   0.299   0.362  12.945 -0.0291  0.7681 -1.0550
    1TCq1    C714290   0.233   0.384  12.829 -0.8780 -0.2328 -0.1743
    1TCq1    C814291   0.443   0.406  12.951 -0.1192 -0.4704 -0.5832
    1TCq1    O414292   0.482   0.444  12.844 -0.0509 -0.1314 -0.0236
    1TCq1    C914293   0.028   0.237  13.166  0.3565 -0.2720  0.0582
    1TCq1    O514294   4.644   0.176  13.155 -0.5683 -0.3147 -0.3113
    1TCq1    O614295   0.086   0.256  13.275  0.0362 -0.0025  0.2530
    1TCq1    H114296   0.215   0.382  12.587  0.5544  0.7544  0.1816
    1TCq1    H214297   4.661   0.241  12.912  0.6179  0.4429  0.2115
    1TCq1    H314298   0.262   0.343  13.157  0.3922  1.0126 -0.4530
    1TCq1    H414299   0.292   0.409  12.741  0.8057 -1.3562  0.6322
    2MPD2     C14300   0.738   0.371  12.968  0.4234 -0.3234  0.1867
    2MPD2    C114301   0.647   0.347  13.068  0.7260  0.1587 -0.0579
    2MPD2    C214302   0.687   0.297  13.193 -0.2315 -0.2047  0.7875
    2MPD2    C314303   0.819   0.267  13.214  0.1053  0.5779  0.1568
    2MPD2    C414304   0.911   0.282  13.110 -1.2054 -0.0401  0.3350
    2MPD2    C514305   0.862   0.331  12.987 -0.2650  0.7067 -0.9233
    2MPD2     H14306   0.613   0.280  13.271 -1.2707 -1.5095 -0.4804
    2MPD2    H114307   1.012   0.242  13.119 -2.1091 -2.5722 -0.7798
    2MPD2    H214308   0.710   0.414  12.872  0.7750  0.2171  0.3222
    2MPD2    H314309   0.931   0.322  12.905  0.2583 -2.7507 -0.1048
    2MPD2     N14310   0.851   0.212  13.339 -0.3050 -0.1270  0.1671
    2MPD2    H514311   0.783   0.199  13.413  2.3832  1.1303  2.8944
    2MPD2    N114312   0.508   0.354  13.057 -0.3364 -0.2213 -0.2661
    2MPD2    H714313   0.460   0.319  13.139  0.7382 -1.4615 -0.1664
    3TCq1    O114314   1.134   4.527  13.831  0.2079 -0.0857  0.1812
    3TCq1    C114315   1.160   4.563  13.705 -0.1122 -0.4237  0.0436
    3TCq1    O214316   1.208   4.490  13.617  0.8792  0.1041 -0.2161
    3TCq1    C214317   1.081   4.680  13.676  0.0925 -0.6602 -0.0889
    3TCq1    C314318   1.010   0.019  13.776 -0.2394 -0.5600 -0.0769
    3TCq1    C414319   0.937   0.133  13.746 -0.2985 -0.0003  0.0378
    3TCq1    C514320   0.933   0.183  13.618  0.4794 -0.1565 -0.0516
    3TCq1    C614321   0.991   0.116  13.518  0.0324 -0.2471 -0.1694
    3TCq1    C714322   1.065   0.003  13.547  0.1686 -0.1574  0.5900
    3TCq1    C814323   0.973   0.159  13.373 -0.4648  0.3468  0.5296
    3TCq1    O414324   1.063   0.122  13.301 -0.4982  0.3157 -0.2704
    3TCq1    C914325   0.870   0.209  13.857 -0.1265 -0.4459  0.2544
    3TCq1    O514326   0.909   0.177  13.971  0.0482 -0.1391 -0.0393
    3TCq1    O614327   0.813   0.315  13.818 -0.5144  0.2572 -0.2457
    3TCq1    H114328   1.115   4.599  13.895 -0.6435  1.0117 -1.3000
    3TCq1    H214329   1.006   4.702  13.878 -3.1784  0.4082  0.1847
    3TCq1    H314330   0.876   0.274  13.602 -0.7463 -0.2196  3.9059
    3TCq1    H414331   1.106   4.653  13.476 -3.0324 -2.8174  1.4281
    1MPD2     C14332   0.142   0.929  15.175  0.4237  0.0711  0.1979
    1MPD2    C114333   0.008   0.937  15.144 -0.5360  0.0940 -0.4769
    1MPD2    C214334   4.671   0.836  15.064 -0.6293 -0.2717 -0.3148
    1MPD2    C314335   0.027   0.739  15.004  0.7759 -0.6160  0.1712
    1MPD2    C414336   0.163   0.739  15.035 -0.9934 -0.2666 -0.0424
    1MPD2    C514337   0.217   0.823  15.126  0.2603  0.6290  1.1135
    1MPD2     H14338   4.564   0.831  15.042 -0.7656 -0.5486  0.3999
    1MPD2    H114339   0.234   0.666  14.995  0.9988  1.0553  1.0965
    1MPD2    H214340   0.197   1.003  15.232 -2.1728  0.2581  2.4308
    1MPD2    H314341   0.323   0.826  15.145  0.7519  0.6828 -1.6856
    1MPD2     N14342   4.697   0.633  14.917  0.3702 -0.1230  0.1428
    1MPD2    H514343   0.024   0.544  14.906  1.1636  0.1670  1.4569
    1MPD2    N114344   4.648   1.050  15.201 -0.4082  0.3733 -0.4198
    1MPD2    H714345   4.687   1.114  15.270 -2.4129  2.6850 -1.4479
    2TMC3    C114346   4.448   1.159  15.263  0.0063  0.1689  0.2788
    2TMC3    C214347   4.313   1.127  15.274 -0.5045 -0.0491  0.2033
    2TMC3    C314348   4.212   1.203  15.235 -0.5331  1.1776  0.3544
    2TMC3    C414349   4.473   1.289  15.213  0.0795 -0.3533 -0.4598
    2TMC3    C514350   4.368   1.367  15.184  0.0727 -0.0300  0.3599
    2TMC3    C614351   4.238   1.327  15.197  0.4147 -0.2467  0.2924
    2TMC3     C14352   4.515   1.065  15.179  1.4871  0.2471  0.8833
    2TMC3     O14353   4.437   1.004  15.106  0.3477  0.1619 -0.4522
    2TMC3     H14354   4.283   1.025  15.300 -0.8247 -0.6928 -2.6829
    2TMC3    H114355   4.569   1.329  15.186  0.2495 -0.1597  0.4352
    2TMC3    H214356   4.154   1.387  15.163 -1.5172 -3.1161 -0.1282
    2TMC3    C714357   4.377   1.507  15.154 -0.1661 -0.1565 -0.1122
    2TMC3    C814358   4.118   1.138  15.152  0.1235 -0.5666 -0.0884
    2TMC3    O114359   4.276   1.577  15.163 -0.1364 -0.1887  0.2059
    2TMC3    O214360   4.013   1.195  15.126  0.6698  0.5319 -0.0839
    3TCq1    O114361   0.510   2.255  14.667  0.1371 -0.1604 -0.4936
    3TCq1    C114362   0.564   2.136  14.700  0.5548  0.3651 -0.1146
    3TCq1    O214363   0.683   2.106  14.672  0.4251  0.5012 -0.3648
    3TCq1    C214364   0.499   2.079  14.814  0.1346 -0.7895  0.5424
    3TCq1    C314365   0.577   2.000  14.901  1.1672 -0.3234  0.2244
    3TCq1    C414366   0.522   1.927  15.002 -0.3320 -0.5006 -0.7106
    3TCq1    C514367   0.388   1.940  15.023  0.0744  0.3122  0.0846
    3TCq1    C614368   0.314   2.013  14.939  0.3478 -0.5157  0.2901
    3TCq1    C714369   0.364   2.092  14.835  0.8240 -0.2294  0.2891
    3TCq1    C814370   0.167   1.995  14.935  0.4914  0.3877  0.8906
    3TCq1    O414371   0.108   2.085  14.877 -0.7839 -0.1346  0.2950
    3TCq1    C914372   0.596   1.837  15.090 -0.1553 -0.2673  0.8168
    3TCq1    O514373   0.526   1.765  15.167  0.2038  0.5604  0.0560
    3TCq1    O614374   0.715   1.868  15.103 -0.9156  0.2135 -0.0127
    3TCq1    H114375   0.416   2.270  14.690  0.5295  1.5960 -0.0098
    3TCq1    H214376   0.677   1.980  14.863  1.2362  0.5760 -0.0799
    3TCq1    H314377   0.339   1.884  15.101  1.2390 -1.4297 -0.4244
    3TCq1    H414378   0.296   2.132  14.760  1.0150  0.3667  0.4300
    4MPD2     C14379   4.603   1.935  14.983  0.3356  0.4894  0.5144
    4MPD2    C114380   4.703   1.851  15.011 -0.1640 -0.0152 -0.7013
    4MPD2    C214381   4.659   1.730  15.066  0.4067 -0.6438 -0.0519
    4MPD2    C314382   4.528   1.689  15.080 -0.7320 -1.0321  0.6072
    4MPD2    C414383   4.428   1.786  15.054 -0.6848  0.5293  0.0533
    4MPD2    C514384   4.474   1.908  15.004 -0.6309 -0.1521 -0.3070
    4MPD2     H14385   0.011   1.662  15.107  1.6518  1.1334  0.6828
    4MPD2    H114386   4.320   1.781  15.068 -0.8398 -0.2179 -1.2796
    4MPD2    H214387   4.605   2.036  14.944 -0.1695 -0.1871 -1.2393
    4MPD2    H314388   4.403   1.990  14.995  0.2145  0.4980 -1.0723
    4MPD2     N14389   4.501   1.552  15.123 -0.5361  0.3684 -0.1196
    4MPD2    H514390   4.582   1.491  15.115  0.4377  1.4125  1.6992
    4MPD2    N114391   0.117   1.885  15.005  0.2296  0.0217 -0.0571
    4MPD2    H714392   0.183   1.810  15.023 -0.8368 -1.1906 -1.1732
    5TMC2    C114393   4.337   0.512  14.656  0.1194  0.2236  0.3065
    5TMC2    C214394   4.325   0.382  14.701 -0.1139 -0.4010 -0.2488
    5TMC2    C314395   4.430   0.338  14.776  0.2157 -0.0229  0.2424
    5TMC2    C414396   4.456   0.583  14.670 -0.2083  0.6310  0.0675
    5TMC2    C514397   4.542   0.542  14.760  0.5121  0.7097 -0.0622
    5TMC2    C614398   4.537   0.422  14.818  0.3207 -0.2469 -0.2261
    5TMC2     C14399   4.214   0.594  14.674  0.3373 -0.4708 -0.8576
    5TMC2     O14400   4.110   0.552  14.622 -0.2692  0.0379 -0.2006
    5TMC2     H14401   4.227   0.336  14.700 -1.3582  2.3375 -2.6531
    5TMC2    H114402   4.464   0.688  14.643  0.1849 -0.9364 -5.9141
    5TMC2    H214403   4.602   0.390  14.898  0.2619  0.6392  0.1861
    5TMC2    C714404   4.582   0.652  14.845  0.3099  0.0357 -0.0391
    5TMC2    C814405   4.452   0.198  14.791  0.0827  0.1628 -0.1181
    5TMC2    O114406   4.508   0.748  14.840 -0.4909 -0.3546  0.6937
    5TMC2    O214407   4.532   0.157  14.871 -0.2119 -0.0021 -0.1456
    5TMC2    O514408   4.410   0.136  14.680  0.3717  0.0388 -0.2293
    5TMC2    H514409   4.350   0.189  14.624  2.4607  1.1924 -1.3413
    6MPD2     C14410   3.994   0.973  14.934  0.5015  0.1112 -0.4658
    6MPD2    C114411   4.121   0.961  14.982  0.5254 -0.6823  0.0033
    6MPD2    C214412   4.197   0.859  14.924 -0.3152 -0.5483 -0.0913
    6MPD2    C314413   4.146   0.778  14.829 -0.0441 -0.5619 -0.9038
    6MPD2    C414414   4.015   0.794  14.787  1.1303 -0.0852 -0.0168
    6MPD2    C514415   3.945   0.898  14.830 -0.1131  0.8419 -0.0060
    6MPD2     H14416   4.297   0.847  14.964 -0.0672  2.9305  0.3735
    6MPD2    H114417   3.980   0.739  14.701 -1.5969  1.1537  0.2952
    6MPD2    H214418   3.931   1.056  14.964  1.1151 -0.0277  1.2185
    6MPD2    H314419   3.839   0.909  14.807  0.0267  0.6395 -0.7622
    6MPD2     N14420   4.231   0.683  14.776 -0.0969  0.3160 -0.2144
    6MPD2    H514421   4.322   0.682  14.821 -0.7316  2.2230  1.1053
    6MPD2    N114422   4.173   1.031  15.096 -0.1942  0.8552 -0.8526
    6MPD2    H714423   4.265   1.004  15.128 -0.9524  1.4371  1.7784
  945NH4     N114424   4.047   2.311   0.862 -0.1930 -0.4564  0.2798
  945NH4     H214425   4.099   2.313   0.772  1.0537  0.0270  1.0144
  945NH4     H314426   3.945   2.293   0.855 -0.5488  1.9732 -0.9248
  945NH4     H414427   4.048   2.397   0.921  1.7438  0.2903 -0.8649
  945NH4     H514428   4.096   2.243   0.924  2.9612  0.7833 -0.8825
  946SOD     NA14429   0.546   0.768  10.569 -0.3093 -0.3202 -0.3632
  947SOD     NA14430   0.355   0.070  15.597 -0.1730 -0.3798 -0.4435
  948SOD     NA14431   0.611   2.377  10.228  0.1130 -0.0593 -0.2896
  949SOD     NA14432   1.359   4.025   0.071 -0.7906  0.2454  0.3152
  950SOD     NA14433   4.306   4.681  10.120  0.4674 -0.2506 -0.4159
  951SOD     NA14434   4.197   4.049  10.233  0.8961 -0.3670  0.3672
  952SOD     NA14435   1.053   1.149  14.521 -0.5525 -0.0699  0.1365
  953SOD     NA14436   3.043   0.818  14.793 -0.4855  0.1793 -0.0424
  954SOD     NA14437   2.974   4.514  13.396 -0.1053  0.2861  0.4600
  955SOD     NA14438   4.661   4.204   8.659 -0.6284 -0.0425  0.3797
  956SOD     NA14439   0.140   4.146  10.845 -0.0711  0.6472 -0.1518
  957SOD     NA14440   0.398   4.212  10.716 -0.8115  0.2460 -0.2467
  958SOD     NA14441   2.780   3.126  16.251  0.2572  0.6931 -0.1586
  959SOD     NA14442   0.618   0.729  11.383  1.0852  0.2644  0.3069
  960SOD     NA14443   0.128   4.216  11.226  0.4106 -0.0759 -0.4615
  961SOD     NA14444   2.394   3.202   2.927  0.4784 -0.2197 -0.2365
  962SOD     NA14445   0.687   4.388  11.795 -0.4519 -0.5211 -0.0317
  963SOD     NA14446   4.249   1.483  10.421 -0.0336 -0.1000 -0.1850
  964SOD     NA14447   1.155   3.363  14.164  0.0251  0.0025  0.3103
  965SOD     NA14448   2.215   4.366  13.082  0.4905  0.6034  0.5189
  966SOD     NA14449   2.912   0.307   3.128  0.0461  0.0458  0.5111
  967SOD     NA14450   0.578   0.422  11.380 -0.2521 -0.0312 -0.5303
  968SOD     NA14451   2.005   1.847  12.680  0.4331  0.3109  0.6336
  969SOD     NA14452   0.538   1.725  10.873 -0.0054  0.1745 -0.3658
  970SOD     NA14453   2.262   4.492   1.413 -0.1964  0.2181 -0.4059
  971SOD     NA14454   0.722   0.844   1.386 -0.0303 -0.1653 -0.0804
  972SOD     NA14455   3.683   0.532  13.488 -0.3866 -0.0613  0.0857
  973SOD     NA14456   2.438   0.695   2.523 -0.0672 -0.5514  0.1720
  974SOD     NA14457   2.240   1.637   1.134 -0.3004  0.2714 -0.8270
  975SOD     NA14458   2.827   4.275   9.978 -0.3567 -0.0728 -0.5149
  976SOD     NA14459   1.309   0.030  14.141  0.5552  0.1320  0.4330
  977SOD     NA14460   2.087   4.504   6.245  0.4844  0.6228  0.7138
  978SOD     NA14461   1.046   0.152  14.144 -0.6305 -0.0001  0.1628
  979SOD     NA14462   0.112   1.985   6.015 -0.3567  0.1344 -0.0341
  980SOD     NA14463   0.432   0.133  13.545  0.2137  0.0879 -0.8243
  981SOD     NA14464   2.634   0.610   4.322 -0.4574 -0.0929  0.3726
  982SOD     NA14465   0.611   3.849   5.858  0.9185  0.0021  0.6304
  983SOD     NA14466   1.163   2.477   6.829  0.2392 -0.3346  0.2711
  984SOD     NA14467   3.731   2.471   1.478 -0.7145 -0.3400  0.1349
  985SOD     NA14468   3.829   2.968   1.803  0.4484  0.4819  0.0701
  986SOD     NA14469   2.784   1.179  11.908  0.3486  0.3769 -0.4193
  987SOD     NA14470   1.237   1.265  15.002  0.2039 -0.1226 -0.6652
  988SOD     NA14471   0.228   2.464   0.527  0.2925  0.2035  0.4657
  989SOD     NA14472   2.345   1.787  16.175  0.1956 -0.6805 -0.5933
  990SOD     NA14473   4.666   1.992  11.315  0.0073  0.6607  0.3732
  991SOD     NA14474   2.775   1.756  10.328  0.3856 -0.3862 -0.2315
  992SOD     NA14475   3.536   1.713   2.175 -0.7358 -0.0586  0.4235
  993SOD     NA14476   4.430   2.345  13.528 -0.2645 -0.5894  0.1283
  994SOD     NA14477   2.370   0.683  14.026  0.0710 -0.5117  0.3396
  995SOD     NA14478   2.712   1.092   0.746 -0.1048 -0.6862 -0.2513
  996SOD     NA14479   2.776   3.924  13.417  0.1955 -0.2967  0.2764
  997SOD     NA14480   4.279   4.451   9.919 -0.3643 -0.0932  0.4823
  998SOD     NA14481   0.895   4.636  11.275 -0.1036 -0.3906 -0.4349
  999SOD     NA14482   0.953   2.884  12.053  0.2411  0.4989 -0.4480
 1000SOD     NA14483   3.592   0.629  10.245  0.2167  0.1691  0.1563
 1001SOD     NA14484   0.931   1.348  14.804  0.2545  0.0051 -0.1253
 1002SOD     NA14485   0.163   0.573   9.550  0.2249 -0.6370  0.2366
 1003SOD     NA14486   0.717   3.094  17.432  0.5915  0.1281  0.1819
 1004SOD     NA14487   2.785   0.940  14.998  0.0622  0.2122  0.1166
 1005SOD     NA14488   2.836   3.074   1.244  0.1362 -0.4959  0.1076
 1006SOD     NA14489   4.619   1.347  13.084 -0.0723 -0.1324  0.6050
 1007SOD     NA14490   2.342   4.206   0.657 -0.1268  0.4747  0.0037
 1008SOD     NA14491   4.649   2.961  16.948  0.0078  0.1172 -0.5472
 1009SOD     NA14492   1.863   0.954  10.993  0.3713 -0.1113 -0.4270
 1010SOD     NA14493   2.995   1.227   8.427 -0.2199  0.3209  0.1701
 1011SOL     OW14494   1.377   1.318   4.456 -0.1027 -0.1051  0.3726
 1011SOL    HW114495   1.335   1.334   4.371 -0.4804  0.0947  0.5944
 1011SOL    HW214496   1.452   1.263   4.432  0.0504  0.0376  0.5263
 1012SOL     OW14497   0.801   3.270   4.552  0.1111 -0.4900  0.2900
 1012SOL    HW114498   0.785   3.203   4.486  5.0047  0.0095 -1.4033
 1012SOL    HW214499   0.727   3.331   4.558 -0.3172 -0.8567 -1.0939
 1013SOL     OW14500   1.012   0.040   3.515 -0.1801  0.4444  0.6765
 1013SOL    HW114501   1.044   4.673   3.535 -0.3693  0.2285  0.0167
 1013SOL    HW214502   0.971   0.019   3.431  0.3649 -1.2796  0.8394
 1014SOL     OW14503   3.437   3.356   0.840  0.6592  0.3154  0.2799
 1014SOL    HW114504   3.480   3.384   0.921  2.2490  1.2610 -0.8961
 1014SOL    HW214505   3.473   3.420   0.779 -1.1806 -0.4916 -1.6373
 1015SOL     OW14506   4.416   1.387   8.816  0.5203  0.1830 -0.1486
 1015SOL    HW114507   4.438   1.343   8.898 -0.7007 -3.4724 -1.8265
 1015SOL    HW214508   4.335   1.354   8.778 -0.6229  0.5333  1.9412
 1016SOL     OW14509   3.303   2.108   6.098 -0.2786 -0.2360 -0.2146
 1016SOL    HW114510   3.241   2.168   6.058 -0.0040 -0.8729 -1.5922
 1016SOL    HW214511   3.381   2.162   6.084 -0.9476  1.1144  1.2567
 1017SOL     OW14512   1.207   4.090   9.993  0.4348  0.1420 -0.2726
 1017SOL    HW114513   1.125   4.137  10.011  0.0139 -0.6902 -0.0399
 1017SOL    HW214514   1.252   4.153   9.936  1.9943 -1.9868 -1.4279
 1018SOL     OW14515   3.059   0.495   3.152  0.4976  0.2783  0.3092
 1018SOL    HW114516   3.070   0.583   3.115  0.4894 -0.2767 -1.0372
 1018SOL    HW214517   3.049   0.518   3.244  1.1971 -1.5586  0.8417
 1019SOL     OW14518   4.419   1.974  12.881 -0.0962 -0.5673 -0.2136
 1019SOL    HW114519   4.468   2.051  12.910 -1.2193  0.2948 -0.6232
 1019SOL    HW214520   4.350   2.011  12.827 -1.2134 -1.5071  0.5627
 1020SOL     OW14521   1.977   3.210   4.067 -0.5496  0.7076 -0.4422
 1020SOL    HW114522   1.975   3.248   3.979 -1.0375 -1.0796 -1.2078
 1020SOL    HW214523   1.956   3.296   4.102  2.8848  1.5498 -0.4423
 1021SOL     OW14524   2.880   1.611  13.455  0.2903  0.6899 -0.6057
 1021SOL    HW114525   2.935   1.538  13.426 -1.6598 -1.0334 -0.0051
 1021SOL    HW214526   2.876   1.615  13.551 -1.6048 -0.6404 -0.6254
 1022SOL     OW14527   3.693   3.273   5.654 -0.8053  0.0304  0.1081
 1022SOL    HW114528   3.783   3.304   5.657 -1.0456  0.6244  1.3370
 1022SOL    HW214529   3.652   3.336   5.595 -0.2548 -0.4515 -0.7776
 1023SOL     OW14530   4.487   1.583   3.407 -0.1237 -0.3131 -0.0309
 1023SOL    HW114531   4.515   1.536   3.329  0.4582 -0.6645  0.3969
 1023SOL    HW214532   4.575   1.597   3.442 -0.1078 -1.7518  0.5011
 1024SOL     OW14533   1.518   3.755  10.719  0.1312  0.1702  0.1715
 1024SOL    HW114534   1.533   3.807  10.798 -2.1078  1.4980 -0.2601
 1024SOL    HW214535   1.601   3.746  10.672 -0.2503  0.0091 -0.4725
 1025SOL     OW14536   4.460   2.271  14.179  0.4598 -0.0473  0.6078
 1025SOL    HW114537   4.477   2.356  14.138  0.0458 -0.5794 -0.6618
 1025SOL    HW214538   4.420   2.228  14.103  0.6237 -2.2658  1.7718
 1026SOL     OW14539   3.553   1.382  17.556  0.4731 -0.5326 -0.2738
 1026SOL    HW114540   3.613   1.442  17.600 -0.1095  0.9151 -1.4739
 1026SOL    HW214541   3.514   1.432  17.485 -1.3725 -1.2752  0.2136
 1027SOL     OW14542   1.558   2.961   5.648  0.0373  0.6754 -0.4011
 1027SOL    HW114543   1.629   2.968   5.585 -1.3162 -1.4287 -2.1703
 1027SOL    HW214544   1.481   2.989   5.598  0.1532 -0.8458 -1.4282
 1028SOL     OW14545   1.185   2.857   8.496 -0.1718  0.3218 -0.3186
 1028SOL    HW114546   1.139   2.940   8.502 -1.1478 -0.4653  2.9410
 1028SOL    HW214547   1.257   2.877   8.436 -0.3886  0.5476 -0.5035
 1029SOL     OW14548   0.691   4.436  16.686 -0.0625 -0.2999  0.5527
 1029SOL    HW114549   0.719   4.412  16.598 -3.1493  0.9183 -0.7524
 1029SOL    HW214550   0.727   4.366  16.741  0.0916 -0.3374  0.4046
 1030SOL     OW14551   4.048   0.821   9.019  0.0266  0.1635 -0.3434
 1030SOL    HW114552   4.138   0.847   9.002 -0.9011  2.5196 -1.5828
 1030SOL    HW214553   4.069   0.766   9.095  2.2084  2.4097  0.6615
 1031SOL     OW14554   3.271   3.636   1.717  0.1868 -0.5639 -0.1299
 1031SOL    HW114555   3.220   3.702   1.671 -0.6692 -0.4388  1.0056
 1031SOL    HW214556   3.207   3.613   1.784  1.2954  4.5695  2.6200
 1032SOL     OW14557   2.531   1.940   2.591 -0.0873  0.6858 -0.1281
 1032SOL    HW114558   2.451   1.890   2.607 -0.7586  1.8349  0.1500
 1032SOL    HW214559   2.596   1.873   2.612  1.4802  2.2506  0.1092
 1033SOL     OW14560   4.404   3.184  13.224  0.1079  0.4149 -0.5784
 1033SOL    HW114561   4.473   3.131  13.262  0.8506  1.4071 -0.5473
 1033SOL    HW214562   4.441   3.197  13.137 -1.2575 -1.4009 -1.4425
 1034SOL     OW14563   0.846   1.474   6.772  0.4403 -0.1291 -0.4742
 1034SOL    HW114564   0.938   1.457   6.791  0.5259  1.3063  0.4672
 1034SOL    HW214565   0.810   1.387   6.758  0.4671 -0.0543 -1.0322
 1035SOL     OW14566   2.476   3.545   2.582  0.0373 -0.1585  0.5545
 1035SOL    HW114567   2.399   3.529   2.527 -1.1359  0.6005  2.0046
 1035SOL    HW214568   2.462   3.634   2.615  1.0973 -0.1619  0.9820
 1036SOL     OW14569   4.211   1.186   4.336  0.0671  0.3216  0.3090
 1036SOL    HW114570   4.261   1.257   4.296 -2.7469  2.3598  0.3446
 1036SOL    HW214571   4.125   1.203   4.296  0.4213 -2.5685 -1.6756
 1037SOL     OW14572   4.275   1.247   8.208  0.4043 -0.0688 -0.1806
 1037SOL    HW114573   4.310   1.321   8.257  1.7466 -1.7273  1.3562
 1037SOL    HW214574   4.238   1.192   8.277  0.3882 -1.4279 -1.2707
 1038SOL     OW14575   3.013   3.786   2.728 -0.8611 -0.0096  0.4662
 1038SOL    HW114576   2.984   3.711   2.676 -0.9060  0.4937 -0.2345
 1038SOL    HW214577   3.045   3.749   2.810  0.3598 -3.2975 -1.4653
 1039SOL     OW14578   3.017   4.209  11.790 -0.5146  0.1152 -0.3296
 1039SOL    HW114579   3.038   4.292  11.749 -1.5162  0.3316 -0.3959
 1039SOL    HW214580   3.095   4.191  11.843 -0.6006 -0.0261 -0.2493
 1040SOL     OW14581   2.805   0.956   8.114  0.1088  0.2623 -0.6731
 1040SOL    HW114582   2.739   0.889   8.098  0.5924 -0.4630  0.4010
 1040SOL    HW214583   2.839   0.967   8.025  0.6349  0.5792 -0.4294
 1041SOL     OW14584   1.466   2.011   9.456  0.4401  0.6365 -0.4052
 1041SOL    HW114585   1.444   1.920   9.435  2.5948  0.1170 -0.4409
 1041SOL    HW214586   1.526   2.043   9.388  0.2434  0.3625 -0.7081
 1042SOL     OW14587   1.520   3.195   3.680 -0.2426  0.2770 -0.4013
 1042SOL    HW114588   1.492   3.229   3.765  0.6443 -0.4838  0.2032
 1042SOL    HW214589   1.581   3.127   3.712 -0.0557 -0.1165 -1.5984
 1043SOL     OW14590   3.344   3.865   3.625 -0.0542 -0.4528 -0.1907
 1043SOL    HW114591   3.284   3.792   3.613  0.0820 -0.8987  1.7950
 1043SOL    HW214592   3.335   3.876   3.720 -2.6047 -0.5535 -0.4238
 1044SOL     OW14593   0.386   0.835   3.992 -0.3302  0.2892 -0.2232
 1044SOL    HW114594   0.446   0.779   3.943 -1.0484  1.0336 -1.9611
 1044SOL    HW214595   0.444   0.875   4.057 -1.2205  1.5284 -0.1917
 1045SOL     OW14596   2.101   2.232   6.788  0.5649 -0.0732 -0.2527
 1045SOL    HW114597   2.154   2.211   6.712 -0.1414  0.4330 -0.8840
 1045SOL    HW214598   2.017   2.218   6.745  1.3437  2.7159 -2.6339
 1046SOL     OW14599   2.796   2.125   7.041  0.0082 -0.0896 -0.0188
 1046SOL    HW114600   2.884   2.111   7.076  0.2641  0.2067 -0.5380
 1046SOL    HW214601   2.741   2.071   7.098  0.3275  0.4433  0.7994
 1047SOL     OW14602   2.468   0.876   2.651  0.0023  0.2302 -0.1166
 1047SOL    HW114603   2.522   0.872   2.730  0.6105  0.0394 -0.5391
 1047SOL    HW214604   2.394   0.925   2.686  0.3591 -0.1834  1.2563
 1048SOL     OW14605   1.662   4.633   8.695  0.0629 -0.2822  0.2979
 1048SOL    HW114606   1.732   4.617   8.757 -0.5704  0.4419  1.1944
 1048SOL    HW214607   1.670   4.563   8.630 -1.4956 -1.5388  1.4365
 1049SOL     OW14608   0.814   3.542   4.381  0.3356  0.2690 -0.7546
 1049SOL    HW114609   0.824   3.582   4.295  1.1264  2.1203  0.1747
 1049SOL    HW214610   0.887   3.589   4.423 -0.7705  1.4368 -0.1464
 1050SOL     OW14611   1.311   3.741  11.123 -0.1264 -0.3835  0.0505
 1050SOL    HW114612   1.398   3.780  11.117 -1.5367  2.7524 -0.0825
 1050SOL    HW214613   1.320   3.683  11.199 -0.0009  1.2811  1.3198
 1051SOL     OW14614   2.727   3.800  13.622  0.0040 -0.6486  0.2455
 1051SOL    HW114615   2.641   3.777  13.658 -0.5174  2.7283  1.1496
 1051SOL    HW214616   2.787   3.757  13.684 -0.2870 -0.7949  0.4266
 1052SOL     OW14617   4.680   0.566   1.208  0.0668 -0.0301  0.1504
 1052SOL    HW114618   4.633   0.619   1.272  1.5374  0.2171  1.0279
 1052SOL    HW214619   4.625   0.571   1.130 -1.3059 -0.8117  1.0698
 1053SOL     OW14620   1.617   0.556   3.075  0.3830  0.5055  0.1723
 1053SOL    HW114621   1.625   0.609   2.996  1.5864 -0.5970 -0.4524
 1053SOL    HW214622   1.707   0.559   3.109  0.1711 -3.0610  1.0967
 1054SOL     OW14623   3.725   3.674   7.256 -0.1532  0.1673  0.2433
 1054SOL    HW114624   3.645   3.643   7.300 -1.4886 -0.5965 -2.6909
 1054SOL    HW214625   3.733   3.758   7.301 -2.3531 -0.2457  1.4485
 1055SOL     OW14626   4.353   3.673   4.305 -0.1972  0.1294  0.1382
 1055SOL    HW114627   4.381   3.589   4.270  2.3029  1.0526 -0.0165
 1055SOL    HW214628   4.267   3.687   4.264 -0.2605  0.6010  0.4199
 1056SOL     OW14629   4.548   1.851  14.064  1.0243 -0.2428 -0.2168
 1056SOL    HW114630   4.498   1.858  14.145  0.7920  1.1307 -0.4783
 1056SOL    HW214631   4.517   1.769  14.026  0.1998 -0.9833  2.0469
 1057SOL     OW14632   0.998   1.531   5.438  0.0363  0.5121  0.6899
 1057SOL    HW114633   0.922   1.534   5.380 -1.3372  1.8510  2.5339
 1057SOL    HW214634   0.983   1.449   5.486 -1.1666 -1.0280 -2.3143
 1058SOL     OW14635   3.607   0.815   3.261  0.7498  0.3938 -0.1042
 1058SOL    HW114636   3.516   0.817   3.289 -0.3881  1.1802 -3.9216
 1058SOL    HW214637   3.619   0.881   3.193 -0.6966  2.1015  1.2990
 1059SOL     OW14638   2.118   0.519   7.077  0.0778 -0.0167 -0.2636
 1059SOL    HW114639   2.063   0.582   7.031 -1.3842 -1.7601 -0.8934
 1059SOL    HW214640   2.097   0.547   7.166 -0.8973 -1.1230 -0.1517
 1060SOL     OW14641   0.071   2.836   8.081  0.5303  0.2043 -0.1442
 1060SOL    HW114642   0.095   2.805   8.168  1.1346 -0.8146 -0.6787
 1060SOL    HW214643   0.133   2.908   8.068 -0.0342  1.0760  1.9393
 1061SOL     OW14644   1.285   4.294   4.416 -0.1773 -0.4515 -0.7961
 1061SOL    HW114645   1.253   4.208   4.389 -0.3156 -0.3138 -1.0823
 1061SOL    HW214646   1.248   4.348   4.345 -0.1994 -1.9718 -1.9373
 1062SOL     OW14647   0.329   0.722   7.043  0.0587 -0.5072 -0.5053
 1062SOL    HW114648   0.346   0.805   6.998  0.1410 -0.5559 -0.5639
 1062SOL    HW214649   0.404   0.675   7.008  0.9905 -0.7891  1.8682
 1063SOL     OW14650   0.469   2.393   7.299  0.4816  0.5526 -0.2041
 1063SOL    HW114651   0.390   2.340   7.287  0.3432  0.9455 -0.9878
 1063SOL    HW214652   0.522   2.331   7.349  0.1152  1.7662  1.6902
 1064SOL     OW14653   2.749   2.148  13.163  0.3881 -0.3010  1.1487
 1064SOL    HW114654   2.808   2.099  13.221 -0.9863 -2.4500  0.7510
 1064SOL    HW214655   2.667   2.133  13.211  1.0672 -1.6952  1.8711
 1065SOL     OW14656   2.173   2.887   4.533 -0.2250  0.0768 -0.2047
 1065SOL    HW114657   2.161   2.982   4.534 -1.7656 -0.1487  1.5558
 1065SOL    HW214658   2.164   2.867   4.440  1.7201  0.1725 -0.4291
 1066SOL     OW14659   0.058   0.797   0.968 -0.3085  0.4250 -0.2122
 1066SOL    HW114660   0.080   0.768   0.880  0.1470  0.4352 -0.1051
 1066SOL    HW214661   0.024   0.717   1.007 -0.1973  1.5632  2.2071
 1067SOL     OW14662   3.534   2.752   6.470  0.0143  0.1467  0.2632
 1067SOL    HW114663   3.497   2.778   6.386  0.6267  1.1343  0.3075
 1067SOL    HW214664   3.458   2.747   6.529 -0.1273 -2.7263 -0.1486
 1068SOL     OW14665   0.250   1.486   9.090 -0.2770 -0.5505  0.2347
 1068SOL    HW114666   0.156   1.468   9.086 -0.8002  2.8485 -2.5110
 1068SOL    HW214667   0.283   1.443   9.012  0.6527  0.3241  0.1407
 1069SOL     OW14668   1.148   4.267   6.275  0.1852 -0.0076  0.2019
 1069SOL    HW114669   1.181   4.247   6.187 -0.9671 -1.4960  0.0951
 1069SOL    HW214670   1.098   4.186   6.285 -2.7154  1.9077  1.2759
 1070SOL     OW14671   2.526   2.858  13.538 -0.1896  0.4167  0.2661
 1070SOL    HW114672   2.553   2.903  13.458  0.4031  0.9628  0.7738
 1070SOL    HW214673   2.467   2.926  13.569 -3.2510 -0.8199 -2.8430
 1071SOL     OW14674   4.356   0.789   6.006 -0.0991  0.6172  0.5363
 1071SOL    HW114675   4.368   0.754   5.918  1.6430  1.7296  0.3285
 1071SOL    HW214676   4.447   0.814   6.020  0.0199  1.2438 -1.3894
 1072SOL     OW14677   2.047   3.185   1.871  0.0578  0.0155 -0.0201
 1072SOL    HW114678   2.072   3.170   1.779 -0.4004 -0.7917 -0.0196
 1072SOL    HW214679   2.001   3.267   1.857 -0.9733 -0.1041  2.7085
 1073SOL     OW14680   4.515   2.003  16.598  0.1855  0.3850  0.5493
 1073SOL    HW114681   4.558   1.990  16.682 -0.9805 -1.4658  0.8498
 1073SOL    HW214682   4.557   2.087  16.576 -2.5913  0.9880 -2.3977
 1074SOL     OW14683   1.497   2.903   8.420  0.7724  0.4066  0.3071
 1074SOL    HW114684   1.546   2.823   8.437 -0.3463 -0.2102  0.6277
 1074SOL    HW214685   1.530   2.951   8.496 -0.1564  1.9809 -0.2925
 1075SOL     OW14686   1.674   1.118  17.159  0.4104  0.0758 -0.7937
 1075SOL    HW114687   1.742   1.185  17.147  0.6078 -0.3160 -1.8836
 1075SOL    HW214688   1.732   1.052  17.198 -0.1225 -0.1357 -0.3645
 1076SOL     OW14689   0.050   0.799   9.789 -0.0912  0.1640  0.3513
 1076SOL    HW114690   0.071   0.892   9.802 -3.2510  0.6600  1.8668
 1076SOL    HW214691   4.706   0.808   9.720  2.5611  2.0702 -1.9545
 1077SOL     OW14692   0.652   3.169   7.243 -0.7505  0.0941  0.2644
 1077SOL    HW114693   0.561   3.197   7.244 -0.7057  0.1946  1.5332
 1077SOL    HW214694   0.639   3.079   7.215 -2.1488 -0.7814  3.7392
 1078SOL     OW14695   2.756   3.319   4.819  0.0477  0.4464  0.6720
 1078SOL    HW114696   2.726   3.405   4.848  2.4659  0.4528  3.2609
 1078SOL    HW214697   2.847   3.342   4.800  0.6747  0.4252  3.6472
 1079SOL     OW14698   4.416   2.928  16.224  0.2442  0.4410  0.3171
 1079SOL    HW114699   4.425   3.021  16.245  0.4731  0.4147  0.3408
 1079SOL    HW214700   4.334   2.931  16.175  0.5773  0.8694 -0.2215
 1080SOL     OW14701   1.728   3.791   6.822  0.1672 -0.0105 -0.4444
 1080SOL    HW114702   1.645   3.834   6.838 -0.4546 -1.3515 -0.0290
 1080SOL    HW214703   1.791   3.848   6.865 -0.3011  1.5771 -1.8927
 1081SOL     OW14704   2.483   1.966   6.846 -0.0983 -0.4274 -0.3059
 1081SOL    HW114705   2.416   1.921   6.897  0.0958  0.2320  0.5303
 1081SOL    HW214706   2.457   1.950   6.755  1.4882  1.0929 -1.0169
 1082SOL     OW14707   0.460   0.452   9.016 -0.6202 -0.9543 -0.3644
 1082SOL    HW114708   0.421   0.368   9.043 -1.6448 -0.4281 -0.1859
 1082SOL    HW214709   0.467   0.504   9.096 -0.9809  0.4950 -1.2675
 1083SOL     OW14710   2.514   1.241  15.778 -0.0144 -0.7373 -0.2992
 1083SOL    HW114711   2.428   1.204  15.796 -1.1124  1.5524 -0.7704
 1083SOL    HW214712   2.523   1.240  15.682  0.0884  0.6810 -0.3111
 1084SOL     OW14713   4.363   2.357   4.749 -0.2851  0.3450  0.5293
 1084SOL    HW114714   4.314   2.276   4.734 -1.6025  1.2863 -0.2693
 1084SOL    HW214715   4.306   2.415   4.698  0.4142 -0.3779 -1.0477
 1085SOL     OW14716   0.558   0.219   1.328 -0.9187 -0.0941 -0.1761
 1085SOL    HW114717   0.547   0.311   1.302 -0.7376 -0.1558 -0.4734
 1085SOL    HW214718   0.513   0.183   1.251 -3.4564  0.9402  0.8115
 1086SOL     OW14719   2.161   4.203   7.489  0.1129  0.3816 -0.3482
 1086SOL    HW114720   2.201   4.279   7.448  0.3067 -0.0781 -1.0149
 1086SOL    HW214721   2.176   4.231   7.579 -2.0553  1.8539 -0.4583
 1087SOL     OW14722   4.390   4.024  12.043  0.2958 -0.0060  0.2307
 1087SOL    HW114723   4.341   4.080  11.984 -0.2157 -0.8778 -0.1766
 1087SOL    HW214724   4.320   3.982  12.093  1.8225 -1.5169  1.1044
 1088SOL     OW14725   0.939   2.865   6.622  0.5153 -0.7395  0.0157
 1088SOL    HW114726   0.993   2.836   6.548  0.0002  0.9022 -0.9933
 1088SOL    HW214727   0.965   2.957   6.625  2.7746 -1.3632 -0.1470
 1089SOL     OW14728   2.300   3.179   3.516  0.1942 -0.3726 -0.0749
 1089SOL    HW114729   2.254   3.233   3.451  1.9442 -0.6687 -1.5740
 1089SOL    HW214730   2.306   3.237   3.592 -1.8863  0.1465 -0.3158
 1090SOL     OW14731   1.694   0.266   7.005 -0.0698  0.2809  0.1982
 1090SOL    HW114732   1.707   0.325   7.079 -2.4648 -0.6248  1.3243
 1090SOL    HW214733   1.777   0.275   6.959  0.8606 -1.5243  1.5221
 1091SOL     OW14734   2.778   3.126   2.254  0.2298  0.3874 -0.3791
 1091SOL    HW114735   2.772   3.202   2.312  0.3679 -0.3106  0.5519
 1091SOL    HW214736   2.848   3.076   2.296  1.8148  1.4540 -1.7539
 1092SOL     OW14737   3.843   2.019   3.971 -0.4694  0.8120 -0.0223
 1092SOL    HW114738   3.867   2.097   3.920  0.8846  1.8627  2.2473
 1092SOL    HW214739   3.843   1.947   3.907  0.1417  0.6814  0.1171
 1093SOL     OW14740   0.347   2.929  11.054 -0.9804 -0.2448 -0.1141
 1093SOL    HW114741   0.292   2.871  11.002  0.6350 -1.5646 -0.3640
 1093SOL    HW214742   0.289   2.939  11.129 -0.5364 -0.3719  0.2524
 1094SOL     OW14743   3.544   2.386   7.686 -0.1323  0.0609  0.5476
 1094SOL    HW114744   3.482   2.454   7.661 -1.9321 -1.4428  0.9320
 1094SOL    HW214745   3.623   2.433   7.657 -0.7275  0.2059 -0.8253
 1095SOL     OW14746   3.222   4.294  10.091 -0.0683 -0.7601  0.3466
 1095SOL    HW114747   3.218   4.375  10.141 -1.5676 -0.2953 -0.5427
 1095SOL    HW214748   3.313   4.287  10.060  0.2043  2.2155  0.5014
 1096SOL     OW14749   2.301   0.502   4.306 -0.1308 -0.6944  0.3417
 1096SOL    HW114750   2.382   0.517   4.355 -0.5618 -2.0589  1.4852
 1096SOL    HW214751   2.244   0.492   4.383 -2.5832  0.6267 -1.3173
 1097SOL     OW14752   0.264   4.134   3.366  0.0363  0.0490  0.5155
 1097SOL    HW114753   0.305   4.089   3.292 -0.6442 -2.2078  1.4933
 1097SOL    HW214754   0.223   4.210   3.326  1.2946  0.6163  0.3077
 1098SOL     OW14755   2.978   1.888   6.687 -0.1967 -0.1692  0.2004
 1098SOL    HW114756   2.886   1.902   6.710 -0.9940 -4.3122 -0.4316
 1098SOL    HW214757   2.976   1.895   6.591  0.5257 -2.2759  0.0399
 1099SOL     OW14758   4.220   1.383  16.597  0.2252  0.2169  0.2122
 1099SOL    HW114759   4.268   1.465  16.582  0.6390  0.3634  2.3402
 1099SOL    HW214760   4.173   1.375  16.514  0.3993 -2.0239  0.3355
 1100SOL     OW14761   3.231   0.357  16.126  0.8710 -0.3307  0.4531
 1100SOL    HW114762   3.319   0.331  16.098  0.6265  2.2063 -2.6462
 1100SOL    HW214763   3.187   0.381  16.045  0.9223 -0.6553  0.3274
 1101SOL     OW14764   3.547   2.170   3.729  0.6922  0.6655 -0.1779
 1101SOL    HW114765   3.558   2.112   3.654 -0.1521 -0.9022  0.9076
 1101SOL    HW214766   3.461   2.206   3.708 -1.6010 -2.9322  3.0546
 1102SOL     OW14767   0.792   2.530   1.484 -0.3957 -0.2029  0.1472
 1102SOL    HW114768   0.751   2.459   1.533  0.4504 -1.7927 -1.4810
 1102SOL    HW214769   0.773   2.507   1.394  0.9978  1.4417 -0.5814
 1103SOL     OW14770   2.528   3.685   4.246  0.2267 -0.1467  0.2223
 1103SOL    HW114771   2.502   3.603   4.203  1.0620 -0.6646  0.7078
 1103SOL    HW214772   2.587   3.653   4.314  0.0805  1.5301  1.1405
 1104SOL     OW14773   3.424   1.074   2.960  0.2829 -0.1267 -0.8216
 1104SOL    HW114774   3.440   1.045   2.870  0.2888 -1.5969 -0.3529
 1104SOL    HW214775   3.333   1.046   2.972 -0.3550  1.8175 -1.1471
 1105SOL     OW14776   4.402   4.226   5.567  0.9068 -0.3297  0.9430
 1105SOL    HW114777   4.464   4.298   5.566 -1.9903  2.1037 -2.8104
 1105SOL    HW214778   4.354   4.247   5.647  1.2779 -0.9532  1.3388
 1106SOL     OW14779   3.711   3.575   2.416 -0.0776 -0.1524 -0.5680
 1106SOL    HW114780   3.649   3.540   2.353  1.7571  0.4168 -2.6644
 1106SOL    HW214781   3.733   3.663   2.386  0.9173  0.3694  1.6770
 1107SOL     OW14782   1.993   1.027   5.443 -0.0863  0.6811  0.0061
 1107SOL    HW114783   2.045   1.031   5.524 -1.9682  1.2497  1.1933
 1107SOL    HW214784   1.952   1.113   5.440 -0.6731  0.3713 -0.7161
 1108SOL     OW14785   2.614   3.165   6.327  0.5319  0.1304  0.2070
 1108SOL    HW114786   2.670   3.232   6.364  1.1521  0.1536 -0.7574
 1108SOL    HW214787   2.576   3.126   6.406  2.6448  0.5986  1.4500
 1109SOL     OW14788   2.093   3.597   2.666  0.2673 -0.1531 -0.3952
 1109SOL    HW114789   2.029   3.553   2.611 -2.0364  1.1289  1.2748
 1109SOL    HW214790   2.140   3.654   2.605 -1.4029 -0.2853 -1.7772
 1110SOL     OW14791   4.083   0.079  11.235 -0.0350  0.1270  0.3086
 1110SOL    HW114792   4.027   0.002  11.241  1.1510 -0.6903  0.9899
 1110SOL    HW214793   4.149   0.045  11.174  0.1766  0.5005  0.3310
 1111SOL     OW14794   3.066   3.866  16.431 -0.2587  0.4346 -0.4488
 1111SOL    HW114795   3.109   3.951  16.427 -1.1155  0.9006  0.2299
 1111SOL    HW214796   2.978   3.898  16.410 -0.3190  1.4595  1.3372
 1112SOL     OW14797   2.418   3.661  12.404  0.2471 -0.0399  0.3146
 1112SOL    HW114798   2.496   3.643  12.456 -1.3844 -0.6684  2.5398
 1112SOL    HW214799   2.363   3.674  12.481  0.6478 -0.0020  0.5922
 1113SOL     OW14800   1.115   4.534   3.498 -0.2062  0.2252  0.3928
 1113SOL    HW114801   1.201   4.564   3.468 -0.0500 -2.2601 -1.6220
 1113SOL    HW214802   1.142   4.462   3.555 -0.4144 -0.7827 -0.8114
 1114SOL     OW14803   1.176   2.221   4.176 -0.7191 -0.4097  0.0298
 1114SOL    HW114804   1.208   2.292   4.233 -0.3688 -1.2395  0.8741
 1114SOL    HW214805   1.235   2.237   4.102 -2.6063 -1.4882 -1.6818
 1115SOL     OW14806   3.692   1.823   4.067 -0.4935  0.7761 -0.0823
 1115SOL    HW114807   3.711   1.917   4.066  3.0240  0.0810  0.4110
 1115SOL    HW214808   3.629   1.816   3.996  0.5082  0.5268 -0.9411
 1116SOL     OW14809   3.754   1.183   7.688 -0.5285  0.2174  0.1863
 1116SOL    HW114810   3.738   1.218   7.776 -0.0391 -0.3596  0.5032
 1116SOL    HW214811   3.782   1.097   7.719  0.6982  1.2820  1.9839
 1117SOL     OW14812   1.595   1.631  11.819  0.4764  0.1535  0.3274
 1117SOL    HW114813   1.529   1.644  11.751  0.5842  0.5136  0.2917
 1117SOL    HW214814   1.547   1.581  11.886  1.3256 -0.0832  0.7601
 1118SOL     OW14815   3.858   1.360   8.467 -0.7573  0.0375  0.7569
 1118SOL    HW114816   3.788   1.334   8.526 -0.1938  0.3548  1.5690
 1118SOL    HW214817   3.935   1.332   8.517 -0.1807 -0.0335 -0.1601
 1119SOL     OW14818   2.493   3.927   9.008  0.0392 -0.4575 -0.1853
 1119SOL    HW114819   2.560   3.933   8.940  0.1517 -3.8280 -0.4045
 1119SOL    HW214820   2.416   3.968   8.969  0.8216 -1.1196 -2.4657
 1120SOL     OW14821   4.678   4.306  10.786  0.5040 -0.2689 -0.4182
 1120SOL    HW114822   4.704   4.365  10.715  0.1362  0.6954  0.2430
 1120SOL    HW214823   4.632   4.362  10.849  0.7403 -1.3211  0.6662
 1121SOL     OW14824   1.532   0.931  10.826 -0.1681  0.3666  0.0549
 1121SOL    HW114825   1.545   0.998  10.893  0.8062  0.5642 -0.3171
 1121SOL    HW214826   1.585   0.861  10.864 -1.7535 -0.9083 -0.0933
 1122SOL     OW14827   3.079   2.341   6.196  0.3420 -0.0046 -0.2247
 1122SOL    HW114828   2.995   2.299   6.214  0.1407  0.0084 -1.1264
 1122SOL    HW214829   3.094   2.307   6.108 -0.8299 -2.2236  0.4411
 1123SOL     OW14830   1.956   0.952   3.776 -0.3724  0.2860 -0.0233
 1123SOL    HW114831   2.047   0.958   3.803 -0.6414 -0.8816  1.1068
 1123SOL    HW214832   1.923   0.883   3.833 -0.6842 -1.4557 -2.3189
 1124SOL     OW14833   2.117   2.155   7.315 -0.4046  0.2407  1.1734
 1124SOL    HW114834   2.098   2.179   7.225 -1.5491  0.7247  1.5420
 1124SOL    HW214835   2.194   2.100   7.301 -0.5993 -0.1102  1.4926
 1125SOL     OW14836   1.777   4.019  11.760 -0.4667  0.0070  0.3169
 1125SOL    HW114837   1.753   3.929  11.738 -0.0606 -0.0032 -0.0984
 1125SOL    HW214838   1.798   4.012  11.853 -0.0565 -0.9903  0.1535
 1126SOL     OW14839   2.315   3.338  11.221  0.3536 -0.1417  0.4711
 1126SOL    HW114840   2.220   3.324  11.212  0.2250 -0.6498  2.5269
 1126SOL    HW214841   2.324   3.407  11.156 -3.1370 -0.5906 -0.5270
 1127SOL     OW14842   1.627   0.162   4.220 -0.1464 -0.2584 -0.0127
 1127SOL    HW114843   1.594   0.162   4.131  1.5471 -0.5440 -0.6400
 1127SOL    HW214844   1.560   0.115   4.270 -0.4517  0.7498  0.5272
 1128SOL     OW14845   3.133   1.645   6.314  0.0612  0.3653 -0.2147
 1128SOL    HW114846   3.051   1.642   6.265 -2.5069 -0.8654  4.1926
 1128SOL    HW214847   3.198   1.641   6.243 -1.2622 -3.0518 -1.2123
 1129SOL     OW14848   1.695   3.833   7.935 -0.0429 -0.4203  0.0129
 1129SOL    HW114849   1.688   3.922   7.899  0.7318 -0.4569 -0.2275
 1129SOL    HW214850   1.716   3.848   8.027  0.6041 -2.4142  0.1911
 1130SOL     OW14851   1.057   3.176  15.135 -0.8683  0.2881  0.7861
 1130SOL    HW114852   1.086   3.105  15.193 -1.5407 -0.7216 -0.1196
 1130SOL    HW214853   1.135   3.231  15.146  1.0387 -2.2537 -0.0997
 1131SOL     OW14854   2.737   3.126   9.356 -0.1488  0.1873  0.0610
 1131SOL    HW114855   2.664   3.117   9.295 -0.5603 -3.4981  1.1047
 1131SOL    HW214856   2.717   3.204   9.407  0.3514  0.0277  0.5009
 1132SOL     OW14857   3.735   1.801   5.922 -0.0768 -0.1173  0.2255
 1132SOL    HW114858   3.747   1.798   5.827 -0.1025  1.3200  0.1774
 1132SOL    HW214859   3.728   1.895   5.938 -1.2384 -0.2089  0.2397
 1133SOL     OW14860   3.492   4.560  13.941  0.2663 -0.2139  0.5130
 1133SOL    HW114861   3.502   4.507  13.863 -1.3132  0.6276 -0.2664
 1133SOL    HW214862   3.479   4.641  13.891  0.2048 -0.5034  0.0661
 1134SOL     OW14863   3.148   0.212   4.672 -0.3556  0.0416  0.3025
 1134SOL    HW114864   3.122   0.282   4.612 -2.4960 -1.5745 -0.6787
 1134SOL    HW214865   3.218   0.247   4.726 -1.9379 -0.1376  2.5140
 1135SOL     OW14866   0.776   3.938  11.740  0.3181 -0.0021  0.1141
 1135SOL    HW114867   0.831   3.950  11.663  2.1065  0.3506  1.4541
 1135SOL    HW214868   0.794   3.844  11.752  0.6651 -0.1061 -1.2336
 1136SOL     OW14869   3.038   1.786   4.762  0.1122 -0.0414 -0.5339
 1136SOL    HW114870   3.061   1.861   4.818 -0.3490  0.5189 -1.0992
 1136SOL    HW214871   3.124   1.745   4.754 -0.5202 -1.8409  1.9464
 1137SOL     OW14872   1.679   3.601  10.988 -1.3099  0.4225 -0.2854
 1137SOL    HW114873   1.663   3.690  10.956  1.5105  0.6601 -1.0609
 1137SOL    HW214874   1.758   3.608  11.042 -0.9627  4.0839 -1.2781
 1138SOL     OW14875   0.109   2.285   2.618  0.1009  0.2140 -0.7553
 1138SOL    HW114876   0.127   2.220   2.551  0.9121  0.0055 -0.3295
 1138SOL    HW214877   0.177   2.351   2.603  0.9439 -0.1286  1.7328
 1139SOL     OW14878   3.530   2.871   3.475 -0.7898  0.7288 -0.0153
 1139SOL    HW114879   3.506   2.839   3.561 -1.9709 -1.0568 -1.0064
 1139SOL    HW214880   3.611   2.910   3.507 -1.8461  2.6397  0.3245
 1140SOL     OW14881   1.009   1.740   2.141 -0.5304 -0.2825  0.5136
 1140SOL    HW114882   1.072   1.680   2.102  0.0353  1.7835 -1.7823
 1140SOL    HW214883   0.955   1.679   2.191 -0.1281 -0.3630  0.8455
 1141SOL     OW14884   4.148   2.625  17.104 -0.6100  0.0448  0.5539
 1141SOL    HW114885   4.152   2.710  17.148  0.2893 -0.1064  0.7562
 1141SOL    HW214886   4.202   2.641  17.027 -0.1054 -0.5104  0.7967
 1142SOL     OW14887   0.235   1.867  12.497  0.0151 -0.3041  0.0038
 1142SOL    HW114888   0.222   1.962  12.500  2.7719  0.1481 -2.1536
 1142SOL    HW214889   0.290   1.854  12.419 -2.2154  0.1687 -1.6436
 1143SOL     OW14890   2.536   0.186  12.211 -0.6473  0.0586  0.0332
 1143SOL    HW114891   2.555   0.166  12.120 -0.4473 -0.4587  0.1897
 1143SOL    HW214892   2.477   0.117  12.241  0.6578  0.6784  4.1527
 1144SOL     OW14893   2.411   2.799   9.328  0.3475  0.4972  0.1764
 1144SOL    HW114894   2.365   2.789   9.244  1.5635  2.5091 -0.7264
 1144SOL    HW214895   2.421   2.706   9.350  1.3042  0.3683 -0.7689
 1145SOL     OW14896   3.822   3.879   4.231 -0.1291  0.2135  0.2370
 1145SOL    HW114897   3.741   3.847   4.191  1.0466  0.2326 -2.1306
 1145SOL    HW214898   3.805   3.973   4.238  0.6583  0.4204 -0.6839
 1146SOL     OW14899   2.140   0.700   7.825  0.1274  0.0384 -0.2217
 1146SOL    HW114900   2.131   0.764   7.896  0.4772  0.9074 -0.9586
 1146SOL    HW214901   2.226   0.665   7.851 -1.1179 -1.9123  1.2672
 1147SOL     OW14902   1.872   1.840   3.170 -0.1790 -0.8576  0.0288
 1147SOL    HW114903   1.831   1.765   3.213 -1.2499  0.2125  0.8693
 1147SOL    HW214904   1.844   1.910   3.229  0.1756  0.0817 -0.9092
 1148SOL     OW14905   0.284   3.436   2.856  0.0292  0.3176 -0.0966
 1148SOL    HW114906   0.284   3.392   2.771 -1.1272 -1.6740  0.9340
 1148SOL    HW214907   0.236   3.369   2.905  0.9778  0.4286  0.9833
 1149SOL     OW14908   3.837   1.636  11.497 -0.7663  0.4166 -0.0804
 1149SOL    HW114909   3.773   1.707  11.490 -0.0291  0.8439 -2.8438
 1149SOL    HW214910   3.807   1.595  11.577 -2.5229  0.0808 -0.9141
 1150SOL     OW14911   2.442   2.596  12.935 -0.1641  0.6308  0.0550
 1150SOL    HW114912   2.416   2.688  12.930 -2.0977  0.2859  4.1049
 1150SOL    HW214913   2.426   2.578  12.842 -2.0756 -1.4542  0.7865
 1151SOL     OW14914   2.351   0.090   6.061 -0.5862  0.0010  0.0903
 1151SOL    HW114915   2.418   0.146   6.022  0.9944 -2.4482 -0.6889
 1151SOL    HW214916   2.317   0.155   6.123 -1.0548 -0.6168  0.4816
 1152SOL     OW14917   0.430   3.530   8.248  0.1497 -0.1269  0.1765
 1152SOL    HW114918   0.456   3.570   8.332  2.0133 -0.1849 -0.3722
 1152SOL    HW214919   0.335   3.530   8.240  0.0424  0.1622  1.4163
 1153SOL     OW14920   0.649   4.267   7.933 -0.1028  0.1563  0.0140
 1153SOL    HW114921   0.574   4.323   7.912  0.5988  1.6178  1.4770
 1153SOL    HW214922   0.647   4.288   8.026 -1.8804  1.1608 -0.2435
 1154SOL     OW14923   1.652   2.457   2.474  0.4822  0.2391  0.2697
 1154SOL    HW114924   1.645   2.384   2.411 -0.7842  0.2418  0.4129
 1154SOL    HW214925   1.726   2.508   2.440 -0.0399 -0.7330 -2.3523
 1155SOL     OW14926   4.420   2.832   7.151 -0.1879  0.0542  0.4990
 1155SOL    HW114927   4.430   2.789   7.236 -0.5548 -3.2352 -1.1093
 1155SOL    HW214928   4.493   2.893   7.142 -2.3150  2.4309 -0.5745
 1156SOL     OW14929   4.536   1.365  13.299  0.3938  0.4380  0.2478
 1156SOL    HW114930   4.542   1.321  13.383  2.7987 -1.0583 -0.7013
 1156SOL    HW214931   4.583   1.444  13.327 -0.8648  0.9454  0.9334
 1157SOL     OW14932   0.513   3.683   6.272 -0.4773 -0.1753 -0.2502
 1157SOL    HW114933   0.455   3.687   6.348 -1.4045  1.3896 -1.0503
 1157SOL    HW214934   0.527   3.588   6.262  0.7533  0.0337 -0.4066
 1158SOL     OW14935   0.302   1.569  17.049 -0.2785 -0.1279 -0.1455
 1158SOL    HW114936   0.293   1.480  17.014 -1.5354  0.3208 -0.9334
 1158SOL    HW214937   0.214   1.600  17.068 -0.4247 -1.5942  1.6849
 1159SOL     OW14938   2.953   4.301  13.470 -0.8570  0.3576  0.3055
 1159SOL    HW114939   2.883   4.256  13.516  0.6989  0.3810  2.7225
 1159SOL    HW214940   3.015   4.230  13.456  0.7481  1.4416  1.8433
 1160SOL     OW14941   3.756   0.382  11.316  0.0940  0.8087 -1.0283
 1160SOL    HW114942   3.820   0.442  11.355 -0.4582  1.2326 -0.7767
 1160SOL    HW214943   3.804   0.349  11.241  0.6987 -0.2921 -0.1620
 1161SOL     OW14944   1.010   0.229   4.205  0.1236  0.1380 -0.1028
 1161SOL    HW114945   0.939   0.294   4.212 -0.1814 -0.2538  0.4072
 1161SOL    HW214946   0.995   0.183   4.122  1.3804  2.3581 -1.5649
 1162SOL     OW14947   4.050   1.537   7.728  0.0961  0.2467 -0.1671
 1162SOL    HW114948   3.987   1.561   7.660  0.0386 -0.7223 -0.4612
 1162SOL    HW214949   4.066   1.621   7.771 -1.2649  0.1414  0.5479
 1163SOL     OW14950   2.502   2.867   2.658 -0.0346 -0.2094 -0.4013
 1163SOL    HW114951   2.586   2.882   2.616  0.0455  0.6503  0.0670
 1163SOL    HW214952   2.445   2.908   2.593 -2.2949 -0.4494  1.4153
 1164SOL     OW14953   4.294   3.238   1.882  0.0253 -0.1330  0.4966
 1164SOL    HW114954   4.219   3.264   1.828  0.0562  0.8065  0.9072
 1164SOL    HW214955   4.340   3.321   1.870 -1.3706  0.4402 -0.8480
 1165SOL     OW14956   3.676   4.018   2.913 -0.3760  0.1349  0.0086
 1165SOL    HW114957   3.680   4.020   3.008  0.1484 -1.1825  0.0076
 1165SOL    HW214958   3.721   3.933   2.912  1.1801  0.9592 -0.4600
 1166SOL     OW14959   1.504   2.212   2.810  0.6101  0.2475 -0.0837
 1166SOL    HW114960   1.443   2.235   2.740 -2.0441  2.3089  2.9115
 1166SOL    HW214961   1.479   2.257   2.890  3.1729 -1.1397  1.5144
 1167SOL     OW14962   2.565   3.184   2.782  0.1736 -0.3966  0.0456
 1167SOL    HW114963   2.555   3.220   2.694  1.0199 -1.3458 -0.4375
 1167SOL    HW214964   2.660   3.173   2.792 -0.3042 -2.2215  2.5978
 1168SOL     OW14965   2.212   3.878   7.654 -0.7929  0.6281 -0.5353
 1168SOL    HW114966   2.157   3.877   7.575 -0.2784  1.0824 -0.8967
 1168SOL    HW214967   2.279   3.930   7.610 -0.4122  0.5139 -0.0811
 1169SOL     OW14968   1.406   0.392   1.760 -0.3760  0.0003 -0.0883
 1169SOL    HW114969   1.435   0.329   1.826 -0.0676  1.7154  1.4212
 1169SOL    HW214970   1.474   0.394   1.692 -1.5245 -0.1998 -1.2355
 1170SOL     OW14971   0.702   0.592   1.823  0.5554 -0.3390 -0.1248
 1170SOL    HW114972   0.676   0.505   1.795  0.1240 -0.1973 -0.1586
 1170SOL    HW214973   0.645   0.650   1.773  0.7242 -0.4845 -0.4814
 1171SOL     OW14974   3.666   2.622   5.231  0.3987 -0.1448  0.5286
 1171SOL    HW114975   3.619   2.699   5.262 -1.6951 -0.4155 -1.9189
 1171SOL    HW214976   3.711   2.663   5.157 -1.9710 -1.0682 -1.4563
 1172SOL     OW14977   2.620   2.506  16.739 -0.0853  0.1346 -0.3707
 1172SOL    HW114978   2.651   2.592  16.767 -1.6735  0.3073  0.9409
 1172SOL    HW214979   2.634   2.459  16.822  1.6893  2.4739  0.6614
 1173SOL     OW14980   2.899   4.103   5.959  0.1388 -0.2754 -0.4073
 1173SOL    HW114981   2.962   4.050   6.008  0.3198  0.3561  0.0489
 1173SOL    HW214982   2.917   4.068   5.872 -0.2692 -2.9351  0.5481
 1174SOL     OW14983   1.205   0.594   6.782  0.2322 -0.0930  0.3179
 1174SOL    HW114984   1.249   0.671   6.745  2.0920 -0.4889  1.6646
 1174SOL    HW214985   1.240   0.595   6.871 -0.0472  1.1514  0.4240
 1175SOL     OW14986   3.518   3.755   4.839  0.0327  0.3298  0.1109
 1175SOL    HW114987   3.600   3.787   4.877  1.0169 -1.2243 -0.6817
 1175SOL    HW214988   3.506   3.821   4.771  0.9817  0.2150 -0.1624
 1176SOL     OW14989   1.183   3.746   7.664  0.5880  0.1485  0.0688
 1176SOL    HW114990   1.211   3.693   7.738  3.1665  1.6153  0.1582
 1176SOL    HW214991   1.108   3.693   7.636 -0.6604  2.4893 -0.9395
 1177SOL     OW14992   4.675   1.408   4.689 -0.0509  0.1876  0.3753
 1177SOL    HW114993   4.679   1.491   4.736 -1.5450 -0.2394  1.2496
 1177SOL    HW214994   4.695   1.435   4.599  1.7327  1.1439  1.0661
 1178SOL     OW14995   0.829   0.151   3.706 -0.3151 -0.4938  0.0811
 1178SOL    HW114996   0.742   0.116   3.687 -0.4246 -0.3209  0.2614
 1178SOL    HW214997   0.881   0.087   3.657  0.9143  1.4980 -1.2043
 1179SOL     OW14998   0.036   1.249   9.086 -0.2727  0.0971  0.3626
 1179SOL    HW114999   0.081   1.188   9.028 -0.8339  1.1456 -1.1825
 1179SOL    HW215000   0.017   1.190   9.159  2.3583 -1.0871  0.1111
 1180SOL     OW15001   4.524   0.493   2.945 -1.0089  0.7280 -0.0594
 1180SOL    HW115002   4.510   0.561   2.878 -1.6613  0.8379  0.1881
 1180SOL    HW215003   4.451   0.436   2.921 -1.0479  0.1761  1.4110
 1181SOL     OW15004   1.284   1.844  11.415  0.3140 -0.2954 -0.4345
 1181SOL    HW115005   1.219   1.911  11.436  0.7296 -0.5485  1.6960
 1181SOL    HW215006   1.230   1.767  11.397  1.4427 -1.1573 -0.1346
 1182SOL     OW15007   3.758   3.182   2.821 -0.2240  0.0992 -0.8229
 1182SOL    HW115008   3.684   3.146   2.870  1.2626  0.4103  1.6360
 1182SOL    HW215009   3.818   3.108   2.811 -1.8616 -1.1404 -1.4794
 1183SOL     OW15010   0.250   0.478  13.728  0.3805 -0.2190 -0.1384
 1183SOL    HW115011   0.173   0.515  13.771  1.4498  0.7839  0.9284
 1183SOL    HW215012   0.280   0.560  13.689 -1.2804 -0.4175 -1.8076
 1184SOL     OW15013   4.065   1.642   3.083  0.3240 -0.0624 -0.3624
 1184SOL    HW115014   4.062   1.608   3.172  0.0463  0.6601 -0.0916
 1184SOL    HW215015   4.046   1.567   3.027  0.3780 -1.6990  1.8033
 1185SOL     OW15016   1.006   4.704   4.358  0.1832 -0.2862 -0.4835
 1185SOL    HW115017   1.082   4.720   4.415 -0.8145 -0.4203  0.8690
 1185SOL    HW215018   1.000   0.058   4.300  1.4415 -0.5479 -0.9537
 1186SOL     OW15019   3.287   3.420   2.722  0.8468  0.7228 -0.0524
 1186SOL    HW115020   3.371   3.389   2.688 -0.2380 -0.2982 -1.7907
 1186SOL    HW215021   3.315   3.469   2.799  0.4161 -0.8759  1.1424
 1187SOL     OW15022   2.718   3.596   5.886 -0.0168  0.1822  0.3845
 1187SOL    HW115023   2.648   3.531   5.890  3.4349 -3.7179 -3.0715
 1187SOL    HW215024   2.715   3.632   5.974  0.1414  1.7991 -0.2670
 1188SOL     OW15025   2.348   1.856  10.658 -0.2210  0.2994 -0.3168
 1188SOL    HW115026   2.414   1.822  10.718 -1.7016 -0.0751  1.1099
 1188SOL    HW215027   2.365   1.946  10.686  0.4646 -0.1100  0.6004
 1189SOL     OW15028   1.056   1.571   1.853 -0.2072  0.2455  0.4569
 1189SOL    HW115029   1.147   1.580   1.823  0.9579 -0.5986  3.6977
 1189SOL    HW215030   1.027   1.662   1.848  1.9789  0.8926 -0.5386
 1190SOL     OW15031   2.118   2.749   2.059  0.5860 -0.1538  0.3424
 1190SOL    HW115032   2.068   2.681   2.103 -0.4937 -0.3488 -1.1873
 1190SOL    HW215033   2.120   2.718   1.968  2.1939 -0.0853  0.3535
 1191SOL     OW15034   0.830   3.665   0.506  0.2233 -0.2982  0.1629
 1191SOL    HW115035   0.839   3.693   0.597 -1.1494 -2.3050  0.9295
 1191SOL    HW215036   0.922   3.640   0.501  0.4365  0.2422  1.4024
 1192SOL     OW15037   0.688   1.740   4.300  0.3861 -0.1148  0.1963
 1192SOL    HW115038   0.740   1.793   4.240  1.6643 -1.3243  0.2452
 1192SOL    HW215039   0.744   1.721   4.375 -0.2701  1.0070  0.9796
 1193SOL     OW15040   0.520   1.345  14.718 -0.2812  0.1139  0.4294
 1193SOL    HW115041   0.599   1.295  14.741  0.3858  0.7452 -0.4786
 1193SOL    HW215042   0.533   1.419  14.778 -2.4347 -2.1031  3.6073
 1194SOL     OW15043   2.661   4.567   8.814  0.5414  0.7363 -0.2167
 1194SOL    HW115044   2.685   4.630   8.882 -0.5996  2.1849 -1.1639
 1194SOL    HW215045   2.723   4.496   8.829 -0.4404  0.1666  1.1802
 1195SOL     OW15046   1.273   2.374   5.440 -0.5123 -0.3465 -0.0621
 1195SOL    HW115047   1.278   2.470   5.445  2.2751 -0.5744  1.3653
 1195SOL    HW215048   1.357   2.344   5.473 -0.4136 -1.2808 -1.1685
 1196SOL     OW15049   3.590   0.489   8.416 -0.3355 -0.7158  0.4594
 1196SOL    HW115050   3.551   0.417   8.467 -0.2859 -1.6592 -0.8501
 1196SOL    HW215051   3.656   0.436   8.371 -0.3064 -0.5531  0.3118
 1197SOL     OW15052   1.738   1.703   6.625 -0.5824  0.0955 -0.4127
 1197SOL    HW115053   1.825   1.742   6.613 -0.2966  0.1499  1.7584
 1197SOL    HW215054   1.694   1.753   6.556 -2.1712 -0.2871  0.3308
 1198SOL     OW15055   1.011   3.572  10.433  0.2430  0.1877  0.2546
 1198SOL    HW115056   0.970   3.520  10.363  0.7752 -0.5894  0.5127
 1198SOL    HW215057   1.021   3.513  10.508  0.8478  0.6660  0.5509
 1199SOL     OW15058   2.848   2.802   7.186 -0.4084 -0.6097 -0.3589
 1199SOL    HW115059   2.822   2.734   7.124  1.0730 -1.6632  0.1476
 1199SOL    HW215060   2.848   2.750   7.266 -0.1841  2.0470  1.3748
 1200SOL     OW15061   2.978   0.381  15.811  0.2172  0.6354 -0.5185
 1200SOL    HW115062   3.018   0.464  15.787  0.2672  0.9922  0.7824
 1200SOL    HW215063   2.886   0.405  15.822  0.5420  1.3600  0.6039
 1201SOL     OW15064   1.787   0.840   4.943  0.3032 -1.0432  0.5260
 1201SOL    HW115065   1.804   0.747   4.958 -1.6299 -1.3896  0.5325
 1201SOL    HW215066   1.721   0.825   4.876 -1.6263 -0.9768  2.4313
 1202SOL     OW15067   3.362   1.724   0.041  0.0934 -0.2856 -0.4325
 1202SOL    HW115068   3.406   1.803   0.072 -2.4381 -0.5263  3.7533
 1202SOL    HW215069   3.418   1.656   0.078  2.0186  0.5007 -1.9230
 1203SOL     OW15070   3.914   2.861   5.907 -0.4867 -0.2670  0.2918
 1203SOL    HW115071   3.876   2.816   5.832  1.4025  1.0167 -1.4292
 1203SOL    HW215072   3.992   2.806   5.918  0.7447  1.5731  0.8216
 1204SOL     OW15073   1.011   3.714   8.066  0.1246  0.1677  0.3584
 1204SOL    HW115074   0.965   3.655   8.125 -0.5749 -2.9094 -3.2976
 1204SOL    HW215075   0.941   3.774   8.040 -1.0196 -1.2868  0.1089
 1205SOL     OW15076   3.192   4.334   5.743  0.0124  0.2702  0.0198
 1205SOL    HW115077   3.266   4.353   5.801  0.9692 -1.1938 -0.7426
 1205SOL    HW215078   3.217   4.387   5.667 -1.5207  2.2414  0.8827
 1206SOL     OW15079   3.184   3.918   7.995  0.0111  0.1826 -0.4842
 1206SOL    HW115080   3.143   3.990   8.043 -0.0454  1.5083 -2.5474
 1206SOL    HW215081   3.108   3.861   7.984  0.3404 -0.5955  1.1666
 1207SOL     OW15082   3.488   2.877   3.951 -0.3264  0.2213 -0.1525
 1207SOL    HW115083   3.468   2.963   3.987  1.3441  1.4679 -2.2255
 1207SOL    HW215084   3.508   2.835   4.035 -0.4617  0.1545 -0.1534
 1208SOL     OW15085   0.891   3.022  10.751  0.0402  0.2930  0.0733
 1208SOL    HW115086   0.898   2.993  10.842 -0.2047  2.9694  0.9261
 1208SOL    HW215087   0.980   3.001  10.722 -0.0839  0.2242 -0.2556
 1209SOL     OW15088   2.049   1.709   3.470  0.2979  0.0463 -0.3105
 1209SOL    HW115089   1.980   1.656   3.430  3.4740 -2.4177 -2.4875
 1209SOL    HW215090   2.035   1.658   3.550  1.7666 -1.9760 -1.3396
 1210SOL     OW15091   0.480   1.986   8.253  0.3624  0.2562  0.4649
 1210SOL    HW115092   0.559   1.990   8.198  0.0404  1.1751  0.0647
 1210SOL    HW215093   0.519   2.011   8.336  1.9821 -1.0644  0.0949
 1211SOL     OW15094   0.871   1.522   2.253  0.6196  0.3198 -0.3809
 1211SOL    HW115095   0.797   1.532   2.313  0.8519  2.0916 -0.4099
 1211SOL    HW215096   0.840   1.450   2.197 -0.7417  1.5369 -1.1662
 1212SOL     OW15097   3.431   2.773   3.720  0.5293  0.1046 -0.0338
 1212SOL    HW115098   3.445   2.814   3.805  0.4213 -0.2199  0.1398
 1212SOL    HW215099   3.409   2.683   3.744  1.3889 -0.2982 -0.7597
 1213SOL     OW15100   4.554   3.580  17.014 -0.5801 -0.6159 -0.1000
 1213SOL    HW115101   4.632   3.530  17.038 -0.2327  0.9417  1.9946
 1213SOL    HW215102   4.517   3.598  17.100  1.3692 -0.5436  0.7202
 1214SOL     OW15103   3.357   1.398  12.258  0.2694  0.0949 -0.0922
 1214SOL    HW115104   3.267   1.416  12.228  0.4541 -1.1196 -1.4076
 1214SOL    HW215105   3.398   1.392  12.172  0.0690  0.5847 -0.2210
 1215SOL     OW15106   0.914   2.569   7.801  0.6817 -0.5270  0.0378
 1215SOL    HW115107   0.948   2.582   7.712 -0.7576 -1.6364 -0.6889
 1215SOL    HW215108   0.826   2.536   7.783  0.8891 -0.1317 -1.7496
 1216SOL     OW15109   2.492   0.539   6.138 -0.7474 -0.1553  0.1355
 1216SOL    HW115110   2.540   0.471   6.184  0.9562  1.1965  0.3629
 1216SOL    HW215111   2.472   0.585   6.219  0.1255 -0.5690  0.5896
 1217SOL     OW15112   2.077   2.774   3.870  1.1613 -0.5539  0.5209
 1217SOL    HW115113   2.095   2.842   3.935  1.7059 -2.0430  1.9035
 1217SOL    HW215114   2.143   2.797   3.806 -0.2922  0.0254 -0.7804
 1218SOL     OW15115   3.538   4.515   5.422 -0.1983 -0.0637 -0.1533
 1218SOL    HW115116   3.558   4.453   5.351 -0.7055 -2.1698  1.5599
 1218SOL    HW215117   3.497   4.457   5.485 -0.5086 -0.2925 -0.5626
 1219SOL     OW15118   3.329   3.292   5.421 -0.2208 -0.1321 -0.7607
 1219SOL    HW115119   3.373   3.219   5.463 -0.7666 -0.3494 -0.5604
 1219SOL    HW215120   3.347   3.286   5.327  0.0683 -3.0315 -0.5296
 1220SOL     OW15121   0.360   3.640   6.490 -0.1061  0.0384 -0.1395
 1220SOL    HW115122   0.422   3.657   6.561  0.2573 -0.6008 -0.2989
 1220SOL    HW215123   0.315   3.725   6.490 -0.7573 -0.3176  0.7648
 1221SOL     OW15124   0.818   1.114   4.832 -0.0097 -0.0947  0.1676
 1221SOL    HW115125   0.811   1.209   4.838 -0.8788 -0.0695 -1.0677
 1221SOL    HW215126   0.872   1.098   4.909  1.6589  0.7515 -0.8355
 1222SOL     OW15127   2.687   2.923   2.042 -0.4527  0.4088 -1.1490
 1222SOL    HW115128   2.696   2.999   2.100 -0.1994 -0.9358  0.5664
 1222SOL    HW215129   2.665   2.966   1.959 -1.7551  0.5441 -0.7366
 1223SOL     OW15130   1.320   2.306   5.747  0.1008  0.2891 -0.2186
 1223SOL    HW115131   1.304   2.388   5.793  2.0256 -0.4041  1.6920
 1223SOL    HW215132   1.229   2.287   5.721  0.1530 -1.6857  1.0467
 1224SOL     OW15133   3.346   2.878   0.460 -0.6743 -0.0285  0.0097
 1224SOL    HW115134   3.250   2.883   0.460 -0.6746 -0.0701 -0.9356
 1224SOL    HW215135   3.369   2.946   0.397  0.3680  0.5121  0.9718
 1225SOL     OW15136   3.481   3.675   3.149  0.1033 -0.0715  0.2696
 1225SOL    HW115137   3.485   3.657   3.243  4.2340  1.9817  0.4682
 1225SOL    HW215138   3.415   3.744   3.155  1.2746  1.1108 -0.3499
 1226SOL     OW15139   3.414   1.056   6.508  0.1284  0.0811 -0.3195
 1226SOL    HW115140   3.423   1.098   6.422 -0.2684 -2.6661 -1.7033
 1226SOL    HW215141   3.470   0.979   6.511  1.6304  1.1741  0.0047
 1227SOL     OW15142   0.102   3.432  16.502 -0.4313 -0.4576 -0.1526
 1227SOL    HW115143   0.072   3.400  16.417 -1.6413 -2.0813  0.8820
 1227SOL    HW215144   0.171   3.491  16.471  0.9236 -2.0401 -0.1022
 1228SOL     OW15145   2.049   4.243   5.072 -0.5872  0.2860  0.0223
 1228SOL    HW115146   2.134   4.282   5.089  0.2625 -1.3157 -0.5849
 1228SOL    HW215147   2.007   4.322   5.038 -1.6242 -0.8644 -1.3730
 1229SOL     OW15148   2.761   0.826   5.588  0.0950  0.0381  0.2681
 1229SOL    HW115149   2.857   0.823   5.584  0.1110 -0.0476  0.7040
 1229SOL    HW215150   2.756   0.851   5.680 -1.6331  3.1214 -0.6710
 1230SOL     OW15151   2.793   3.414   8.250  0.4136  0.5947 -0.8673
 1230SOL    HW115152   2.825   3.450   8.167  0.2606 -0.5580 -1.4151
 1230SOL    HW215153   2.758   3.496   8.284 -1.1826 -0.2339 -0.5017
 1231SOL     OW15154   0.327   0.588  15.547  1.2252  0.2796  0.3074
 1231SOL    HW115155   0.295   0.587  15.637 -2.5265 -1.5048 -1.0293
 1231SOL    HW215156   0.349   0.681  15.539 -0.0281  0.5453 -0.1092
 1232SOL     OW15157   0.206   2.432   1.736  0.1236 -1.4746  0.2207
 1232SOL    HW115158   0.265   2.449   1.810  0.0065  2.5262 -0.6470
 1232SOL    HW215159   0.191   2.518   1.697  0.8439 -0.8781  1.2443
 1233SOL     OW15160   1.817   0.782  17.622  0.2499  0.0897  0.2871
 1233SOL    HW115161   1.884   0.718  17.646 -1.4734 -1.4125  1.0901
 1233SOL    HW215162   1.753   0.730  17.573  1.8185 -1.1858 -0.4373
 1234SOL     OW15163   2.325   2.008   8.512  0.0025 -0.3986  0.0062
 1234SOL    HW115164   2.363   2.040   8.430  0.8961  0.4316  0.7532
 1234SOL    HW215165   2.239   1.990   8.474  1.0200 -2.1905 -1.4418
 1235SOL     OW15166   1.267   1.463  12.239  0.2568  0.0188  0.0340
 1235SOL    HW115167   1.210   1.511  12.180  1.0924 -0.6692 -1.3276
 1235SOL    HW215168   1.309   1.533  12.291 -1.7767  1.8455 -0.7764
 1236SOL     OW15169   3.591   3.068   8.770  0.0042 -0.8873  0.0664
 1236SOL    HW115170   3.614   3.000   8.706  0.1998 -1.9896  1.3072
 1236SOL    HW215171   3.593   3.028   8.856  0.0910  0.2357  0.5832
 1237SOL     OW15172   3.394   3.597   6.728 -0.4036  0.2851  0.1987
 1237SOL    HW115173   3.365   3.623   6.815 -2.1453  0.0150 -0.3147
 1237SOL    HW215174   3.468   3.653   6.702  0.2395 -0.7263 -0.1675
 1238SOL     OW15175   1.340   3.391   5.160 -0.0032  0.9805  0.3274
 1238SOL    HW115176   1.256   3.428   5.190 -1.1499 -0.8579 -0.5925
 1238SOL    HW215177   1.335   3.399   5.065  0.7410 -0.6957  0.1585
 1239SOL     OW15178   1.588   1.864   6.480 -0.6392 -0.0214 -0.2448
 1239SOL    HW115179   1.579   1.947   6.527 -0.4891 -0.1598  0.0309
 1239SOL    HW215180   1.506   1.870   6.431  0.3753  2.0482 -1.7054
 1240SOL     OW15181   4.621   1.841  10.383  0.2001  0.3048 -0.4184
 1240SOL    HW115182   4.614   1.856  10.289 -1.0129  2.6433  0.0514
 1240SOL    HW215183   4.641   1.748  10.383  3.6276  1.0355  1.5750
 1241SOL     OW15184   2.942   3.902  13.269  1.1481 -0.5756  0.0098
 1241SOL    HW115185   3.032   3.918  13.300  1.5264  0.0760 -1.4383
 1241SOL    HW215186   2.970   3.879  13.181  0.2555 -1.3215 -0.0716
 1242SOL     OW15187   2.336   3.500   6.285 -0.7191  0.0858  0.0298
 1242SOL    HW115188   2.319   3.425   6.229 -1.6409 -0.1774  0.6661
 1242SOL    HW215189   2.373   3.461   6.364 -2.8360  1.0028  1.4632
 1243SOL     OW15190   4.495   0.820   3.085  0.0737 -0.2819 -0.1207
 1243SOL    HW115191   4.447   0.903   3.091  2.0948  0.8585  0.2369
 1243SOL    HW215192   4.578   0.838   3.042  0.4611  0.4640  0.9540
 1244SOL     OW15193   3.574   3.772   2.712  0.1944  0.0928  0.1357
 1244SOL    HW115194   3.511   3.760   2.641  0.2618  0.6734 -0.0221
 1244SOL    HW215195   3.528   3.844   2.755 -2.4858 -1.2598 -0.4686
 1245SOL     OW15196   3.360   3.498  11.258 -0.5212 -0.2040  0.1060
 1245SOL    HW115197   3.324   3.562  11.319  0.5418  1.1789 -0.7380
 1245SOL    HW215198   3.384   3.551  11.183 -0.0786  2.1695  1.9283
 1246SOL     OW15199   0.060   1.473   0.820  0.1994  0.4963 -0.0591
 1246SOL    HW115200   0.013   1.469   0.903  0.2685 -0.1227 -0.0475
 1246SOL    HW215201   0.104   1.558   0.825 -0.3188  0.6662  1.7232
 1247SOL     OW15202   4.280   0.237   4.230 -0.1034  0.1588  0.1362
 1247SOL    HW115203   4.335   0.292   4.285 -1.4745 -0.2262  1.9037
 1247SOL    HW215204   4.343   0.179   4.188  0.5996  0.6553  0.5218
 1248SOL     OW15205   1.784   4.454   8.184 -0.0420  0.3399 -0.4300
 1248SOL    HW115206   1.715   4.493   8.236 -0.4670  0.0739 -0.7963
 1248SOL    HW215207   1.736   4.389   8.134 -2.6103  0.9980  1.2099
 1249SOL     OW15208   3.707   4.397   4.528  0.6102 -0.1774  0.1143
 1249SOL    HW115209   3.744   4.364   4.447 -0.9608 -1.3946 -0.1054
 1249SOL    HW215210   3.662   4.473   4.491  2.0702  0.9322  0.6420
 1250SOL     OW15211   2.217   1.254   6.855 -0.1479  0.7596 -0.0050
 1250SOL    HW115212   2.262   1.336   6.834  1.1204 -0.3534 -1.5823
 1250SOL    HW215213   2.287   1.197   6.887 -0.0214  0.9334  0.0288
 1251SOL     OW15214   3.519   2.750  17.096 -0.5977  0.1348  0.2436
 1251SOL    HW115215   3.449   2.685  17.096  0.5827 -1.1340  0.9749
 1251SOL    HW215216   3.516   2.759  17.192  0.2229  2.2340  0.0712
 1252SOL     OW15217   0.646   0.038   3.131 -0.2250  0.1733  0.2722
 1252SOL    HW115218   0.596   0.053   3.212  1.2111  0.6676  1.0733
 1252SOL    HW215219   0.586   0.049   3.057  3.2037  0.7279 -2.3970
 1253SOL     OW15220   1.954   1.575   4.544  0.3201  0.1327 -0.4048
 1253SOL    HW115221   2.000   1.507   4.494  1.2168 -0.1893  0.8470
 1253SOL    HW215222   1.987   1.550   4.630  1.2874 -0.6853 -1.0191
 1254SOL     OW15223   4.182   2.440   2.600  0.2914  0.4532  0.1264
 1254SOL    HW115224   4.231   2.451   2.682  0.6344  1.0836 -0.1701
 1254SOL    HW215225   4.140   2.526   2.606 -2.1073 -0.7609  0.6842
 1255SOL     OW15226   1.800   4.041   5.714 -0.4374  0.2779  0.4212
 1255SOL    HW115227   1.712   4.063   5.745 -0.4651 -2.3030  2.1257
 1255SOL    HW215228   1.831   4.003   5.796  0.5387  0.4638  0.1370
 1256SOL     OW15229   0.927   2.088  14.820  0.3128  0.0396 -0.4957
 1256SOL    HW115230   0.874   2.073  14.741  0.2394  1.5922 -0.7336
 1256SOL    HW215231   0.911   2.000  14.856  2.2652 -0.6646 -1.3725
 1257SOL     OW15232   1.976   1.342  13.456 -0.2557 -0.2799  0.4056
 1257SOL    HW115233   1.939   1.429  13.446  0.5759 -0.0736 -0.8186
 1257SOL    HW215234   1.924   1.311  13.530 -0.7297  2.6012  1.2408
 1258SOL     OW15235   1.255   4.393  17.615  0.4881 -0.5462 -0.1528
 1258SOL    HW115236   1.260   4.481  17.654  1.2263  0.4955 -2.5700
 1258SOL    HW215237   1.238   4.412  17.522 -1.7993 -2.7492 -0.1706
 1259SOL     OW15238   3.040   3.814  11.827 -0.1367 -0.2711 -0.1844
 1259SOL    HW115239   3.012   3.739  11.879  0.4730  1.1884  2.2793
 1259SOL    HW215240   3.076   3.861  11.903 -1.4652 -0.0594  0.3064
 1260SOL     OW15241   0.392   0.802  17.469 -0.3269  0.1961 -0.2462
 1260SOL    HW115242   0.393   0.861  17.394 -0.8729  0.0915 -0.3404
 1260SOL    HW215243   0.336   0.733  17.432 -1.9999  1.2183  0.3715
 1261SOL     OW15244   4.517   0.712   9.395  0.3050 -0.0528 -0.2537
 1261SOL    HW115245   4.606   0.746   9.387  0.7149 -0.8946  0.7672
 1261SOL    HW215246   4.505   0.709   9.489  1.2680  2.7385 -0.0590
 1262SOL     OW15247   3.999   1.019   7.384 -0.6801 -0.8066  0.1211
 1262SOL    HW115248   3.940   0.953   7.348 -1.0377 -0.6628  0.4465
 1262SOL    HW215249   4.014   0.993   7.474 -0.9917  0.1729  0.4591
 1263SOL     OW15250   0.756   0.958   6.381  0.4350  0.1437  0.3425
 1263SOL    HW115251   0.721   0.938   6.295  1.1341  1.1578 -0.1703
 1263SOL    HW215252   0.682   0.930   6.436 -1.0323  0.0003 -1.7189
 1264SOL     OW15253   2.819   0.549   4.432  0.3919 -0.5984  0.1994
 1264SOL    HW115254   2.895   0.599   4.462  0.9629 -1.4378  0.1318
 1264SOL    HW215255   2.861   0.480   4.382 -0.5017 -0.4347 -0.7745
 1265SOL     OW15256   0.723   2.444   3.404  0.6091 -0.4185  0.0716
 1265SOL    HW115257   0.675   2.525   3.423  1.0992 -0.0465 -0.2981
 1265SOL    HW215258   0.682   2.375   3.456 -0.3708 -0.4005 -0.6793
 1266SOL     OW15259   3.467   4.476   2.383 -0.2529  0.0736 -0.1738
 1266SOL    HW115260   3.502   4.559   2.414  2.8851 -0.8566 -1.2694
 1266SOL    HW215261   3.393   4.467   2.443 -0.4454 -0.3026 -0.4634
 1267SOL     OW15262   4.331   3.494   8.321  0.3329 -0.2097  0.0607
 1267SOL    HW115263   4.382   3.413   8.318  1.9711  0.8554 -0.8106
 1267SOL    HW215264   4.324   3.502   8.417  1.1074  0.1195  0.0905
 1268SOL     OW15265   4.239   1.772   5.194  0.2775 -0.2835 -1.0842
 1268SOL    HW115266   4.294   1.808   5.125  0.9204  0.4020 -0.2052
 1268SOL    HW215267   4.183   1.847   5.215 -0.5031 -1.1774  0.0466
 1269SOL     OW15268   0.884   4.541   5.253 -0.3567  0.1670  0.1920
 1269SOL    HW115269   0.801   4.515   5.293 -0.9330  1.5246 -0.1329
 1269SOL    HW215270   0.859   4.557   5.162 -0.8036 -0.1435  0.2611
 1270SOL     OW15271   1.090   0.839   4.812 -0.6545  0.0059  0.1018
 1270SOL    HW115272   1.069   0.910   4.752  0.4218  1.5062  1.5131
 1270SOL    HW215273   1.003   0.817   4.845 -0.6303 -0.7123 -0.3132
 1271SOL     OW15274   1.476   1.261   2.066 -0.3340  0.0001  0.5473
 1271SOL    HW115275   1.529   1.341   2.071 -2.9011  1.6773  0.5045
 1271SOL    HW215276   1.425   1.267   2.146 -0.2371 -1.6163  0.7350
 1272SOL     OW15277   0.845   1.016   5.602 -0.1115 -0.0482  0.7148
 1272SOL    HW115278   0.812   1.000   5.513 -3.6134 -1.1575  2.2204
 1272SOL    HW215279   0.770   0.983   5.651 -0.1147 -1.0304  0.0433
 1273SOL     OW15280   4.175   3.859  10.093  0.3803  0.1665 -0.2119
 1273SOL    HW115281   4.249   3.836  10.036 -1.2103 -1.6122 -1.5771
 1273SOL    HW215282   4.107   3.815  10.042  1.5663 -0.4105 -1.3182
 1274SOL     OW15283   1.719   3.799  12.254  0.2739 -0.3466  0.3977
 1274SOL    HW115284   1.729   3.777  12.162 -0.1688  2.7740 -0.3912
 1274SOL    HW215285   1.691   3.890  12.261  0.2585 -0.4077  1.2368
 1275SOL     OW15286   1.451   1.397   6.697 -0.4834 -0.4762  0.1138
 1275SOL    HW115287   1.524   1.411   6.757 -0.2751 -1.5873  0.1092
 1275SOL    HW215288   1.450   1.487   6.663 -1.9278  0.2631  2.1176
 1276SOL     OW15289   1.762   3.657   2.869 -0.3349  0.3044  0.4557
 1276SOL    HW115290   1.801   3.638   2.784 -0.5054 -2.7615  1.0671
 1276SOL    HW215291   1.738   3.567   2.892 -0.6197 -0.0813 -1.3483
 1277SOL     OW15292   0.203   4.191   1.342 -0.0530 -0.4784 -0.2887
 1277SOL    HW115293   0.259   4.174   1.418 -0.4672 -3.6839 -0.7302
 1277SOL    HW215294   0.159   4.107   1.353  0.9036 -1.0850 -1.1865
 1278SOL     OW15295   0.402   1.385   2.480  0.0480 -0.0028 -0.1237
 1278SOL    HW115296   0.421   1.337   2.399  0.2097 -4.5157  2.6202
 1278SOL    HW215297   0.317   1.345   2.498  0.3070  0.1961  1.4807
 1279SOL     OW15298   2.266   1.032   4.630  0.0964  0.6208  0.7720
 1279SOL    HW115299   2.269   1.024   4.534  0.7653  0.7456  0.7845
 1279SOL    HW215300   2.179   0.994   4.645  0.0874  0.4433  0.2871
 1280SOL     OW15301   2.285   3.168   2.301 -0.0239 -0.4730 -0.4345
 1280SOL    HW115302   2.361   3.195   2.249  0.0709  0.5332  0.2396
 1280SOL    HW215303   2.222   3.178   2.230 -0.8933 -1.0132  0.2494
 1281SOL     OW15304   0.075   0.607   0.501  0.0901  0.4912 -0.1900
 1281SOL    HW115305   4.709   0.609   0.461 -0.0469 -1.8410 -0.0223
 1281SOL    HW215306   0.084   0.698   0.529  0.1497 -0.3084  2.3395
 1282SOL     OW15307   2.198   0.119  13.917  0.2755 -0.5994 -0.1445
 1282SOL    HW115308   2.276   0.091  13.965  0.3494 -0.6409 -0.2906
 1282SOL    HW215309   2.151   0.158  13.991  0.5713 -1.2185  0.3733
 1283SOL     OW15310   1.840   0.903   2.863 -0.6653  0.5670  0.8810
 1283SOL    HW115311   1.875   0.973   2.918  1.8561 -0.7455  0.9621
 1283SOL    HW215312   1.751   0.890   2.897 -0.2866 -0.9330  1.2912
 1284SOL     OW15313   3.482   0.521  12.619  0.5218 -0.3889  0.0294
 1284SOL    HW115314   3.399   0.507  12.575  1.0703 -1.3576 -0.6962
 1284SOL    HW215315   3.531   0.446  12.586  1.2372 -0.4038  1.1380
 1285SOL     OW15316   2.963   0.062   8.943  0.4789 -0.1066  0.4127
 1285SOL    HW115317   2.976   4.689   8.954 -2.0910 -0.3223  1.4363
 1285SOL    HW215318   3.045   0.086   8.899  0.3572 -2.0482 -0.8708
 1286SOL     OW15319   0.886   3.791   0.738 -0.0031 -0.1976 -0.1261
 1286SOL    HW115320   0.879   3.739   0.818  0.0787 -0.3793 -0.2391
 1286SOL    HW215321   0.912   3.868   0.789 -1.5095 -0.1280  0.5628
 1287SOL     OW15322   1.344   3.853  17.575 -0.0466 -0.0462 -0.0399
 1287SOL    HW115323   1.259   3.809  17.584  0.0317 -0.5099 -1.6255
 1287SOL    HW215324   1.373   3.809  17.496 -2.3427 -1.6643  0.0200
 1288SOL     OW15325   4.121   4.178   1.470 -0.0149 -0.0947  0.8901
 1288SOL    HW115326   4.134   4.084   1.481  1.7561 -0.3960 -3.5501
 1288SOL    HW215327   4.198   4.207   1.420 -0.3525  0.7384  0.8459
 1289SOL     OW15328   4.333   1.320   3.210 -0.4224 -0.7031  0.3357
 1289SOL    HW115329   4.244   1.301   3.239 -1.0096  1.2826 -0.1183
 1289SOL    HW215330   4.382   1.240   3.228 -0.1052 -0.7818 -0.8704
 1290SOL     OW15331   2.953   0.614   1.410  0.2527 -0.3213  0.0132
 1290SOL    HW115332   3.005   0.671   1.467  1.1766  1.6180 -2.7668
 1290SOL    HW215333   2.902   0.559   1.470  2.6172 -1.9936  0.5075
 1291SOL     OW15334   2.150   2.250   7.564 -0.3913  0.1584 -0.5752
 1291SOL    HW115335   2.121   2.225   7.477  0.2929  0.6468 -0.9470
 1291SOL    HW215336   2.201   2.323   7.528 -0.7596  0.3705 -0.6675
 1292SOL     OW15337   1.522   4.361   3.884 -0.3125  0.6311  0.2184
 1292SOL    HW115338   1.554   4.354   3.974  3.4885  1.3702 -1.1010
 1292SOL    HW215339   1.561   4.281   3.849  0.8933  0.8790  1.0039
 1293SOL     OW15340   0.361   2.325   1.465  0.5612 -0.0857  0.2325
 1293SOL    HW115341   0.389   2.407   1.423 -1.7672  1.3248  1.4631
 1293SOL    HW215342   0.383   2.342   1.557  0.5375 -0.1637  0.2527
 1294SOL     OW15343   4.275   1.632   8.048  0.6648 -0.1922 -0.5505
 1294SOL    HW115344   4.193   1.672   8.018  0.0713 -1.1105 -0.1549
 1294SOL    HW215345   4.288   1.687   8.125 -1.5659  0.3047 -0.5324
 1295SOL     OW15346   3.788   3.720  14.066  0.1857 -0.1812  0.1284
 1295SOL    HW115347   3.727   3.724  13.992 -0.3224 -1.2962  0.4793
 1295SOL    HW215348   3.871   3.685  14.037  0.5519 -0.1348  1.1119
 1296SOL     OW15349   3.448   0.845   8.040 -0.3343  0.0490 -0.1799
 1296SOL    HW115350   3.519   0.909   8.040 -0.4402  0.1663 -0.8949
 1296SOL    HW215351   3.479   0.781   8.105  2.3504  0.8973 -0.6133
 1297SOL     OW15352   2.986   1.391  13.230 -0.3492  0.0481  0.0773
 1297SOL    HW115353   3.052   1.337  13.273  0.9006  0.5314 -1.2503
 1297SOL    HW215354   3.042   1.466  13.212  0.1114 -0.4531 -0.5308
 1298SOL     OW15355   0.674   1.513   2.954  0.5415 -0.3742  0.5431
 1298SOL    HW115356   0.601   1.526   3.014  0.9751  1.2746  0.7087
 1298SOL    HW215357   0.631   1.484   2.874  1.0173  1.4410 -0.3703
 1299SOL     OW15358   0.721   1.397   0.942  0.3090  0.9493  0.3687
 1299SOL    HW115359   0.700   1.442   1.024 -0.4218 -0.2046  0.8053
 1299SOL    HW215360   0.730   1.308   0.975  0.2891  0.9005  0.2432
 1300SOL     OW15361   4.067   2.618   6.531  0.2361  0.2677 -0.1833
 1300SOL    HW115362   4.050   2.669   6.452 -2.3165 -5.1187 -3.0903
 1300SOL    HW215363   3.980   2.618   6.572 -0.1665  2.5627 -1.0226
 1301SOL     OW15364   1.876   3.043  15.783  0.3451 -0.3161  0.3763
 1301SOL    HW115365   1.870   3.088  15.867  1.8013  1.1706 -0.3173
 1301SOL    HW215366   1.826   3.092  15.718  0.7785 -2.0201 -1.2611
 1302SOL     OW15367   4.467   2.638   6.899  0.0987 -0.4324  0.3313
 1302SOL    HW115368   4.446   2.697   6.972 -0.3541  0.5145 -0.5662
 1302SOL    HW215369   4.389   2.633   6.843  0.1665 -0.4127  0.2354
 1303SOL     OW15370   2.945   1.186   5.856 -0.1385 -0.5644 -0.0629
 1303SOL    HW115371   3.023   1.175   5.801 -0.4194  1.9896 -0.9911
 1303SOL    HW215372   2.960   1.279   5.875 -1.0849 -0.3879 -0.1964
 1304SOL     OW15373   2.067   3.480  14.765 -0.2595  0.6843 -0.1737
 1304SOL    HW115374   2.062   3.510  14.856 -1.2546 -0.4743  0.1536
 1304SOL    HW215375   2.026   3.552  14.719 -0.8994  0.3748 -0.0858
 1305SOL     OW15376   0.959   1.133  13.181  0.2615  0.0168  0.2067
 1305SOL    HW115377   0.882   1.082  13.205 -1.1482  1.1819 -1.8024
 1305SOL    HW215378   0.994   1.069  13.119  0.5422 -1.1996  1.6249
 1306SOL     OW15379   3.660   2.465   2.386  0.3452  0.0695  0.0525
 1306SOL    HW115380   3.734   2.417   2.424  0.2560 -0.0895  0.0260
 1306SOL    HW215381   3.630   2.404   2.319 -1.6397 -0.4349  1.4152
 1307SOL     OW15382   3.437   2.151   1.905 -0.5072  0.5190  0.3316
 1307SOL    HW115383   3.394   2.096   1.839  0.3900  1.7605 -1.3042
 1307SOL    HW215384   3.513   2.178   1.854  0.6030 -0.3424  1.5400
 1308SOL     OW15385   1.626   1.193   8.734  0.3038 -1.1047 -0.0606
 1308SOL    HW115386   1.682   1.152   8.799  0.4233  1.0590  1.2251
 1308SOL    HW215387   1.535   1.182   8.761  0.9299 -0.2370  2.3487
 1309SOL     OW15388   4.594   2.638   9.040  0.2673  0.3480  0.1821
 1309SOL    HW115389   4.664   2.609   8.981  0.1119 -1.3526  0.8258
 1309SOL    HW215390   4.550   2.701   8.984  0.4422  1.7263  1.5944
 1310SOL     OW15391   3.005   1.474   3.505  0.0778 -0.3036  0.1134
 1310SOL    HW115392   2.919   1.465   3.463  0.5029  0.2143 -0.8546
 1310SOL    HW215393   2.971   1.511   3.587  1.7654 -2.2220  1.6856
 1311SOL     OW15394   1.148   4.268   6.733  0.1346  0.7662 -0.1214
 1311SOL    HW115395   1.206   4.313   6.671  1.3375  0.0067  0.4541
 1311SOL    HW215396   1.181   4.314   6.811 -1.4605 -3.0359  2.8126
 1312SOL     OW15397   3.333   1.898  10.517  0.5412 -0.1739 -0.0445
 1312SOL    HW115398   3.357   1.808  10.492 -1.6556 -0.7465 -0.0670
 1312SOL    HW215399   3.401   1.943  10.468  0.8105 -0.9364 -0.3817
 1313SOL     OW15400   2.808   2.763   0.470 -0.0722 -0.4726  0.0018
 1313SOL    HW115401   2.734   2.801   0.425 -0.9435 -0.6185  1.3191
 1313SOL    HW215402   2.857   2.721   0.399 -0.9269  1.1780 -1.5599
 1314SOL     OW15403   3.213   0.329   6.360 -0.5532  0.3069 -0.6039
 1314SOL    HW115404   3.242   0.420   6.366 -1.8212  0.7390 -1.1255
 1314SOL    HW215405   3.121   0.353   6.367 -1.0656 -2.4153  2.3883
 1315SOL     OW15406   3.922   2.574   3.752  0.6215  0.1713  0.4186
 1315SOL    HW115407   3.852   2.509   3.739 -1.1163  2.3881 -1.2939
 1315SOL    HW215408   3.968   2.565   3.669 -1.4135 -0.1543 -0.6770
 1316SOL     OW15409   3.539   3.884   4.257  0.0104 -0.0320 -0.0063
 1316SOL    HW115410   3.589   3.861   4.335 -0.1625 -0.4460 -0.0189
 1316SOL    HW215411   3.452   3.887   4.296  0.6962 -0.7172  1.5370
 1317SOL     OW15412   2.967   0.766   0.514 -0.1128  0.1910 -0.3661
 1317SOL    HW115413   2.984   0.681   0.554 -2.9250  0.0909  0.6093
 1317SOL    HW215414   2.948   0.735   0.425 -1.9395 -2.4485  0.9643
 1318SOL     OW15415   0.644   4.222   6.549  0.0815 -0.1645 -0.3294
 1318SOL    HW115416   0.700   4.211   6.472  1.4878 -0.0817  0.6783
 1318SOL    HW215417   0.690   4.163   6.610 -0.1280  0.9633  0.9056
 1319SOL     OW15418   3.747   2.936   1.433 -0.4559  0.2100  0.0837
 1319SOL    HW115419   3.732   2.972   1.520 -1.2685 -0.9846  0.4486
 1319SOL    HW215420   3.786   3.008   1.383  1.8657  0.6366  2.5944
 1320SOL     OW15421   2.692   0.861   7.396  0.2703  0.3108 -0.5527
 1320SOL    HW115422   2.670   0.897   7.310  0.7686  2.1303  0.0848
 1320SOL    HW215423   2.778   0.900   7.414  0.9241 -0.7308 -1.3993
 1321SOL     OW15424   1.328   2.524  17.098 -0.7070 -0.2980 -0.2387
 1321SOL    HW115425   1.370   2.440  17.078  0.4656  0.2158  0.0944
 1321SOL    HW215426   1.363   2.584  17.033 -3.0603  1.9051  0.5309
 1322SOL     OW15427   4.616   2.790   2.868  0.5119  0.2818  0.0365
 1322SOL    HW115428   4.535   2.805   2.917 -0.3517  1.5032 -1.7798
 1322SOL    HW215429   4.598   2.698   2.847 -2.6782  1.1728 -1.0101
 1323SOL     OW15430   4.547   3.103   1.894 -0.1556 -0.1369  0.5017
 1323SOL    HW115431   4.475   3.152   1.855 -2.1456 -0.2643  4.0613
 1323SOL    HW215432   4.507   3.016   1.896  0.8331 -0.6415 -1.5757
 1324SOL     OW15433   3.469   1.547   1.986  0.2019 -0.1371  0.0248
 1324SOL    HW115434   3.511   1.490   1.922 -0.2423  0.2205 -0.5798
 1324SOL    HW215435   3.376   1.542   1.961 -0.0211 -0.8271  0.9788
 1325SOL     OW15436   0.671   0.227  14.381  0.0008  0.3117  0.2728
 1325SOL    HW115437   0.660   0.177  14.300 -0.2657 -0.6831  0.9171
 1325SOL    HW215438   0.623   0.170  14.441  1.4720 -0.6255  0.5542
 1326SOL     OW15439   2.043   4.148   3.197  0.1056  1.5892  0.7692
 1326SOL    HW115440   2.120   4.156   3.141  0.2534  1.5258  0.9615
 1326SOL    HW215441   1.983   4.217   3.169 -0.6028  0.9592  0.7241
 1327SOL     OW15442   3.240   4.700   1.968 -0.1925 -0.0043  0.3577
 1327SOL    HW115443   3.270   4.617   2.003 -1.1456 -0.2176  0.6672
 1327SOL    HW215444   3.162   4.708   2.023  0.2825  0.9449  0.9057
 1328SOL     OW15445   2.078   1.005   9.841 -0.3247  0.0201  0.3849
 1328SOL    HW115446   2.084   0.949   9.919  1.8990  1.7172  1.4350
 1328SOL    HW215447   1.989   0.987   9.812  0.0337 -0.9302 -0.1019
 1329SOL     OW15448   2.405   3.474   9.528  0.0564 -0.7714 -0.2058
 1329SOL    HW115449   2.399   3.481   9.433 -2.9236 -1.1111 -0.0551
 1329SOL    HW215450   2.459   3.395   9.535  2.0548  0.5634 -0.8111
 1330SOL     OW15451   3.881   1.586  14.575  0.1031  0.2658 -0.1650
 1330SOL    HW115452   3.864   1.663  14.629  0.2568  0.5278 -0.4926
 1330SOL    HW215453   3.954   1.610  14.518  0.1119 -0.3468 -0.4119
 1331SOL     OW15454   1.040   2.541   8.860  0.0799 -0.1349  0.3918
 1331SOL    HW115455   1.021   2.564   8.951 -2.1134 -1.5345  0.2766
 1331SOL    HW215456   1.092   2.621   8.848 -1.1938  1.2657  3.9453
 1332SOL     OW15457   2.447   0.921   6.703  0.1256  0.1049 -0.0218
 1332SOL    HW115458   2.529   0.939   6.658  1.0945 -1.0039  1.3261
 1332SOL    HW215459   2.449   0.981   6.777  1.2521 -0.5684  0.4938
 1333SOL     OW15460   1.346   3.309   5.980 -0.0133  0.5130 -0.0196
 1333SOL    HW115461   1.389   3.382   5.935  0.5456  0.0767 -0.1922
 1333SOL    HW215462   1.407   3.237   5.963  0.7815  1.4303 -1.0438
 1334SOL     OW15463   0.694   1.875  14.185  0.7528 -0.3623 -0.1931
 1334SOL    HW115464   0.627   1.876  14.253  1.1687 -0.5648  0.2147
 1334SOL    HW215465   0.660   1.952  14.140  0.8520  0.9343  1.9461
 1335SOL     OW15466   0.780   3.049   4.422  0.0013  0.0178  0.2895
 1335SOL    HW115467   0.766   2.963   4.461 -0.4574  0.1721  0.4630
 1335SOL    HW215468   0.775   3.028   4.328 -2.1698 -1.8609  0.8047
 1336SOL     OW15469   1.548   1.594   7.810  0.0308  0.7445  0.1997
 1336SOL    HW115470   1.625   1.547   7.842  0.1143  0.8655  0.1753
 1336SOL    HW215471   1.478   1.577   7.873 -0.2250  1.6069  0.1400
 1337SOL     OW15472   4.521   1.593  13.912 -0.3274  0.1226 -0.0319
 1337SOL    HW115473   4.480   1.588  13.825  0.0448  1.0549 -0.2599
 1337SOL    HW215474   4.612   1.569  13.892 -0.1660 -0.9790  2.0325
 1338SOL     OW15475   2.691   1.968   3.487  0.2941 -0.0842 -0.1513
 1338SOL    HW115476   2.740   1.954   3.406  1.1714 -0.1555  0.3880
 1338SOL    HW215477   2.609   1.964   3.438 -0.0402 -1.4676  0.5273
 1339SOL     OW15478   3.291   2.302   5.367  0.0843  0.8783 -0.2524
 1339SOL    HW115479   3.326   2.274   5.283 -0.8758  1.9178 -0.9979
 1339SOL    HW215480   3.207   2.348   5.362  0.5949  1.8766  0.2596
 1340SOL     OW15481   0.812   3.483   6.783 -0.2398 -0.1686 -0.2968
 1340SOL    HW115482   0.875   3.411   6.787  2.1531  1.9470  0.1178
 1340SOL    HW215483   0.792   3.496   6.876 -1.2487 -0.3834 -0.4801
 1341SOL     OW15484   2.851   2.709   4.624  0.3862 -0.3445 -0.3524
 1341SOL    HW115485   2.941   2.727   4.648 -0.0642  0.8277  0.4304
 1341SOL    HW215486   2.848   2.613   4.618 -0.6227 -0.3360  0.0186
 1342SOL     OW15487   3.615   0.518  15.325 -0.4422 -0.1345 -0.2053
 1342SOL    HW115488   3.600   0.600  15.278 -1.6819  0.4169  1.1606
 1342SOL    HW215489   3.681   0.544  15.389 -0.5510  0.1303 -0.1998
 1343SOL     OW15490   0.249   2.409   3.013 -0.4722 -0.3950 -0.1162
 1343SOL    HW115491   0.216   2.499   3.011 -0.8734 -0.5140  1.9583
 1343SOL    HW215492   0.172   2.365   2.976 -1.2862  0.3970  0.6445
 1344SOL     OW15493   1.440   4.051   7.705  0.7558  0.2987  0.0497
 1344SOL    HW115494   1.359   4.052   7.757  0.8407  0.8215  0.1689
 1344SOL    HW215495   1.403   4.065   7.618 -2.6988  0.2208  1.4833
 1345SOL     OW15496   2.262   0.263  10.280  0.1260 -0.1745 -0.1030
 1345SOL    HW115497   2.231   0.273  10.190  0.9234  2.9047 -0.0075
 1345SOL    HW215498   2.275   0.356  10.297 -1.5258  0.0235  0.0499
 1346SOL     OW15499   1.843   3.902   5.505  0.1298  0.1408 -0.3204
 1346SOL    HW115500   1.833   3.948   5.589  0.6932  0.7857 -0.6066
 1346SOL    HW215501   1.791   3.822   5.520  0.8390 -0.2663 -0.0251
 1347SOL     OW15502   0.495   2.585   0.143 -0.0084 -0.4364  0.2261
 1347SOL    HW115503   0.431   2.625   0.085 -1.5644 -0.0445  2.2032
 1347SOL    HW215504   0.552   2.658   0.167 -0.0351 -0.3529  0.0323
 1348SOL     OW15505   3.066   0.343   4.454 -0.9361  0.0575  0.7001
 1348SOL    HW115506   3.111   0.298   4.383 -1.6103 -1.1375  1.0438
 1348SOL    HW215507   2.979   0.304   4.450 -0.8254 -0.2899  1.5967
 1349SOL     OW15508   0.775   0.949   0.768 -0.2642  0.4546 -0.2648
 1349SOL    HW115509   0.747   1.007   0.697 -0.7322  2.0954  1.2846
 1349SOL    HW215510   0.727   0.867   0.758 -0.7189  0.7555 -0.5461
 1350SOL     OW15511   3.527   1.832   7.110  0.2078  0.4866  0.0389
 1350SOL    HW115512   3.585   1.865   7.179 -0.1239 -0.1992  0.6513
 1350SOL    HW215513   3.502   1.906   7.054  1.7800 -0.4390 -1.8751
 1351SOL     OW15514   3.451   0.297   7.724  0.6344  0.4794 -0.3411
 1351SOL    HW115515   3.489   0.213   7.701 -0.1970  0.4001 -1.4631
 1351SOL    HW215516   3.513   0.354   7.678  0.9461  0.0405 -0.4637
 1352SOL     OW15517   3.145   3.889   8.798  0.4758  0.5959  0.6186
 1352SOL    HW115518   3.205   3.825   8.759 -0.0781 -0.0375  0.7894
 1352SOL    HW215519   3.206   3.918   8.864  1.2706 -1.7184  0.9058
 1353SOL     OW15520   1.784   4.338   5.386 -0.1030 -0.4619  0.0627
 1353SOL    HW115521   1.702   4.360   5.431 -1.4574 -0.1168 -2.5501
 1353SOL    HW215522   1.849   4.366   5.450  1.5136 -0.0311 -1.7731
 1354SOL     OW15523   4.153   1.824   4.289 -0.3057  0.0667 -0.2659
 1354SOL    HW115524   4.233   1.801   4.243  0.6397 -1.0414  1.9563
 1354SOL    HW215525   4.087   1.826   4.219 -1.0457  2.3709  0.4930
 1355SOL     OW15526   3.949   2.437  17.058  0.1479 -0.3863  0.0725
 1355SOL    HW115527   4.015   2.506  17.062 -0.6961  0.4306  0.1226
 1355SOL    HW215528   3.874   2.489  17.089  1.9763  1.5867  1.1306
 1356SOL     OW15529   0.638   0.135   0.326 -0.4277 -0.6337  0.9145
 1356SOL    HW115530   0.569   0.199   0.345  1.2767  1.1611  1.0082
 1356SOL    HW215531   0.667   0.115   0.415  0.0035 -2.6917  0.2966
 1357SOL     OW15532   4.560   2.536   4.111  0.2647 -0.5550  0.1102
 1357SOL    HW115533   4.560   2.451   4.067  2.2393  0.9359 -2.7914
 1357SOL    HW215534   4.645   2.548   4.154 -1.0598  4.6536  1.1852
 1358SOL     OW15535   3.390   1.600   7.031  0.4693  0.4971  0.0061
 1358SOL    HW115536   3.447   1.524   7.019  1.0331  1.1437 -1.4251
 1358SOL    HW215537   3.451   1.665   7.064  1.9738 -2.0250  2.1659
 1359SOL     OW15538   4.353   1.839  17.392 -0.1002 -0.5489 -0.2011
 1359SOL    HW115539   4.343   1.780  17.318  0.4755 -0.4378 -0.3640
 1359SOL    HW215540   4.383   1.923  17.357  0.0438 -0.3744  0.3431
 1360SOL     OW15541   1.587   4.549   5.021 -0.2740  0.0464 -0.8605
 1360SOL    HW115542   1.574   4.604   5.098 -1.0606 -2.2880  0.6595
 1360SOL    HW215543   1.663   4.594   4.985 -2.1491  3.2656 -0.8960
 1361SOL     OW15544   1.911   4.366  10.091 -0.7156 -0.0897 -0.2252
 1361SOL    HW115545   1.873   4.328  10.170 -0.1410 -0.2434 -0.0260
 1361SOL    HW215546   1.967   4.435  10.127  0.1254 -0.4249 -0.8742
 1362SOL     OW15547   4.043   0.733  12.651 -0.1956  0.0003 -0.5570
 1362SOL    HW115548   4.029   0.754  12.558 -2.7600 -1.3800 -0.4948
 1362SOL    HW215549   4.048   0.808  12.711 -0.9315  0.3782 -0.9566
 1363SOL     OW15550   2.157   3.683  10.098  0.1048  0.4039  0.5386
 1363SOL    HW115551   2.251   3.703  10.095  0.3260 -0.7594 -0.0703
 1363SOL    HW215552   2.148   3.711  10.189  0.2601  3.8318 -0.5143
 1364SOL     OW15553   3.890   2.951   8.434  0.4512  0.2394 -0.4402
 1364SOL    HW115554   3.925   3.035   8.403  3.1826  0.6961  3.9724
 1364SOL    HW215555   3.955   2.924   8.498 -0.5320  0.3706  0.6176
 1365SOL     OW15556   1.718   0.852  15.651 -0.3949  0.5029 -0.0534
 1365SOL    HW115557   1.732   0.915  15.580  1.3005 -0.2987 -0.4075
 1365SOL    HW215558   1.713   0.772  15.600  0.6425  0.0981  0.4778
 1366SOL     OW15559   3.407   0.164   1.870  0.0068  0.2880 -0.1944
 1366SOL    HW115560   3.347   0.099   1.905  0.9614  0.8026  2.4030
 1366SOL    HW215561   3.359   0.247   1.877  0.9559  0.7392  0.9487
 1367SOL     OW15562   4.359   1.111   9.470 -0.1213 -0.2434 -0.2650
 1367SOL    HW115563   4.374   1.052   9.397 -0.2470  0.0135 -0.4970
 1367SOL    HW215564   4.271   1.142   9.447  0.9807  2.1017 -1.3677
 1368SOL     OW15565   2.097   2.931   9.951 -0.3188 -0.1684  0.1042
 1368SOL    HW115566   2.190   2.908   9.953 -0.6950 -1.6925 -0.2012
 1368SOL    HW215567   2.058   2.844   9.954 -0.9026  0.1588  2.4304
 1369SOL     OW15568   1.438   1.724   5.556 -0.2096  0.0435  0.1120
 1369SOL    HW115569   1.500   1.748   5.488  0.8069  0.3153  1.1212
 1369SOL    HW215570   1.388   1.661   5.505 -0.0502 -1.6346  2.0019
 1370SOL     OW15571   2.223   4.544   5.282  0.6189  0.5559  0.1356
 1370SOL    HW115572   2.219   4.476   5.349 -1.2182 -1.0625 -1.6524
 1370SOL    HW215573   2.313   4.576   5.291  0.3471  1.9691 -2.1389
 1371SOL     OW15574   2.143   3.279   2.557  0.0215 -0.1741  0.3765
 1371SOL    HW115575   2.101   3.193   2.560 -0.6500  0.1395 -0.0548
 1371SOL    HW215576   2.103   3.323   2.482  0.3190  1.0924  0.9517
 1372SOL     OW15577   4.548   1.654  12.084 -0.7232 -0.3640 -0.9705
 1372SOL    HW115578   4.614   1.629  12.149 -0.2499  0.0297 -1.3036
 1372SOL    HW215579   4.583   1.739  12.059  1.0539 -0.8702 -0.2226
 1373SOL     OW15580   0.064   0.817  10.178  0.4785  0.3219  0.3025
 1373SOL    HW115581   0.073   0.824  10.273 -2.3178  0.8518  0.5146
 1373SOL    HW215582   0.079   0.723  10.168  0.2483  0.4467 -1.1597
 1374SOL     OW15583   3.363   3.573   8.029  0.0651 -0.3144 -0.4373
 1374SOL    HW115584   3.394   3.484   8.047 -1.9430 -0.9201  0.0902
 1374SOL    HW215585   3.311   3.557   7.951  0.0248  0.3615 -0.5437
 1375SOL     OW15586   2.887   2.488   2.957  0.5014 -1.1740  0.4048
 1375SOL    HW115587   2.883   2.481   2.861  1.3621  1.1614  0.1740
 1375SOL    HW215588   2.855   2.406   2.992  0.8528 -1.3516  0.3091
 1376SOL     OW15589   2.593   4.173   4.096 -0.2777  0.3082  0.1102
 1376SOL    HW115590   2.554   4.085   4.093  1.5239 -0.4766 -0.5392
 1376SOL    HW215591   2.616   4.180   4.004  0.1827 -0.5231  0.1546
 1377SOL     OW15592   1.746   4.603   1.946 -0.6569  0.3131 -0.0956
 1377SOL    HW115593   1.710   4.541   2.008 -0.7091  1.2693  0.8376
 1377SOL    HW215594   1.707   4.682   1.984  0.0392  0.6209 -0.0104
 1378SOL     OW15595   1.279   2.372   6.355 -0.3023  0.1013 -0.5024
 1378SOL    HW115596   1.352   2.332   6.308 -1.0944 -1.9398  0.0301
 1378SOL    HW215597   1.212   2.366   6.287 -1.1260  1.2178  0.2004
 1379SOL     OW15598   4.582   0.005   9.192 -0.1724  0.1872  0.2828
 1379SOL    HW115599   4.552   4.637   9.175  0.1585 -0.0854  1.1056
 1379SOL    HW215600   4.622   0.031   9.109  0.1938 -1.1814  0.0424
 1380SOL     OW15601   4.566   4.400  13.352 -0.4389  0.0866 -0.2811
 1380SOL    HW115602   4.556   4.495  13.340  0.2955  0.2320  0.3005
 1380SOL    HW215603   4.494   4.359  13.303  1.1846 -1.7689 -1.1067
 1381SOL     OW15604   3.300   0.138   8.318  0.0074  0.9428 -0.1779
 1381SOL    HW115605   3.274   0.168   8.231 -1.4425  1.6641  0.5105
 1381SOL    HW215606   3.214   0.109   8.346 -0.2915  0.7395 -1.3403
 1382SOL     OW15607   3.663   1.286  12.322 -0.3908 -0.0304  0.1531
 1382SOL    HW115608   3.751   1.321  12.335 -2.4174  4.9876  0.5550
 1382SOL    HW215609   3.635   1.325  12.405 -1.4845 -1.6676  0.5628
 1383SOL     OW15610   0.309   3.789   7.953 -0.0135  0.8160 -0.4166
 1383SOL    HW115611   0.264   3.778   8.037  3.3128  4.0658  1.8030
 1383SOL    HW215612   0.289   3.707   7.908  5.7753 -0.8346 -0.0233
 1384SOL     OW15613   2.077   4.714   8.744 -0.1678  0.1764 -0.0863
 1384SOL    HW115614   2.013   4.711   8.673  1.2601  1.0039 -1.4107
 1384SOL    HW215615   2.045   4.650   8.807 -0.9667  1.0377  0.3942
 1385SOL     OW15616   1.406   0.102   2.908  0.3110  0.2779  0.4183
 1385SOL    HW115617   1.313   0.081   2.916  0.6598 -1.9381 -1.4507
 1385SOL    HW215618   1.419   0.165   2.979 -2.2496 -0.1595  1.2597
 1386SOL     OW15619   2.433   3.303  11.961  0.0779  0.2521 -0.6328
 1386SOL    HW115620   2.340   3.280  11.967 -0.4621  2.9494  1.4571
 1386SOL    HW215621   2.438   3.385  12.011 -0.8563 -0.1345  0.0944
 1387SOL     OW15622   4.281   1.138   8.734 -0.3562 -0.1247  0.7473
 1387SOL    HW115623   4.197   1.116   8.695  0.0116 -0.6088  0.2216
 1387SOL    HW215624   4.313   1.054   8.768 -2.2252 -1.4108 -0.6889
 1388SOL     OW15625   1.687   1.352   6.367 -0.4485  0.0715 -0.0577
 1388SOL    HW115626   1.703   1.290   6.438 -0.5516 -0.2647 -0.3275
 1388SOL    HW215627   1.592   1.349   6.379 -0.6831  1.6302 -1.5914
 1389SOL     OW15628   3.100   1.508  16.398 -0.7147 -0.3728 -0.1422
 1389SOL    HW115629   3.162   1.436  16.390 -0.5782 -0.3460  0.6431
 1389SOL    HW215630   3.012   1.473  16.388 -0.5517 -0.2721 -1.9087
 1390SOL     OW15631   0.494   0.898   6.488  0.4195  0.0527  0.0788
 1390SOL    HW115632   0.501   0.829   6.555 -2.5457 -0.2165  0.0728
 1390SOL    HW215633   0.418   0.950   6.514  0.3469 -0.2854  0.5472
 1391SOL     OW15634   1.761   0.032  13.645 -0.6007 -0.2621 -0.7110
 1391SOL    HW115635   1.822   0.043  13.718 -1.6324  2.4375 -0.2513
 1391SOL    HW215636   1.811   0.081  13.578  1.9725 -1.0497  0.6287
 1392SOL     OW15637   1.944   1.153  15.637  0.2442 -0.3489 -0.0698
 1392SOL    HW115638   1.953   1.234  15.586 -0.8879  1.0145  1.8907
 1392SOL    HW215639   1.906   1.101  15.566  0.1046  2.4591 -2.0480
 1393SOL     OW15640   0.402   4.328   2.268  0.0182 -0.7569 -0.1189
 1393SOL    HW115641   0.450   4.301   2.190  2.6456  0.4550  1.0492
 1393SOL    HW215642   0.467   4.376   2.320  0.0708 -1.5746  0.5727
 1394SOL     OW15643   2.737   2.886   5.161  0.2813  0.1876  0.3143
 1394SOL    HW115644   2.829   2.865   5.179  0.3654  0.0214 -0.3112
 1394SOL    HW215645   2.746   2.961   5.101 -1.5572  1.2905  1.4299
 1395SOL     OW15646   1.129   1.745   7.202  0.3093  0.5754 -0.6077
 1395SOL    HW115647   1.198   1.810   7.184 -1.8834  3.4174  1.1933
 1395SOL    HW215648   1.153   1.717   7.291 -0.4801  1.1343 -0.2187
 1396SOL     OW15649   4.691   1.877   5.849 -0.6430  0.6668  0.1463
 1396SOL    HW115650   4.641   1.799   5.872  1.4694 -0.4273  1.1068
 1396SOL    HW215651   4.698   1.873   5.753 -0.3801 -0.7004  0.2292
 1397SOL     OW15652   2.023   3.159   5.519  0.4410  0.5076 -0.1699
 1397SOL    HW115653   2.081   3.197   5.585  0.3139 -0.6239  0.5951
 1397SOL    HW215654   2.074   3.180   5.440  0.9456 -3.5805 -0.9389
 1398SOL     OW15655   3.328   2.982   6.281 -0.2293 -0.0178 -0.1974
 1398SOL    HW115656   3.235   2.967   6.298 -0.0639  0.9718  1.5704
 1398SOL    HW215657   3.344   2.894   6.247 -0.2119  0.5049 -1.5371
 1399SOL     OW15658   2.526   1.855  11.883 -0.0683  0.1078 -0.4251
 1399SOL    HW115659   2.584   1.786  11.915  2.0903  2.2028  0.1709
 1399SOL    HW215660   2.448   1.800  11.876  0.0448  0.0722 -1.4667
 1400SOL     OW15661   1.587   0.747   1.349  0.1530 -0.0347 -0.3921
 1400SOL    HW115662   1.515   0.757   1.411  0.7250  0.4772  0.1841
 1400SOL    HW215663   1.552   0.752   1.260 -0.4341  2.5747 -0.0390
 1401SOL     OW15664   3.126   0.742  11.555  0.0780 -0.3728  0.0658
 1401SOL    HW115665   3.211   0.724  11.514 -0.4004 -3.8915  0.6165
 1401SOL    HW215666   3.144   0.701  11.639  2.6588  0.1516 -0.2314
 1402SOL     OW15667   2.604   3.447   8.831  0.4487 -0.6419  0.2349
 1402SOL    HW115668   2.510   3.431   8.844  0.2877 -0.3419 -0.5787
 1402SOL    HW215669   2.623   3.509   8.902  0.2868 -0.1905 -0.1141
 1403SOL     OW15670   0.907   0.111   2.880 -0.1203  0.0779  0.1053
 1403SOL    HW115671   0.847   0.108   2.955 -0.3942  1.6853 -0.0598
 1403SOL    HW215672   0.880   0.028   2.841 -1.1392 -0.0083  0.9749
 1404SOL     OW15673   1.122   1.950  17.081 -0.3891 -0.0029 -0.3534
 1404SOL    HW115674   1.211   1.943  17.114 -0.3796  0.5868 -0.2549
 1404SOL    HW215675   1.134   1.927  16.989  0.0228  1.6491 -0.7051
 1405SOL     OW15676   3.828   3.523   2.659  0.0348  0.0232  0.4448
 1405SOL    HW115677   3.779   3.547   2.580  1.7191  1.2506 -0.2268
 1405SOL    HW215678   3.888   3.453   2.634 -0.6705 -0.0094 -1.1932
 1406SOL     OW15679   2.382   0.205   4.985 -0.2540  0.0004 -0.3561
 1406SOL    HW115680   2.352   0.159   4.907  0.1273  1.1085 -1.1635
 1406SOL    HW215681   2.298   0.217   5.030  0.1729  0.5214  0.3014
 1407SOL     OW15682   1.521   4.448  15.010  0.0810 -0.0831 -0.2803
 1407SOL    HW115683   1.594   4.404  14.965  1.3553 -0.3283  2.0490
 1407SOL    HW215684   1.550   4.538  14.996  1.4480 -0.6505 -1.0934
 1408SOL     OW15685   1.010   2.887  15.877 -0.3795 -0.2004 -0.8321
 1408SOL    HW115686   0.916   2.906  15.874 -0.3206 -0.2111 -2.6398
 1408SOL    HW215687   1.026   2.879  15.783  1.7602 -0.0520 -0.4863
 1409SOL     OW15688   4.256   0.387  17.465  0.4005 -0.7043  0.1187
 1409SOL    HW115689   4.291   0.299  17.474  0.4922 -0.6416  0.3913
 1409SOL    HW215690   4.165   0.374  17.491 -0.0522 -0.0408 -1.1185
 1410SOL     OW15691   3.777   3.800  15.505 -0.4100  0.7105  0.2904
 1410SOL    HW115692   3.764   3.705  15.514 -0.3135  0.7776  1.1273
 1410SOL    HW215693   3.689   3.835  15.517 -0.7397 -0.0519  0.1180
 1411SOL     OW15694   3.756   0.099   4.479 -0.1721 -0.1225  0.0077
 1411SOL    HW115695   3.691   0.075   4.412 -0.1486 -1.0082  0.3059
 1411SOL    HW215696   3.832   0.056   4.441  0.0598 -0.3846  0.7822
 1412SOL     OW15697   2.548   4.493   4.311  0.5054 -0.5013  0.0192
 1412SOL    HW115698   2.465   4.454   4.282  0.7316 -1.2452  0.3634
 1412SOL    HW215699   2.566   4.459   4.399 -0.7691 -0.5458  0.2663
 1413SOL     OW15700   4.176   2.980   9.406  0.1406  0.1640 -0.0242
 1413SOL    HW115701   4.206   2.913   9.468 -0.5507  0.5676  0.7580
 1413SOL    HW215702   4.108   3.024   9.457 -0.7488 -0.5337 -0.6042
 1414SOL     OW15703   1.252   3.428  13.968 -0.3838  0.1528 -0.2028
 1414SOL    HW115704   1.235   3.517  13.937 -2.7366 -0.3518 -0.3381
 1414SOL    HW215705   1.267   3.384  13.885  2.3425  0.4577  0.0956
 1415SOL     OW15706   3.657   1.329   9.021  0.1441 -0.6957 -0.5852
 1415SOL    HW115707   3.617   1.413   9.042  1.9869  0.0530 -0.0427
 1415SOL    HW215708   3.588   1.269   9.049  0.1352 -0.7684 -0.7669
 1416SOL     OW15709   0.923   4.242   3.362  0.4270  0.3550 -0.1146
 1416SOL    HW115710   0.938   4.318   3.307 -0.9597  0.2524 -0.6349
 1416SOL    HW215711   0.871   4.192   3.300  1.1263  0.1304 -0.5240
 1417SOL     OW15712   4.180   3.186   4.838 -0.1728  0.6358 -0.6636
 1417SOL    HW115713   4.196   3.280   4.839  0.9316  0.4105  2.4535
 1417SOL    HW215714   4.181   3.154   4.928  1.6791  2.2356 -0.1153
 1418SOL     OW15715   3.019   2.664  13.773 -0.1239  0.2640 -0.0486
 1418SOL    HW115716   3.092   2.664  13.836 -0.8957  0.2428  0.8478
 1418SOL    HW215717   3.004   2.759  13.774 -2.0226 -0.0536  1.4751
 1419SOL     OW15718   1.598   0.922   8.821  0.4188 -0.1907 -0.0772
 1419SOL    HW115719   1.685   0.938   8.783 -0.3577  1.8639 -0.9973
 1419SOL    HW215720   1.556   0.868   8.755 -0.2849 -0.8829  0.9494
 1420SOL     OW15721   0.632   1.310   3.861  0.1083 -0.8941 -0.3864
 1420SOL    HW115722   0.722   1.340   3.871 -0.5368 -0.1301  3.0888
 1420SOL    HW215723   0.585   1.379   3.907 -1.4959 -1.6438 -0.9193
 1421SOL     OW15724   2.897   2.070  10.798 -0.2223  0.5960 -0.4885
 1421SOL    HW115725   2.901   2.164  10.784 -0.1903  0.5060 -1.0940
 1421SOL    HW215726   2.954   2.055  10.873 -2.3668  0.0594  1.0132
 1422SOL     OW15727   3.153   3.557   2.502  0.2862 -0.4109 -0.1470
 1422SOL    HW115728   3.129   3.479   2.453 -1.8531  0.0714  0.1003
 1422SOL    HW215729   3.186   3.526   2.586  0.3224 -0.0875 -0.0398
 1423SOL     OW15730   1.970   0.930  16.612 -0.4695  0.4356  0.0978
 1423SOL    HW115731   1.988   0.890  16.698  2.6139 -0.2292 -0.8865
 1423SOL    HW215732   1.976   1.025  16.622  0.3804  0.1570  2.2205
 1424SOL     OW15733   2.825   3.994   0.040 -0.1235  0.3711 -0.1170
 1424SOL    HW115734   2.870   3.977  17.645 -0.1067 -0.4042  0.0480
 1424SOL    HW215735   2.871   3.959   0.117 -2.6362 -0.0828  1.1831
 1425SOL     OW15736   1.778   2.432   8.921 -0.3907 -0.2084 -0.9676
 1425SOL    HW115737   1.715   2.364   8.946  0.1648 -1.0214 -1.7694
 1425SOL    HW215738   1.829   2.374   8.864 -3.2655 -1.5907 -2.1415
 1426SOL     OW15739   3.031   3.144   3.822  0.4674  0.3947 -0.6116
 1426SOL    HW115740   3.027   3.077   3.891 -3.2464  0.6537 -0.5716
 1426SOL    HW215741   2.954   3.116   3.773  0.6028 -1.0955  0.0178
 1427SOL     OW15742   0.497   2.972   1.262 -0.4351 -0.6297  0.3265
 1427SOL    HW115743   0.510   2.898   1.322 -0.8985 -1.3847 -0.5098
 1427SOL    HW215744   0.447   2.926   1.195  0.3078  0.3679 -0.9243
 1428SOL     OW15745   3.893   2.072   2.997  0.8249 -0.1451  0.4817
 1428SOL    HW115746   3.968   2.051   3.053  1.0177 -1.3542 -0.2306
 1428SOL    HW215747   3.873   1.987   2.959  2.4330  0.4435 -1.7193
 1429SOL     OW15748   3.588   2.978  14.564  0.1329 -0.4237 -0.2514
 1429SOL    HW115749   3.648   2.988  14.491  1.2202 -0.5744  0.6160
 1429SOL    HW215750   3.631   3.025  14.636 -0.0947  1.7565 -1.5431
 1430SOL     OW15751   2.389   4.613   9.857 -0.3032 -0.3234  0.1337
 1430SOL    HW115752   2.412   4.577   9.772  1.9041  0.4692  0.3873
 1430SOL    HW215753   2.303   4.647   9.831 -0.4723 -0.7544  0.1317
 1431SOL     OW15754   1.033   4.483   8.190  0.3677 -0.0696 -0.1597
 1431SOL    HW115755   1.018   4.571   8.225 -0.3522 -0.1097 -0.3813
 1431SOL    HW215756   0.969   4.431   8.238 -0.8968  1.4695 -0.1744
 1432SOL     OW15757   0.643   3.337  13.328  0.5880  0.4222 -0.1755
 1432SOL    HW115758   0.607   3.248  13.324 -0.6784  0.9641 -0.9991
 1432SOL    HW215759   0.717   3.322  13.387 -0.6155  0.3469  1.3122
 1433SOL     OW15760   2.481   1.220   5.684 -0.0002 -0.4125 -0.1545
 1433SOL    HW115761   2.411   1.251   5.626 -0.2748 -1.2181 -0.2625
 1433SOL    HW215762   2.467   1.125   5.679  1.3607 -0.7215  1.6950
 1434SOL     OW15763   3.026   4.059   2.751  0.5759 -0.3725  0.3327
 1434SOL    HW115764   3.004   3.966   2.739 -1.1898  0.1927 -0.6959
 1434SOL    HW215765   3.043   4.070   2.845  0.0073  1.8877  0.1715
 1435SOL     OW15766   3.362   0.230  15.531  0.1589  0.1814 -0.3920
 1435SOL    HW115767   3.267   0.229  15.544  0.2302 -2.1764 -0.0939
 1435SOL    HW215768   3.376   0.230  15.436 -1.8332 -2.3567 -0.6873
 1436SOL     OW15769   0.399   0.698   6.652  0.9638  0.2390  0.4152
 1436SOL    HW115770   0.332   0.642   6.613  1.0431  0.0248  0.5854
 1436SOL    HW215771   0.448   0.644   6.714 -1.7706 -1.2660  1.2714
 1437SOL     OW15772   2.419   1.121   3.701  0.3459  0.5446  0.3378
 1437SOL    HW115773   2.502   1.120   3.748  0.7562  0.3746 -0.3937
 1437SOL    HW215774   2.438   1.189   3.636 -0.4042 -1.3563 -1.8534
 1438SOL     OW15775   2.068   0.562   9.489  0.0261 -0.7162  0.0705
 1438SOL    HW115776   2.039   0.482   9.446  2.1748  0.1468 -2.9464
 1438SOL    HW215777   2.013   0.633   9.454  0.9902  0.4010  0.8012
 1439SOL     OW15778   2.645   3.244   6.741 -0.4021  0.3057  0.4529
 1439SOL    HW115779   2.732   3.208   6.759  0.5701  1.8170 -1.2875
 1439SOL    HW215780   2.658   3.335   6.767 -1.4007  0.5006  0.2687
 1440SOL     OW15781   0.405   3.828  11.183  0.6383 -0.0924 -0.1110
 1440SOL    HW115782   0.426   3.920  11.201 -1.0695 -0.1673  2.2659
 1440SOL    HW215783   0.316   3.810  11.212  1.0139 -0.6580  0.6871
 1441SOL     OW15784   1.534   3.209   2.242 -0.2716  0.6746 -0.5812
 1441SOL    HW115785   1.457   3.184   2.190 -0.2523 -0.2768 -0.1511
 1441SOL    HW215786   1.515   3.294   2.280 -0.7903  0.0231  0.6090
 1442SOL     OW15787   2.202   2.375  12.202  0.0339  0.1412  0.5225
 1442SOL    HW115788   2.189   2.454  12.256  1.3538  1.6489 -1.3609
 1442SOL    HW215789   2.165   2.406  12.120  1.2309  0.4232  0.0824
 1443SOL     OW15790   3.118   0.739   3.027  0.1947 -0.5271 -0.0558
 1443SOL    HW115791   3.094   0.832   3.024  1.7396 -0.1220  0.1105
 1443SOL    HW215792   3.184   0.724   2.960 -0.1755  1.1891 -0.8065
 1444SOL     OW15793   0.681   2.798  12.910  0.1736 -0.3729  0.0846
 1444SOL    HW115794   0.652   2.867  12.969 -0.1382  1.3805 -2.1026
 1444SOL    HW215795   0.598   2.754  12.889  1.3654 -1.8938 -1.4962
 1445SOL     OW15796   4.588   2.200  12.932  0.2875  0.5768 -0.9988
 1445SOL    HW115797   4.495   2.219  12.939 -0.1180 -1.5189 -0.4736
 1445SOL    HW215798   4.633   2.280  12.906 -1.6652  1.8438 -0.4415
 1446SOL     OW15799   1.433   1.338   6.399 -0.5217  0.2035  0.3640
 1446SOL    HW115800   1.345   1.303   6.390 -0.2999 -0.8238  2.1321
 1446SOL    HW215801   1.422   1.391   6.478 -0.3045 -1.2869  1.4060
 1447SOL     OW15802   3.089   0.409  14.555 -0.2598 -0.2540 -0.0034
 1447SOL    HW115803   3.013   0.355  14.577 -1.1241  0.8200 -0.3431
 1447SOL    HW215804   3.075   0.391  14.462 -2.0626 -1.3993  0.4777
 1448SOL     OW15805   2.732   0.240   0.161  0.2139  0.0567  0.5726
 1448SOL    HW115806   2.684   0.306   0.112  0.5690 -0.1442 -0.0505
 1448SOL    HW215807   2.703   0.158   0.120  0.3381  0.7507 -0.8880
 1449SOL     OW15808   3.410   3.258   8.386  0.7329  0.4159  0.1571
 1449SOL    HW115809   3.405   3.336   8.443 -0.1795  0.0303  0.6107
 1449SOL    HW215810   3.504   3.241   8.382  0.6543  0.8691 -3.1168
 1450SOL     OW15811   0.935   0.407   8.900 -0.2973  0.1393 -0.3931
 1450SOL    HW115812   0.839   0.412   8.893 -0.2627 -1.1112 -1.8036
 1450SOL    HW215813   0.952   0.394   8.993 -1.3975  0.3606 -0.1558
 1451SOL     OW15814   3.006   1.728   3.656  0.5819  0.5623 -0.0649
 1451SOL    HW115815   3.098   1.737   3.680  0.2439  2.4134  0.6128
 1451SOL    HW215816   3.000   1.737   3.561  1.0626  1.0145 -0.0563
 1452SOL     OW15817   2.452   1.431  11.966  0.0025  0.1503  0.0720
 1452SOL    HW115818   2.517   1.499  11.952  1.6676 -1.2266  1.1102
 1452SOL    HW215819   2.399   1.477  12.031  0.0351 -1.9497  1.5758
 1453SOL     OW15820   0.638   3.276   5.278  0.2694 -0.0460 -0.4738
 1453SOL    HW115821   0.685   3.357   5.297  1.5266 -0.7673 -0.4979
 1453SOL    HW215822   0.670   3.262   5.189  1.1719 -1.6079  0.0899
 1454SOL     OW15823   0.789   2.375   8.411  0.2092  0.1879 -0.1481
 1454SOL    HW115824   0.877   2.337   8.416  1.0292  1.9859 -0.7341
 1454SOL    HW215825   0.770   2.382   8.504 -0.8109 -3.0769 -0.1183
 1455SOL     OW15826   0.018   4.531   5.875 -0.0730  0.3611 -0.4889
 1455SOL    HW115827   0.057   4.593   5.815 -0.3789  0.7214 -0.3185
 1455SOL    HW215828   4.655   4.573   5.896  0.1613  0.0430  1.1337
 1456SOL     OW15829   2.606   2.425  16.042 -0.0567 -0.2806 -0.3561
 1456SOL    HW115830   2.672   2.490  16.066 -0.9791  0.2565  0.6734
 1456SOL    HW215831   2.538   2.445  16.106 -0.6284 -1.6428 -0.5277
 1457SOL     OW15832   2.928   0.875   2.484 -0.2168  0.6046  0.1215
 1457SOL    HW115833   2.939   0.880   2.579  0.7548 -1.8272  0.1402
 1457SOL    HW215834   3.005   0.821   2.470 -1.1220 -0.7180  0.2778
 1458SOL     OW15835   1.813   0.260   8.816 -0.4350  0.1578 -0.6106
 1458SOL    HW115836   1.898   0.288   8.850 -0.6316  0.2072 -0.1598
 1458SOL    HW215837   1.763   0.268   8.897  0.9478 -0.3602  0.2702
 1459SOL     OW15838   3.177   3.048  16.455 -0.4278  0.3328  0.4053
 1459SOL    HW115839   3.222   3.129  16.431 -0.3696 -0.5120 -2.2448
 1459SOL    HW215840   3.217   3.036  16.542  0.2291 -1.8639 -0.2157
 1460SOL     OW15841   3.586   2.859   5.315  0.2312  0.2767  0.2809
 1460SOL    HW115842   3.537   2.936   5.287 -1.9635 -1.3844 -0.3930
 1460SOL    HW215843   3.621   2.889   5.399 -1.2437 -0.2555  1.0739
 1461SOL     OW15844   3.072   3.539   9.392 -0.1154  0.1078  0.1821
 1461SOL    HW115845   3.047   3.556   9.483 -0.8996  1.2278 -0.2489
 1461SOL    HW215846   3.143   3.478   9.413 -0.1955 -0.6297 -1.7028
 1462SOL     OW15847   4.000   0.136   7.012 -0.3182  0.0889 -0.0915
 1462SOL    HW115848   3.945   0.084   6.953  1.0544 -2.1785  0.6494
 1462SOL    HW215849   3.941   0.172   7.078 -0.7227 -1.1771  0.2304
 1463SOL     OW15850   2.890   0.964  12.689 -0.4975  0.0224 -0.0416
 1463SOL    HW115851   2.809   0.936  12.648 -0.9648  0.9883  0.2191
 1463SOL    HW215852   2.898   0.912  12.770 -0.6774  0.2364  0.1143
 1464SOL     OW15853   3.516   0.505  15.603  0.5907 -0.0043 -0.3652
 1464SOL    HW115854   3.570   0.482  15.528  0.9737 -1.0108  0.2232
 1464SOL    HW215855   3.436   0.470  15.565  0.8463 -2.2770  1.1807
 1465SOL     OW15856   4.168   0.760   4.428  0.5568  0.1629  0.8770
 1465SOL    HW115857   4.216   0.723   4.354 -0.8839  0.0863 -0.0266
 1465SOL    HW215858   4.236   0.781   4.492  0.5880  1.3303  0.4483
 1466SOL     OW15859   0.153   1.804   6.163  0.0383 -0.2708 -0.2120
 1466SOL    HW115860   0.061   1.791   6.186 -0.5497  2.9053 -0.8148
 1466SOL    HW215861   0.203   1.794   6.244 -1.3738  4.0466  1.1917
 1467SOL     OW15862   1.715   0.924  12.398  0.3854  0.0648  0.2357
 1467SOL    HW115863   1.803   0.896  12.374 -1.3227 -0.8190 -4.8957
 1467SOL    HW215864   1.693   0.972  12.319  0.5632 -1.4157 -0.7103
 1468SOL     OW15865   1.734   3.460  11.532 -0.2105  0.9121  0.2977
 1468SOL    HW115866   1.757   3.386  11.588  1.4271 -0.6098 -2.4130
 1468SOL    HW215867   1.692   3.516  11.598 -0.3131 -1.3032  2.1380
 1469SOL     OW15868   2.345   3.936   7.200  0.5988  0.0039 -0.7714
 1469SOL    HW115869   2.413   3.890   7.250 -0.1722  3.6965  3.7223
 1469SOL    HW215870   2.270   3.915   7.256 -0.5619  1.6515 -1.7180
 1470SOL     OW15871   3.818   2.208   7.855 -0.3654 -0.3663 -0.1170
 1470SOL    HW115872   3.844   2.297   7.880 -1.2451  0.5061 -2.2539
 1470SOL    HW215873   3.723   2.207   7.858 -0.2513 -1.3477  2.9502
 1471SOL     OW15874   4.038   2.230   1.863 -0.3087  0.6327 -0.2880
 1471SOL    HW115875   3.966   2.196   1.810 -1.6163  2.3809  0.3789
 1471SOL    HW215876   4.007   2.319   1.880 -2.2729  0.0519 -0.7619
 1472SOL     OW15877   3.796   3.235   1.005 -0.2657  0.5296 -0.5409
 1472SOL    HW115878   3.849   3.294   1.059  0.2504 -0.3215 -0.1137
 1472SOL    HW215879   3.817   3.151   1.047  2.2452  1.4536  0.0554
 1473SOL     OW15880   3.281   1.643  14.639 -0.2304 -0.2191 -0.0011
 1473SOL    HW115881   3.269   1.664  14.547 -1.8647 -0.3394  0.1947
 1473SOL    HW215882   3.376   1.641  14.624 -0.0855  1.2196  0.7334
 1474SOL     OW15883   2.277   1.310   4.023  0.5139 -0.3144  0.0680
 1474SOL    HW115884   2.270   1.217   4.046  0.1603  0.2557  2.1643
 1474SOL    HW215885   2.373   1.316   4.029  0.5620 -0.5508 -0.3906
 1475SOL     OW15886   0.643   0.153   4.929  0.3874  0.2437 -0.0263
 1475SOL    HW115887   0.589   0.222   4.891 -1.0071 -1.4444 -1.0907
 1475SOL    HW215888   0.674   0.207   5.002  0.8014  2.2840 -1.7111
 1476SOL     OW15889   2.007   2.276   2.356 -0.3890 -0.5170  0.2964
 1476SOL    HW115890   2.047   2.258   2.442 -0.5083 -2.6801 -0.0905
 1476SOL    HW215891   2.083   2.285   2.299  0.9291 -1.4055  1.9071
 1477SOL     OW15892   1.832   0.761   8.006 -0.1210  0.8912 -0.1333
 1477SOL    HW115893   1.830   0.727   7.917  2.4117 -0.0901  0.1774
 1477SOL    HW215894   1.778   0.701   8.057 -0.7776 -0.2622 -2.2087
 1478SOL     OW15895   1.355   0.829   1.516  0.1913  0.1083 -0.2110
 1478SOL    HW115896   1.329   0.755   1.461 -1.1204  0.3955  0.0089
 1478SOL    HW215897   1.344   0.790   1.603 -1.0974 -1.2635 -0.9900
 1479SOL     OW15898   3.912   0.884  15.950 -0.2702 -0.0818 -0.6853
 1479SOL    HW115899   3.884   0.792  15.954  0.7532 -0.3963 -0.6870
 1479SOL    HW215900   3.905   0.899  15.856 -1.6229  0.2484 -0.5260
 1480SOL     OW15901   4.692   1.434   4.428 -0.1011 -0.4867 -0.1690
 1480SOL    HW115902   0.033   1.431   4.356 -0.5834 -0.1035 -0.6047
 1480SOL    HW215903   4.633   1.365   4.397 -0.6009  0.3660 -1.1373
 1481SOL     OW15904   4.168   0.223   3.684  0.2698 -0.1389 -0.1648
 1481SOL    HW115905   4.122   0.274   3.618 -0.6503  1.8278  1.9952
 1481SOL    HW215906   4.100   0.236   3.750 -0.2012  1.1295 -0.9130
 1482SOL     OW15907   3.120   2.411  13.800 -0.3712 -0.0062 -0.4573
 1482SOL    HW115908   3.060   2.349  13.841 -1.2697  2.7088  2.3299
 1482SOL    HW215909   3.068   2.489  13.785 -0.8954 -0.5488 -1.4438
 1483SOL     OW15910   3.075   4.129   5.142 -0.3367  0.1514 -0.4030
 1483SOL    HW115911   3.009   4.196   5.158  0.6253  0.5838  1.7938
 1483SOL    HW215912   3.157   4.163   5.178 -1.0943  1.8381 -0.3194
 1484SOL     OW15913   2.073   1.379   4.409  0.4307  0.5013  0.1631
 1484SOL    HW115914   2.161   1.346   4.427  1.6352  2.4828 -2.0170
 1484SOL    HW215915   2.088   1.395   4.316 -1.4620 -0.6232 -0.3400
 1485SOL     OW15916   3.278   1.103  15.704 -0.3660 -0.0145  0.3559
 1485SOL    HW115917   3.316   1.166  15.766 -0.1082  1.2005 -1.0448
 1485SOL    HW215918   3.201   1.082  15.757 -0.8570  1.8557  0.4043
 1486SOL     OW15919   1.118   1.167   3.907  0.0118  0.1084  0.0288
 1486SOL    HW115920   1.132   1.182   3.814 -0.2771 -2.2532 -0.4092
 1486SOL    HW215921   1.206   1.169   3.945 -0.6189  0.2608  1.4644
 1487SOL     OW15922   4.528   0.527   9.141  0.2071 -0.0939  0.1890
 1487SOL    HW115923   4.520   0.590   9.213  2.3188  0.6571 -0.2272
 1487SOL    HW215924   4.471   0.456   9.170 -1.3711  0.2270 -2.1795
 1488SOL     OW15925   0.758   2.874   2.831  0.0985 -0.0637  0.4770
 1488SOL    HW115926   0.778   2.938   2.762 -3.5316  1.3670  0.7053
 1488SOL    HW215927   0.662   2.876   2.826  0.0541 -0.3613  1.2609
 1489SOL     OW15928   2.322   1.877   7.048  0.0775 -0.3216 -0.5102
 1489SOL    HW115929   2.290   1.788   7.032  0.1146 -0.1310 -1.6765
 1489SOL    HW215930   2.264   1.915   7.115  0.3933 -1.8811  0.6361
 1490SOL     OW15931   1.654   4.134   3.870 -0.2792  0.6820  0.2145
 1490SOL    HW115932   1.697   4.151   3.786 -1.5160 -0.0540 -0.5810
 1490SOL    HW215933   1.700   4.053   3.889 -1.1532 -0.0778 -0.8838
 1491SOL     OW15934   2.934   1.650  11.918 -0.2897 -0.0946 -0.4168
 1491SOL    HW115935   2.969   1.619  11.834 -0.3750 -0.8982 -0.1578
 1491SOL    HW215936   3.003   1.626  11.979 -1.5975 -2.1410  0.2427
 1492SOL     OW15937   2.281   0.398   5.646  0.6583  0.1206  0.1310
 1492SOL    HW115938   2.283   0.349   5.728  2.0745  0.2043  0.1334
 1492SOL    HW215939   2.374   0.398   5.623  0.8723 -2.7858  1.0101
 1493SOL     OW15940   3.574   4.012   3.638 -0.1977 -0.0611  0.2896
 1493SOL    HW115941   3.498   3.962   3.610 -1.6686  2.7545 -0.8145
 1493SOL    HW215942   3.606   3.982   3.723  0.4404  0.0402  0.0925
 1494SOL     OW15943   3.580   1.855   2.389  0.1701 -0.2037  0.3065
 1494SOL    HW115944   3.673   1.856   2.367 -0.4070 -0.2941 -2.1001
 1494SOL    HW215945   3.581   1.923   2.457 -0.0029 -0.6061  0.7123
 1495SOL     OW15946   2.816   2.602   9.438 -0.3008 -0.2843 -0.2688
 1495SOL    HW115947   2.783   2.512   9.440 -1.2830  0.1449  2.1113
 1495SOL    HW215948   2.768   2.644   9.367  0.1437 -1.0129 -1.0111
 1496SOL     OW15949   4.099   1.314   6.435  0.1947  0.3569 -0.0932
 1496SOL    HW115950   4.035   1.383   6.420  1.5107  1.8670  1.2432
 1496SOL    HW215951   4.181   1.363   6.435  1.2023 -1.3207  1.8907
 1497SOL     OW15952   1.506   0.188  14.153 -0.3198 -0.3389  1.0572
 1497SOL    HW115953   1.570   0.153  14.091 -1.7734 -1.1264 -0.0260
 1497SOL    HW215954   1.568   0.218  14.219 -0.0040 -0.5022  0.8356
 1498SOL     OW15955   3.586   1.904   2.771 -0.6445  0.1952  0.4640
 1498SOL    HW115956   3.512   1.872   2.823 -1.6629 -0.4456 -1.3685
 1498SOL    HW215957   3.668   1.886   2.818 -0.3564 -0.7503 -0.4067
 1499SOL     OW15958   1.826   1.817   5.321 -0.8967  0.1348 -0.3173
 1499SOL    HW115959   1.890   1.862   5.266 -1.6419  0.7302 -0.6982
 1499SOL    HW215960   1.874   1.771   5.389 -2.7731  0.6693  1.3486
 1500SOL     OW15961   0.690   0.630   2.102 -0.0015 -0.1421 -0.3039
 1500SOL    HW115962   0.781   0.601   2.105 -0.5827 -1.8708  0.2067
 1500SOL    HW215963   0.699   0.696   2.034 -1.1125  0.4792  0.1396
 1501SOL     OW15964   1.082   1.290   1.296 -0.4019  0.0849 -0.1372
 1501SOL    HW115965   1.123   1.276   1.211 -0.2998  1.7637 -0.3472
 1501SOL    HW215966   1.139   1.241   1.356 -1.7013 -0.2265  0.8579
 1502SOL     OW15967   1.497   1.176   4.841 -0.0933 -0.2419 -0.8405
 1502SOL    HW115968   1.469   1.267   4.842 -1.9158 -0.8034 -1.5175
 1502SOL    HW215969   1.424   1.123   4.809 -0.4215  0.4102 -1.1679
 1503SOL     OW15970   3.430   2.951   2.623  1.1433 -0.1985 -0.3810
 1503SOL    HW115971   3.395   3.002   2.696 -1.3465 -0.6756 -1.2486
 1503SOL    HW215972   3.444   3.021   2.559  1.2688  0.7071  0.6327
 1504SOL     OW15973   1.569   2.174   3.574  0.2945 -0.4227 -0.1273
 1504SOL    HW115974   1.638   2.195   3.512 -0.8138  0.8786 -0.9109
 1504SOL    HW215975   1.528   2.259   3.588 -1.1698 -1.0292 -0.7566
 1505SOL     OW15976   4.495   3.582  14.562 -0.2755 -0.1581 -0.4392
 1505SOL    HW115977   4.419   3.528  14.582 -1.4872  1.6817 -0.1700
 1505SOL    HW215978   4.545   3.530  14.498  0.4633 -0.6265  0.5204
 1506SOL     OW15979   2.799   1.225  11.444 -1.0219  0.4030  0.4111
 1506SOL    HW115980   2.846   1.308  11.440  0.7515 -0.4830  3.2728
 1506SOL    HW215981   2.865   1.157  11.435 -2.0304 -0.5735  0.3608
 1507SOL     OW15982   2.180   1.014   5.253 -0.0277  0.4239 -0.0246
 1507SOL    HW115983   2.095   1.007   5.297  0.4426 -1.2994  0.6051
 1507SOL    HW215984   2.154   1.038   5.164  0.5057  1.0846 -0.0027
 1508SOL     OW15985   1.176   3.564  15.176 -0.8900 -0.6633 -0.1051
 1508SOL    HW115986   1.269   3.541  15.179 -0.6191  0.3217 -0.7232
 1508SOL    HW215987   1.148   3.499  15.112 -0.4779 -1.0721  0.1274
 1509SOL     OW15988   0.447   3.575   2.551 -0.2018 -0.6942  0.0695
 1509SOL    HW115989   0.412   3.637   2.615 -1.8629 -0.5326 -1.0051
 1509SOL    HW215990   0.540   3.579   2.573  0.3654 -2.5602 -1.9534
 1510SOL     OW15991   0.528   3.367   5.964  0.1203  0.1582  0.2152
 1510SOL    HW115992   0.456   3.425   5.989 -0.4573 -1.5212  2.4312
 1510SOL    HW215993   0.568   3.363   6.051 -0.3120 -1.0408  0.3495
 1511SOL     OW15994   4.097   0.703   3.470  0.0612  0.6885 -0.1193
 1511SOL    HW115995   4.054   0.716   3.385 -0.0770  0.6944 -0.0473
 1511SOL    HW215996   4.013   0.683   3.510 -0.3518  1.5013 -0.5765
 1512SOL     OW15997   1.688   0.475  11.841  0.0264  0.3207  0.1217
 1512SOL    HW115998   1.769   0.426  11.856  0.7139  1.4721  0.1766
 1512SOL    HW215999   1.724   0.518  11.763 -0.7102  1.2922  0.3237
 1513SOL     OW16000   0.207   3.137   6.640  0.2051 -0.5062  0.4821
 1513SOL    HW116001   0.139   3.202   6.619  2.3972  0.8399 -2.4802
 1513SOL    HW216002   0.279   3.194   6.668  0.1053 -0.1946  0.1150
 1514SOL     OW16003   3.512   4.005   5.244 -0.2476  0.3872 -0.5074
 1514SOL    HW116004   3.576   3.934   5.234 -1.3209 -0.6392 -0.1038
 1514SOL    HW216005   3.511   4.016   5.339 -1.0594 -1.2722 -0.3353
 1515SOL     OW16006   0.687   2.280   5.241 -0.2122  0.2246 -0.2415
 1515SOL    HW116007   0.611   2.259   5.296  1.2602 -1.8585  1.0070
 1515SOL    HW216008   0.751   2.320   5.299  1.3497 -0.6440 -1.3751
 1516SOL     OW16009   0.500   1.863  14.410 -0.3881 -0.2335  0.6756
 1516SOL    HW116010   0.560   1.825  14.473 -0.6238 -0.6139  0.6690
 1516SOL    HW216011   0.469   1.941  14.456 -3.0805 -1.1801  0.4336
 1517SOL     OW16012   0.810   1.534  14.806 -0.3577  0.0247  0.3452
 1517SOL    HW116013   0.722   1.572  14.814 -0.2646 -0.0847  1.7590
 1517SOL    HW216014   0.860   1.587  14.744  2.0293 -3.2883 -0.5220
 1518SOL     OW16015   3.866   1.116   6.436  0.4545  0.5842  0.0763
 1518SOL    HW116016   3.809   1.194   6.438  0.4015  0.5999 -1.7496
 1518SOL    HW216017   3.951   1.160   6.440  1.5520 -1.5657  0.1356
 1519SOL     OW16018   0.580   2.084   8.708 -0.2808  0.3147 -0.5673
 1519SOL    HW116019   0.512   2.023   8.737  1.2826 -0.5654  1.2632
 1519SOL    HW216020   0.518   2.157   8.716 -0.4273  0.0667  0.5988
 1520SOL     OW16021   0.108   4.464   3.748 -0.2695  0.6013  0.1377
 1520SOL    HW116022   0.026   4.418   3.728  0.9438 -2.1000  1.4058
 1520SOL    HW216023   0.163   4.393   3.781 -0.5921  0.8213  1.1388
 1521SOL     OW16024   3.858   3.674   7.901  0.5568  0.2001 -0.8537
 1521SOL    HW116025   3.848   3.647   7.810  1.4389 -1.9045 -0.3174
 1521SOL    HW216026   3.769   3.660   7.935 -0.3914  3.6509 -1.9303
 1522SOL     OW16027   1.076   1.350   7.786 -0.2285 -0.2495  0.0762
 1522SOL    HW116028   1.138   1.299   7.838  0.4627  1.1483  0.6459
 1522SOL    HW216029   1.094   1.303   7.705  2.8864 -1.5758  1.5354
 1523SOL     OW16030   3.599   4.407  13.715 -0.0496  0.4552 -0.0596
 1523SOL    HW116031   3.663   4.382  13.781 -1.1485 -1.5912  0.2377
 1523SOL    HW216032   3.578   4.325  13.671 -0.5143  0.3197  0.4062
 1524SOL     OW16033   1.352   2.215  11.209 -0.1973 -0.2339 -0.5424
 1524SOL    HW116034   1.325   2.146  11.269  0.1429  1.3858  1.4990
 1524SOL    HW216035   1.289   2.281  11.238 -1.2968 -2.1380  1.3578
 1525SOL     OW16036   2.934   2.691   6.042 -0.7683 -0.2042  0.2402
 1525SOL    HW116037   3.003   2.695   6.107 -0.1998  1.6660 -0.4920
 1525SOL    HW216038   2.878   2.766   6.062 -0.1040  0.1476  0.7841
 1526SOL     OW16039   4.171   0.074   9.509 -0.3050  0.0777 -0.2519
 1526SOL    HW116040   4.088   0.027   9.511 -1.1099  1.5168  0.9624
 1526SOL    HW216041   4.143   0.158   9.471  0.1353  0.9306  1.3011
 1527SOL     OW16042   1.438   1.002  17.229 -0.1293  0.0005 -0.5229
 1527SOL    HW116043   1.475   0.984  17.316  0.0172  2.6367 -0.0369
 1527SOL    HW216044   1.517   1.041  17.191  0.5616  0.9243  1.8600
 1528SOL     OW16045   0.952   3.539   3.868 -0.3547 -0.4644 -0.2496
 1528SOL    HW116046   1.005   3.604   3.914 -1.2774  0.4439 -0.4764
 1528SOL    HW216047   0.865   3.555   3.905  0.1322  3.6364 -0.8316
 1529SOL     OW16048   0.593   0.533   7.766  0.1122  0.0871 -0.0830
 1529SOL    HW116049   0.512   0.583   7.773  0.0868  0.0235  0.0843
 1529SOL    HW216050   0.643   0.570   7.694  2.4410 -2.1090  0.3988
 1530SOL     OW16051   3.611   1.654  17.379 -0.0049 -0.4493 -1.0092
 1530SOL    HW116052   3.652   1.711  17.444  0.0189 -1.7358  0.0969
 1530SOL    HW216053   3.602   1.709  17.300  1.9941  0.2905 -0.7356
 1531SOL     OW16054   4.634   3.876   8.317  0.6660 -0.2436  0.2650
 1531SOL    HW116055   4.548   3.834   8.314 -0.1361  1.1587  3.3238
 1531SOL    HW216056   4.628   3.927   8.236  1.7620 -0.3605  0.1113
 1532SOL     OW16057   0.254   4.193   8.041 -0.4737  0.3327  0.4245
 1532SOL    HW116058   0.319   4.136   8.083  0.2064  1.3483  0.7485
 1532SOL    HW216059   0.264   4.263   8.106 -2.5987  0.6799  0.3684
 1533SOL     OW16060   2.454   4.376   0.570 -0.2557  0.2914  0.1868
 1533SOL    HW116061   2.472   4.467   0.547 -0.4600  0.3417  0.2279
 1533SOL    HW216062   2.503   4.339   0.496  0.1748  0.6839  0.2769
 1534SOL     OW16063   4.060   3.197  17.357  0.4741  0.2929 -0.6466
 1534SOL    HW116064   4.044   3.238  17.272 -0.5242  1.0875 -0.0763
 1534SOL    HW216065   4.093   3.269  17.411  2.0203 -1.1732  0.3832
 1535SOL     OW16066   1.261   2.242   2.278  0.1094  0.0139  0.0190
 1535SOL    HW116067   1.175   2.229   2.240  0.1386  2.9971 -1.0487
 1535SOL    HW216068   1.283   2.335   2.281 -1.9004  0.5580 -2.2226
 1536SOL     OW16069   1.487   3.418  10.998 -0.0603  0.2706  0.1736
 1536SOL    HW116070   1.558   3.482  11.008  0.4349 -0.4892  1.5316
 1536SOL    HW216071   1.505   3.403  10.905 -0.6704  1.2430 -0.0989
 1537SOL     OW16072   2.012   4.707   3.912  0.2117  0.4624 -0.4467
 1537SOL    HW116073   2.051   4.627   3.877 -0.8788 -0.2616 -0.0255
 1537SOL    HW216074   2.064   4.720   3.991  1.2758 -0.0326 -1.0720
 1538SOL     OW16075   3.510   2.073   3.986  0.6819 -0.3805 -0.7243
 1538SOL    HW116076   3.432   2.049   3.937 -0.0748  1.2789 -0.3351
 1538SOL    HW216077   3.559   2.127   3.924 -0.5398 -0.2527 -1.5571
 1539SOL     OW16078   3.507   1.191   4.234 -0.3556  0.0222  0.9692
 1539SOL    HW116079   3.583   1.138   4.258 -0.1513  0.2571  0.8450
 1539SOL    HW216080   3.560   1.268   4.213  0.6841 -0.0677  3.2500
 1540SOL     OW16081   0.665   3.850   2.605 -0.5983  0.2489 -0.1599
 1540SOL    HW116082   0.593   3.878   2.660 -0.6700 -0.1347 -0.0611
 1540SOL    HW216083   0.733   3.843   2.672 -0.9166  0.0690  0.1442
 1541SOL     OW16084   1.562   4.318   4.155  0.3395 -1.1165  0.2705
 1541SOL    HW116085   1.521   4.249   4.207  1.2804 -1.4155  0.6323
 1541SOL    HW216086   1.651   4.283   4.154  1.0529  0.6528  0.4441
 1542SOL     OW16087   2.763   0.323   8.482 -0.3950 -0.3466 -0.2688
 1542SOL    HW116088   2.768   0.323   8.578  0.8432  2.9732 -0.3577
 1542SOL    HW216089   2.765   0.417   8.468  2.5500 -0.4875 -0.6502
 1543SOL     OW16090   2.720   2.555   5.931 -0.4421 -0.1827  0.3714
 1543SOL    HW116091   2.804   2.574   5.972 -0.3641 -0.0694  0.1581
 1543SOL    HW216092   2.662   2.618   5.974 -0.4001 -0.4393  0.7987
 1544SOL     OW16093   3.796   4.565   3.057  0.5487 -0.0298  0.0362
 1544SOL    HW116094   3.761   4.477   3.043 -0.8299  0.5106  0.1200
 1544SOL    HW216095   3.872   4.550   3.001 -0.0612  0.5000 -0.9187
 1545SOL     OW16096   2.347   1.269   1.100 -0.0471 -0.6132  0.8224
 1545SOL    HW116097   2.286   1.313   1.158 -1.1199  2.1295 -2.3587
 1545SOL    HW216098   2.420   1.331   1.088 -1.5791  0.5657 -2.4466
 1546SOL     OW16099   4.088   3.895   5.714 -0.4691 -0.5171  0.2015
 1546SOL    HW116100   4.090   3.980   5.669 -1.6116 -0.6070 -0.0072
 1546SOL    HW216101   4.036   3.922   5.791 -0.4949 -2.3317  0.8112
 1547SOL     OW16102   3.373   4.568   8.932 -0.3000 -0.0795 -0.0944
 1547SOL    HW116103   3.360   4.479   8.901  1.6742 -0.2708 -0.3606
 1547SOL    HW216104   3.462   4.577   8.898  0.2897  0.5993  1.5930
 1548SOL     OW16105   1.325   0.289   3.791 -0.6474 -0.3094  0.4389
 1548SOL    HW116106   1.265   0.239   3.735  0.8538 -2.3845  0.6467
 1548SOL    HW216107   1.263   0.337   3.845 -2.9133 -2.6517 -0.0879
 1549SOL     OW16108   1.473   0.958   5.202 -0.2364  0.2803 -0.2109
 1549SOL    HW116109   1.559   0.950   5.160 -0.1626 -0.0854  0.0042
 1549SOL    HW216110   1.455   1.051   5.199  1.7783  0.7545  1.8631
 1550SOL     OW16111   0.764   4.079  13.521  0.9027  0.6283  0.4204
 1550SOL    HW116112   0.693   4.119  13.571  3.2736  1.2057  3.3065
 1550SOL    HW216113   0.743   4.119  13.436 -0.9529 -0.2835  0.4416
 1551SOL     OW16114   1.236   1.160  16.758 -0.0830 -0.2525 -0.1484
 1551SOL    HW116115   1.171   1.141  16.826  0.2817 -1.1828 -0.0633
 1551SOL    HW216116   1.302   1.090  16.760 -1.1742 -1.2112  3.1905
 1552SOL     OW16117   1.970   3.891  10.363 -0.8546 -0.7250  0.2254
 1552SOL    HW116118   2.045   3.842  10.330 -2.0640 -0.9443 -2.1974
 1552SOL    HW216119   1.901   3.836  10.323 -1.0263 -1.0531  0.9798
 1553SOL     OW16120   0.129   1.147   6.806  0.0911  0.0389 -0.1049
 1553SOL    HW116121   0.099   1.235   6.780  0.2661 -1.1584 -4.4005
 1553SOL    HW216122   0.207   1.166   6.857 -2.3463 -0.7703  3.8878
 1554SOL     OW16123   0.863   1.130  17.667  0.4921 -0.0360  0.0815
 1554SOL    HW116124   0.781   1.180  17.675  0.0201 -0.4580 -1.8930
 1554SOL    HW216125   0.868   1.126  17.571 -0.0678  1.3912 -0.0120
 1555SOL     OW16126   0.255   2.932   1.498 -0.0984 -0.1841 -0.2178
 1555SOL    HW116127   0.311   2.988   1.551 -1.2212  1.0528 -0.3473
 1555SOL    HW216128   0.263   2.968   1.410 -0.1988  1.3574  0.4066
 1556SOL     OW16129   3.442   2.469   5.120  0.0484  0.4011  0.7236
 1556SOL    HW116130   3.501   2.515   5.179 -0.7567 -0.2312  2.0023
 1556SOL    HW216131   3.396   2.533   5.064  0.4003 -0.8266 -0.9819
 1557SOL     OW16132   1.803   3.068   8.046  0.2225  0.4030  0.1901
 1557SOL    HW116133   1.778   2.995   8.103  2.9093 -1.9351 -1.5744
 1557SOL    HW216134   1.853   3.118   8.110  1.9627 -0.7295 -0.2723
 1558SOL     OW16135   4.198   0.338   6.842 -0.2702 -0.1038  0.3360
 1558SOL    HW116136   4.170   0.278   6.911 -1.7001 -0.4987 -0.5620
 1558SOL    HW216137   4.233   0.273   6.780  1.7651  0.3697  1.0056
 1559SOL     OW16138   4.510   1.072   8.092  0.2213  0.6748  0.1284
 1559SOL    HW116139   4.579   1.139   8.085  1.3863 -0.4611  0.6840
 1559SOL    HW216140   4.445   1.113   8.148 -1.0500 -3.7009  1.8477
 1560SOL     OW16141   3.312   0.739   5.789  0.4824 -0.5822  0.4501
 1560SOL    HW116142   3.307   0.644   5.776  2.2027 -0.4032 -1.4203
 1560SOL    HW216143   3.393   0.736   5.839  0.1474 -0.6987  0.9840
 1561SOL     OW16144   1.466   0.082   2.609  0.0993  0.6267 -0.4487
 1561SOL    HW116145   1.375   0.051   2.609  0.0696  0.7223 -1.3398
 1561SOL    HW216146   1.467   0.109   2.701  2.2577  0.5288 -0.4478
 1562SOL     OW16147   0.294   0.740   9.239 -0.0840 -0.6105 -0.7135
 1562SOL    HW116148   0.385   0.714   9.248 -0.3082 -1.8269 -2.0842
 1562SOL    HW216149   0.298   0.834   9.220 -0.1898 -0.5294 -0.3436
 1563SOL     OW16150   1.321   3.884  16.534  0.4423  0.3060 -0.1246
 1563SOL    HW116151   1.392   3.828  16.503  1.2392 -0.1755  2.5939
 1563SOL    HW216152   1.298   3.834  16.612 -2.5810 -0.0709 -1.2775
 1564SOL     OW16153   1.602   3.087  17.080  0.5081  0.4570  0.0658
 1564SOL    HW116154   1.582   3.099  16.987  0.0807  0.3005  0.1402
 1564SOL    HW216155   1.608   3.181  17.099  2.0442  0.4817 -0.4708
 1565SOL     OW16156   2.204   2.087   4.823 -0.5015  0.4581 -0.0598
 1565SOL    HW116157   2.196   2.146   4.748  1.4603  1.6386  0.6872
 1565SOL    HW216158   2.127   2.120   4.870 -1.4899  0.5973 -1.7939
 1566SOL     OW16159   1.761   4.250  13.264  0.1827  0.2060  0.2069
 1566SOL    HW116160   1.696   4.184  13.239  0.1618  0.9779 -1.8214
 1566SOL    HW216161   1.774   4.246  13.358  2.9116  1.3702 -0.1296
 1567SOL     OW16162   3.675   1.638  14.794 -0.2849  0.2746  0.1103
 1567SOL    HW116163   3.596   1.605  14.837 -0.2985  0.2635  0.0771
 1567SOL    HW216164   3.647   1.720  14.753  1.0508  1.5082  1.6717
 1568SOL     OW16165   4.017   2.124  13.716 -0.2449  0.9142  0.7636
 1568SOL    HW116166   3.940   2.177  13.693 -0.8070 -0.5586 -0.7063
 1568SOL    HW216167   4.057   2.173  13.788  0.9188  0.3069  0.5164
 1569SOL     OW16168   1.112   0.784  11.526  0.6726 -0.4128 -0.2993
 1569SOL    HW116169   1.033   0.742  11.563  0.6884 -1.6510 -1.6725
 1569SOL    HW216170   1.174   0.716  11.551  0.2079  0.0502  2.1303
 1570SOL     OW16171   3.751   1.903  17.535 -0.4461 -0.2439 -0.0153
 1570SOL    HW116172   3.705   1.924  17.454 -1.6382 -1.0733  0.4524
 1570SOL    HW216173   3.838   1.916  17.497 -0.7368  2.8452  0.4189
 1571SOL     OW16174   0.549   0.922   7.278  0.1086  0.0470 -0.1382
 1571SOL    HW116175   0.606   0.997   7.293  0.1863  0.2448 -1.4392
 1571SOL    HW216176   0.468   0.955   7.238  0.8724  1.3132 -0.6331
 1572SOL     OW16177   2.444   2.811   5.607 -0.0720  0.8497 -0.2062
 1572SOL    HW116178   2.484   2.832   5.523 -1.6636  0.6927 -1.0053
 1572SOL    HW216179   2.422   2.894   5.649  0.8571  0.4203  1.1353
 1573SOL     OW16180   2.798   0.594   8.440  0.4048 -0.1689  0.0861
 1573SOL    HW116181   2.752   0.662   8.489  0.2301 -0.9680  1.0383
 1573SOL    HW216182   2.854   0.648   8.384  2.7933 -0.4817  2.1741
 1574SOL     OW16183   0.516   2.257   6.779 -0.5972  0.1133 -0.1197
 1574SOL    HW116184   0.550   2.174   6.814 -0.3018  0.6573  0.8601
 1574SOL    HW216185   0.482   2.304   6.855 -0.5964 -0.7040  0.3936
 1575SOL     OW16186   3.757   0.653   7.167  0.3623  0.3223 -0.3438
 1575SOL    HW116187   3.841   0.625   7.131  1.1864 -1.5340  3.0683
 1575SOL    HW216188   3.704   0.664   7.088 -0.0830 -1.8332 -0.3372
 1576SOL     OW16189   0.965   4.474   7.010 -0.2360  0.0711  0.3172
 1576SOL    HW116190   0.965   4.429   6.925 -1.5836 -2.0098  1.4219
 1576SOL    HW216191   0.876   4.459   7.042 -0.2911 -0.5005 -0.0979
 1577SOL     OW16192   1.413   4.350   5.224  0.7912  0.3068 -0.3280
 1577SOL    HW116193   1.327   4.359   5.264  1.2355  0.6453  0.5566
 1577SOL    HW216194   1.461   4.426   5.257  2.0427 -0.3965 -0.5414
 1578SOL     OW16195   0.324   1.306   5.316  0.3981 -0.5867  0.5545
 1578SOL    HW116196   0.392   1.238   5.315  1.0158  0.0635 -0.3728
 1578SOL    HW216197   0.338   1.350   5.233 -0.9598 -1.6885 -0.2716
 1579SOL     OW16198   1.926   1.352  13.072 -0.3229 -0.2642 -0.2174
 1579SOL    HW116199   1.858   1.378  13.010  0.3730  0.8532 -0.5151
 1579SOL    HW216200   1.961   1.439  13.092 -2.6353  0.3432  1.2024
 1580SOL     OW16201   2.224   2.076   5.889  0.0356 -0.2308  0.0995
 1580SOL    HW116202   2.187   2.142   5.948  2.2934  1.2007 -0.1037
 1580SOL    HW216203   2.169   2.079   5.810  0.4139 -1.6033 -0.2124
 1581SOL     OW16204   1.178   1.998  15.000 -0.0905 -0.3034  0.4200
 1581SOL    HW116205   1.105   1.945  15.030 -0.6168  0.5254  0.5784
 1581SOL    HW216206   1.132   2.063  14.947 -0.1243  0.0780  0.9238
 1582SOL     OW16207   2.531   2.160   2.760 -0.3063 -1.0233  0.0461
 1582SOL    HW116208   2.492   2.119   2.838 -0.3794  1.6740  1.4214
 1582SOL    HW216209   2.539   2.084   2.703 -2.6031 -1.4675  0.3015
 1583SOL     OW16210   0.495   0.261  11.522 -0.6406  0.0588  0.4873
 1583SOL    HW116211   0.465   0.193  11.461  2.4331  0.9911 -2.1070
 1583SOL    HW216212   0.561   0.212  11.570 -0.7837  0.1977  0.8222
 1584SOL     OW16213   2.244   2.756  11.883  0.0820 -0.1669  0.7160
 1584SOL    HW116214   2.339   2.768  11.891  0.1887 -1.3305  1.3909
 1584SOL    HW216215   2.219   2.745  11.975 -1.3774 -1.3913  0.1704
 1585SOL     OW16216   4.527   0.927   4.417  0.1143 -0.3574  0.0287
 1585SOL    HW116217   4.608   0.956   4.459 -0.1121 -0.8728  0.8363
 1585SOL    HW216218   4.566   0.864   4.356 -1.5982  0.6226 -2.0753
 1586SOL     OW16219   1.239   0.582   1.000  0.6434 -0.2308 -0.6094
 1586SOL    HW116220   1.207   0.504   1.045  2.3260 -0.8648 -0.5212
 1586SOL    HW216221   1.226   0.562   0.907  1.2520 -0.4794 -0.6423
 1587SOL     OW16222   0.958   2.641   9.115  0.5100 -0.2158 -0.5600
 1587SOL    HW116223   0.934   2.730   9.141  1.3876  0.5455 -2.3339
 1587SOL    HW216224   0.889   2.591   9.159 -0.1584  2.3518  1.3427
 1588SOL     OW16225   0.394   4.192   4.215  0.1085  0.2720  0.2834
 1588SOL    HW116226   0.471   4.246   4.198 -1.9839  3.5241  1.1253
 1588SOL    HW216227   0.404   4.131   4.141 -1.5310 -1.4874  1.4964
 1589SOL     OW16228   4.561   4.097   3.354 -0.3138  0.1552  0.2967
 1589SOL    HW116229   4.580   4.189   3.371  0.9978  0.0545 -0.5712
 1589SOL    HW216230   4.592   4.084   3.264  1.6121 -1.2991  1.1396
 1590SOL     OW16231   3.454   3.827  13.333 -0.7208 -0.1864 -0.5630
 1590SOL    HW116232   3.472   3.733  13.337  0.8853  0.1129 -0.7239
 1590SOL    HW216233   3.507   3.856  13.258 -2.0582  0.2964 -1.3319
 1591SOL     OW16234   2.760   2.679  13.438  0.2412 -0.2178 -0.3682
 1591SOL    HW116235   2.692   2.715  13.496  0.4524  1.2249 -1.0315
 1591SOL    HW216236   2.766   2.591  13.476 -1.3383 -0.5093 -0.7940
 1592SOL     OW16237   1.889   2.071   6.644 -0.2265 -0.7527  0.1334
 1592SOL    HW116238   1.811   2.070   6.699 -0.4003 -1.5829 -0.1326
 1592SOL    HW216239   1.942   1.996   6.669 -0.0676 -0.9836 -0.8798
 1593SOL     OW16240   4.381   2.908  15.128  0.2095 -0.0174 -0.0852
 1593SOL    HW116241   4.369   2.941  15.217  0.2458 -0.7028  0.1753
 1593SOL    HW216242   4.466   2.865  15.128  0.1805 -0.0924  2.0947
 1594SOL     OW16243   2.324   2.749   6.546 -0.0737  0.5568  0.4290
 1594SOL    HW116244   2.324   2.826   6.603 -1.8977  1.9834 -1.5114
 1594SOL    HW216245   2.256   2.703   6.595 -0.6868  2.1465  1.0662
 1595SOL     OW16246   1.171   4.497   5.346 -0.2755 -0.0105  0.2756
 1595SOL    HW116247   1.126   4.417   5.373 -1.9517  1.4559  1.8622
 1595SOL    HW216248   1.099   4.529   5.292  0.6174 -1.1400 -1.5996
 1596SOL     OW16249   0.978   3.531  14.734  0.3724 -0.1530  0.0132
 1596SOL    HW116250   1.007   3.614  14.696 -0.4163 -0.1618 -0.6046
 1596SOL    HW216251   0.889   3.548  14.764 -0.1605 -1.8559 -0.6240
 1597SOL     OW16252   3.811   3.340   6.785  0.0428 -0.3731 -0.7694
 1597SOL    HW116253   3.786   3.380   6.868 -0.6670 -0.0585 -1.1338
 1597SOL    HW216254   3.905   3.330   6.799 -0.0498  1.7837  1.5192
 1598SOL     OW16255   2.037   1.122   6.100  0.2472  0.2649  0.5574
 1598SOL    HW116256   1.949   1.083   6.107  0.3028  0.0938  0.3296
 1598SOL    HW216257   2.083   1.051   6.055  2.1562  2.4491 -0.9245
 1599SOL     OW16258   0.136   0.414   4.819 -0.4177 -0.2702 -0.2188
 1599SOL    HW116259   0.155   0.403   4.912  0.6312  3.3252 -0.0132
 1599SOL    HW216260   0.107   0.327   4.790  1.2546 -0.0947 -2.3888
 1600SOL     OW16261   3.078   0.422   7.908  0.0103  0.5985  0.2432
 1600SOL    HW116262   3.169   0.449   7.896  0.3871 -0.0111  1.7005
 1600SOL    HW216263   3.046   0.434   7.819 -0.7337  1.1098  0.5870
 1601SOL     OW16264   3.587   3.803  14.237  0.5229  0.0520 -0.2280
 1601SOL    HW116265   3.618   3.729  14.289  1.6544 -0.4722 -1.6407
 1601SOL    HW216266   3.652   3.801  14.167  0.5235 -4.3756 -0.0530
 1602SOL     OW16267   2.442   2.806  15.702  0.3054  0.3348  0.2166
 1602SOL    HW116268   2.504   2.866  15.661  0.8915 -0.5319 -0.1866
 1602SOL    HW216269   2.498   2.734  15.733 -1.1423 -0.4930  0.9210
 1603SOL     OW16270   4.683   4.322  17.321 -0.1673 -0.0735  0.0367
 1603SOL    HW116271   4.644   4.240  17.289  0.7810 -2.1258  4.2211
 1603SOL    HW216272   4.600   4.369  17.329 -0.0759 -0.3196  2.2454
 1604SOL     OW16273   3.125   1.450  11.694 -0.5146  0.0758  0.2904
 1604SOL    HW116274   3.174   1.490  11.766  0.6253 -2.4702  0.9366
 1604SOL    HW216275   3.180   1.375  11.672 -0.2672  0.7744 -1.4252
 1605SOL     OW16276   4.410   3.075  10.349 -0.4205 -0.0243 -0.2343
 1605SOL    HW116277   4.434   3.015  10.278  0.0229 -1.0514  0.7860
 1605SOL    HW216278   4.428   3.163  10.318  2.0881 -0.3495  0.2353
 1606SOL     OW16279   2.418   3.616   8.464 -0.2794  0.7383 -0.2128
 1606SOL    HW116280   2.391   3.707   8.477  0.6907  0.8521  1.0601
 1606SOL    HW216281   2.348   3.560   8.497  0.3048 -0.0668 -0.3375
 1607SOL     OW16282   1.784   0.220  15.360 -0.0494 -0.0819 -0.1283
 1607SOL    HW116283   1.801   0.182  15.274  0.2707 -1.1463  0.4015
 1607SOL    HW216284   1.868   0.253  15.391  0.1153 -0.2980 -0.3423
 1608SOL     OW16285   2.243   2.092  12.482  0.0331  0.0208  0.4948
 1608SOL    HW116286   2.200   2.176  12.496 -0.3182 -0.0799  0.0058
 1608SOL    HW216287   2.220   2.086  12.390 -2.9721  0.0974  1.2593
 1609SOL     OW16288   1.730   0.452   0.030 -0.4908  0.0720 -0.4077
 1609SOL    HW116289   1.770   0.497   0.104 -1.6112 -0.2900  0.4165
 1609SOL    HW216290   1.691   0.522  17.664  0.6131  0.8184 -0.2283
 1610SOL     OW16291   0.156   2.305  15.436  0.2418  0.1082 -0.0390
 1610SOL    HW116292   0.118   2.224  15.471 -0.3719  0.3507 -0.1378
 1610SOL    HW216293   0.159   2.353  15.519 -0.9825  0.2812 -0.0823
 1611SOL     OW16294   0.214   3.604  14.276 -0.0184 -0.0610  0.0629
 1611SOL    HW116295   0.287   3.595  14.337 -2.8390  0.0170  3.5344
 1611SOL    HW216296   0.241   3.548  14.204  0.9515 -0.3316  0.6425
 1612SOL     OW16297   0.918   4.199   4.569 -0.0145 -0.1244 -0.1021
 1612SOL    HW116298   0.931   4.284   4.611  0.4772  0.4603 -1.4205
 1612SOL    HW216299   0.959   4.138   4.629 -1.5280 -0.7943  0.2574
 1613SOL     OW16300   4.001   2.839   5.247 -0.0585 -0.2928 -0.5535
 1613SOL    HW116301   3.957   2.849   5.162 -0.9990  3.8009  0.4109
 1613SOL    HW216302   4.090   2.847   5.215  0.9161  0.7751  2.4491
 1614SOL     OW16303   4.250   4.493   3.257  0.2201  0.0341 -0.4007
 1614SOL    HW116304   4.278   4.421   3.200  1.4526  1.0955 -1.1362
 1614SOL    HW216305   4.207   4.552   3.196 -2.6302 -1.8245 -0.1820
 1615SOL     OW16306   2.422   4.358   6.467  0.1557 -0.4206  0.2174
 1615SOL    HW116307   2.449   4.444   6.435  2.1194 -1.1448 -0.0754
 1615SOL    HW216308   2.505   4.320   6.495 -0.2622 -2.1739 -0.9093
 1616SOL     OW16309   4.034   2.434   7.670 -0.7486  0.6432  0.6401
 1616SOL    HW116310   4.110   2.447   7.726  1.4196 -2.2882 -1.6520
 1616SOL    HW216311   4.069   2.378   7.601 -0.9459  1.0192  0.2325
 1617SOL     OW16312   0.421   1.713   0.425 -0.2090 -0.6460  0.5638
 1617SOL    HW116313   0.478   1.744   0.495  0.8670  2.1461 -1.5360
 1617SOL    HW216314   0.413   1.796   0.379 -2.6541 -0.5248  1.2466
 1618SOL     OW16315   1.995   2.383   1.815 -0.1202  0.2197 -0.0707
 1618SOL    HW116316   2.084   2.351   1.800 -0.3941  0.5035 -2.1837
 1618SOL    HW216317   1.940   2.306   1.830  0.5920 -0.2210  0.2897
 1619SOL     OW16318   0.668   3.194   3.109 -0.3078  0.7488 -0.0822
 1619SOL    HW116319   0.624   3.277   3.127  1.4656  1.8977 -1.0674
 1619SOL    HW216320   0.658   3.181   3.014  4.6137  1.9237 -0.7390
 1620SOL     OW16321   0.187   3.041   6.948 -0.0506 -0.1752  0.7362
 1620SOL    HW116322   0.125   3.099   6.993 -1.5944 -0.8747 -0.4727
 1620SOL    HW216323   0.189   3.072   6.858 -3.7272  0.8897  1.0052
 1621SOL     OW16324   0.013   4.448   7.863 -0.8558  0.4673  0.0307
 1621SOL    HW116325   0.049   4.476   7.778  2.4980 -0.4688  1.1414
 1621SOL    HW216326   4.645   4.476   7.840 -0.0679  0.8505 -2.5964
 1622SOL     OW16327   0.489   2.212  16.291  0.0732 -0.6924 -0.3877
 1622SOL    HW116328   0.452   2.138  16.339 -2.2501  1.6556  1.4214
 1622SOL    HW216329   0.574   2.183  16.258  1.1562 -0.4615  2.1821
 1623SOL     OW16330   2.805   0.961   2.269  0.4180  0.0623 -0.0268
 1623SOL    HW116331   2.751   1.009   2.331  1.2010 -0.8485  1.3605
 1623SOL    HW216332   2.875   0.938   2.331 -2.3036 -1.8388  2.3014
 1624SOL     OW16333   1.169   4.188   5.272 -0.8529  0.5791 -0.3218
 1624SOL    HW116334   1.176   4.102   5.313 -0.9039  0.1840 -1.1415
 1624SOL    HW216335   1.115   4.230   5.339 -0.6701  1.0100 -0.4472
 1625SOL     OW16336   0.112   0.205   6.731  0.0236  0.5346 -0.3216
 1625SOL    HW116337   0.075   0.272   6.788  1.0351  0.2626  0.6508
 1625SOL    HW216338   0.175   0.176   6.797 -0.4580 -1.5180 -0.7466
 1626SOL     OW16339   3.650   3.160   4.942 -0.2511 -0.4396  0.3271
 1626SOL    HW116340   3.732   3.174   4.989  0.5338 -0.8487 -0.9429
 1626SOL    HW216341   3.675   3.178   4.852 -2.6898  0.1521 -0.2384
 1627SOL     OW16342   1.043   3.954   2.764 -0.8056 -0.0958  0.3553
 1627SOL    HW116343   1.068   3.986   2.677  0.5833  0.3193  0.9021
 1627SOL    HW216344   1.086   3.869   2.777 -3.0727 -1.5700 -1.8782
 1628SOL     OW16345   0.238   1.303   1.374  0.2266 -0.0731  0.2705
 1628SOL    HW116346   0.330   1.317   1.349 -0.0980  0.0322 -0.8323
 1628SOL    HW216347   0.224   1.383   1.426  1.9880  1.8923 -2.2602
 1629SOL     OW16348   1.279   3.821   2.420 -0.0958  0.3868 -0.3407
 1629SOL    HW116349   1.313   3.829   2.509  0.0746  0.8954 -0.4509
 1629SOL    HW216350   1.262   3.727   2.428 -0.0080  0.6048  2.4978
 1630SOL     OW16351   2.429   4.198  14.461 -0.0333 -0.3498  0.0111
 1630SOL    HW116352   2.520   4.174  14.442 -0.3157  0.8796 -2.9619
 1630SOL    HW216353   2.404   4.106  14.466  2.1273 -0.8773  1.0862
 1631SOL     OW16354   0.090   1.842   2.695  0.0020 -0.1144  0.3727
 1631SOL    HW116355   0.053   1.802   2.616  2.8117  0.7394 -1.3702
 1631SOL    HW216356   0.134   1.763   2.727  1.4825  0.9240  0.9217
 1632SOL     OW16357   3.691   3.782   8.259  0.2735  0.0221 -0.1552
 1632SOL    HW116358   3.601   3.773   8.292  0.5402 -0.8139  0.3653
 1632SOL    HW216359   3.737   3.757   8.339  1.5603 -0.2699 -1.0004
 1633SOL     OW16360   3.115   1.220  17.090  0.3562  0.2430  0.6963
 1633SOL    HW116361   3.088   1.202  17.001 -0.5175 -1.5391  1.3335
 1633SOL    HW216362   3.085   1.150  17.148  2.3457 -1.7618 -0.6941
 1634SOL     OW16363   2.807   4.526   4.224 -0.2743 -0.0593  0.5608
 1634SOL    HW116364   2.785   4.576   4.145  1.1253 -1.8862 -0.9932
 1634SOL    HW216365   2.718   4.509   4.254  0.2702  0.1831  2.2999
 1635SOL     OW16366   3.797   1.458   4.417 -0.8541  0.1058 -0.4629
 1635SOL    HW116367   3.810   1.542   4.373 -1.4354  0.3333 -0.2048
 1635SOL    HW216368   3.734   1.417   4.359  0.5653 -1.6372 -0.7712
 1636SOL     OW16369   3.395   3.353   9.035  0.0639  1.2707  0.7562
 1636SOL    HW116370   3.378   3.303   8.955 -2.2629  0.3529  1.8017
 1636SOL    HW216371   3.354   3.306   9.108  0.8976 -1.4519 -0.5060
 1637SOL     OW16372   2.198   1.698  12.637  0.3650  0.5476  0.5029
 1637SOL    HW116373   2.201   1.628  12.703 -1.9118  0.6988  0.7736
 1637SOL    HW216374   2.266   1.750  12.680  0.0045  1.1695  0.3299
 1638SOL     OW16375   1.743   2.537  13.780 -0.0020 -0.4962 -0.2677
 1638SOL    HW116376   1.679   2.515  13.848  1.0030  1.3616  1.2921
 1638SOL    HW216377   1.693   2.525  13.699 -1.4470  3.3003  0.0432
 1639SOL     OW16378   1.486   1.124   6.797  0.0464  0.0412  0.4190
 1639SOL    HW116379   1.435   1.112   6.877  1.4550 -0.9354  1.1637
 1639SOL    HW216380   1.438   1.192   6.750  0.5562 -0.7075 -1.1906
 1640SOL     OW16381   3.543   4.639   4.377 -0.1314  0.7289 -0.1696
 1640SOL    HW116382   3.504   4.609   4.295  1.4675  0.3389 -0.8000
 1640SOL    HW216383   3.509   0.006   4.365 -0.9373  0.0696 -2.8199
 1641SOL     OW16384   0.718   4.102   2.156  0.4259 -0.3250 -0.0781
 1641SOL    HW116385   0.767   4.159   2.097 -1.2234  0.5738 -0.5641
 1641SOL    HW216386   0.752   4.014   2.140  0.3789 -0.1367 -1.1892
 1642SOL     OW16387   2.909   2.686   7.468 -0.4514  0.2845  0.2979
 1642SOL    HW116388   2.925   2.593   7.485  1.8333  0.8085  1.1108
 1642SOL    HW216389   2.849   2.710   7.538  0.1095  2.2582  0.0997
 1643SOL     OW16390   0.049   1.111   4.512  0.0523  0.6929  0.2457
 1643SOL    HW116391   4.715   1.189   4.517 -0.9123 -0.0691  1.5887
 1643SOL    HW216392   0.095   1.119   4.429 -1.7409 -0.2580 -0.8489
 1644SOL     OW16393   3.134   1.942  12.559 -0.6636 -0.3244  0.2057
 1644SOL    HW116394   3.057   1.999  12.556  0.5762  1.3061 -1.0845
 1644SOL    HW216395   3.130   1.891  12.640 -1.4639  0.7073  0.8178
 1645SOL     OW16396   2.657   0.455   7.470 -0.0361 -0.8749  0.2296
 1645SOL    HW116397   2.565   0.444   7.493 -0.4889 -1.1450 -1.6715
 1645SOL    HW216398   2.653   0.491   7.381  0.3092 -0.2545  0.4636
 1646SOL     OW16399   4.720   2.806  12.363  0.2082  0.3142  0.4039
 1646SOL    HW116400   4.702   2.773  12.275  0.9187 -1.2680  0.8646
 1646SOL    HW216401   0.002   2.901  12.346 -1.9040 -0.2664 -3.3806
 1647SOL     OW16402   2.970   3.816   8.600 -0.0806  0.0589 -0.3247
 1647SOL    HW116403   3.041   3.851   8.655  0.1082 -1.3878  0.3455
 1647SOL    HW216404   2.897   3.794   8.658 -0.0137 -1.8418 -0.9753
 1648SOL     OW16405   2.887   0.215   5.551 -0.2057  0.3598 -0.6018
 1648SOL    HW116406   2.981   0.206   5.534 -0.6424 -1.5567 -2.1003
 1648SOL    HW216407   2.858   0.251   5.468  0.7679  0.2148 -1.0097
 1649SOL     OW16408   2.225   1.424   7.937 -0.4939  0.3838 -0.1853
 1649SOL    HW116409   2.225   1.504   7.885  1.5761  0.8170  0.4714
 1649SOL    HW216410   2.148   1.378   7.902  0.4470 -0.3301 -1.3470
 1650SOL     OW16411   2.704   2.694   8.096 -0.4026  0.4193 -0.2138
 1650SOL    HW116412   2.768   2.659   8.159 -0.1733  0.5294 -0.3851
 1650SOL    HW216413   2.626   2.697   8.151  0.1338 -0.4767  0.5942
 1651SOL     OW16414   3.100   2.077   5.592  0.5007  0.3319  0.2413
 1651SOL    HW116415   3.158   2.084   5.667  0.8218  0.5537 -0.0276
 1651SOL    HW216416   3.030   2.031   5.639  1.8931 -0.8758  1.1280
 1652SOL     OW16417   2.853   4.603   7.617 -0.0589  0.1512 -0.1266
 1652SOL    HW116418   2.822   4.641   7.699  0.9997 -0.6402  0.6418
 1652SOL    HW216419   2.920   4.543   7.652  1.4074  1.7040 -0.2351
 1653SOL     OW16420   1.179   3.007  15.291 -0.2938 -0.1126 -0.0127
 1653SOL    HW116421   1.224   2.976  15.370  0.9599  0.1031 -0.6479
 1653SOL    HW216422   1.112   2.940  15.299 -0.1546 -0.3308 -0.6606
 1654SOL     OW16423   2.492   1.212   8.499  0.2488 -0.2455 -0.5912
 1654SOL    HW116424   2.416   1.154   8.499  1.4427 -1.8205 -1.7412
 1654SOL    HW216425   2.552   1.137   8.496  2.3087  1.3098  1.2056
 1655SOL     OW16426   3.604   3.456   1.048 -0.2514  1.0868 -0.7688
 1655SOL    HW116427   3.643   3.495   1.127  0.7050 -0.3808 -0.5092
 1655SOL    HW216428   3.659   3.380   1.028 -0.4152  0.8208 -0.2145
 1656SOL     OW16429   0.492   3.564   7.294 -0.1169  0.5223 -0.2095
 1656SOL    HW116430   0.463   3.620   7.366  4.6551  1.6511  0.8154
 1656SOL    HW216431   0.457   3.476   7.311  0.7603 -0.2721 -2.5240
 1657SOL     OW16432   2.650   2.956   4.804 -0.3380  0.2480  0.4880
 1657SOL    HW116433   2.673   3.007   4.727  1.8500 -1.0119  0.3143
 1657SOL    HW216434   2.661   3.019   4.875  1.3300 -0.1791  0.5894
 1658SOL     OW16435   1.597   3.001   1.007 -0.4441  0.1705  0.0339
 1658SOL    HW116436   1.510   3.034   0.985 -0.9102 -1.3036 -0.2865
 1658SOL    HW216437   1.627   3.069   1.067 -0.1194  0.4987 -0.4976
 1659SOL     OW16438   1.074   3.243  11.520  0.1773 -0.4451  0.3085
 1659SOL    HW116439   0.989   3.205  11.498  0.2339  0.6426 -1.7515
 1659SOL    HW216440   1.100   3.232  11.429  2.0403 -0.2541  0.8322
 1660SOL     OW16441   1.488   0.850   0.051 -0.1271 -0.1570  0.1586
 1660SOL    HW116442   1.469   0.915   0.119  2.1122  3.9516 -3.0841
 1660SOL    HW216443   1.519   0.775   0.102  2.2780  0.6586 -0.0826
 1661SOL     OW16444   2.632   0.476  16.684  0.2077 -0.6405  0.0280
 1661SOL    HW116445   2.633   0.525  16.766  2.1206  0.0533 -0.3970
 1661SOL    HW216446   2.726   0.458  16.681 -0.2544 -2.5745 -2.1235
 1662SOL     OW16447   1.926   4.001   8.463  1.0095  0.1403 -0.2389
 1662SOL    HW116448   1.851   3.950   8.435  1.8599 -1.6366  0.7325
 1662SOL    HW216449   2.001   3.959   8.420  1.7344  0.1922  0.9842
 1663SOL     OW16450   3.018   1.040  11.259 -0.0677 -0.1663  0.6822
 1663SOL    HW116451   2.937   1.052  11.210  0.8217 -0.3499 -0.8242
 1663SOL    HW216452   3.050   0.961  11.215  0.3787  1.0623 -1.1923
 1664SOL     OW16453   1.288   2.182   9.534  0.1119 -0.2791 -0.2938
 1664SOL    HW116454   1.336   2.109   9.495 -0.2548 -1.0507  0.6996
 1664SOL    HW216455   1.350   2.255   9.534  0.7121 -0.7742  2.4438
 1665SOL     OW16456   0.298   3.059  14.344  0.2243  0.4648 -0.4065
 1665SOL    HW116457   0.277   2.966  14.351 -0.3219  0.6337  0.2513
 1665SOL    HW216458   0.380   3.058  14.295  0.8954  0.9115  0.6945
 1666SOL     OW16459   0.048   3.768   2.952  0.0879  0.1570  0.3100
 1666SOL    HW116460   4.704   3.722   2.900  0.2623 -0.1914  0.4029
 1666SOL    HW216461   0.099   3.812   2.885  0.1355  0.5727  0.6158
 1667SOL     OW16462   3.546   2.433  17.342  0.3540  0.2158 -0.1765
 1667SOL    HW116463   3.576   2.419  17.432 -0.4185 -0.6673 -0.0535
 1667SOL    HW216464   3.535   2.527  17.356  1.2201  0.3402 -0.3247
 1668SOL     OW16465   2.566   2.909  10.548  0.1658 -0.1906 -0.6939
 1668SOL    HW116466   2.546   2.994  10.587  1.4882 -0.0675 -0.2570
 1668SOL    HW216467   2.519   2.855  10.611 -2.2965  1.2116 -1.3308
 1669SOL     OW16468   4.552   3.274   2.116 -0.0075  0.0941  0.1719
 1669SOL    HW116469   4.459   3.295   2.125 -0.1183  0.2338 -1.3291
 1669SOL    HW216470   4.548   3.214   2.041 -0.0710 -0.4178  0.5848
 1670SOL     OW16471   1.888   1.541   7.876 -0.2430 -0.0922 -0.3984
 1670SOL    HW116472   1.912   1.449   7.888  0.4309  0.0148 -0.9881
 1670SOL    HW216473   1.959   1.595   7.910 -0.9396  1.3661 -1.2650
 1671SOL     OW16474   3.131   4.007  11.624  0.2362  0.0401  0.4882
 1671SOL    HW116475   3.094   4.075  11.681  0.0643  1.4234 -1.2779
 1671SOL    HW216476   3.101   3.930  11.671 -1.4853 -1.2927 -2.8225
 1672SOL     OW16477   4.549   4.405   3.957  0.2671  0.3981  0.0175
 1672SOL    HW116478   4.588   4.321   3.935 -1.2323 -0.0752 -0.8181
 1672SOL    HW216479   4.606   4.448   4.021  1.4475 -0.4817 -0.4451
 1673SOL     OW16480   4.430   1.676   2.798  0.2493 -0.1446 -0.3776
 1673SOL    HW116481   4.518   1.649   2.822  0.9400  0.4357 -2.3186
 1673SOL    HW216482   4.392   1.593   2.828  0.5159 -0.4149 -0.8038
 1674SOL     OW16483   1.225   4.569   7.832  0.1302  0.0779  0.6096
 1674SOL    HW116484   1.254   4.483   7.862 -0.3604 -0.2732  0.0846
 1674SOL    HW216485   1.251   4.581   7.741 -0.6643 -2.2335  0.0865
 1675SOL     OW16486   1.417   2.017   3.759  0.2654 -0.2974  0.0870
 1675SOL    HW116487   1.484   2.073   3.721 -1.3877 -0.3745 -3.0089
 1675SOL    HW216488   1.365   1.988   3.684 -0.6263  0.8942  0.2500
 1676SOL     OW16489   4.452   4.355   6.496 -0.1561 -0.2514  0.4752
 1676SOL    HW116490   4.526   4.405   6.463  1.3497 -1.1030  2.5104
 1676SOL    HW216491   4.465   4.353   6.591  1.0109 -0.4172  0.3097
 1677SOL     OW16492   3.090   2.081  11.317  0.1242 -0.4451  0.0835
 1677SOL    HW116493   3.006   2.106  11.356  0.6308 -0.7433  1.3628
 1677SOL    HW216494   3.134   2.166  11.303 -0.7493 -0.4143 -2.3967
 1678SOL     OW16495   0.404   0.401   1.185  0.7982 -0.6256  0.3316
 1678SOL    HW116496   0.372   0.421   1.097 -0.2009 -3.8030 -0.0238
 1678SOL    HW216497   0.331   0.432   1.238  1.9345  1.4166  0.7162
 1679SOL     OW16498   0.035   4.032   8.506 -0.0064 -0.1872  0.3184
 1679SOL    HW116499   0.106   3.970   8.522  0.2076 -0.0561 -0.1214
 1679SOL    HW216500   4.707   3.980   8.443  3.0343 -2.0684 -0.4789
 1680SOL     OW16501   2.093   2.252   1.102 -0.6996  0.6496  0.4541
 1680SOL    HW116502   2.069   2.314   1.033  3.8606  0.0133 -1.6868
 1680SOL    HW216503   2.016   2.198   1.119  0.4242 -0.6591  1.4080
 1681SOL     OW16504   0.005   4.253   4.340 -0.4110 -0.3065  0.0661
 1681SOL    HW116505   4.650   4.309   4.326 -3.1960 -4.2650 -0.6766
 1681SOL    HW216506   0.078   4.314   4.332 -0.7513  0.0589 -0.2623
 1682SOL     OW16507   0.612   0.287  13.594  0.5821 -0.3773  0.5234
 1682SOL    HW116508   0.658   0.370  13.587 -1.4889  0.7013 -0.4346
 1682SOL    HW216509   0.613   0.276  13.689  1.5927 -2.4515  0.2725
 1683SOL     OW16510   2.525   0.076   0.052  0.3217  0.1365  0.2107
 1683SOL    HW116511   2.493   0.166   0.059  1.2641  0.5783 -1.0391
 1683SOL    HW216512   2.482   0.056  17.656 -1.2328  0.0641  1.0425
 1684SOL     OW16513   0.394   3.800   4.370  0.3598 -0.5599 -0.2973
 1684SOL    HW116514   0.313   3.749   4.366 -0.4475  0.5500  1.6638
 1684SOL    HW216515   0.359   3.885   4.399  0.8126  0.1209 -1.7446
 1685SOL     OW16516   0.122   4.242   5.050 -0.5271  0.0582 -0.5332
 1685SOL    HW116517   0.166   4.182   5.109  1.9803  1.0901 -1.3571
 1685SOL    HW216518   0.071   4.179   4.998 -2.8510  2.2653 -0.9671
 1686SOL     OW16519   0.690   4.492  10.918 -0.0412 -0.4658 -0.4595
 1686SOL    HW116520   0.693   4.540  11.001 -0.7890 -0.1378 -0.6205
 1686SOL    HW216521   0.704   4.556  10.848 -0.2997  0.0495 -0.0330
 1687SOL     OW16522   4.118   1.623   6.119 -0.4787  0.0742 -0.5636
 1687SOL    HW116523   4.173   1.685   6.071 -1.3854  1.3530  0.0499
 1687SOL    HW216524   4.165   1.540   6.109 -2.6977 -1.3303  0.8356
 1688SOL     OW16525   1.916   3.321  12.783 -0.2692  0.1396 -0.2817
 1688SOL    HW116526   1.916   3.413  12.808  0.5143  0.0572  0.0136
 1688SOL    HW216527   1.838   3.318  12.728 -0.5835 -0.5013  0.2025
 1689SOL     OW16528   0.150   1.344   3.936 -0.4546 -0.1290 -0.0897
 1689SOL    HW116529   0.098   1.305   3.865 -0.9979 -0.1985  0.3435
 1689SOL    HW216530   0.200   1.408   3.884 -1.1657 -0.3792 -1.0922
 1690SOL     OW16531   3.443   2.203  11.475 -0.0039  0.5918  0.0262
 1690SOL    HW116532   3.412   2.114  11.457 -2.9257  1.0535  2.9652
 1690SOL    HW216533   3.539   2.195  11.468  0.1517  2.2233  0.3038
 1691SOL     OW16534   2.285   4.549   3.484 -0.3189  0.0527 -0.2048
 1691SOL    HW116535   2.280   4.459   3.518  0.3512 -0.2038 -0.8039
 1691SOL    HW216536   2.216   4.552   3.418 -2.6583 -0.5352  2.2214
 1692SOL     OW16537   1.668   4.602   0.617 -0.2460  0.1390  0.5926
 1692SOL    HW116538   1.677   4.549   0.696 -0.0850  2.8652  2.4030
 1692SOL    HW216539   1.728   4.553   0.561 -2.4381 -0.7643 -0.9832
 1693SOL     OW16540   1.319   3.142   7.796  0.3549 -0.1881 -0.3057
 1693SOL    HW116541   1.371   3.098   7.863  1.8185 -0.7270 -1.8000
 1693SOL    HW216542   1.344   3.232   7.817  0.1529  0.4001 -2.6114
 1694SOL     OW16543   2.939   0.562   9.072 -0.1292 -0.0290 -0.0752
 1694SOL    HW116544   3.008   0.590   9.132 -1.4876  2.3197  0.4089
 1694SOL    HW216545   2.860   0.552   9.124 -0.5816 -0.3093 -0.8072
 1695SOL     OW16546   0.779   0.039  14.643 -0.0813 -0.0577 -0.2054
 1695SOL    HW116547   0.846   4.714  14.694 -1.3639 -0.5221  1.0683
 1695SOL    HW216548   0.817   0.067  14.560  0.3269  1.7315  0.5720
 1696SOL     OW16549   2.825   1.788  17.499 -0.6366 -0.2395  0.2069
 1696SOL    HW116550   2.854   1.700  17.475  2.9160  0.4918  1.8015
 1696SOL    HW216551   2.796   1.819  17.414  1.5376 -0.2055 -0.5246
 1697SOL     OW16552   0.218   4.514  10.995 -0.3729  0.1520  0.3570
 1697SOL    HW116553   0.140   4.554  11.033 -0.9447 -2.1727  1.6579
 1697SOL    HW216554   0.200   4.423  11.017  3.5506 -0.5802  0.5583
 1698SOL     OW16555   0.149   2.208   6.631  0.2058 -0.2815  0.8793
 1698SOL    HW116556   0.149   2.164   6.716  1.3428 -0.8374  0.5880
 1698SOL    HW216557   0.197   2.289   6.647  0.4305  0.0145 -1.2568
 1699SOL     OW16558   1.092   2.934   6.131 -0.1607  0.6863  0.3055
 1699SOL    HW116559   1.179   2.917   6.094 -0.8836  0.1675 -1.1464
 1699SOL    HW216560   1.084   3.025   6.104 -2.2722  0.7380  1.1776
 1700SOL     OW16561   0.384   3.379   6.608 -0.9405 -0.2190 -0.1885
 1700SOL    HW116562   0.446   3.318   6.568 -0.2233  0.1997  0.2673
 1700SOL    HW216563   0.398   3.460   6.558 -0.8329  0.5675  1.1083
 1701SOL     OW16564   1.708   4.364   3.169  0.5917  0.1869  0.1371
 1701SOL    HW116565   1.793   4.322   3.179  0.3794  0.0511  1.4873
 1701SOL    HW216566   1.692   4.361   3.075  1.2244 -1.0510  0.0697
 1702SOL     OW16567   2.959   0.234  16.233  0.2186  0.2291 -0.1710
 1702SOL    HW116568   2.979   0.299  16.165 -0.0405 -1.0404 -1.4695
 1702SOL    HW216569   2.880   0.201  16.190  0.5825 -1.6896  0.6307
 1703SOL     OW16570   1.835   2.904   7.330  0.5302  0.1650 -0.3035
 1703SOL    HW116571   1.821   2.843   7.258  0.2926 -1.3910  1.0557
 1703SOL    HW216572   1.902   2.853   7.376  0.6509 -0.5990 -1.3395
 1704SOL     OW16573   3.456   3.522   4.313  0.2188  0.1423  0.7604
 1704SOL    HW116574   3.437   3.573   4.234 -1.9746  0.1711  1.2870
 1704SOL    HW216575   3.489   3.437   4.283 -2.9714 -0.9856  0.3725
 1705SOL     OW16576   0.363   4.360  17.063  0.0409 -0.1727 -0.5502
 1705SOL    HW116577   0.276   4.397  17.075 -0.1881 -1.6708  2.3973
 1705SOL    HW216578   0.374   4.313  17.145 -1.8411  1.3544  0.5786
 1706SOL     OW16579   4.468   0.641   2.191  0.2419 -0.1059 -0.1944
 1706SOL    HW116580   4.492   0.572   2.129  1.6751 -1.4018  1.8305
 1706SOL    HW216581   4.543   0.642   2.249 -1.0053 -2.1944  1.4535
 1707SOL     OW16582   1.917   3.598  11.166 -0.2303 -0.1552  0.4654
 1707SOL    HW116583   1.970   3.677  11.180 -1.2205  0.2016  2.2150
 1707SOL    HW216584   1.919   3.570  11.258  0.5906 -0.7102  0.2747
 1708SOL     OW16585   0.909   3.039  12.214 -0.3591 -0.0575  0.5247
 1708SOL    HW116586   0.912   3.015  12.307 -0.1448 -0.2313  0.4731
 1708SOL    HW216587   0.901   3.133  12.227 -0.9937 -0.2037  1.1999
 1709SOL     OW16588   4.278   1.400   3.469  0.5441 -0.7526 -0.2253
 1709SOL    HW116589   4.308   1.319   3.429  0.8060 -0.9570  0.3817
 1709SOL    HW216590   4.328   1.466   3.421 -0.1806 -0.0312  0.0028
 1710SOL     OW16591   3.256   3.596   5.284  0.2208  0.0456  0.6490
 1710SOL    HW116592   3.332   3.592   5.342  0.0441 -0.7302  0.8281
 1710SOL    HW216593   3.282   3.523   5.227  0.1975  0.8343 -0.3746
 1711SOL     OW16594   4.654   0.548   9.629  0.5980  0.4076 -0.3094
 1711SOL    HW116595   4.590   0.480   9.647  0.3527  0.2783 -1.6481
 1711SOL    HW216596   4.606   0.626   9.657  0.2579 -0.1800  0.7421
 1712SOL     OW16597   2.434   0.395  11.971 -0.2781 -0.1691  0.4102
 1712SOL    HW116598   2.390   0.420  12.053 -0.6511 -0.8282  0.4142
 1712SOL    HW216599   2.485   0.317  11.992 -3.8810 -3.0997 -1.7035
 1713SOL     OW16600   1.429   3.294  13.472  0.0946  0.3240 -0.3149
 1713SOL    HW116601   1.434   3.390  13.464 -0.2198  0.5796  2.4071
 1713SOL    HW216602   1.504   3.271  13.527 -0.1610 -2.1044 -1.0092
 1714SOL     OW16603   2.440   2.494   6.019  0.6189 -0.0632  0.4722
 1714SOL    HW116604   2.476   2.413   5.984 -1.9552 -0.8573 -0.3436
 1714SOL    HW216605   2.402   2.532   5.940  1.4032 -0.0316  0.1094
 1715SOL     OW16606   0.428   0.645   2.620 -0.0824  1.0418  0.2182
 1715SOL    HW116607   0.410   0.551   2.630  2.8911  0.3175 -1.5200
 1715SOL    HW216608   0.423   0.663   2.526 -0.4579 -0.5555 -0.0741
 1716SOL     OW16609   2.227   0.537   8.420  0.0097 -0.1103  0.2876
 1716SOL    HW116610   2.212   0.466   8.483  0.2358 -0.3721  0.0490
 1716SOL    HW216611   2.157   0.513   8.360 -1.3842  0.1364  1.8303
 1717SOL     OW16612   3.371   3.136   3.979  0.7103 -0.0883  0.5974
 1717SOL    HW116613   3.429   3.149   3.904 -0.3524 -1.3357 -0.4367
 1717SOL    HW216614   3.317   3.214   3.989 -0.8247 -0.8213 -2.0110
 1718SOL     OW16615   1.724   0.231   2.271 -0.2431  0.0729 -0.2434
 1718SOL    HW116616   1.793   0.211   2.334 -0.8067 -2.2875 -0.3816
 1718SOL    HW216617   1.755   0.306   2.220 -0.2688  1.8175  2.2906
 1719SOL     OW16618   0.528   1.551  11.466 -0.6245  0.5596  0.1160
 1719SOL    HW116619   0.490   1.582  11.548 -1.4710  1.6039 -0.6685
 1719SOL    HW216620   0.562   1.464  11.486 -0.4446  1.5752  4.1068
 1720SOL     OW16621   2.850   4.213  10.670  0.2292 -0.1175 -0.0923
 1720SOL    HW116622   2.848   4.195  10.764 -2.1455  1.1418  0.1106
 1720SOL    HW216623   2.799   4.136  10.645 -1.8561  0.9699  0.8572
 1721SOL     OW16624   1.114   3.498  10.704 -0.1735 -0.0684  0.1624
 1721SOL    HW116625   1.179   3.439  10.742  0.7673  0.9244  0.1011
 1721SOL    HW216626   1.045   3.493  10.771 -1.9521 -1.7617 -1.7781
 1722SOL     OW16627   0.308   1.169   5.049  0.4624 -0.1723  0.6942
 1722SOL    HW116628   0.246   1.149   5.119 -0.4028  3.0450  0.8582
 1722SOL    HW216629   0.249   1.224   4.996  0.2641 -0.3594  0.7184
 1723SOL     OW16630   3.546   0.205   5.006  0.2575  1.2105 -0.6471
 1723SOL    HW116631   3.555   0.191   4.911 -1.2957  1.2239 -0.7895
 1723SOL    HW216632   3.473   0.266   5.001  0.6418  1.6670 -0.7556
 1724SOL     OW16633   2.586   4.035   8.535 -0.2077 -0.0914  0.3903
 1724SOL    HW116634   2.668   3.999   8.501  0.2013 -0.7468  2.0740
 1724SOL    HW216635   2.571   4.110   8.478  0.3140  0.4452  0.9613
 1725SOL     OW16636   3.719   4.544  16.572 -0.0392  0.0261 -0.6825
 1725SOL    HW116637   3.729   4.609  16.642 -0.3191 -2.0130  1.2650
 1725SOL    HW216638   3.691   4.593  16.495 -1.2071 -1.3110 -1.1138
 1726SOL     OW16639   1.916   4.265  11.469 -0.9306  0.2263  0.2746
 1726SOL    HW116640   1.839   4.305  11.507 -0.5848  1.4907 -0.3654
 1726SOL    HW216641   1.984   4.332  11.476 -1.7881  1.1384 -0.1558
 1727SOL     OW16642   2.520   1.216  11.430  0.6034  0.3866  0.3144
 1727SOL    HW116643   2.529   1.123  11.450 -1.2859 -0.1944 -1.6739
 1727SOL    HW216644   2.613   1.242  11.429  1.1287 -1.7124 -2.7472
 1728SOL     OW16645   3.220   0.586   5.089  0.0514 -0.2441 -0.2673
 1728SOL    HW116646   3.147   0.648   5.096  0.4066  0.1287  0.1426
 1728SOL    HW216647   3.177   0.507   5.056  2.7041 -0.1832 -3.8157
 1729SOL     OW16648   0.341   2.093   1.336  0.1128 -0.5320 -0.3109
 1729SOL    HW116649   0.246   2.077   1.337  0.1147 -0.6056 -1.8871
 1729SOL    HW216650   0.338   2.179   1.379  2.4450  0.3383 -1.8859
 1730SOL     OW16651   3.047   1.928  10.600  0.1130  0.2036 -0.0409
 1730SOL    HW116652   3.027   2.017  10.630  2.4130  0.1379  1.7310
 1730SOL    HW216653   3.140   1.942  10.580  0.2135 -2.2503 -1.3197
 1731SOL     OW16654   3.914   2.234   3.830  0.2732 -0.4358 -0.4301
 1731SOL    HW116655   3.978   2.183   3.780 -2.0487 -2.0413 -1.7539
 1731SOL    HW216656   3.865   2.282   3.763 -0.8579 -1.3609 -0.2559
 1732SOL     OW16657   2.262   0.448  12.164  0.2249  0.9412  0.3514
 1732SOL    HW116658   2.241   0.389  12.236 -0.2008  0.8143  0.1203
 1732SOL    HW216659   2.293   0.528  12.208 -0.1599  1.7403 -0.8386
 1733SOL     OW16660   0.948   2.059   3.382 -0.3292 -0.1630  0.3097
 1733SOL    HW116661   0.953   1.992   3.315  0.4807 -0.1068  0.3017
 1733SOL    HW216662   0.942   2.138   3.328  1.8045  0.2446  0.6245
 1734SOL     OW16663   1.848   0.885   3.251 -0.1925 -0.3058  0.2639
 1734SOL    HW116664   1.893   0.943   3.189 -1.9175 -0.9810 -1.6252
 1734SOL    HW216665   1.900   0.908   3.328  1.0036  0.8186 -0.8589
 1735SOL     OW16666   4.047   2.040   3.373 -0.0610  0.0380 -0.3044
 1735SOL    HW116667   3.956   2.016   3.390  0.1612 -1.9382 -1.8013
 1735SOL    HW216668   4.069   1.987   3.295 -1.5374 -0.7469 -0.1826
 1736SOL     OW16669   1.547   0.417   2.103  0.1117 -0.2984 -0.3609
 1736SOL    HW116670   1.506   0.440   2.187 -1.9115 -2.1066 -0.8844
 1736SOL    HW216671   1.469   0.395   2.052 -0.2477  0.3884 -0.1077
 1737SOL     OW16672   4.022   0.120   4.290  0.0896 -0.1532 -0.4835
 1737SOL    HW116673   3.989   0.044   4.244  3.0175  0.2010 -3.1248
 1737SOL    HW216674   4.113   0.137   4.264  0.4790 -3.6371 -1.3381
 1738SOL     OW16675   4.356   1.518   7.829 -0.1000 -0.1494  0.0077
 1738SOL    HW116676   4.305   1.438   7.825  0.9187 -0.8323  0.5548
 1738SOL    HW216677   4.331   1.541   7.918 -2.3327  0.3492 -0.7620
 1739SOL     OW16678   4.072   2.003  10.814  0.0536 -0.4371  0.4993
 1739SOL    HW116679   4.123   2.075  10.852  0.7516 -1.0785  0.7734
 1739SOL    HW216680   4.027   1.983  10.896 -2.0052  2.3370  0.0410
 1740SOL     OW16681   4.350   3.727   1.545  0.5770 -0.3518  0.0219
 1740SOL    HW116682   4.344   3.779   1.465 -0.1831 -1.3420 -0.5615
 1740SOL    HW216683   4.434   3.763   1.574 -0.5625  1.0034  1.6359
 1741SOL     OW16684   3.783   2.283   0.810  0.2167  0.3980 -0.4216
 1741SOL    HW116685   3.790   2.253   0.719 -0.7272 -0.0232 -0.3516
 1741SOL    HW216686   3.753   2.373   0.799 -1.1324  0.1591  1.3048
 1742SOL     OW16687   4.548   3.569  10.528 -0.7352 -0.0993 -0.4909
 1742SOL    HW116688   4.570   3.658  10.556 -3.0862  0.6204 -0.9558
 1742SOL    HW216689   4.611   3.567  10.456  0.4407 -1.3453  0.5753
 1743SOL     OW16690   1.431   3.432   7.498  0.0721  0.5060  0.3586
 1743SOL    HW116691   1.467   3.457   7.583  0.1236 -0.1567  0.5330
 1743SOL    HW216692   1.387   3.355   7.533  2.9760 -0.4362  1.9540
 1744SOL     OW16693   2.100   1.428   9.324  0.0534  0.2920 -0.2886
 1744SOL    HW116694   2.073   1.465   9.408 -0.3215  0.6887 -0.5846
 1744SOL    HW216695   2.048   1.348   9.329 -0.9129  0.9936  1.0530
 1745SOL     OW16696   2.673   0.758   7.046 -0.4550 -0.0663  0.2929
 1745SOL    HW116697   2.666   0.843   7.089 -1.4157  0.7649 -1.4952
 1745SOL    HW216698   2.622   0.764   6.965  1.0840 -0.0620 -0.6930
 1746SOL     OW16699   1.252   3.803  12.894 -0.6594  0.2367  0.2216
 1746SOL    HW116700   1.284   3.772  12.809  2.1903  0.0744  1.3521
 1746SOL    HW216701   1.186   3.870  12.875  0.0627  1.0742  0.7117
 1747SOL     OW16702   4.639   3.410   6.330  0.3108 -0.2874  0.2230
 1747SOL    HW116703   4.634   3.389   6.423  1.3519  0.6013  0.4730
 1747SOL    HW216704   0.006   3.385   6.303  0.5878  1.1018 -0.1512
 1748SOL     OW16705   2.302   0.286   6.622 -0.3781 -0.3716 -0.0769
 1748SOL    HW116706   2.294   0.328   6.707 -4.6601 -1.2920 -0.0308
 1748SOL    HW216707   2.211   0.283   6.595 -0.7303 -0.3624  1.1112
 1749SOL     OW16708   1.805   3.195   2.045  0.4610  0.0032  0.0469
 1749SOL    HW116709   1.729   3.234   2.002 -1.2058 -0.9966  2.0907
 1749SOL    HW216710   1.795   3.222   2.136 -1.0285 -2.6251  0.6704
 1750SOL     OW16711   0.689   2.931   8.126 -0.0666  0.4460 -0.3912
 1750SOL    HW116712   0.772   2.956   8.168 -0.3560 -0.1360  0.5109
 1750SOL    HW216713   0.705   2.838   8.112 -1.6688  0.0579  0.4634
 1751SOL     OW16714   0.956   0.515  13.781 -0.4124 -0.4575 -1.1372
 1751SOL    HW116715   1.031   0.466  13.746 -0.4354  0.3630 -2.3308
 1751SOL    HW216716   0.895   0.442  13.785 -1.1998  0.1940 -1.2042
 1752SOL     OW16717   2.000   4.032  16.046 -0.3575 -0.0526 -0.0630
 1752SOL    HW116718   1.989   3.995  16.133 -0.5546  0.5330  0.1648
 1752SOL    HW216719   1.956   3.964  15.995 -1.1968  0.0238  0.5526
 1753SOL     OW16720   0.665   3.885   6.407  0.0231  0.4787 -0.1464
 1753SOL    HW116721   0.660   3.809   6.349  0.4717  0.1984  0.1824
 1753SOL    HW216722   0.716   3.853   6.481  1.5659  0.9026 -1.0362
 1754SOL     OW16723   4.327   3.462   0.157  0.1368  0.5448  0.3941
 1754SOL    HW116724   4.400   3.449   0.217  2.1198  0.3720 -2.0450
 1754SOL    HW216725   4.259   3.497   0.215 -0.8923  0.7743 -0.9378
 1755SOL     OW16726   4.052   4.607   8.796  0.2104 -0.2058 -0.4142
 1755SOL    HW116727   4.040   4.698   8.767  1.0212  0.0522  0.0349
 1755SOL    HW216728   4.054   4.619   8.891 -1.3114 -1.8044 -0.1940
 1756SOL     OW16729   2.192   1.952   9.251 -0.1987  0.5616 -0.1982
 1756SOL    HW116730   2.180   1.882   9.316  1.2483 -1.0147 -1.6036
 1756SOL    HW216731   2.138   1.906   9.187  0.0952 -2.7873  1.9250
 1757SOL     OW16732   4.323   1.768  11.442 -0.1983 -0.1452  0.1837
 1757SOL    HW116733   4.248   1.763  11.382  1.5114  1.9920 -2.1334
 1757SOL    HW216734   4.279   1.737  11.521  2.8824  0.6138  2.1904
 1758SOL     OW16735   2.454   3.395  17.488 -0.0704  0.0403 -0.0789
 1758SOL    HW116736   2.496   3.312  17.467  1.7032  0.6695  0.9107
 1758SOL    HW216737   2.455   3.389  17.584 -0.4441  0.4410 -0.0503
 1759SOL     OW16738   4.533   0.587   5.414  0.2870 -0.0459  0.3039
 1759SOL    HW116739   4.584   0.607   5.336 -1.6955  0.4242 -0.8833
 1759SOL    HW216740   4.500   0.676   5.427 -0.2930  0.0953 -2.0714
 1760SOL     OW16741   1.098   0.373   4.859  0.3673  0.4789  0.1717
 1760SOL    HW116742   1.092   0.468   4.872 -1.8279  0.3658  0.0497
 1760SOL    HW216743   1.070   0.372   4.768  0.6010  2.3634  0.0736
 1761SOL     OW16744   3.720   3.527   6.984 -0.2246  0.3278  0.2209
 1761SOL    HW116745   3.741   3.545   7.075 -3.4041 -0.6558  1.1397
 1761SOL    HW216746   3.767   3.601   6.945  0.2994 -0.2988 -0.3257
 1762SOL     OW16747   4.257   2.974   8.307 -0.2382 -0.0636  0.0534
 1762SOL    HW116748   4.221   2.896   8.264 -1.1826  0.4545 -0.0759
 1762SOL    HW216749   4.246   2.955   8.400  0.5230  1.4908  0.4502
 1763SOL     OW16750   1.271   0.801   9.622 -0.0820 -0.1162 -0.6007
 1763SOL    HW116751   1.299   0.738   9.556  1.0379 -0.6433  0.3947
 1763SOL    HW216752   1.231   0.742   9.686  3.1927 -0.7250  0.8534
 1764SOL     OW16753   2.393   4.481   8.503  0.2354  0.1107 -0.1045
 1764SOL    HW116754   2.393   4.440   8.589 -2.5128  0.2409 -0.0290
 1764SOL    HW216755   2.430   4.411   8.450 -1.6538  0.3845 -1.8073
 1765SOL     OW16756   4.560   1.585   8.433 -0.1182 -0.3573 -0.3982
 1765SOL    HW116757   4.525   1.515   8.379  3.2133 -1.0200 -1.7358
 1765SOL    HW216758   4.488   1.604   8.493 -1.6692 -0.6955 -2.1577
 1766SOL     OW16759   2.703   0.910   6.561  0.3831 -0.2222  0.0693
 1766SOL    HW116760   2.727   1.002   6.545  0.3761 -0.6079 -2.1357
 1766SOL    HW216761   2.729   0.866   6.480  1.3318  0.5721 -0.0685
 1767SOL     OW16762   3.496   1.038   5.920  0.4413 -0.8605 -0.1166
 1767SOL    HW116763   3.489   1.132   5.935 -1.0239 -1.2080  1.4206
 1767SOL    HW216764   3.523   1.033   5.828  0.1659  1.4652 -0.3087
 1768SOL     OW16765   0.652   3.173  14.673 -0.2770  0.2955 -0.0347
 1768SOL    HW116766   0.584   3.192  14.737 -0.8852  0.8451 -0.8407
 1768SOL    HW216767   0.669   3.080  14.690 -1.0482  0.0428 -0.5991
 1769SOL     OW16768   2.415   2.572  10.564 -0.2168  0.9514  0.4669
 1769SOL    HW116769   2.319   2.574  10.559 -0.3150 -0.6307  1.5906
 1769SOL    HW216770   2.423   2.656  10.610 -1.1127  0.3688  1.6813
 1770SOL     OW16771   4.390   3.175   6.164 -0.3080 -0.8107  0.5651
 1770SOL    HW116772   4.362   3.102   6.108  1.2702 -0.0570 -1.1951
 1770SOL    HW216773   4.366   3.249   6.108  2.8155 -0.9397 -0.9376
 1771SOL     OW16774   1.561   2.924   7.350 -0.0252  0.1360  0.2110
 1771SOL    HW116775   1.528   2.988   7.288 -0.4847  0.7456  1.0828
 1771SOL    HW216776   1.656   2.926   7.345 -0.0750  1.6478 -0.0846
 1772SOL     OW16777   2.345   0.801   1.941  0.1794 -0.3214  0.5433
 1772SOL    HW116778   2.360   0.749   1.862 -0.7764  1.6547 -0.9451
 1772SOL    HW216779   2.424   0.785   1.992  0.1786 -1.7848  0.0859
 1773SOL     OW16780   1.844   3.578   8.522  0.2007 -0.2278 -0.0279
 1773SOL    HW116781   1.810   3.657   8.566  0.9049 -0.4646  0.9338
 1773SOL    HW216782   1.761   3.566   8.476  2.0280  2.4045 -4.0314
 1774SOL     OW16783   2.357   1.886   9.657  0.3291 -0.1505  0.0103
 1774SOL    HW116784   2.333   1.813   9.714  1.1447  1.9617  3.0540
 1774SOL    HW216785   2.286   1.947   9.679 -0.4894 -1.1758  0.2162
 1775SOL     OW16786   3.032   0.028   5.277 -0.2252 -0.1727 -0.1088
 1775SOL    HW116787   3.072   0.010   5.362 -2.3697 -2.3843  0.4254
 1775SOL    HW216788   3.065   4.675   5.227 -0.3648  0.8788 -1.8056
 1776SOL     OW16789   4.546   1.648   6.525 -0.5838 -0.7908  0.3111
 1776SOL    HW116790   4.557   1.726   6.579 -0.7547 -0.3787 -0.2444
 1776SOL    HW216791   4.492   1.690   6.458  0.9740 -0.6654 -0.8699
 1777SOL     OW16792   3.758   0.542   3.201  0.0700  0.2029  0.4897
 1777SOL    HW116793   3.676   0.574   3.239 -0.5649 -1.8517  0.8918
 1777SOL    HW216794   3.725   0.454   3.182  0.1166  0.2900  0.0167
 1778SOL     OW16795   3.100   3.540  13.528  0.5892  0.9067 -0.3180
 1778SOL    HW116796   3.193   3.521  13.544  0.4647 -0.2907 -0.9953
 1778SOL    HW216797   3.082   3.611  13.589 -0.5236  0.6462 -0.3494
 1779SOL     OW16798   0.045   4.368   5.475 -0.3807 -0.1135  0.1785
 1779SOL    HW116799   0.107   4.435   5.448 -0.2970 -0.3407 -0.1893
 1779SOL    HW216800   4.689   4.424   5.480 -0.8982 -0.5798 -2.5883
 1780SOL     OW16801   0.423   2.638  15.493 -0.0787 -0.2586  0.1290
 1780SOL    HW116802   0.471   2.595  15.563  2.6056  0.3727 -1.3506
 1780SOL    HW216803   0.477   2.606  15.420 -0.9460  0.4389 -0.8293
 1781SOL     OW16804   4.387   2.037   4.686 -0.7502  0.1405  0.3626
 1781SOL    HW116805   4.339   2.065   4.607  0.1677 -0.4318 -0.4030
 1781SOL    HW216806   4.469   1.998   4.656 -1.9910 -1.3471 -1.0854
 1782SOL     OW16807   2.339   2.078  12.902 -0.5684 -0.7907 -0.0668
 1782SOL    HW116808   2.424   2.054  12.939 -1.0607 -3.4919 -0.7182
 1782SOL    HW216809   2.314   2.144  12.967  0.7105 -1.6919  1.3299
 1783SOL     OW16810   2.131   4.645   7.053  0.0435  0.7505  0.8199
 1783SOL    HW116811   2.192   4.712   7.083  0.3992  0.1206  1.4732
 1783SOL    HW216812   2.104   4.684   6.969  1.4545  0.7229  0.3471
 1784SOL     OW16813   3.617   1.058   7.466  0.1398 -0.1213  0.0171
 1784SOL    HW116814   3.648   1.064   7.556 -1.0827 -1.8971  0.5616
 1784SOL    HW216815   3.662   1.132   7.425 -0.5633  2.5507  4.0479
 1785SOL     OW16816   0.987   1.819   3.152  0.0224  0.1280 -0.2289
 1785SOL    HW116817   1.016   1.728   3.145 -1.6634 -0.4952  1.0301
 1785SOL    HW216818   0.917   1.835   3.089  0.0703  0.2412 -0.2533
 1786SOL     OW16819   2.694   4.671   9.665  0.1770  0.3258  0.4406
 1786SOL    HW116820   2.615   4.706   9.707 -0.3944 -0.3603 -0.0759
 1786SOL    HW216821   2.768   4.695   9.721 -1.0270  2.2173  1.2327
 1787SOL     OW16822   1.082   0.381   6.134  0.2541 -0.0042 -0.7709
 1787SOL    HW116823   1.100   0.403   6.042  0.4966 -1.3445 -1.0420
 1787SOL    HW216824   1.075   0.468   6.173 -0.0471 -0.8224  0.9813
 1788SOL     OW16825   1.957   3.081   7.821 -0.1148 -0.7910  0.0988
 1788SOL    HW116826   1.892   3.081   7.891  0.5523  1.1729  0.7129
 1788SOL    HW216827   1.959   3.173   7.796 -0.5231 -0.1358  2.4604
 1789SOL     OW16828   4.552   0.498   0.686  0.0504 -0.0985  0.0816
 1789SOL    HW116829   4.541   0.543   0.603 -1.4421  2.6645  1.7652
 1789SOL    HW216830   4.584   0.416   0.648  0.2959  0.5849 -1.1844
 1790SOL     OW16831   0.355   3.214   3.893 -0.5167 -0.8611 -0.2869
 1790SOL    HW116832   0.379   3.128   3.860 -0.8270  0.1765 -3.1794
 1790SOL    HW216833   0.260   3.201   3.889 -0.3048 -1.7144 -2.4535
 1791SOL     OW16834   1.762   1.370   1.750 -0.1165 -0.3526 -0.1149
 1791SOL    HW116835   1.848   1.333   1.729  1.4052  2.5969  0.8654
 1791SOL    HW216836   1.772   1.412   1.836 -1.1437 -1.1088  0.3823
 1792SOL     OW16837   2.013   1.792   6.663 -0.1534 -0.1829 -0.3928
 1792SOL    HW116838   2.025   1.716   6.721 -0.4766 -1.0709 -1.5058
 1792SOL    HW216839   2.104   1.799   6.633 -1.0945  3.6210 -2.3356
 1793SOL     OW16840   1.456   3.105   8.244  0.0104  0.1895  0.3310
 1793SOL    HW116841   1.466   3.182   8.301 -1.5261 -0.0633  0.9287
 1793SOL    HW216842   1.468   3.032   8.305  0.5220 -0.3805 -0.4462
 1794SOL     OW16843   4.335   1.433   2.852 -0.8495 -0.1144  0.1265
 1794SOL    HW116844   4.250   1.421   2.894 -0.5278 -1.9917  0.2384
 1794SOL    HW216845   4.314   1.401   2.764 -0.0301  0.8106 -0.4034
 1795SOL     OW16846   3.044   1.484   4.926  0.0932 -0.0529  0.3144
 1795SOL    HW116847   2.991   1.541   4.983 -1.9082 -2.7109  1.0868
 1795SOL    HW216848   2.995   1.404   4.943  0.1003 -0.4892 -1.7613
 1796SOL     OW16849   1.063   1.386   2.437 -0.0979  0.3267 -0.6477
 1796SOL    HW116850   1.029   1.388   2.526 -0.9266 -2.0726 -0.9104
 1796SOL    HW216851   1.000   1.444   2.393 -0.5584  0.5110  0.2582
 1797SOL     OW16852   2.486   2.486  17.387 -0.0795 -0.8079 -0.3918
 1797SOL    HW116853   2.497   2.455  17.297  1.0822 -1.2548 -0.0993
 1797SOL    HW216854   2.411   2.545  17.379 -0.2624 -0.9158  0.4918
 1798SOL     OW16855   0.679   2.587  12.036 -0.3080 -0.1053  0.0592
 1798SOL    HW116856   0.617   2.523  12.070  1.7668 -1.0434  2.1220
 1798SOL    HW216857   0.706   2.628  12.119  0.1457 -0.5211  0.1160
 1799SOL     OW16858   4.516   2.321  12.242  0.0859 -0.4259  0.0210
 1799SOL    HW116859   4.576   2.345  12.312  0.7819 -3.2637  0.4072
 1799SOL    HW216860   4.444   2.383  12.255  0.3357 -0.2088  0.3724
 1800SOL     OW16861   4.254   2.879   6.316 -0.2744 -0.2415  0.7527
 1800SOL    HW116862   4.287   2.842   6.235 -2.0708  0.8245 -0.4640
 1800SOL    HW216863   4.335   2.892   6.366  0.8350  0.2475 -1.1924
 1801SOL     OW16864   0.964   0.035   7.160 -0.2652 -0.0615  0.0260
 1801SOL    HW116865   0.927   0.102   7.217 -0.7429  0.1370 -0.5031
 1801SOL    HW216866   0.886   0.008   7.111  0.4761  0.2820 -1.3672
 1802SOL     OW16867   0.564   2.995   3.288 -0.0267  0.1381 -0.1995
 1802SOL    HW116868   0.584   3.058   3.220 -0.6980  0.8046  0.2222
 1802SOL    HW216869   0.556   3.060   3.358  1.5713  0.1747 -0.0688
 1803SOL     OW16870   3.980   4.585  11.649 -0.4826 -0.0601  0.2874
 1803SOL    HW116871   3.945   4.603  11.735  0.2213  0.3479  0.4910
 1803SOL    HW216872   3.899   4.572  11.601 -0.6390  1.5174  0.1474
 1804SOL     OW16873   3.346   0.046   6.293  0.2823 -0.1849 -0.4532
 1804SOL    HW116874   3.271   4.708   6.283  1.1954 -1.3927 -0.1636
 1804SOL    HW216875   3.395   0.011   6.368  2.1154 -0.5741 -1.8424
 1805SOL     OW16876   2.760   4.145  10.965  0.0747 -0.3939  0.0656
 1805SOL    HW116877   2.806   4.227  10.980 -0.5302  0.1205 -0.8689
 1805SOL    HW216878   2.682   4.147  11.020  0.7329 -1.2110  1.0398
 1806SOL     OW16879   3.419   1.406   7.878  0.4314 -0.2275  0.3804
 1806SOL    HW116880   3.388   1.497   7.882  0.3467 -0.2520  0.2797
 1806SOL    HW216881   3.485   1.427   7.811 -1.0879  2.2665 -0.3305
 1807SOL     OW16882   2.478   1.752   4.038 -0.3935 -1.0457 -0.0823
 1807SOL    HW116883   2.392   1.758   4.078 -0.1040  1.6147  0.1458
 1807SOL    HW216884   2.506   1.662   4.059 -2.1866 -1.1908  1.7348
 1808SOL     OW16885   3.797   0.201   7.159  0.0633  0.0385 -0.1502
 1808SOL    HW116886   3.751   0.138   7.214 -2.0582  2.9348  1.3747
 1808SOL    HW216887   3.792   0.290   7.194  0.5007 -0.3706  0.9541
 1809SOL     OW16888   0.340   3.942  13.029 -0.3851  0.1965  0.3103
 1809SOL    HW116889   0.430   3.967  13.048 -0.7370  0.1720  1.9490
 1809SOL    HW216890   0.289   3.998  13.087 -1.5438 -0.4459 -0.0957
 1810SOL     OW16891   4.491   2.528   4.943 -0.5904 -0.1201 -0.0426
 1810SOL    HW116892   4.450   2.467   4.881  0.4527  0.3932 -1.2445
 1810SOL    HW216893   4.582   2.528   4.913 -1.3680 -0.7266 -2.4539
 1811SOL     OW16894   1.333   1.121   2.296 -0.1229  0.1399 -0.0893
 1811SOL    HW116895   1.251   1.106   2.344 -1.0080 -0.1275 -1.6705
 1811SOL    HW216896   1.370   1.191   2.350 -1.8889  2.3969 -1.7802
 1812SOL     OW16897   3.750   3.771  17.459  0.3719  0.0321 -0.8055
 1812SOL    HW116898   3.662   3.738  17.440  0.3077  0.2808 -0.9408
 1812SOL    HW216899   3.746   3.866  17.450  0.8041  0.0640 -0.6355
 1813SOL     OW16900   3.499   1.991  14.938 -0.5366 -0.3684  0.2385
 1813SOL    HW116901   3.561   1.936  14.985  0.9995 -0.2625 -1.6909
 1813SOL    HW216902   3.514   1.982  14.844  1.1350  0.2452  0.4439
 1814SOL     OW16903   0.417   0.543  10.183  0.3565  0.0843  0.2744
 1814SOL    HW116904   0.421   0.613  10.118 -0.6166 -1.2788 -1.2551
 1814SOL    HW216905   0.448   0.470  10.128 -1.3181 -0.3703 -0.0626
 1815SOL     OW16906   4.582   3.595   7.740  0.4621  0.1015  0.3898
 1815SOL    HW116907   4.648   3.639   7.794  1.1094 -0.6223  0.1898
 1815SOL    HW216908   4.581   3.663   7.673 -1.0539  0.3147  0.6290
 1816SOL     OW16909   1.582   1.586   8.176  0.0591  0.3828  0.2646
 1816SOL    HW116910   1.672   1.561   8.196 -0.6562 -0.6455  2.1862
 1816SOL    HW216911   1.544   1.581   8.263 -0.4632 -0.6350 -0.0159
 1817SOL     OW16912   0.461   2.391  11.138  0.2890  0.2376  0.9743
 1817SOL    HW116913   0.458   2.455  11.209 -1.9375 -1.3380  2.3138
 1817SOL    HW216914   0.395   2.335  11.179 -0.4952 -2.1919 -3.5275
 1818SOL     OW16915   3.883   1.565   7.488 -0.4012 -0.2011  0.1653
 1818SOL    HW116916   3.905   1.477   7.458  0.7143  0.6985 -1.6426
 1818SOL    HW216917   3.874   1.602   7.400 -0.2624 -2.8764 -0.9682
 1819SOL     OW16918   3.343   2.707   4.962 -0.0004  0.3056 -0.5758
 1819SOL    HW116919   3.400   2.781   4.944 -0.2512 -0.1377 -3.1612
 1819SOL    HW216920   3.265   2.750   4.999 -1.8480 -1.6287 -2.2101
 1820SOL     OW16921   3.379   4.002   8.857 -0.0072  0.4822  0.1570
 1820SOL    HW116922   3.388   4.049   8.940 -0.4009  0.3069  0.2990
 1820SOL    HW216923   3.471   3.995   8.832  0.2633  1.1468  0.9591
 1821SOL     OW16924   2.397   4.288   2.029  0.1758 -0.1261  0.0978
 1821SOL    HW116925   2.412   4.279   2.124  0.3792  0.0177  0.0799
 1821SOL    HW216926   2.322   4.347   2.026  0.2811  0.0407  0.7139
 1822SOL     OW16927   3.255   2.740  13.891 -0.1320  0.3439 -0.4167
 1822SOL    HW116928   3.260   2.826  13.848  0.2298  1.0755  1.0914
 1822SOL    HW216929   3.308   2.762  13.967  0.8299  0.8490 -1.2327
 1823SOL     OW16930   0.881   4.507   4.202  0.4161  0.1088  0.6114
 1823SOL    HW116931   0.819   4.578   4.181 -0.3861 -0.3226  1.5483
 1823SOL    HW216932   0.922   4.544   4.280  2.6312 -2.7381  0.7745
 1824SOL     OW16933   1.536   2.446   4.715 -0.0764 -0.2869 -0.4431
 1824SOL    HW116934   1.631   2.451   4.703  0.0182  1.2559  0.9494
 1824SOL    HW216935   1.526   2.365   4.666 -0.9786 -0.3398 -0.1773
 1825SOL     OW16936   3.983   1.988  17.298  0.3472 -0.3250  0.5914
 1825SOL    HW116937   3.943   2.073  17.279  0.5173 -0.1725  0.9103
 1825SOL    HW216938   3.949   1.928  17.233  0.5331 -2.1376  2.1682
 1826SOL     OW16939   1.518   1.436   7.022 -0.0924 -0.3221 -0.7320
 1826SOL    HW116940   1.580   1.470   6.957  0.5038  2.7341  1.4586
 1826SOL    HW216941   1.547   1.481   7.101 -1.5029  0.7651 -0.8203
 1827SOL     OW16942   2.791   4.089   9.310  0.0360  0.0033 -0.3811
 1827SOL    HW116943   2.756   4.104   9.399  0.9231 -0.2843  0.0135
 1827SOL    HW216944   2.721   4.027   9.290  0.2132 -0.5265  0.5915
 1828SOL     OW16945   0.027   3.036  16.745 -0.0768  0.3523 -0.0618
 1828SOL    HW116946   0.110   2.988  16.739  0.4984  1.1337  1.4951
 1828SOL    HW216947   0.005   3.020  16.654  0.4245 -0.3109 -0.0595
 1829SOL     OW16948   1.881   3.111   7.518 -0.4621 -0.6130 -0.3074
 1829SOL    HW116949   1.852   3.037   7.465 -0.5130 -0.9493  0.1880
 1829SOL    HW216950   1.874   3.069   7.604 -0.4828  1.4233  0.6852
 1830SOL     OW16951   0.313   0.092   2.249 -0.3939 -0.0474  0.6566
 1830SOL    HW116952   0.225   0.128   2.263 -0.3195 -1.0291  3.5571
 1830SOL    HW216953   0.326   0.124   2.159 -1.6185  0.2754  0.5879
 1831SOL     OW16954   1.476   2.240   4.962 -0.7336 -0.1117  0.4126
 1831SOL    HW116955   1.564   2.227   4.927 -1.0122  0.7621 -0.6342
 1831SOL    HW216956   1.440   2.246   4.873  1.4370  0.4462 -0.4268
 1832SOL     OW16957   3.944   1.862  13.630 -0.1211  0.0242 -0.2072
 1832SOL    HW116958   3.898   1.870  13.547 -1.0913 -1.2737  0.2110
 1832SOL    HW216959   3.961   1.955  13.646 -0.1603  0.0071 -0.0698
 1833SOL     OW16960   2.932   1.612  12.671 -0.1337  0.1434  0.4392
 1833SOL    HW116961   2.885   1.569  12.743 -1.1070  0.5211  0.0246
 1833SOL    HW216962   2.976   1.681  12.720  0.8991  0.1688 -0.5323
 1834SOL     OW16963   2.470   0.167   9.040  0.7784  0.6365  0.4621
 1834SOL    HW116964   2.427   0.163   8.955  1.2334 -2.3220  0.3794
 1834SOL    HW216965   2.536   0.098   9.031  0.6833  0.4989  0.8029
 1835SOL     OW16966   4.566   1.656   6.874 -0.1609  0.4193 -0.2285
 1835SOL    HW116967   4.648   1.697   6.900 -1.8163  1.6619  3.0657
 1835SOL    HW216968   4.560   1.597   6.950 -2.2459  1.0512  0.0970
 1836SOL     OW16969   1.581   3.516   3.273 -0.2639  0.1560  0.0397
 1836SOL    HW116970   1.541   3.471   3.198 -0.3421 -2.2936  1.5337
 1836SOL    HW216971   1.587   3.447   3.339 -1.2833  1.8679  1.9151
 1837SOL     OW16972   0.329   2.810   4.198  0.0112 -0.5173  0.1666
 1837SOL    HW116973   0.417   2.848   4.192  0.2843 -0.7914  2.4911
 1837SOL    HW216974   0.334   2.769   4.284 -1.5390 -0.6912  0.1794
 1838SOL     OW16975   0.426   4.526   1.518 -0.0795  0.1999 -0.1656
 1838SOL    HW116976   0.490   4.487   1.458 -1.2266  1.0517 -1.9343
 1838SOL    HW216977   0.439   4.467   1.592  1.6380 -1.1518 -1.5474
 1839SOL     OW16978   2.652   4.145   4.341  0.1218 -0.7516 -0.5668
 1839SOL    HW116979   2.630   4.154   4.248  0.0513 -0.5100 -0.5245
 1839SOL    HW216980   2.746   4.124   4.333  0.4157 -0.3872  1.9103
 1840SOL     OW16981   0.204   2.098   6.191  0.0689  0.6419  0.1645
 1840SOL    HW116982   0.161   2.182   6.205 -1.6090 -0.3578  0.9835
 1840SOL    HW216983   0.262   2.086   6.266  1.7619 -0.3725 -1.3007
 1841SOL     OW16984   1.520   2.179   5.308  0.0193 -0.0047  0.2110
 1841SOL    HW116985   1.441   2.142   5.347 -0.5782  0.2530 -0.7514
 1841SOL    HW216986   1.527   2.240   5.381 -0.6474 -0.3586  0.5736
 1842SOL     OW16987   0.742   0.005  17.018 -0.3059  0.4790  0.1199
 1842SOL    HW116988   0.750   4.718  16.923  1.2556  2.1122  0.0936
 1842SOL    HW216989   0.651   4.701  17.028  0.1494 -1.0762  0.2540
 1843SOL     OW16990   3.483   1.803  11.955  0.0440  0.1439 -0.1525
 1843SOL    HW116991   3.404   1.851  11.931 -0.9536 -1.4129  0.0202
 1843SOL    HW216992   3.454   1.779  12.043 -0.7126  1.7691  0.0283
 1844SOL     OW16993   1.208   1.354   0.460  0.4432  0.6057 -0.1866
 1844SOL    HW116994   1.295   1.326   0.488  0.6662  0.7460 -0.7415
 1844SOL    HW216995   1.212   1.450   0.451 -0.1197  0.7227  0.8088
 1845SOL     OW16996   0.478   4.152   4.905 -0.0836  0.0595 -0.1117
 1845SOL    HW116997   0.460   4.134   4.813 -0.1687  1.5742 -0.3907
 1845SOL    HW216998   0.495   4.246   4.900  0.0082  0.0529  0.0972
 1846SOL     OW16999   4.546   2.819   8.323 -0.8235 -0.3285  0.1232
 1846SOL    HW117000   4.456   2.787   8.328 -0.8406 -0.2483  0.3125
 1846SOL    HW217001   4.582   2.800   8.410 -0.4056 -0.8276 -0.1616
 1847SOL     OW17002   1.200   0.377  13.723 -0.6663 -0.1690 -0.7101
 1847SOL    HW117003   1.216   0.325  13.643 -1.2551 -2.6165  0.7620
 1847SOL    HW217004   1.271   0.440  13.714  1.8004 -2.6986  0.8215
 1848SOL     OW17005   0.021   1.377   5.371 -0.3037  0.1509 -0.2475
 1848SOL    HW117006   0.116   1.374   5.381 -0.2065  0.7629 -1.0495
 1848SOL    HW217007   0.012   1.397   5.278  1.1655  1.0394 -0.2069
 1849SOL     OW17008   0.445   2.381   3.564  0.0575  0.0559  0.1765
 1849SOL    HW117009   0.429   2.417   3.476 -1.8749 -2.2417 -0.4002
 1849SOL    HW217010   0.428   2.289   3.543  1.6599 -0.5440  1.5397
 1850SOL     OW17011   1.398   2.461  11.383 -0.3628  0.0172 -0.3148
 1850SOL    HW117012   1.305   2.452  11.362 -0.0656 -0.5374 -1.3742
 1850SOL    HW217013   1.425   2.487  11.295  1.3033 -2.3544 -0.5032
 1851SOL     OW17014   2.060   3.587   3.216  0.1932  0.1142  0.1544
 1851SOL    HW117015   2.056   3.682   3.228 -1.2137  0.0986 -0.2133
 1851SOL    HW217016   2.015   3.579   3.132  0.2831 -0.4784  0.1652
 1852SOL     OW17017   1.721   1.026   8.507 -0.0788  0.4530 -0.3946
 1852SOL    HW117018   1.678   0.945   8.535 -2.1963  0.6109 -3.1786
 1852SOL    HW217019   1.679   1.080   8.574  0.6064 -0.8226  1.0645
 1853SOL     OW17020   0.750   0.017   6.036  0.1625 -0.6091  0.0558
 1853SOL    HW117021   0.659   0.024   6.065  0.4500 -1.6133  1.2017
 1853SOL    HW217022   0.794   0.077   6.095 -0.5386  0.5434 -0.5974
 1854SOL     OW17023   3.337   0.313  16.613 -0.0510  0.7114  0.3266
 1854SOL    HW117024   3.309   0.276  16.529 -0.1863  0.9700  0.2565
 1854SOL    HW217025   3.413   0.265  16.646 -0.9765 -1.3580 -0.5219
 1855SOL     OW17026   2.229   0.553  10.252 -0.2198  0.0236  0.2725
 1855SOL    HW117027   2.231   0.544  10.157  3.6581  0.3184  0.3275
 1855SOL    HW217028   2.136   0.568  10.272 -0.3635 -2.3119  1.2911
 1856SOL     OW17029   0.509   1.820   3.958  0.3686  0.6069 -0.3650
 1856SOL    HW117030   0.535   1.878   4.030 -0.1237  0.5157 -0.1167
 1856SOL    HW217031   0.592   1.815   3.910 -0.1777  1.4588 -1.3983
 1857SOL     OW17032   1.178   0.436   7.350  0.2042 -0.0923 -0.3974
 1857SOL    HW117033   1.127   0.407   7.275  0.4903  0.7159 -0.9038
 1857SOL    HW217034   1.210   0.353   7.385  1.5209  0.6605  0.1909
 1858SOL     OW17035   2.394   3.475   7.432  0.2868  0.4062  0.1690
 1858SOL    HW117036   2.354   3.438   7.510  0.7420  1.0664  0.7238
 1858SOL    HW217037   2.316   3.488   7.378  1.3134 -1.7629 -1.8256
 1859SOL     OW17038   2.720   3.511   5.233  0.6434  0.2904  0.4008
 1859SOL    HW117039   2.802   3.539   5.273  1.5588  0.8808 -1.8970
 1859SOL    HW217040   2.689   3.589   5.187  0.5001  0.7433  1.2773
 1860SOL     OW17041   0.179   2.780   1.916 -0.8896  0.3499  0.8850
 1860SOL    HW117042   0.128   2.748   1.841  1.0642 -1.7456  0.4613
 1860SOL    HW217043   0.117   2.832   1.968 -1.7126 -0.7339  0.9966
 1861SOL     OW17044   0.172   0.465  13.416  0.1378 -0.3843 -0.6048
 1861SOL    HW117045   0.105   0.476  13.484  1.0585 -1.3181  0.4449
 1861SOL    HW217046   0.132   0.402  13.357 -1.5416  0.4137 -0.3255
 1862SOL     OW17047   4.085   1.796   7.038 -0.6185  0.0328 -0.7056
 1862SOL    HW117048   4.045   1.878   7.066  0.8145  0.6234 -0.3904
 1862SOL    HW217049   4.170   1.797   7.082 -0.6649 -0.2616 -0.6073
 1863SOL     OW17050   2.316   3.027  13.319  0.2444 -0.2468  0.6496
 1863SOL    HW117051   2.267   3.049  13.240 -0.0898  0.3612  1.0257
 1863SOL    HW217052   2.260   2.953  13.342  0.0342 -0.0767  0.6784
 1864SOL     OW17053   3.197   0.211   8.077 -0.5352  0.1978 -0.4688
 1864SOL    HW117054   3.111   0.204   8.036 -0.5288  0.1076 -0.4681
 1864SOL    HW217055   3.248   0.242   8.003  0.1466  1.7570  0.6544
 1865SOL     OW17056   3.378   1.175   6.276 -0.8017  0.2070  0.2575
 1865SOL    HW117057   3.289   1.209   6.268 -0.1344  2.2390  1.3738
 1865SOL    HW217058   3.376   1.106   6.209 -2.4717 -0.5660  1.1129
 1866SOL     OW17059   0.426   0.444  13.341 -0.1037  0.2242  0.1363
 1866SOL    HW117060   0.339   0.462  13.378 -0.0845 -1.6445  1.0999
 1866SOL    HW217061   0.472   0.494  13.408 -1.4309  1.7579 -0.0920
 1867SOL     OW17062   1.531   1.044   1.489  0.6289  0.5469 -0.1474
 1867SOL    HW117063   1.483   1.127   1.488  1.3617  0.9612 -0.6596
 1867SOL    HW217064   1.459   0.982   1.497  2.9018 -2.0074  0.7626
 1868SOL     OW17065   0.757   3.358   7.073 -0.0854  0.6675  0.1785
 1868SOL    HW117066   0.670   3.351   7.034 -1.1874  2.4063  2.3524
 1868SOL    HW217067   0.761   3.295   7.145  0.7835  0.3123 -0.1717
 1869SOL     OW17068   3.811   2.672   8.278 -0.3531  1.4892 -0.2213
 1869SOL    HW117069   3.718   2.694   8.289 -0.1862  0.8804  2.3858
 1869SOL    HW217070   3.856   2.699   8.358  1.0594 -0.2706 -0.4315
 1870SOL     OW17071   4.325   0.193   5.468  0.0326  0.2866  0.3767
 1870SOL    HW117072   4.283   0.147   5.395 -1.8950  0.9433  1.0587
 1870SOL    HW217073   4.358   0.266   5.416 -2.5462  1.1538 -0.0409
 1871SOL     OW17074   2.236   2.700   7.403  0.2453  0.6815  0.2357
 1871SOL    HW117075   2.145   2.716   7.426  0.4884  2.6176 -0.2239
 1871SOL    HW217076   2.237   2.723   7.310 -2.3206  0.3364  0.1214
 1872SOL     OW17077   3.976   2.098   6.805  0.0122 -0.1970 -0.0925
 1872SOL    HW117078   3.902   2.037   6.808  0.2557 -0.5474 -1.5796
 1872SOL    HW217079   3.921   2.177   6.804  0.3206  0.0120 -0.4413
 1873SOL     OW17080   4.610   0.171  12.318 -0.4086 -0.4062  0.6861
 1873SOL    HW117081   4.667   0.095  12.328  1.4939  1.0979  1.2275
 1873SOL    HW217082   4.669   0.242  12.344 -1.7984  0.9845  0.0681
 1874SOL     OW17083   1.067   3.766  12.587 -0.0668  0.1548 -0.3260
 1874SOL    HW117084   0.976   3.746  12.563 -0.7796  0.2220  2.3272
 1874SOL    HW217085   1.071   3.856  12.619  1.6487 -0.3177  0.7364
 1875SOL     OW17086   2.804   1.967   9.187 -0.2971  0.2790  0.0859
 1875SOL    HW117087   2.740   1.896   9.188 -1.0430  0.9449 -0.1159
 1875SOL    HW217088   2.843   1.938   9.270  0.6869  1.1473 -0.0794
 1876SOL     OW17089   3.656   2.996   4.275  0.0978 -0.1347  0.0383
 1876SOL    HW117090   3.622   3.081   4.246 -2.4594 -0.6761  1.3876
 1876SOL    HW217091   3.748   3.017   4.286  0.0301  0.9233 -1.3270
 1877SOL     OW17092   1.781   0.843  10.444  0.1379  0.1324 -0.6973
 1877SOL    HW117093   1.759   0.923  10.492  2.1024  0.0026  0.4395
 1877SOL    HW217094   1.757   0.779  10.511  1.8386 -0.6470 -0.8284
 1878SOL     OW17095   4.132   3.694   8.523  0.2924 -0.1819  0.1675
 1878SOL    HW117096   4.219   3.712   8.559  0.3581  0.5659 -0.3836
 1878SOL    HW217097   4.090   3.639   8.590 -0.0307 -1.0079 -0.7147
 1879SOL     OW17098   3.647   1.013   8.530  0.7611  0.1247 -0.5707
 1879SOL    HW117099   3.710   1.001   8.459  0.4857 -0.2616 -0.7512
 1879SOL    HW217100   3.611   0.929   8.560  1.2494  0.4935  1.0311
 1880SOL     OW17101   1.338   2.772  16.578 -0.7249 -0.1670  0.1969
 1880SOL    HW117102   1.250   2.797  16.607 -0.8057  1.2995 -1.2725
 1880SOL    HW217103   1.386   2.784  16.659  2.5623 -3.6664 -1.2533
 1881SOL     OW17104   3.409   0.277   8.570  0.1170 -0.0642  0.6596
 1881SOL    HW117105   3.444   0.198   8.610  1.9322 -1.2384 -3.2286
 1881SOL    HW217106   3.379   0.238   8.488  0.9683 -1.0545  0.8302
 1882SOL     OW17107   1.810   0.124  15.091  0.3677  0.0545 -0.2314
 1882SOL    HW117108   1.763   0.196  15.050 -0.0055 -0.2032 -0.2545
 1882SOL    HW217109   1.833   0.062  15.022  0.6003 -0.0966 -0.0210
 1883SOL     OW17110   2.774   0.891   0.670 -1.1036  0.1383  0.1752
 1883SOL    HW117111   2.849   0.843   0.706  1.1369  2.1911 -1.7523
 1883SOL    HW217112   2.760   0.828   0.599 -2.8455 -2.1120  2.5031
 1884SOL     OW17113   0.719   1.310  13.829 -0.1585 -0.0079 -0.6627
 1884SOL    HW117114   0.735   1.234  13.885 -0.0101  0.0187 -0.6695
 1884SOL    HW217115   0.801   1.312  13.779  1.4580  0.2673  2.0084
 1885SOL     OW17116   0.361   3.731   2.800 -0.1979  0.6861  0.1425
 1885SOL    HW117117   0.302   3.663   2.832  0.5356  0.1564  0.3606
 1885SOL    HW217118   0.300   3.805   2.792  1.8885  2.2104 -1.7840
 1886SOL     OW17119   0.090   3.107  12.089 -0.7953 -0.1381  0.1751
 1886SOL    HW117120   0.152   3.179  12.079 -0.9835 -0.4115 -2.7983
 1886SOL    HW217121   0.072   3.112  12.183 -0.7739  1.6739  0.0891
 1887SOL     OW17122   3.189   4.245   7.045  0.1219  0.0315 -0.8579
 1887SOL    HW117123   3.196   4.313   6.978  0.4088  1.3639  0.5339
 1887SOL    HW217124   3.097   4.217   7.042  0.3066 -0.6293 -0.3007
 1888SOL     OW17125   2.008   1.154   3.316  0.2829 -0.3027 -0.0010
 1888SOL    HW117126   2.080   1.146   3.254 -0.2564 -1.3950 -0.4879
 1888SOL    HW217127   2.053   1.178   3.398 -0.0611 -1.9712  0.6690
 1889SOL     OW17128   0.147   3.217   8.603 -0.1313  0.2572  0.4530
 1889SOL    HW117129   0.154   3.156   8.530 -0.6216 -0.0535  0.6653
 1889SOL    HW217130   0.153   3.148   8.669  0.5298 -0.0139  0.1094
 1890SOL     OW17131   0.259   2.043   4.034  0.6562 -0.0104 -0.0248
 1890SOL    HW117132   0.340   2.023   4.081  0.6503  0.9390  0.3793
 1890SOL    HW217133   0.261   1.972   3.969  0.5540  1.0847 -1.2324
 1891SOL     OW17134   4.492   1.971   3.435 -0.5801  0.5679  0.0627
 1891SOL    HW117135   4.520   2.055   3.471  0.6038  1.0985 -2.1469
 1891SOL    HW217136   4.488   1.923   3.518  1.5726 -0.6434 -0.5182
 1892SOL     OW17137   2.289   3.345  11.508 -0.5388  0.4678 -0.2245
 1892SOL    HW117138   2.212   3.289  11.497  0.1409 -0.2957 -1.1375
 1892SOL    HW217139   2.338   3.325  11.428 -0.6656  0.5805 -0.3312
 1893SOL     OW17140   3.191   4.131   3.842 -0.4747 -0.0334  0.3245
 1893SOL    HW117141   3.201   4.037   3.826 -1.9596  0.0097 -0.9539
 1893SOL    HW217142   3.225   4.161   3.758 -1.2639  2.0303  0.7415
 1894SOL     OW17143   3.791   0.027   8.636 -0.2180 -0.1288  0.0101
 1894SOL    HW117144   3.873   0.067   8.663 -0.3724 -1.3563  2.2906
 1894SOL    HW217145   3.791   0.053   8.544 -0.3312  1.3329  0.4315
 1895SOL     OW17146   0.046   2.722   7.003 -0.9506  0.1698 -0.0272
 1895SOL    HW117147   0.040   2.746   6.911 -0.6127  0.6770  0.0869
 1895SOL    HW217148   4.715   2.792   7.043  0.7606  0.8030  1.1029
 1896SOL     OW17149   3.684   3.182   0.578  0.6219 -0.5972  0.1630
 1896SOL    HW117150   3.751   3.220   0.634  0.2913 -1.3671  1.0648
 1896SOL    HW217151   3.637   3.116   0.627 -0.4722 -0.7568 -1.0929
 1897SOL     OW17152   0.987   2.585   7.501 -0.3199 -0.3240  0.4871
 1897SOL    HW117153   1.009   2.492   7.494  0.6098 -0.0040 -0.9403
 1897SOL    HW217154   1.048   2.614   7.434 -0.5515 -2.9168 -0.8754
 1898SOL     OW17155   1.093   1.960   4.180  0.0839  0.5788  0.0903
 1898SOL    HW117156   1.130   1.957   4.268 -0.1949  0.8710  0.2220
 1898SOL    HW217157   1.114   2.052   4.163  0.1450  0.2747 -1.5002
 1899SOL     OW17158   2.674   1.893   6.541 -0.3247 -0.3438 -0.5461
 1899SOL    HW117159   2.580   1.910   6.534  0.2382  1.9401 -2.6091
 1899SOL    HW217160   2.681   1.833   6.615  1.2122  0.5673  0.0573
 1900SOL     OW17161   1.913   1.406   8.831  0.2850 -0.6511 -0.0778
 1900SOL    HW117162   1.988   1.413   8.889  0.2097 -0.6399  0.0187
 1900SOL    HW217163   1.941   1.459   8.756  0.3891 -1.1750 -0.4150
 1901SOL     OW17164   2.889   3.117   3.345 -0.3167  0.4436 -0.4315
 1901SOL    HW117165   2.967   3.061   3.350 -1.0724 -0.4924  1.2415
 1901SOL    HW217166   2.853   3.084   3.263 -0.0752  0.5325 -0.5746
 1902SOL     OW17167   2.960   1.151   5.146 -0.8994  0.3836  0.2404
 1902SOL    HW117168   3.031   1.183   5.091 -0.7290  1.1445  0.9115
 1902SOL    HW217169   2.884   1.178   5.094 -0.6930 -2.1764 -1.3819
 1903SOL     OW17170   3.727   1.974   7.313 -0.8971 -0.1723 -0.0467
 1903SOL    HW117171   3.760   1.934   7.394  2.8764 -0.6353 -1.8357
 1903SOL    HW217172   3.649   2.023   7.341  0.2173  1.0258  0.9804
 1904SOL     OW17173   3.094   1.021   3.953 -0.2090  0.6524 -0.3048
 1904SOL    HW117174   3.143   0.964   3.894 -2.7045 -1.2671 -0.4840
 1904SOL    HW217175   3.155   1.035   4.026 -1.0726 -0.0978  0.5626
 1905SOL     OW17176   0.342   0.073   6.862  0.5282 -0.0544  0.6005
 1905SOL    HW117177   0.384   4.715   6.829  1.1094 -0.1963  1.6848
 1905SOL    HW217178   0.415   0.135   6.873 -0.4373  1.2824 -0.5083
 1906SOL     OW17179   2.383   3.789   3.492  0.2983  0.1830 -0.4809
 1906SOL    HW117180   2.380   3.791   3.397  0.5124  0.6737 -0.4809
 1906SOL    HW217181   2.371   3.880   3.521  1.5521 -0.2977  1.6021
 1907SOL     OW17182   3.829   0.395   6.098 -0.3068  0.0844 -0.3767
 1907SOL    HW117183   3.815   0.488   6.115  2.0748 -0.1979  3.0035
 1907SOL    HW217184   3.820   0.391   6.002  1.4943  0.4124 -0.5526
 1908SOL     OW17185   3.215   3.337  15.519  0.3398  0.2846  0.0857
 1908SOL    HW117186   3.219   3.396  15.444  1.6825  1.3215  0.9792
 1908SOL    HW217187   3.131   3.294  15.503  0.6227  0.5011 -2.0512
 1909SOL     OW17188   3.466   1.325   8.783 -0.2053  0.2574  0.8454
 1909SOL    HW117189   3.516   1.407   8.791  0.4569 -0.3231  2.7110
 1909SOL    HW217190   3.387   1.341   8.834 -0.8136  1.8277 -0.5876
 1910SOL     OW17191   0.473   0.907   1.783 -0.4070  0.1485 -0.0520
 1910SOL    HW117192   0.448   0.950   1.865 -2.1339 -2.3554  0.7397
 1910SOL    HW217193   0.426   0.823   1.783 -0.8613  0.4004  0.2207
 1911SOL     OW17194   2.029   1.884  16.510 -0.3261  0.0087 -0.1743
 1911SOL    HW117195   2.062   1.960  16.463 -0.9174  0.0913 -0.4489
 1911SOL    HW217196   1.958   1.855  16.453 -0.2932 -1.8599  0.7347
 1912SOL     OW17197   4.631   2.373  12.476 -0.3935  0.4503  0.4231
 1912SOL    HW117198   4.624   2.465  12.500  3.7089  1.2302 -1.3621
 1912SOL    HW217199   4.561   2.322  12.517  0.7492 -1.8720 -0.4992
 1913SOL     OW17200   3.164   4.315  13.724 -0.0701 -0.4412  0.0500
 1913SOL    HW117201   3.191   4.405  13.703 -3.0636  0.5680  0.4581
 1913SOL    HW217202   3.071   4.335  13.737 -0.3263 -0.4295 -1.7873
 1914SOL     OW17203   1.071   3.817   5.667  0.2069  0.0460 -0.1590
 1914SOL    HW117204   1.119   3.805   5.585  2.5094 -0.3679  1.2512
 1914SOL    HW217205   1.131   3.801   5.739 -0.3467  2.8483  0.9458
 1915SOL     OW17206   4.307   2.554   8.417  0.0809 -0.1649 -0.2937
 1915SOL    HW117207   4.247   2.483   8.440 -1.6406  0.6475 -2.2598
 1915SOL    HW217208   4.385   2.544   8.472 -0.1105 -1.5328 -0.2915
 1916SOL     OW17209   2.403   0.525   7.071 -0.2668 -0.2762  0.0409
 1916SOL    HW117210   2.406   0.466   7.146  3.5799 -1.2421 -0.8243
 1916SOL    HW217211   2.309   0.541   7.079  0.1089  1.9075 -0.0864
 1917SOL     OW17212   2.225   1.388   5.793  0.2124  0.2281  0.3693
 1917SOL    HW117213   2.228   1.301   5.833  2.0100 -0.4285 -1.1900
 1917SOL    HW217214   2.246   1.441   5.870 -0.6145 -0.1596  0.8584
 1918SOL     OW17215   3.503   1.756   6.504  0.2308  0.0688  0.2223
 1918SOL    HW117216   3.512   1.801   6.420  2.5251  0.2094  0.5639
 1918SOL    HW217217   3.502   1.663   6.480  1.7390  0.2090 -0.3830
 1919SOL     OW17218   3.203   4.565   7.525 -0.0968 -0.0891  0.2102
 1919SOL    HW117219   3.216   4.538   7.434 -2.1323  2.2959 -0.7980
 1919SOL    HW217220   3.274   4.512   7.562 -2.1758 -1.8947  1.6061
 1920SOL     OW17221   1.527   1.770   2.703 -0.2980  0.3907 -0.1340
 1920SOL    HW117222   1.537   1.704   2.634  0.0710 -0.3214  0.5976
 1920SOL    HW217223   1.452   1.815   2.664 -3.2286 -2.7742  1.8024
 1921SOL     OW17224   0.011   3.482  10.343 -0.4827  0.0867  0.3928
 1921SOL    HW117225   4.650   3.457  10.301  1.0809 -1.3033 -1.8701
 1921SOL    HW217226   0.041   3.396  10.371  0.5836  0.0422 -0.8555
 1922SOL     OW17227   2.172   3.166   6.512  0.0420  0.3490  0.2517
 1922SOL    HW117228   2.212   3.222   6.445 -1.1377  0.8636 -0.0305
 1922SOL    HW217229   2.218   3.188   6.593  3.0465 -1.7684 -0.8756
 1923SOL     OW17230   2.327   3.758   3.187 -0.7253  0.5554  0.0309
 1923SOL    HW117231   2.322   3.713   3.103  1.4173  0.0377  0.1709
 1923SOL    HW217232   2.246   3.809   3.186 -1.5697 -0.8226 -2.1983
 1924SOL     OW17233   3.956   3.324  16.360  0.2989 -0.0034  0.9143
 1924SOL    HW117234   3.933   3.403  16.310  0.9335  0.2345  1.0000
 1924SOL    HW217235   3.869   3.287  16.376  0.0696  0.5201  0.8852
 1925SOL     OW17236   2.638   1.365   8.293 -0.3932 -0.1960 -0.4069
 1925SOL    HW117237   2.586   1.358   8.373 -2.1932 -0.7354 -1.6343
 1925SOL    HW217238   2.593   1.297   8.243  1.1832 -0.5571 -1.3469
 1926SOL     OW17239   3.070   2.093   7.123 -0.5702 -0.2072  0.0344
 1926SOL    HW117240   3.078   2.104   7.218  1.4009  2.0894 -0.4006
 1926SOL    HW217241   3.119   2.012   7.107 -0.9845  0.0112 -2.2535
 1927SOL     OW17242   3.183   1.450  10.013 -0.3575  0.1473  0.2256
 1927SOL    HW117243   3.230   1.519  10.059  0.9968 -0.6551  0.0579
 1927SOL    HW217244   3.106   1.437  10.069 -0.1767  1.9289  0.8780
 1928SOL     OW17245   4.513   3.380   1.502  0.0869 -0.2654  0.0733
 1928SOL    HW117246   4.464   3.382   1.420  1.6659  2.4699 -0.7947
 1928SOL    HW217247   4.485   3.293   1.531  0.7956 -0.3917  0.3948
 1929SOL     OW17248   1.952   4.180   8.924  0.2614  0.1024 -0.0681
 1929SOL    HW117249   2.014   4.194   8.995  0.4982  0.2082 -0.2979
 1929SOL    HW217250   1.876   4.152   8.977 -1.2946  2.1243 -1.2285
 1930SOL     OW17251   2.699   3.510   9.257 -0.0008 -0.1993  0.5825
 1930SOL    HW117252   2.611   3.521   9.293 -1.6372 -0.1640 -3.4617
 1930SOL    HW217253   2.756   3.503   9.334  0.7618  0.6730  0.1060
 1931SOL     OW17254   0.020   4.152   7.893 -0.0924 -0.3442 -0.6287
 1931SOL    HW117255   0.009   4.236   7.850  1.0188  0.8722  1.4538
 1931SOL    HW217256   0.106   4.170   7.932 -0.1837  0.7766 -0.9591
 1932SOL     OW17257   1.448   2.584   3.900 -0.7322 -0.1349 -0.3338
 1932SOL    HW117258   1.532   2.628   3.915 -0.6938 -0.8751  1.6297
 1932SOL    HW217259   1.421   2.573   3.991 -1.3256 -0.6658 -0.5752
 1933SOL     OW17260   2.467   2.753   5.023  0.1711  0.2731 -0.3756
 1933SOL    HW117261   2.555   2.757   5.058 -0.5444 -1.7206  1.6404
 1933SOL    HW217262   2.489   2.717   4.937 -0.4525  0.1155 -0.4708
 1934SOL     OW17263   2.352   3.664   5.087  0.6789 -0.3382  0.4761
 1934SOL    HW117264   2.357   3.735   5.151  1.5167 -0.3115  0.3933
 1934SOL    HW217265   2.443   3.632   5.081 -0.6034 -3.5764 -1.7217
 1935SOL     OW17266   0.661   3.953  16.290  0.2793  0.7879 -0.1295
 1935SOL    HW117267   0.596   4.023  16.277  0.2937  0.7894 -0.1944
 1935SOL    HW217268   0.733   4.006  16.325  2.1044 -2.1240  0.5180
 1936SOL     OW17269   2.574   2.176   3.646  0.4603  0.0655 -0.2309
 1936SOL    HW117270   2.511   2.162   3.716  0.5555 -0.4147 -0.2459
 1936SOL    HW217271   2.607   2.087   3.633  0.3963  0.0530 -0.3084
 1937SOL     OW17272   3.990   2.257   4.417  0.3268 -0.0419  0.3838
 1937SOL    HW117273   4.041   2.263   4.337 -0.0457  0.7894  0.2044
 1937SOL    HW217274   3.971   2.348   4.442  1.8596  0.2213  0.5974
 1938SOL     OW17275   0.987   0.535   9.802 -0.1803 -0.0054 -0.1065
 1938SOL    HW117276   0.896   0.536   9.773 -0.3602 -1.2695  0.4222
 1938SOL    HW217277   1.027   0.565   9.720  0.1363 -1.3276 -0.4338
 1939SOL     OW17278   2.933   1.777  13.166  1.0134  0.0250  0.6024
 1939SOL    HW117279   2.958   1.721  13.093 -0.6815 -1.7535  1.3765
 1939SOL    HW217280   2.845   1.746  13.189  0.2081 -0.2980 -2.8411
 1940SOL     OW17281   4.254   1.452   9.749 -0.1669  0.0182  0.3444
 1940SOL    HW117282   4.202   1.380   9.786  0.6556 -1.1553 -0.8154
 1940SOL    HW217283   4.330   1.409   9.710 -0.4668 -0.4514  0.2842
 1941SOL     OW17284   1.617   0.647   8.930  0.2592 -0.4976  0.5344
 1941SOL    HW117285   1.603   0.737   8.900 -1.1067 -0.5614  0.9969
 1941SOL    HW217286   1.686   0.657   8.996 -0.5636 -0.6550  1.4162
 1942SOL     OW17287   4.687   3.913   7.783 -0.0016  0.3500 -0.0469
 1942SOL    HW117288   0.002   3.982   7.837  1.1740 -0.6360  0.4180
 1942SOL    HW217289   4.612   3.891   7.838 -0.6663  0.7732 -0.7735
 1943SOL     OW17290   0.088   4.253  17.542  0.0502 -0.0502  0.0291
 1943SOL    HW117291   0.039   4.249  17.459  0.3492 -1.5746 -0.0697
 1943SOL    HW217292   0.171   4.210  17.524 -0.0326 -0.6383  1.0366
 1944SOL     OW17293   2.229   1.253  13.356  0.0845 -0.1682 -0.2405
 1944SOL    HW117294   2.143   1.289  13.378  0.6405  1.2986 -0.5122
 1944SOL    HW217295   2.200   1.168  13.323 -0.6945 -0.6871  1.7229
 1945SOL     OW17296   3.337   4.524   3.042  0.0956 -0.3667  0.3309
 1945SOL    HW117297   3.409   4.505   2.981  0.0844  0.1788  0.1455
 1945SOL    HW217298   3.379   4.564   3.118 -0.1196  1.3353 -0.4392
 1946SOL     OW17299   1.293   2.871  14.533  0.2953  0.2842  0.4978
 1946SOL    HW117300   1.330   2.958  14.549  1.5221  0.2710 -2.2231
 1946SOL    HW217301   1.217   2.889  14.477  1.2159  4.1435  0.5089
 1947SOL     OW17302   2.557   3.803  10.395 -0.1743  0.5123 -0.4590
 1947SOL    HW117303   2.650   3.824  10.402 -0.5059  2.9228 -3.4691
 1947SOL    HW217304   2.554   3.777  10.487  0.4716 -0.2894 -0.6579
 1948SOL     OW17305   0.846   1.694  15.236  0.0739  0.2128  0.7352
 1948SOL    HW117306   0.922   1.678  15.180 -0.0649  0.2786  0.5287
 1948SOL    HW217307   0.800   1.752  15.176  0.9167 -0.5244 -0.6302
 1949SOL     OW17308   1.786   3.544   0.674  0.3231 -0.4963  0.0991
 1949SOL    HW117309   1.863   3.493   0.701  0.0297 -2.0621 -2.0617
 1949SOL    HW217310   1.761   3.592   0.753  0.4135 -2.2298  1.1736
 1950SOL     OW17311   0.586   2.086   3.295  0.2487 -0.1473 -0.2361
 1950SOL    HW117312   0.557   1.997   3.273  0.1526 -0.6694  2.0475
 1950SOL    HW217313   0.541   2.134   3.226  1.9969 -2.0255 -2.6849
 1951SOL     OW17314   0.274   1.742   6.441 -0.1290 -0.5699 -0.4715
 1951SOL    HW117315   0.300   1.810   6.504 -0.3342 -0.2294 -0.7553
 1951SOL    HW217316   0.357   1.738   6.394 -0.6002 -1.6200 -1.2001
 1952SOL     OW17317   0.886   4.419   6.755 -0.2588 -0.5049  0.7064
 1952SOL    HW117318   0.791   4.429   6.750 -0.5075 -2.5560  1.4876
 1952SOL    HW217319   0.895   4.376   6.670  2.2638 -0.5438  1.0127
 1953SOL     OW17320   1.096   4.146  13.806 -0.1413 -0.3487 -0.4039
 1953SOL    HW117321   1.085   4.064  13.852 -3.3990 -0.3046 -1.1175
 1953SOL    HW217322   1.144   4.196  13.872  0.4784 -0.5378 -0.7112
 1954SOL     OW17323   0.036   4.521   2.313 -0.1996 -0.2070 -0.1961
 1954SOL    HW117324   0.071   4.436   2.342  1.2214  0.2097 -0.7115
 1954SOL    HW217325   0.073   4.515   2.225  2.0442  0.0309  0.7377
 1955SOL     OW17326   2.034   0.143   2.729  0.5830  0.1784  0.1589
 1955SOL    HW117327   2.107   0.161   2.669  1.0367  1.7689  1.1855
 1955SOL    HW217328   2.088   0.095   2.793  0.4677 -1.6436 -1.0940
 1956SOL     OW17329   3.540   2.414   8.106  0.3479  0.3827  0.5256
 1956SOL    HW117330   3.521   2.436   8.197 -0.1370 -0.9673  0.7430
 1956SOL    HW217331   3.462   2.456   8.069  0.2886 -1.0850 -0.9821
 1957SOL     OW17332   3.725   4.107   3.437  0.3951 -0.1514 -0.0599
 1957SOL    HW117333   3.758   4.193   3.461  0.8175  0.1117 -1.5936
 1957SOL    HW217334   3.660   4.085   3.504 -0.6773  1.2417 -0.6234
 1958SOL     OW17335   2.475   3.694  10.908 -0.3672 -0.5610 -0.2056
 1958SOL    HW117336   2.565   3.691  10.876 -0.8253  0.1380 -1.5507
 1958SOL    HW217337   2.481   3.778  10.953  0.6364 -0.7222 -0.0306
 1959SOL     OW17338   3.715   2.354   3.434 -0.2163 -0.0593 -0.6853
 1959SOL    HW117339   3.707   2.423   3.368  2.8539  0.0998 -0.8970
 1959SOL    HW217340   3.739   2.278   3.381  2.7435  0.9469 -0.7887
 1960SOL     OW17341   3.465   0.535   3.252 -0.1520  0.5889 -0.4474
 1960SOL    HW117342   3.411   0.614   3.248 -1.9142 -0.4743  2.2397
 1960SOL    HW217343   3.448   0.509   3.161  0.4356 -1.5290  0.0471
 1961SOL     OW17344   2.353   0.879   6.056 -0.4165  0.3950 -0.3271
 1961SOL    HW117345   2.386   0.896   6.144  1.8766 -2.9617 -0.5360
 1961SOL    HW217346   2.318   0.791   6.056  0.6151 -0.0165  1.5732
 1962SOL     OW17347   3.827   2.481   3.069  0.4038 -0.1905 -0.0587
 1962SOL    HW117348   3.913   2.523   3.076 -0.9933  2.4997  0.6235
 1962SOL    HW217349   3.834   2.425   2.991  1.0726  0.9522 -0.8235
 1963SOL     OW17350   4.165   3.229   3.288 -0.1421 -0.5708 -0.4825
 1963SOL    HW117351   4.136   3.187   3.369  2.7113  2.1994  1.9598
 1963SOL    HW217352   4.090   3.288   3.281 -1.1839 -1.7381  0.8055
 1964SOL     OW17353   1.015   4.428   4.796 -0.4166 -0.4194  0.2514
 1964SOL    HW117354   1.092   4.416   4.741  0.0181  0.9152  0.5693
 1964SOL    HW217355   1.042   4.500   4.853  1.9414 -1.8443  0.9239
 1965SOL     OW17356   3.510   1.919   6.090 -0.4457  0.3826 -0.2727
 1965SOL    HW117357   3.580   1.971   6.049  0.9032 -2.0776 -1.1163
 1965SOL    HW217358   3.440   1.951   6.034 -0.1691 -0.7170 -1.2602
 1966SOL     OW17359   2.249   3.935  10.572 -0.3061  0.3459 -0.1255
 1966SOL    HW117360   2.248   4.026  10.542  2.2760  0.9114  1.4947
 1966SOL    HW217361   2.169   3.901  10.532  0.4493 -1.5244 -0.0535
 1967SOL     OW17362   4.432   1.642   5.356  0.4662 -0.5135  0.0597
 1967SOL    HW117363   4.486   1.629   5.277 -0.2323  2.9070 -0.9570
 1967SOL    HW217364   4.351   1.662   5.310  1.0134 -0.4324 -0.8728
 1968SOL     OW17365   3.279   2.505  12.973 -0.5799  0.5443 -0.6246
 1968SOL    HW117366   3.319   2.417  12.976 -1.6892  0.0547 -0.3935
 1968SOL    HW217367   3.333   2.551  13.038  0.5595 -0.5314 -0.7885
 1969SOL     OW17368   2.202   1.382   2.342  0.1047 -0.0738  0.4521
 1969SOL    HW117369   2.142   1.432   2.397  0.6426  0.4348  0.5695
 1969SOL    HW217370   2.185   1.416   2.254  1.3579  0.5466  0.4591
 1970SOL     OW17371   4.404   4.572   8.665 -0.0539 -0.2616  0.1211
 1970SOL    HW117372   4.459   4.500   8.634  0.4128  0.3818 -0.5336
 1970SOL    HW217373   4.327   4.516   8.656 -0.5211  0.2688  0.7629
 1971SOL     OW17374   0.668   1.591  10.732 -0.5176  0.4108  0.2414
 1971SOL    HW117375   0.751   1.632  10.754 -0.4351  1.4438 -1.9857
 1971SOL    HW217376   0.693   1.556  10.646 -0.3863  0.2811  0.3334
 1972SOL     OW17377   2.468   0.237   3.539  0.0537  0.1956  0.3112
 1972SOL    HW117378   2.412   0.299   3.492  0.4794 -0.4756 -1.0612
 1972SOL    HW217379   2.415   0.158   3.528  2.5468 -1.6396  1.5804
 1973SOL     OW17380   1.344   4.692   6.042  0.1854  0.3063 -0.5932
 1973SOL    HW117381   1.398   4.676   6.119  0.6807  2.3747 -0.4991
 1973SOL    HW217382   1.272   4.632   6.059 -1.1205  1.8513 -0.6773
 1974SOL     OW17383   0.564   1.182   1.900  0.4003  0.0525 -0.1361
 1974SOL    HW117384   0.495   1.247   1.911  1.5130  0.8489  2.0981
 1974SOL    HW217385   0.594   1.201   1.811 -1.1214  1.7399 -0.2941
 1975SOL     OW17386   0.193   3.009   5.540  0.0780  0.1513 -0.3216
 1975SOL    HW117387   0.164   3.060   5.616 -0.4003  0.0901 -0.4614
 1975SOL    HW217388   0.285   2.995   5.563  0.1762 -0.6707 -1.2221
 1976SOL     OW17389   2.741   0.528   8.151  0.3443 -0.7681 -0.9009
 1976SOL    HW117390   2.739   0.471   8.228 -0.4523  0.3066 -0.1102
 1976SOL    HW217391   2.741   0.459   8.085 -1.1112 -1.7517  0.1201
 1977SOL     OW17392   1.113   0.697   8.297  0.1283  0.9214  0.4526
 1977SOL    HW117393   1.019   0.706   8.314  0.3286  3.1869  0.4622
 1977SOL    HW217394   1.136   0.624   8.355 -4.1198 -0.3880  0.4727
 1978SOL     OW17395   1.255   3.158   0.822 -0.2036  0.3094  0.0076
 1978SOL    HW117396   1.201   3.108   0.883  1.7789 -1.8164  0.0031
 1978SOL    HW217397   1.309   3.206   0.884 -0.0766  0.2810 -0.0803
 1979SOL     OW17398   3.081   4.637   3.042  0.2155 -0.1145  0.1983
 1979SOL    HW117399   3.038   4.600   2.965 -0.0126  2.0661 -0.7207
 1979SOL    HW217400   3.168   4.597   3.047  0.7554  1.1122  0.6953
 1980SOL     OW17401   3.290   4.418   3.709 -0.0205 -0.6533 -0.3107
 1980SOL    HW117402   3.281   4.328   3.678  3.1306 -0.4628 -1.7653
 1980SOL    HW217403   3.375   4.445   3.674  0.3784  2.8645  3.4039
 1981SOL     OW17404   3.533   2.093   2.568  0.0024  0.3598 -0.1036
 1981SOL    HW117405   3.564   2.172   2.611  2.3396 -0.0215 -1.1000
 1981SOL    HW217406   3.557   2.031   2.637 -1.5151  0.0728  0.1657
 1982SOL     OW17407   3.725   3.909   4.920  0.1657  0.5700  0.1431
 1982SOL    HW117408   3.695   3.993   4.885  0.6130  0.9501  0.6701
 1982SOL    HW217409   3.754   3.929   5.009 -3.8580  2.1050  1.1521
 1983SOL     OW17410   2.343   3.056  14.447  0.4084 -0.1298 -0.5624
 1983SOL    HW117411   2.276   3.117  14.477  1.6932  0.2266  1.5552
 1983SOL    HW217412   2.397   3.116  14.397  1.6336  0.4406  1.4321
 1984SOL     OW17413   2.557   1.650   6.916  0.5417  0.4134 -0.2277
 1984SOL    HW117414   2.543   1.620   6.826 -2.3328  0.0206  0.3472
 1984SOL    HW217415   2.620   1.722   6.911 -0.2399  1.1773  1.0167
 1985SOL     OW17416   3.615   0.025  15.399  0.2526  0.1467 -0.3682
 1985SOL    HW117417   3.560   0.082  15.346 -1.5311 -1.5700 -0.3877
 1985SOL    HW217418   3.659   4.687  15.337 -0.0345 -0.7174  0.2576
 1986SOL     OW17419   2.456   2.862   3.303 -0.3594 -0.4800  0.0318
 1986SOL    HW117420   2.503   2.790   3.345  1.2503  1.1972  1.1411
 1986SOL    HW217421   2.364   2.836   3.293 -0.9006  1.2362  0.4799
 1987SOL     OW17422   0.723   2.437   3.074 -0.2456 -0.1976  0.3727
 1987SOL    HW117423   0.775   2.517   3.083  1.1324 -1.2124  1.3182
 1987SOL    HW217424   0.725   2.429   2.978  2.7799  0.2004  0.4092
 1988SOL     OW17425   1.654   3.314   9.180 -0.7501  0.4921 -0.1541
 1988SOL    HW117426   1.722   3.260   9.140 -0.3648  0.8195  0.0583
 1988SOL    HW217427   1.661   3.286   9.271  0.1802 -1.7803 -0.9296
 1989SOL     OW17428   1.431   1.348  10.257 -0.5929  0.2234  0.0464
 1989SOL    HW117429   1.387   1.408  10.318 -0.7925  0.3727 -0.2433
 1989SOL    HW217430   1.427   1.410  10.184 -0.6076  2.1282  1.6507
 1990SOL     OW17431   4.379   0.173   7.239  0.6134  0.3561 -0.2665
 1990SOL    HW117432   4.288   0.164   7.267  0.5549  3.6247  0.5387
 1990SOL    HW217433   4.382   0.268   7.248 -0.6791  0.2409  1.5476
 1991SOL     OW17434   3.494   0.137  16.884 -0.2474 -0.2763  0.0236
 1991SOL    HW117435   3.446   0.206  16.928  1.7285  1.2817 -0.2781
 1991SOL    HW217436   3.439   0.061  16.904 -0.4174  0.3055  1.7193
 1992SOL     OW17437   2.191   2.327  13.062 -0.4088  0.4910 -0.0545
 1992SOL    HW117438   2.239   2.257  13.105 -0.3806 -0.0872 -1.0210
 1992SOL    HW217439   2.103   2.297  13.083 -1.5503  3.6858 -0.3358
 1993SOL     OW17440   3.129   4.466   5.488 -0.2696  0.0751  0.0097
 1993SOL    HW117441   3.105   4.386   5.441  0.3611  1.1937 -2.2406
 1993SOL    HW217442   3.054   4.474   5.546  1.2474 -0.4608  2.0779
 1994SOL     OW17443   1.520   2.914   2.289  0.0034 -0.3025  0.5851
 1994SOL    HW117444   1.457   2.850   2.320  0.0814 -0.2388  0.8739
 1994SOL    HW217445   1.462   2.976   2.245 -0.6659 -1.9212 -0.8076
 1995SOL     OW17446   2.805   3.471  17.057 -0.2843 -0.1598 -0.4870
 1995SOL    HW117447   2.877   3.447  17.116  1.6099 -3.7767 -4.2192
 1995SOL    HW217448   2.831   3.554  17.016  1.9627  0.0794  1.4340
 1996SOL     OW17449   3.333   0.017   1.611 -1.0669 -0.5863 -0.3924
 1996SOL    HW117450   3.375   0.082   1.555 -1.4475 -1.5339 -1.7825
 1996SOL    HW217451   3.310   0.066   1.689 -1.3083 -1.9695  0.4120
 1997SOL     OW17452   2.928   2.348   9.816  0.0122  0.3561 -0.0983
 1997SOL    HW117453   2.918   2.424   9.873 -1.0909 -0.8325  1.2835
 1997SOL    HW217454   2.939   2.279   9.882  1.2393 -0.1477 -0.8264
 1998SOL     OW17455   0.710   1.850  16.376 -0.0964 -0.3046  0.0796
 1998SOL    HW117456   0.627   1.896  16.360  0.9573  1.8212  0.6940
 1998SOL    HW217457   0.698   1.802  16.458 -0.0257  1.3412  1.0546
 1999SOL     OW17458   4.192   3.129   1.528  0.0275  0.2244 -0.5076
 1999SOL    HW117459   4.181   3.221   1.552  1.9999  0.6538 -1.1900
 1999SOL    HW217460   4.284   3.116   1.505 -0.1531 -2.0144  0.0595
 2000SOL     OW17461   0.806   2.138  13.563  0.0968 -0.1594  0.4250
 2000SOL    HW117462   0.731   2.192  13.586  0.3924  0.3020  0.2956
 2000SOL    HW217463   0.870   2.165  13.628  0.7297 -0.6555  0.0132
 2001SOL     OW17464   0.413   4.677  12.026 -0.2738  0.2582 -0.4050
 2001SOL    HW117465   0.320   4.654  12.021  0.8630 -3.8559 -3.0992
 2001SOL    HW217466   0.424   0.040  11.981 -0.0193  1.5948  2.1591
 2002SOL     OW17467   3.807   2.679   5.016 -0.3386  0.0293  0.1644
 2002SOL    HW117468   3.842   2.592   4.995 -1.5791 -0.9400  2.2048
 2002SOL    HW217469   3.788   2.720   4.931 -0.9065  2.2348  1.3472
 2003SOL     OW17470   3.757   4.040   3.175 -0.0252  0.2377 -0.1033
 2003SOL    HW117471   3.731   4.057   3.265  0.8482 -0.4598  0.2833
 2003SOL    HW217472   3.835   4.095   3.167  1.5844 -1.8345  1.3528
 2004SOL     OW17473   1.606   1.115   7.530 -0.8483 -0.5308 -0.1831
 2004SOL    HW117474   1.617   1.021   7.541 -0.4680 -0.9728 -4.2348
 2004SOL    HW217475   1.648   1.165   7.600 -0.1528 -1.5796  0.1451
 2005SOL     OW17476   3.069   0.442   4.941  0.1780  0.3845 -0.0390
 2005SOL    HW117477   3.070   0.505   4.869 -1.4076 -0.4053 -0.7414
 2005SOL    HW217478   2.981   0.460   4.974  0.6554  1.3520  0.7024
 2006SOL     OW17479   0.812   2.213  13.980 -0.2361 -0.8196  0.2408
 2006SOL    HW117480   0.863   2.193  13.902  0.6152 -1.0908  0.8624
 2006SOL    HW217481   0.877   2.238  14.046  1.1334 -0.6213 -1.1764
 2007SOL     OW17482   2.278   2.163   6.585  0.1252 -0.6028  0.1823
 2007SOL    HW117483   2.335   2.207   6.522  0.6959 -0.4682  0.7946
 2007SOL    HW217484   2.310   2.075   6.564  0.0284 -0.6872  0.3887
 2008SOL     OW17485   4.493   3.378  10.718  0.3429 -0.3549 -0.3224
 2008SOL    HW117486   4.563   3.417  10.772 -1.3069  1.1211  0.7577
 2008SOL    HW217487   4.490   3.439  10.644  1.5535  0.7778  0.5471
 2009SOL     OW17488   2.063   0.731   2.873 -0.0950 -0.3224  0.1329
 2009SOL    HW117489   1.985   0.764   2.828  0.4979  0.2242 -0.4912
 2009SOL    HW217490   2.023   0.668   2.933 -1.1506 -0.8968 -1.1720
 2010SOL     OW17491   1.168   2.931   2.696 -0.4334 -0.3611  0.0986
 2010SOL    HW117492   1.235   2.999   2.705 -0.6356 -0.0672 -0.6295
 2010SOL    HW217493   1.086   2.974   2.671 -0.4620 -0.5102 -0.0637
 2011SOL     OW17494   3.224   0.320   3.739  0.0834  0.2886 -0.3407
 2011SOL    HW117495   3.312   0.354   3.723  0.3428 -0.3230 -0.2064
 2011SOL    HW217496   3.194   0.293   3.652 -0.4756 -1.0693  0.2704
 2012SOL     OW17497   4.694   2.812   2.531 -0.6025  0.1986 -0.3382
 2012SOL    HW117498   4.684   2.858   2.614 -0.3464 -1.3698  0.5774
 2012SOL    HW217499   4.602   2.794   2.513 -0.1925  1.0550 -3.1699
 2013SOL     OW17500   2.510   1.681   2.857 -0.5975 -0.6223  0.0102
 2013SOL    HW117501   2.447   1.745   2.824  0.1000 -1.0680 -2.1777
 2013SOL    HW217502   2.479   1.686   2.948 -1.3309 -0.8046 -0.2287
 2014SOL     OW17503   3.323   4.027   8.576 -0.4107  0.1445  0.6006
 2014SOL    HW117504   3.302   4.116   8.605 -1.9582 -0.3368  0.9980
 2014SOL    HW217505   3.288   3.982   8.653  1.5585 -0.9589  0.8531
 2015SOL     OW17506   2.982   3.872   7.383  1.0887  0.1091 -0.6186
 2015SOL    HW117507   3.006   3.918   7.464  1.9484 -0.1033 -0.7516
 2015SOL    HW217508   2.890   3.855   7.400  0.5211  1.6988 -2.0862
 2016SOL     OW17509   1.018   2.076   2.927  0.5629 -0.1858  0.3340
 2016SOL    HW117510   1.035   2.108   3.015  0.2929  2.0784 -0.4331
 2016SOL    HW217511   1.040   2.153   2.875 -0.4007 -2.1194 -2.9509
 2017SOL     OW17512   2.813   1.082   6.922 -0.3175 -0.5867  0.1768
 2017SOL    HW117513   2.838   0.994   6.894 -2.1181 -0.1346 -2.8234
 2017SOL    HW217514   2.883   1.111   6.980 -0.1889  0.7238 -0.6321
 2018SOL     OW17515   4.099   2.470   5.850 -0.3469 -0.6695 -0.3211
 2018SOL    HW117516   4.012   2.451   5.813  0.4911 -1.7836 -1.7277
 2018SOL    HW217517   4.140   2.383   5.849  0.9797 -0.0232 -2.2286
 2019SOL     OW17518   1.334   1.197  17.049  0.6344  0.2036  0.5584
 2019SOL    HW117519   1.367   1.123  17.100 -3.5959 -2.0238  0.1044
 2019SOL    HW217520   1.258   1.160  17.004 -0.1643  2.6574 -0.0778
 2020SOL     OW17521   3.838   1.656   2.485  0.0846 -0.3544 -0.0306
 2020SOL    HW117522   3.885   1.722   2.434 -1.4150  1.7503  1.3440
 2020SOL    HW217523   3.911   1.647   2.545 -1.7431  1.1632  2.4002
 2021SOL     OW17524   1.071   3.447   7.233  0.2812 -0.2526 -0.7014
 2021SOL    HW117525   1.149   3.402   7.265  0.5322  0.4711 -0.3157
 2021SOL    HW217526   0.995   3.414   7.281  0.1294  1.4714  0.2527
 2022SOL     OW17527   1.335   3.064   4.970  0.0200 -0.0377  0.1326
 2022SOL    HW117528   1.279   3.134   4.936 -0.8279 -0.2658  1.0320
 2022SOL    HW217529   1.400   3.117   5.016 -0.8418  0.6214  0.6081
 2023SOL     OW17530   2.009   2.870   8.006 -0.5605 -0.6283 -0.5214
 2023SOL    HW117531   1.930   2.903   7.963  0.4939  0.5517 -1.5325
 2023SOL    HW217532   2.081   2.924   7.975 -0.0586 -0.4450  0.9587
 2024SOL     OW17533   1.856   3.432   6.303  0.2274  0.2226  0.1135
 2024SOL    HW117534   1.874   3.374   6.229  0.9522  3.2685 -2.1245
 2024SOL    HW217535   1.945   3.450   6.334  0.8754  3.0078 -3.3647
 2025SOL     OW17536   4.389   4.623   9.484 -0.3759 -0.3345  0.0425
 2025SOL    HW117537   4.330   4.696   9.465 -0.3915 -0.6559 -1.1345
 2025SOL    HW217538   4.445   4.631   9.407  0.1514 -0.4407  0.4083
 2026SOL     OW17539   3.335   3.722   8.697  0.5939  0.1138 -0.3704
 2026SOL    HW117540   3.387   3.750   8.622  0.2983  2.0768  0.1536
 2026SOL    HW217541   3.399   3.670   8.747 -0.6234 -1.1184 -0.0763
 2027SOL     OW17542   3.934   1.119  15.759 -0.4148  0.1621  0.4977
 2027SOL    HW117543   3.895   1.159  15.681  0.9673  0.0044 -0.2547
 2027SOL    HW217544   4.003   1.180  15.783 -0.3769  0.2371  0.1902
 2028SOL     OW17545   4.162   1.084   7.172 -0.2800 -0.2518  0.1458
 2028SOL    HW117546   4.187   1.014   7.112 -3.0829 -1.3682  0.2417
 2028SOL    HW217547   4.110   1.034   7.236  0.1649 -0.4938  0.3222
 2029SOL     OW17548   3.822   0.420  12.260  0.2253  0.3991 -0.6411
 2029SOL    HW117549   3.796   0.335  12.224  1.5446  0.1358 -0.9752
 2029SOL    HW217550   3.746   0.475  12.241 -0.2694 -0.8744 -2.3629
 2030SOL     OW17551   0.197   1.794   2.354 -0.0678 -0.3547  0.5299
 2030SOL    HW117552   0.202   1.702   2.329  1.7259 -0.2474  0.5209
 2030SOL    HW217553   0.279   1.797   2.404 -0.9485 -0.5988  1.9833
 2031SOL     OW17554   4.387   2.940   6.727 -0.2034 -0.0934 -0.0210
 2031SOL    HW117555   4.314   3.001   6.721  0.2052  0.5008  0.9726
 2031SOL    HW217556   4.341   2.856   6.726 -0.2091 -0.0909  0.0311
 2032SOL     OW17557   3.219   0.061   8.850 -0.5638  0.1160 -0.0505
 2032SOL    HW117558   3.267   0.062   8.767 -0.3707 -0.9346  0.0434
 2032SOL    HW217559   3.258   4.704   8.888  0.1585  0.8041  0.6285
 2033SOL     OW17560   0.549   2.613   3.931 -0.0322  0.0389 -0.4362
 2033SOL    HW117561   0.555   2.543   3.996 -2.2779  0.6667  0.4551
 2033SOL    HW217562   0.473   2.589   3.878 -1.4950 -0.8868  2.0866
 2034SOL     OW17563   3.882   3.312   9.360  0.3105 -1.2081  0.0807
 2034SOL    HW117564   3.867   3.336   9.452  1.4416  0.8287 -0.2737
 2034SOL    HW217565   3.821   3.238   9.361 -1.9951  0.6717 -1.5874
 2035SOL     OW17566   2.758   0.163   3.570 -0.2626  0.1852 -0.2295
 2035SOL    HW117567   2.672   0.205   3.575  0.3132  1.2494  0.8271
 2035SOL    HW217568   2.735   0.081   3.526 -0.0325 -0.4093  0.7506
 2036SOL     OW17569   4.096   2.522   1.055  0.1753  0.5312  0.3846
 2036SOL    HW117570   4.158   2.496   1.122 -0.2552 -1.3833  0.0383
 2036SOL    HW217571   4.061   2.598   1.102 -2.2594 -0.7790  0.6550
 2037SOL     OW17572   2.407   3.525   9.234 -0.0229 -0.0484 -0.1227
 2037SOL    HW117573   2.390   3.566   9.149  1.6632  1.3912  0.2283
 2037SOL    HW217574   2.384   3.433   9.221 -0.1732 -0.1520  0.9016
 2038SOL     OW17575   0.951   0.184  10.729 -0.2382  0.3213 -0.6715
 2038SOL    HW117576   1.017   0.126  10.767  1.0756  1.5555 -1.0983
 2038SOL    HW217577   1.003   0.226  10.661  0.4495  0.8234  0.1569
 2039SOL     OW17578   1.983   1.425   9.607  0.3681 -0.0277  0.1081
 2039SOL    HW117579   2.035   1.426   9.687 -1.4696  0.1850  1.3197
 2039SOL    HW217580   1.967   1.331   9.607 -1.7931  0.3028 -2.7223
 2040SOL     OW17581   2.383   1.742  10.414  0.0569  0.1019 -0.2426
 2040SOL    HW117582   2.361   1.784  10.497 -0.5186  1.0053 -0.8420
 2040SOL    HW217583   2.368   1.649  10.429  1.5230  0.2746  2.2029
 2041SOL     OW17584   1.916   0.262   4.612  0.4959 -0.1258 -0.0129
 2041SOL    HW117585   1.860   0.191   4.641  0.5963 -0.1071  0.2305
 2041SOL    HW217586   1.939   0.230   4.525 -1.6188 -1.4400 -0.0759
 2042SOL     OW17587   3.208   4.411   2.488 -0.0640 -0.1942 -0.0393
 2042SOL    HW117588   3.124   4.378   2.456  0.8912 -2.3547 -0.3441
 2042SOL    HW217589   3.195   4.392   2.581 -0.8750  1.5290  0.1991
 2043SOL     OW17590   2.418   2.052   9.155  0.1558  0.7353 -0.5562
 2043SOL    HW117591   2.339   2.011   9.191 -0.0741  0.1706 -1.6872
 2043SOL    HW217592   2.482   1.992   9.195 -1.3320 -0.4076  0.0991
 2044SOL     OW17593   3.786   1.965   3.496  0.1717  0.4797 -0.5868
 2044SOL    HW117594   3.798   1.947   3.589  0.3207 -0.7590 -0.8465
 2044SOL    HW217595   3.690   1.971   3.495  0.1477  0.3137  0.2406
 2045SOL     OW17596   4.648   4.416  13.782 -0.0675 -0.1066  0.2574
 2045SOL    HW117597   4.644   4.334  13.733  0.8744 -0.5380  0.9075
 2045SOL    HW217598   4.632   4.484  13.715 -0.3927 -2.9257 -2.5095
 2046SOL     OW17599   2.380   2.372   4.988 -0.6604 -0.1746  0.5049
 2046SOL    HW117600   2.465   2.362   5.030 -0.3453  0.4161  0.0026
 2046SOL    HW217601   2.392   2.297   4.930  1.3913  0.6811 -0.1500
 2047SOL     OW17602   3.959   3.895   2.064 -0.4659 -0.0766 -0.0817
 2047SOL    HW117603   3.911   3.831   2.012 -0.1178 -0.4055  0.0008
 2047SOL    HW217604   3.978   3.959   1.995 -2.6582  0.7331  0.0709
 2048SOL     OW17605   0.097   3.893  16.126 -0.4802 -0.0392  0.3949
 2048SOL    HW117606   0.058   3.893  16.038 -2.5533 -0.1315  1.3161
 2048SOL    HW217607   0.095   3.987  16.145 -6.3484 -0.1677  0.4869
 2049SOL     OW17608   4.577   2.044   9.887 -0.0440 -0.3931 -0.4646
 2049SOL    HW117609   4.651   2.033   9.827  1.2109  1.0166  0.8146
 2049SOL    HW217610   4.589   1.969   9.945 -1.2434 -1.1591 -1.2203
 2050SOL     OW17611   0.242   0.620  14.307 -0.3420 -0.1674 -0.3508
 2050SOL    HW117612   0.172   0.602  14.371  0.3202 -1.8775 -0.0994
 2050SOL    HW217613   0.217   0.564  14.233  1.5954 -2.4626  0.7346
 2051SOL     OW17614   0.394   4.054  11.330 -0.3004  0.4767  0.8938
 2051SOL    HW117615   0.431   4.051  11.418  1.0134 -0.8425  0.3026
 2051SOL    HW217616   0.356   4.142  11.330 -0.9612  0.1936 -0.9976
 2052SOL     OW17617   1.221   4.345   2.755  0.5443 -0.5996 -0.3617
 2052SOL    HW117618   1.193   4.268   2.803  3.2455 -1.9099 -0.9035
 2052SOL    HW217619   1.312   4.351   2.785  0.2025  0.8792  0.3725
 2053SOL     OW17620   3.770   4.288  16.658 -0.0000 -0.0301  0.0359
 2053SOL    HW117621   3.841   4.323  16.712 -0.3378  0.8607 -0.0895
 2053SOL    HW217622   3.734   4.372  16.628  0.7982  0.9371  1.7942
 2054SOL     OW17623   3.926   1.260  14.330  0.1857 -0.2670  0.2734
 2054SOL    HW117624   3.899   1.197  14.264 -1.5686  0.7166  0.0481
 2054SOL    HW217625   3.988   1.302  14.271 -0.3537 -0.1172 -0.1806
 2055SOL     OW17626   2.803   2.648   9.757 -0.2901  0.6965 -0.6753
 2055SOL    HW117627   2.855   2.641   9.677  2.8361 -1.6833  1.5783
 2055SOL    HW217628   2.715   2.640   9.720 -0.0149  0.3084 -1.2418
 2056SOL     OW17629   2.518   2.179   5.899 -0.3531 -0.4995 -0.0091
 2056SOL    HW117630   2.472   2.127   5.833  0.1161 -0.6798 -0.1886
 2056SOL    HW217631   2.520   2.120   5.975 -0.0686 -0.2422  0.1818
 2057SOL     OW17632   4.631   1.383   1.057 -0.0225  0.5921 -0.4793
 2057SOL    HW117633   4.543   1.345   1.058  0.7086 -1.1120 -0.5426
 2057SOL    HW217634   4.676   1.312   1.102  0.3527  0.9856 -0.2312
 2058SOL     OW17635   3.768   3.196   8.606  0.1626  0.1591  0.3616
 2058SOL    HW117636   3.720   3.144   8.671  0.8273  0.3609  1.0212
 2058SOL    HW217637   3.856   3.159   8.613 -0.1939 -0.6552  0.6306
 2059SOL     OW17638   0.614   0.722   1.239  0.1030  0.4518 -0.1578
 2059SOL    HW117639   0.526   0.749   1.214  0.4281  2.1536  0.4739
 2059SOL    HW217640   0.642   0.672   1.163 -0.8418  0.6735 -0.6503
 2060SOL     OW17641   3.755   2.790  13.320 -0.2128  0.0272  0.4529
 2060SOL    HW117642   3.811   2.862  13.293  1.2601 -0.9437  0.9292
 2060SOL    HW217643   3.727   2.745  13.240  0.1386 -0.8026  0.7979
 2061SOL     OW17644   1.206   0.353   7.042 -0.5009 -0.1289 -0.3342
 2061SOL    HW117645   1.238   0.267   7.015 -0.6640 -0.9536  2.0500
 2061SOL    HW217646   1.137   0.326   7.103 -0.3472  0.9642  0.3255
 2062SOL     OW17647   3.249   3.047   4.218 -0.2108 -0.4611 -0.4498
 2062SOL    HW117648   3.258   3.109   4.290  1.7829  1.2488 -2.1547
 2062SOL    HW217649   3.297   3.092   4.148 -0.9819  1.5850  0.3216
 2063SOL     OW17650   1.337   0.383   4.250 -0.0048  0.4402 -0.5295
 2063SOL    HW117651   1.370   0.308   4.299  0.6042  1.5609  0.7791
 2063SOL    HW217652   1.407   0.447   4.263 -2.1061  2.7941 -0.8106
 2064SOL     OW17653   3.300   0.517   4.487 -0.8481 -0.1556  0.3128
 2064SOL    HW117654   3.260   0.603   4.480 -2.2687 -0.8722 -0.3357
 2064SOL    HW217655   3.223   0.460   4.481 -0.5086 -0.9003  3.0602
 2065SOL     OW17656   2.833   2.202   9.507  0.1450 -0.5603  0.4357
 2065SOL    HW117657   2.826   2.110   9.533  0.2183  0.1356  2.9651
 2065SOL    HW217658   2.918   2.223   9.547  0.1596 -1.3399  0.8343
 2066SOL     OW17659   3.571   4.643  13.262  0.3318 -0.0475  0.0565
 2066SOL    HW117660   3.493   4.605  13.223 -0.9209  1.0284  1.4991
 2066SOL    HW217661   3.603   4.579  13.326 -2.6156 -1.1195  0.4408
 2067SOL     OW17662   1.463   3.758   3.207 -0.3224 -0.0304 -0.6616
 2067SOL    HW117663   1.508   3.674   3.221  0.9787  0.8577  0.4824
 2067SOL    HW217664   1.455   3.792   3.295 -2.7323 -0.9410 -0.5182
 2068SOL     OW17665   0.021   4.027  15.381 -0.2590 -0.3467 -0.4578
 2068SOL    HW117666   0.012   3.936  15.352  1.5268 -0.2961 -1.1521
 2068SOL    HW217667   0.103   4.048  15.336 -0.6352  0.4527 -0.7674
 2069SOL     OW17668   0.026   2.475   7.804 -0.9110  0.2916  0.0603
 2069SOL    HW117669   0.028   2.380   7.814 -0.0213  0.2435 -0.6228
 2069SOL    HW217670   0.046   2.496   7.713 -1.1493  1.9436  0.3733
 2070SOL     OW17671   2.219   4.688   6.636  0.0550 -0.1831  0.6929
 2070SOL    HW117672   2.287   4.646   6.689  1.1091 -0.4666 -0.8694
 2070SOL    HW217673   2.199   0.034   6.700  0.5809  0.3236  0.3229
 2071SOL     OW17674   3.794   4.514   1.206  0.3133  0.2394  0.3217
 2071SOL    HW117675   3.829   4.434   1.244  0.8825  0.5206  0.3865
 2071SOL    HW217676   3.702   4.490   1.190  0.3626 -0.4784  1.1159
 2072SOL     OW17677   1.641   3.145  13.667  0.2651 -0.1211  0.2128
 2072SOL    HW117678   1.674   3.174  13.752 -0.5534 -2.8316  1.4791
 2072SOL    HW217679   1.584   3.071  13.690 -2.0461  1.7047  0.3322
 2073SOL     OW17680   2.562   4.432   7.755  0.9252 -0.0693  0.4213
 2073SOL    HW117681   2.558   4.527   7.767  1.6896 -0.0768  0.7378
 2073SOL    HW217682   2.524   4.422   7.668 -0.9839 -0.2059  1.2689
 2074SOL     OW17683   3.359   2.101  12.119 -0.5101 -0.7205 -0.4708
 2074SOL    HW117684   3.270   2.086  12.086 -0.6205 -0.8066 -0.1288
 2074SOL    HW217685   3.353   2.080  12.212 -1.1116  1.3148 -0.0419
 2075SOL     OW17686   2.464   0.282   3.193  0.1057 -0.0231  0.8742
 2075SOL    HW117687   2.450   0.336   3.272 -0.6264  1.1226 -0.0384
 2075SOL    HW217688   2.475   0.197   3.235 -0.7078 -0.9251 -0.7511
 2076SOL     OW17689   0.809   2.294   4.842 -0.2438  0.4261  0.1922
 2076SOL    HW117690   0.806   2.200   4.830  0.2498  0.6940 -2.0293
 2076SOL    HW217691   0.734   2.304   4.901 -1.1173  0.6318 -0.9681
 2077SOL     OW17692   2.298   3.381   4.002 -0.2419 -0.2122 -0.0143
 2077SOL    HW117693   2.337   3.296   4.024  0.4496 -0.6386 -2.9529
 2077SOL    HW217694   2.266   3.409   4.088 -4.2320 -2.0252 -0.9145
 2078SOL     OW17695   0.665   3.159   2.280 -1.0440 -0.0068  0.0381
 2078SOL    HW117696   0.663   3.177   2.374 -0.0389 -1.5057  0.3535
 2078SOL    HW217697   0.598   3.223   2.259 -0.4175  0.4094 -0.6972
 2079SOL     OW17698   3.609   3.892   8.625  0.0121  0.3346 -0.2476
 2079SOL    HW117699   3.578   3.822   8.568 -0.0191  1.1945 -1.2838
 2079SOL    HW217700   3.580   3.968   8.576  0.1235 -0.0022 -0.8391
 2080SOL     OW17701   2.560   0.116  17.337  0.5424  1.1109 -0.0204
 2080SOL    HW117702   2.508   0.084  17.411 -0.1952  1.4159 -0.4145
 2080SOL    HW217703   2.572   0.211  17.349  0.5070  0.9159  1.5752
 2081SOL     OW17704   0.758   4.292   4.131 -0.2964 -0.4060 -0.2405
 2081SOL    HW117705   0.834   4.336   4.172 -0.4874 -1.1358  0.8942
 2081SOL    HW217706   0.682   4.342   4.162  1.3333  1.9999 -0.0956
 2082SOL     OW17707   2.304   2.373   9.466  0.1321  0.1933  0.1863
 2082SOL    HW117708   2.244   2.306   9.434  1.4218 -0.2442 -1.3227
 2082SOL    HW217709   2.367   2.311   9.503 -0.1992  0.5774  1.3759
 2083SOL     OW17710   2.163   3.920   9.202 -0.8721  0.3870  0.4936
 2083SOL    HW117711   2.118   3.892   9.123  1.6262 -0.6595 -0.5574
 2083SOL    HW217712   2.176   4.013   9.185  0.6775 -0.0946 -0.9788
 2084SOL     OW17713   1.081   3.973   6.175  0.3369 -0.4492 -0.3066
 2084SOL    HW117714   1.023   3.997   6.102  1.9160  0.4307 -1.2564
 2084SOL    HW217715   1.172   3.975   6.147  0.2804  1.2014 -0.3665
 2085SOL     OW17716   1.843   0.632   5.112  0.0504 -0.9708 -0.2093
 2085SOL    HW117717   1.826   0.693   5.184  0.3759  2.0752 -2.7435
 2085SOL    HW217718   1.930   0.601   5.137 -0.5846 -2.0228  0.7054
 2086SOL     OW17719   2.121   1.498   4.146 -0.2349 -0.1441  1.0038
 2086SOL    HW117720   2.188   1.461   4.089 -1.3794  2.4054 -1.9914
 2086SOL    HW217721   2.042   1.493   4.092 -0.8139  4.3949  1.4477
 2087SOL     OW17722   1.366   3.897   4.487 -0.6110  0.5576 -0.2170
 2087SOL    HW117723   1.405   3.812   4.468 -2.5764 -0.4839  0.3956
 2087SOL    HW217724   1.425   3.949   4.541 -1.2597  0.0967  0.9239
 2088SOL     OW17725   3.590   2.075  10.101 -0.2132  0.5844 -0.3455
 2088SOL    HW117726   3.495   2.075  10.117 -0.0834  2.3104  0.4165
 2088SOL    HW217727   3.613   2.148  10.158  1.5132  0.2817 -0.6559
 2089SOL     OW17728   2.651   1.259   9.154  0.7213 -0.3982 -0.2573
 2089SOL    HW117729   2.739   1.227   9.174  0.5498 -0.9864 -0.4184
 2089SOL    HW217730   2.631   1.232   9.064  1.8144 -1.5780 -0.1542
 2090SOL     OW17731   0.373   0.757   2.251  0.2512 -0.2024 -0.1009
 2090SOL    HW117732   0.409   0.827   2.196  2.2380  0.0230  1.5264
 2090SOL    HW217733   0.439   0.688   2.258  0.9356  0.2903 -1.7489
 2091SOL     OW17734   1.438   4.083   4.237 -0.2100  0.1605 -0.2045
 2091SOL    HW117735   1.399   4.065   4.151  1.9295  1.4911 -1.4714
 2091SOL    HW217736   1.429   4.007   4.294 -2.0597  0.1498 -0.5251
 2092SOL     OW17737   1.744   3.479   2.275  0.3468  0.7481 -0.1372
 2092SOL    HW117738   1.721   3.560   2.228 -1.2648 -0.9298 -2.2299
 2092SOL    HW217739   1.658   3.464   2.316  0.5690  1.3401  0.5626
 2093SOL     OW17740   4.643   4.496   6.357  0.1387  0.0461  0.0942
 2093SOL    HW117741   0.017   4.503   6.351  0.2435  0.4333  2.0123
 2093SOL    HW217742   4.620   4.545   6.278 -0.9443  2.3424  1.8299
 2094SOL     OW17743   1.125   3.603   4.173  0.0530  0.0792 -0.1753
 2094SOL    HW117744   1.150   3.629   4.084 -1.1435  1.1131 -0.2077
 2094SOL    HW217745   1.035   3.631   4.190 -0.7162 -1.0299 -2.4858
 2095SOL     OW17746   3.504   2.894   7.603 -0.4026  0.2315 -0.6435
 2095SOL    HW117747   3.456   2.975   7.586  1.4938  0.3840 -5.1210
 2095SOL    HW217748   3.457   2.871   7.683 -0.9184  0.7725 -0.7898
 2096SOL     OW17749   0.428   1.174   4.123 -0.3515  0.2734  0.9481
 2096SOL    HW117750   0.458   1.265   4.119 -0.9446  0.4095 -0.8143
 2096SOL    HW217751   0.507   1.121   4.133 -1.1306 -1.3996 -1.5701
 2097SOL     OW17752   1.773   1.239   2.868 -0.2114 -0.0498 -0.3383
 2097SOL    HW117753   1.758   1.304   2.799  0.3493  2.2452  1.6837
 2097SOL    HW217754   1.864   1.262   2.890 -0.0395 -1.4531  0.4000
 2098SOL     OW17755   1.245   3.738  16.734 -0.0601  0.0035 -0.7382
 2098SOL    HW117756   1.199   3.752  16.817  0.4895  0.6567 -0.5425
 2098SOL    HW217757   1.303   3.664  16.750 -2.4383 -2.0055 -1.3863
 2099SOL     OW17758   2.498   1.195  13.488  0.4261 -0.1968  0.6422
 2099SOL    HW117759   2.424   1.225  13.435 -0.4747  0.7676  2.4190
 2099SOL    HW217760   2.525   1.111  13.451  1.4594 -0.5641  2.2412
 2100SOL     OW17761   3.401   3.719   2.505 -0.2808 -0.0694 -0.2074
 2100SOL    HW117762   3.327   3.658   2.500  0.5730 -1.2747  2.2710
 2100SOL    HW217763   3.417   3.735   2.412 -0.9783 -0.4556 -0.3945
 2101SOL     OW17764   0.709   3.546   4.009  0.2170 -0.8979 -0.6528
 2101SOL    HW117765   0.622   3.532   3.971  0.1383  1.1191 -1.2208
 2101SOL    HW217766   0.732   3.466   4.056 -1.1038  0.4899  2.3258
 2102SOL     OW17767   0.542   3.597  13.296  0.2377 -0.4812 -0.4399
 2102SOL    HW117768   0.584   3.627  13.215 -0.2134  2.3197  0.3723
 2102SOL    HW217769   0.557   3.502  13.296  0.6085 -0.4204 -0.8996
 2103SOL     OW17770   3.382   2.617  10.067  0.4673  0.7028  0.0401
 2103SOL    HW117771   3.473   2.643  10.082  0.9309 -1.1769  0.4752
 2103SOL    HW217772   3.343   2.681  10.007 -1.5935 -0.7311 -0.1544
 2104SOL     OW17773   2.509   1.547   4.868 -0.4380 -0.2944 -0.7356
 2104SOL    HW117774   2.476   1.457   4.876 -0.2369 -0.4313 -1.4740
 2104SOL    HW217775   2.437   1.609   4.865 -0.3990 -0.2468 -0.6898
 2105SOL     OW17776   3.338   3.910   2.908  0.3984 -0.6473  0.4745
 2105SOL    HW117777   3.277   3.838   2.893 -1.2778  0.7752  0.4733
 2105SOL    HW217778   3.345   3.901   3.003 -0.2950  0.0771  0.5946
 2106SOL     OW17779   1.917   3.330   7.744  0.4579 -0.0653  0.2158
 2106SOL    HW117780   1.848   3.334   7.678 -1.1518 -1.4350  1.8170
 2106SOL    HW217781   1.988   3.350   7.683  0.3373 -2.2061 -0.6303
 2107SOL     OW17782   3.091   0.524   7.001  0.0655  0.5701 -0.0505
 2107SOL    HW117783   2.999   0.499   6.990 -0.7475  3.1440  0.9020
 2107SOL    HW217784   3.123   0.434   6.993 -0.8249  0.1461  1.2256
 2108SOL     OW17785   2.488   2.502  15.779 -0.4049  0.7436 -0.3759
 2108SOL    HW117786   2.393   2.488  15.776 -0.3096  0.2068 -0.9762
 2108SOL    HW217787   2.509   2.467  15.865  2.7983 -1.3634 -1.9896
 2109SOL     OW17788   2.024   1.206  12.841  0.2247 -0.2839  0.0781
 2109SOL    HW117789   1.971   1.141  12.796 -0.1395 -0.6632  1.0504
 2109SOL    HW217790   1.971   1.235  12.915 -0.4172 -0.8115 -0.1773
 2110SOL     OW17791   2.031   0.214  11.456 -0.9154  0.0815  0.1271
 2110SOL    HW117792   2.095   0.162  11.505  1.5898  0.9257 -2.3353
 2110SOL    HW217793   1.953   0.157  11.460 -1.2532  0.4486 -1.2095
 2111SOL     OW17794   0.321   0.414  15.059 -0.2519 -0.5546  0.3444
 2111SOL    HW117795   0.414   0.433  15.046  0.3314 -2.7765  1.2987
 2111SOL    HW217796   0.301   0.446  15.147 -2.8707 -2.3197  0.3918
 2112SOL     OW17797   2.534   3.238   2.524  0.0506  0.2050 -0.3906
 2112SOL    HW117798   2.469   3.223   2.455  0.3093 -0.3381 -0.5174
 2112SOL    HW217799   2.592   3.308   2.496  0.0368 -0.2151 -1.4609
 2113SOL     OW17800   4.412   2.687   3.231  0.0163 -0.1244 -0.1869
 2113SOL    HW117801   4.455   2.750   3.289 -0.0380 -0.4656  0.2171
 2113SOL    HW217802   4.366   2.642   3.302  0.6548  1.0154  0.9539
 2114SOL     OW17803   3.325   3.325   6.859  0.1794  0.5001 -0.3794
 2114SOL    HW117804   3.377   3.353   6.784  2.1903 -0.1433  0.7699
 2114SOL    HW217805   3.374   3.354   6.936 -2.0292 -1.1315  1.6335
 2115SOL     OW17806   0.181   3.485   6.851 -0.7508 -0.0590  0.6270
 2115SOL    HW117807   0.211   3.427   6.920  2.4079  0.9367  0.0661
 2115SOL    HW217808   0.137   3.564   6.884 -1.1770  0.8195 -2.1066
 2116SOL     OW17809   2.191   0.624   6.021 -0.5879 -0.1465 -0.2548
 2116SOL    HW117810   2.264   0.564   6.033 -1.0107 -0.6920 -0.4100
 2116SOL    HW217811   2.174   0.624   5.927 -1.0359 -0.1317 -0.1765
 2117SOL     OW17812   1.620   3.527   8.340 -0.0472 -0.1036  0.9528
 2117SOL    HW117813   1.569   3.447   8.356 -0.0220 -0.7608 -2.3309
 2117SOL    HW217814   1.622   3.528   8.244  1.5397 -1.3316  0.9727
 2118SOL     OW17815   1.142   3.827  15.605 -0.3334  0.3678 -0.3299
 2118SOL    HW117816   1.154   3.794  15.695 -1.6946  0.4528 -0.1097
 2118SOL    HW217817   1.046   3.828  15.606 -0.3330  0.3618 -0.2593
 2119SOL     OW17818   4.036   3.377   5.122  0.4145 -0.1684  0.2932
 2119SOL    HW117819   3.976   3.434   5.171  1.2143  0.3472  0.6734
 2119SOL    HW217820   4.100   3.361   5.192 -0.0965 -1.0987  0.5457
 2120SOL     OW17821   3.798   2.342   5.722  0.0947 -0.6656 -0.4336
 2120SOL    HW117822   3.841   2.261   5.695  0.0180 -0.7016 -0.4471
 2120SOL    HW217823   3.710   2.317   5.694 -0.9195  1.3578  0.9886
 2121SOL     OW17824   1.416   3.991   2.876 -0.4405  0.1409 -0.2323
 2121SOL    HW117825   1.431   4.085   2.863 -0.3125  0.1062 -0.3369
 2121SOL    HW217826   1.385   3.988   2.967 -0.7424 -0.6217 -0.3601
 2122SOL     OW17827   1.095   3.730   6.270 -0.4371 -0.3878 -0.4184
 2122SOL    HW117828   1.091   3.825   6.260  1.6484 -0.1760  0.7377
 2122SOL    HW217829   1.185   3.720   6.302 -1.2587 -2.3855  1.2866
 2123SOL     OW17830   2.154   4.206   8.454  0.3383 -0.2376 -0.1133
 2123SOL    HW117831   2.075   4.154   8.470  0.3622  0.3292  1.9189
 2123SOL    HW217832   2.127   4.297   8.468 -1.7077 -0.9699  0.7912
 2124SOL     OW17833   2.878   4.489  11.855  0.1199 -0.1207  0.1795
 2124SOL    HW117834   2.937   4.455  11.788 -2.9432 -2.0353 -1.5290
 2124SOL    HW217835   2.928   4.459  11.932  2.5657  0.5227 -1.1716
 2125SOL     OW17836   3.454   0.784   8.977  0.0684 -0.1439  0.1994
 2125SOL    HW117837   3.462   0.711   9.037 -1.7769  0.2380  0.9041
 2125SOL    HW217838   3.417   0.745   8.898  0.8178  0.5913 -0.5247
 2126SOL     OW17839   3.715   3.010   7.709 -0.0154 -0.0953  0.6102
 2126SOL    HW117840   3.715   3.097   7.670  0.5719 -0.1985  0.3868
 2126SOL    HW217841   3.650   2.960   7.659  0.6864  0.0494 -0.4314
 2127SOL     OW17842   2.039   1.286   0.932  0.4264  0.6314  0.1851
 2127SOL    HW117843   2.054   1.243   1.016  1.7520 -0.8815 -0.8371
 2127SOL    HW217844   1.944   1.272   0.938  0.6828 -0.1373  2.3118
 2128SOL     OW17845   1.075   2.355  12.152 -0.7663  0.1128  0.5761
 2128SOL    HW117846   1.111   2.344  12.240  3.7450  2.6054 -0.9775
 2128SOL    HW217847   1.014   2.283  12.141  0.2085 -0.7089  0.5381
 2129SOL     OW17848   0.215   0.019   9.250 -0.5557  0.2651 -0.9101
 2129SOL    HW117849   0.286   0.000   9.312 -2.8060 -1.3547  1.1504
 2129SOL    HW217850   0.197   4.656   9.209  1.8375 -1.9977  2.6715
 2130SOL     OW17851   0.093   4.287   5.720  0.0324  0.6634 -0.5088
 2130SOL    HW117852   0.083   4.365   5.773  2.4337 -1.2655  2.7231
 2130SOL    HW217853   0.080   4.324   5.632  1.6621 -0.6513 -1.3022
 2131SOL     OW17854   2.693   2.926   2.851 -0.5212 -0.0334 -0.0901
 2131SOL    HW117855   2.685   2.902   2.759  1.1612  0.3385 -0.3345
 2131SOL    HW217856   2.665   3.017   2.839 -2.8697 -0.6741  0.4958
 2132SOL     OW17857   2.190   3.571   8.634  0.3222  0.5033  0.5226
 2132SOL    HW117858   2.176   3.647   8.691  0.2067  0.3349  0.7201
 2132SOL    HW217859   2.105   3.568   8.590  1.0882 -2.8976 -0.7008
 2133SOL     OW17860   4.671   2.941   7.142  0.3092  0.3203 -0.1070
 2133SOL    HW117861   4.677   3.033   7.115  2.0873 -0.5219 -2.5718
 2133SOL    HW217862   0.007   2.943   7.218  0.5073  1.1581 -0.2786
 2134SOL     OW17863   3.252   2.022   3.036 -0.0090 -0.2514 -0.6121
 2134SOL    HW117864   3.235   1.930   3.018  2.0927 -0.4549 -1.6245
 2134SOL    HW217865   3.176   2.066   2.999  0.7937  0.0098 -1.9470
 2135SOL     OW17866   4.152   0.701   5.754  0.3392  0.2568  0.3566
 2135SOL    HW117867   4.121   0.622   5.799  0.3021 -0.2495 -0.5584
 2135SOL    HW217868   4.246   0.699   5.770  0.3362  1.5615  0.5439
 2136SOL     OW17869   0.476   2.383  12.068 -0.3270  0.3254  0.2959
 2136SOL    HW117870   0.496   2.291  12.049  2.5993  1.2127 -0.8968
 2136SOL    HW217871   0.408   2.401  12.003 -0.1160  1.4714  0.4017
 2137SOL     OW17872   4.708   3.972   0.917  0.1019 -0.4180  0.2999
 2137SOL    HW117873   0.057   4.027   0.950 -0.3062  0.2643  0.0277
 2137SOL    HW217874   4.658   4.040   0.871  1.5306  1.0868  0.9716
 2138SOL     OW17875   3.387   1.232   1.494 -0.5292 -0.2560 -0.6561
 2138SOL    HW117876   3.342   1.158   1.536 -0.3324 -0.3547 -0.6204
 2138SOL    HW217877   3.357   1.212   1.406 -1.2033  3.5634 -1.2851
 2139SOL     OW17878   4.313   2.703  16.014 -0.1935 -0.6754  0.0277
 2139SOL    HW117879   4.243   2.646  15.983 -1.0416  0.3507  0.0403
 2139SOL    HW217880   4.343   2.749  15.936  0.7189 -0.8376  0.2774
 2140SOL     OW17881   0.414   0.778   7.807  0.7397  0.1740  0.2405
 2140SOL    HW117882   0.477   0.821   7.748  1.9240 -0.8973  0.7199
 2140SOL    HW217883   0.340   0.833   7.781  0.5649  0.4259  1.2984
 2141SOL     OW17884   1.867   3.958  16.279 -0.2031 -0.2313 -0.0198
 2141SOL    HW117885   1.906   3.918  16.357 -0.9010  0.0507  0.4669
 2141SOL    HW217886   1.827   4.029  16.329 -1.0386 -0.8346  0.1527
 2142SOL     OW17887   4.492   0.612   3.379 -0.0163  0.0928  0.1727
 2142SOL    HW117888   4.517   0.698   3.412  2.0924 -0.8679  1.0726
 2142SOL    HW217889   4.560   0.602   3.312 -0.7618 -0.2900 -0.5387
 2143SOL     OW17890   0.360   0.933   6.814 -0.1451 -0.3363  0.5670
 2143SOL    HW117891   0.370   0.860   6.752  0.2541 -0.4968  0.8237
 2143SOL    HW217892   0.436   0.983   6.784 -1.2993  0.5227 -0.9231
 2144SOL     OW17893   2.811   0.381   9.304 -0.1979 -0.4761 -0.2142
 2144SOL    HW117894   2.798   0.359   9.396 -0.8272  0.1465 -0.1535
 2144SOL    HW217895   2.858   0.311   9.259 -0.8138 -0.3489 -1.0486
 2145SOL     OW17896   3.962   4.165   9.344  0.7392 -0.7500  0.3308
 2145SOL    HW117897   4.013   4.087   9.325  0.9448 -0.2127 -1.3721
 2145SOL    HW217898   3.872   4.134   9.351  1.0807 -1.9363 -0.5945
 2146SOL     OW17899   2.716   2.680  13.172 -0.8674 -0.4084 -0.6636
 2146SOL    HW117900   2.739   2.668  13.264  1.9600  1.0164 -1.2198
 2146SOL    HW217901   2.666   2.761  13.174 -0.8209 -0.3945 -0.0042
 2147SOL     OW17902   2.109   2.820  11.656  0.5786 -0.3011 -0.2685
 2147SOL    HW117903   2.179   2.793  11.596  0.0624  0.6606 -1.2940
 2147SOL    HW217904   2.155   2.797  11.736 -1.9939  0.9235  1.5574
 2148SOL     OW17905   0.446   1.055   8.055 -0.7221 -0.4528 -0.2279
 2148SOL    HW117906   0.466   1.141   8.092 -1.5549 -0.7053  0.7902
 2148SOL    HW217907   0.468   1.060   7.962  0.3187 -1.4685 -0.0406
 2149SOL     OW17908   2.396   4.667   4.484  0.2313  0.2834  0.2604
 2149SOL    HW117909   2.445   4.639   4.562 -0.8339  1.0911  1.2255
 2149SOL    HW217910   2.424   4.619   4.407  1.2767  0.5243  0.4908
 2150SOL     OW17911   0.639   0.574  11.199 -0.2343  0.4480  0.0936
 2150SOL    HW117912   0.635   0.572  11.103  0.2840  4.0729 -0.0003
 2150SOL    HW217913   0.733   0.559  11.209 -0.3934  0.7278  1.9033
 2151SOL     OW17914   2.530   3.860  15.644  0.3109  0.1469  0.8829
 2151SOL    HW117915   2.559   3.898  15.561  0.8157  2.1552  1.9707
 2151SOL    HW217916   2.588   3.785  15.633 -1.5769 -1.3958  1.3847
 2152SOL     OW17917   0.171   0.591   3.692  0.0481 -0.5247 -0.6458
 2152SOL    HW117918   0.082   0.569   3.666 -0.5300  0.9403  0.0566
 2152SOL    HW217919   0.158   0.585   3.787  2.3256 -2.1376 -0.4424
 2153SOL     OW17920   3.479   0.609   8.186  0.1867 -0.2657 -0.0308
 2153SOL    HW117921   3.565   0.586   8.221 -0.2197 -0.0631  1.1005
 2153SOL    HW217922   3.458   0.529   8.137  3.0495 -1.9822  1.5155
 2154SOL     OW17923   3.680   2.852   0.234 -0.1216  0.0175 -0.2105
 2154SOL    HW117924   3.758   2.804   0.262  1.1031  1.6381 -0.8444
 2154SOL    HW217925   3.709   2.866   0.143 -0.6429 -0.9933 -0.5400
 2155SOL     OW17926   4.423   2.224   7.291 -0.2075 -0.3630 -0.0907
 2155SOL    HW117927   4.402   2.306   7.247  2.4535  0.1257 -0.4956
 2155SOL    HW217928   4.402   2.240   7.383 -1.0597  2.1694 -0.7488
 2156SOL     OW17929   0.246   1.095   4.316  0.0302  0.5516  0.1256
 2156SOL    HW117930   0.313   1.120   4.252  1.9670 -0.2917  1.8156
 2156SOL    HW217931   0.292   1.019   4.351 -0.0711  1.0466  1.3098
 2157SOL     OW17932   3.842   3.126   8.065 -0.2564 -0.0153  0.1110
 2157SOL    HW117933   3.795   3.163   7.990  1.2149  0.6166 -0.5018
 2157SOL    HW217934   3.919   3.183   8.069 -0.1975 -0.2140  1.7964
 2158SOL     OW17935   0.402   2.532   6.344 -0.3044 -0.2646  0.1984
 2158SOL    HW117936   0.376   2.621   6.368 -0.2883  0.0494 -0.9223
 2158SOL    HW217937   0.459   2.516   6.419 -0.1178 -0.7712 -0.0474
 2159SOL     OW17938   4.427   2.355  11.274  0.0852  0.9862  0.1242
 2159SOL    HW117939   4.432   2.294  11.348  1.6645  0.9246 -0.0289
 2159SOL    HW217940   4.376   2.300  11.215  1.3676 -1.2333  1.0961
 2160SOL     OW17941   0.388   4.044  10.337 -0.2748 -0.1300  0.3949
 2160SOL    HW117942   0.368   4.135  10.360 -2.6141 -0.2080 -1.3641
 2160SOL    HW217943   0.406   4.068  10.247 -1.1689 -1.0252 -0.0198
 2161SOL     OW17944   1.271   3.108   4.132  0.1905 -0.2593  0.1570
 2161SOL    HW117945   1.338   3.149   4.077  0.2739  1.8100  1.7833
 2161SOL    HW217946   1.242   3.043   4.068 -2.1713  0.0987  0.8639
 2162SOL     OW17947   0.181   1.828   3.566 -0.1268 -0.1723  0.4382
 2162SOL    HW117948   0.170   1.871   3.481  0.5022  0.5679  0.7370
 2162SOL    HW217949   0.276   1.832   3.570 -0.0944 -2.0285  1.6414
 2163SOL     OW17950   3.606   3.971   6.862 -0.4447  0.6265  0.1407
 2163SOL    HW117951   3.685   3.918   6.865  0.5733  1.9832 -3.1234
 2163SOL    HW217952   3.644   4.035   6.802 -2.3654  1.4134 -0.2374
 2164SOL     OW17953   0.076   3.453   2.483  0.3170  0.3119 -0.3958
 2164SOL    HW117954   0.064   3.548   2.482  1.6018  0.4743  0.1522
 2164SOL    HW217955   0.008   3.434   2.547 -2.8453  1.7838 -3.2986
 2165SOL     OW17956   1.233   0.297   1.052 -0.3133  0.1953 -0.2294
 2165SOL    HW117957   1.264   0.212   1.082  2.2547  0.9457 -0.7506
 2165SOL    HW217958   1.309   0.347   1.081 -0.0156  0.1670 -0.9600
 2166SOL     OW17959   0.366   0.123   8.269 -0.1510 -0.3681  0.1034
 2166SOL    HW117960   0.420   0.153   8.342  0.3272 -1.2162  0.1062
 2166SOL    HW217961   0.285   0.108   8.316  0.8802 -3.3005  0.9397
 2167SOL     OW17962   3.331   0.605   6.088 -0.2335 -0.0886  0.5454
 2167SOL    HW117963   3.306   0.520   6.051  0.4241 -0.4637  0.9698
 2167SOL    HW217964   3.415   0.622   6.045 -0.4366 -0.9090 -0.1794
 2168SOL     OW17965   0.245   2.932   1.028 -0.6651  0.5547  0.3126
 2168SOL    HW117966   0.229   2.944   1.121  1.6871  1.5039  0.5857
 2168SOL    HW217967   0.301   3.001   0.993 -0.5136 -0.0451 -0.6298
 2169SOL     OW17968   0.903   0.795   6.048  0.3601  0.0012 -0.5232
 2169SOL    HW117969   0.952   0.870   6.082  0.8062  0.1585 -1.4947
 2169SOL    HW217970   0.953   0.722   6.083 -0.8324 -0.3058  0.5192
 2170SOL     OW17971   2.823   0.698  11.713 -0.2984  0.3973  0.2098
 2170SOL    HW117972   2.851   0.708  11.623 -0.0174 -0.1431  0.2444
 2170SOL    HW217973   2.750   0.636  11.707  0.2072  0.0058 -1.5494
 2171SOL     OW17974   3.037   0.459   6.718  0.3299  0.3068 -0.2454
 2171SOL    HW117975   2.942   0.444   6.720  0.3792  0.0272  0.0696
 2171SOL    HW217976   3.048   0.468   6.624 -1.3728 -0.3465 -0.5130
 2172SOL     OW17977   1.480   1.306   2.436  0.5817 -0.1363  0.3729
 2172SOL    HW117978   1.570   1.330   2.417  1.3227 -2.0536  1.4651
 2172SOL    HW217979   1.486   1.268   2.523  0.0495  0.5612  0.7104
 2173SOL     OW17980   3.187   2.241   8.712  0.2179  0.1759 -0.2165
 2173SOL    HW117981   3.153   2.152   8.719  3.1007 -1.0332 -1.3121
 2173SOL    HW217982   3.269   2.220   8.667 -0.1659 -2.3229  0.2550
 2174SOL     OW17983   1.742   3.169   7.223 -0.0724 -0.3507  0.1300
 2174SOL    HW117984   1.823   3.203   7.186 -0.5891  2.7960  1.8894
 2174SOL    HW217985   1.762   3.078   7.244  0.9326 -0.4461 -1.2872
 2175SOL     OW17986   0.494   1.450   2.731 -0.1189 -0.3785 -0.0687
 2175SOL    HW117987   0.462   1.420   2.646 -1.2572  0.9572 -0.1231
 2175SOL    HW217988   0.458   1.384   2.790 -2.0045 -1.0383 -1.9845
 2176SOL     OW17989   1.003   2.596   5.550  0.1622  0.2925  0.4901
 2176SOL    HW117990   1.069   2.636   5.493  1.3669 -0.3786  1.4242
 2176SOL    HW217991   0.967   2.669   5.600  1.2203  0.0028  1.6617
 2177SOL     OW17992   3.758   0.207   3.918 -0.3955 -0.3441 -0.2830
 2177SOL    HW117993   3.782   0.117   3.894 -1.5905 -0.9148  0.6596
 2177SOL    HW217994   3.758   0.254   3.835  0.3710 -1.9481 -1.1994
 2178SOL     OW17995   2.695   3.958  10.695 -0.0237 -0.0715  0.3249
 2178SOL    HW117996   2.662   3.993  10.778 -0.0744 -0.0151  0.2806
 2178SOL    HW217997   2.639   3.881  10.684  1.0063 -0.4916 -2.1089
 2179SOL     OW17998   0.506   0.920   2.434 -0.0342 -0.0375 -0.6308
 2179SOL    HW117999   0.447   0.868   2.379  1.0173 -1.4074 -0.4610
 2179SOL    HW218000   0.577   0.860   2.457  2.3780  2.0540 -2.7543
 2180SOL     OW18001   3.165   2.704   9.137  0.2649 -0.4829 -0.6641
 2180SOL    HW118002   3.085   2.755   9.124 -1.1462 -3.3003 -3.0308
 2180SOL    HW218003   3.130   2.620   9.108  2.6380 -1.4460 -0.7985
 2181SOL     OW18004   0.212   4.696   4.804  0.1394  0.3421  0.2272
 2181SOL    HW118005   0.268   4.701   4.881  0.9014 -1.3492 -0.2148
 2181SOL    HW218006   0.184   4.604   4.807  0.7120  0.1691  0.3705
 2182SOL     OW18007   3.823   2.663  16.332 -0.3533  0.0400  0.0343
 2182SOL    HW118008   3.838   2.569  16.338  1.4860  0.5962  4.9196
 2182SOL    HW218009   3.810   2.689  16.424  0.1737 -0.4994  0.2616
 2183SOL     OW18010   1.356   3.059   6.338 -0.0222  0.1285 -0.5152
 2183SOL    HW118011   1.289   3.103   6.389 -0.2799  0.1620 -0.8849
 2183SOL    HW218012   1.431   3.080   6.394 -0.0068  0.6963 -0.7482
 2184SOL     OW18013   1.084   2.865  13.612  0.1899  0.3329  0.2367
 2184SOL    HW118014   1.161   2.842  13.665 -0.9453 -1.7607  0.9616
 2184SOL    HW218015   1.124   2.890  13.529  1.1759  0.2687  0.6911
 2185SOL     OW18016   4.383   2.422   8.890 -0.3069 -0.0899  0.2575
 2185SOL    HW118017   4.373   2.474   8.970 -1.4116  0.0838  0.0056
 2185SOL    HW218018   4.362   2.331   8.910 -0.1115 -0.1958 -0.0096
 2186SOL     OW18019   1.610   4.268   7.350  0.0719  0.3618 -0.1736
 2186SOL    HW118020   1.662   4.257   7.270 -0.3061 -0.2559 -0.3348
 2186SOL    HW218021   1.519   4.255   7.324  0.6307 -3.9162  0.0960
 2187SOL     OW18022   2.515   1.658   8.495  0.3593  0.4143 -0.0660
 2187SOL    HW118023   2.606   1.674   8.470  0.1711 -0.0905 -1.0605
 2187SOL    HW218024   2.489   1.740   8.537 -2.0738 -1.4529  2.0800
 2188SOL     OW18025   0.214   3.712  10.714 -0.4358 -0.0508 -0.3014
 2188SOL    HW118026   0.221   3.734  10.622 -0.1234 -2.5518 -0.8779
 2188SOL    HW218027   0.272   3.779  10.750 -2.1760  1.3332 -0.0444
 2189SOL     OW18028   2.099   2.636   1.819  0.8773 -0.4212 -0.0661
 2189SOL    HW118029   2.123   2.648   1.727  3.4468  1.2785  0.8217
 2189SOL    HW218030   2.054   2.552   1.822  1.0335 -0.4701  1.1421
 2190SOL     OW18031   4.009   3.837  15.368  0.1067 -0.0275 -0.0719
 2190SOL    HW118032   3.991   3.837  15.274  1.1378  0.0371 -0.2662
 2190SOL    HW218033   3.927   3.833  15.418 -1.4264 -0.2661 -2.5721
 2191SOL     OW18034   2.935   4.246  15.860  0.5011  0.7167  0.0924
 2191SOL    HW118035   3.013   4.210  15.816  0.5373 -0.1138  0.8157
 2191SOL    HW218036   2.872   4.184  15.822  1.4002 -0.6818  0.8549
 2192SOL     OW18037   1.871   1.080   0.404  0.4661 -0.0468 -0.0096
 2192SOL    HW118038   1.807   1.048   0.467 -0.1544 -0.3205 -0.7845
 2192SOL    HW218039   1.848   1.031   0.325  0.6156 -0.6727  0.3317
 2193SOL     OW18040   0.550   1.596  12.807  0.0290  0.1783 -0.1875
 2193SOL    HW118041   0.636   1.624  12.839  0.2057 -0.2920 -0.2507
 2193SOL    HW218042   0.516   1.667  12.753 -0.8826 -0.1178  0.0095
 2194SOL     OW18043   2.834   0.184   6.169 -0.2503  0.3943 -0.0944
 2194SOL    HW118044   2.907   0.151   6.222 -1.4595 -2.5646 -0.2486
 2194SOL    HW218045   2.833   0.118   6.100 -1.8904 -1.1620  1.4195
 2195SOL     OW18046   2.949   0.210  16.502 -0.3804  0.1982  0.1795
 2195SOL    HW118047   2.962   0.226  16.409  3.0441  0.5013  0.6812
 2195SOL    HW218048   2.859   0.177  16.506 -0.7340  1.3471  1.5332
 2196SOL     OW18049   3.823   0.027   5.027  0.1709  0.1557 -0.0113
 2196SOL    HW118050   3.894   0.090   5.041 -0.0787  0.3726  0.2732
 2196SOL    HW218051   3.786   0.057   4.944  0.7121 -0.0504 -0.3311
 2197SOL     OW18052   3.595   0.178   6.110  0.2900 -0.2948  0.1383
 2197SOL    HW118053   3.645   0.260   6.117 -0.9246  0.5713 -1.2618
 2197SOL    HW218054   3.507   0.209   6.131 -0.1425 -0.7337 -1.0062
 2198SOL     OW18055   1.884   2.893   4.109  0.4326 -0.7879 -0.5749
 2198SOL    HW118056   1.941   2.970   4.115 -1.3688  0.4464  0.5005
 2198SOL    HW218057   1.808   2.945   4.134  1.4299  1.0654 -1.3829
 2199SOL     OW18058   2.351   2.174  10.712 -0.1700  0.4395  0.3714
 2199SOL    HW118059   2.429   2.152  10.762  0.7848 -0.1423 -1.3806
 2199SOL    HW218060   2.275   2.182  10.770  0.2639 -4.2851  1.6121
 2200SOL     OW18061   3.300   3.702   5.659  0.1767  0.2852 -0.3722
 2200SOL    HW118062   3.329   3.611   5.667 -1.1388 -0.1114 -0.1179
 2200SOL    HW218063   3.361   3.734   5.593 -0.3873 -0.7127 -1.3663
 2201SOL     OW18064   3.792   2.111   2.153  0.5773 -0.6123 -0.8951
 2201SOL    HW118065   3.793   2.080   2.063 -2.4532 -0.3585 -1.0068
 2201SOL    HW218066   3.709   2.154   2.171  0.8864 -0.9648  1.4426
 2202SOL     OW18067   1.815   0.182   7.493 -0.6819  0.0187  0.2793
 2202SOL    HW118068   1.843   0.267   7.460  0.8423 -0.9873 -0.9948
 2202SOL    HW218069   1.739   0.159   7.440 -0.3155  0.5591 -0.4805
 2203SOL     OW18070   0.628   3.470   4.717  0.8035 -0.0028  0.2200
 2203SOL    HW118071   0.690   3.542   4.704 -0.1427  0.3656 -2.2156
 2203SOL    HW218072   0.590   3.474   4.629  1.3656 -0.6593 -0.0544
 2204SOL     OW18073   0.681   4.034   3.488  0.3029  0.4258 -0.0321
 2204SOL    HW118074   0.713   4.066   3.404  1.4074 -0.8624 -0.1114
 2204SOL    HW218075   0.727   3.950   3.478  1.0814  0.9410 -0.8022
 2205SOL     OW18076   0.883   3.715   1.029  0.1246 -0.4512 -0.1770
 2205SOL    HW118077   0.823   3.757   1.090  1.7493  0.5931  0.6920
 2205SOL    HW218078   0.897   3.631   1.072  3.4729  0.2099 -0.0382
 2206SOL     OW18079   1.890   2.029   7.119  0.1110 -0.1056  0.0696
 2206SOL    HW118080   1.817   2.092   7.121  0.4810  0.3755 -2.1837
 2206SOL    HW218081   1.966   2.086   7.128 -0.0420  0.9345 -5.3393
 2207SOL     OW18082   1.957   3.482  11.402 -0.4525  0.1432 -0.0840
 2207SOL    HW118083   1.881   3.487  11.459  0.4857 -2.0278  1.3711
 2207SOL    HW218084   1.979   3.390  11.417 -1.8560 -0.2401 -0.3934
 2208SOL     OW18085   1.714   2.515   6.125 -0.3344  0.3283  0.1679
 2208SOL    HW118086   1.764   2.434   6.131 -0.1474  0.3498 -0.9973
 2208SOL    HW218087   1.779   2.581   6.098  2.2383 -1.7891  1.1207
 2209SOL     OW18088   1.898   0.288   4.905 -0.2495 -0.3174 -0.0818
 2209SOL    HW118089   1.809   0.253   4.899  0.1293 -1.1170 -1.0969
 2209SOL    HW218090   1.875   0.372   4.945  0.1918 -0.5112  0.5720
 2210SOL     OW18091   0.614   0.094   5.553 -0.2869  0.5313  0.1549
 2210SOL    HW118092   0.705   0.063   5.549 -0.3633  0.0751  1.9555
 2210SOL    HW218093   0.572   0.049   5.480 -0.4883 -0.0233  0.6092
 2211SOL     OW18094   2.247   1.580   6.012 -0.3039 -0.4106 -0.5514
 2211SOL    HW118095   2.234   1.675   6.009 -1.1936 -0.5370 -0.5773
 2211SOL    HW218096   2.278   1.573   6.102  0.1890  1.9148 -0.5223
 2212SOL     OW18097   2.899   1.040   8.535  0.4717 -0.4054 -0.2112
 2212SOL    HW118098   2.812   1.004   8.516  0.4557  0.5065 -1.9173
 2212SOL    HW218099   2.947   0.965   8.499 -2.3697 -1.6555 -1.4161
 2213SOL     OW18100   0.204   0.148   6.242  0.2857  0.5568  0.8256
 2213SOL    HW118101   0.119   0.192   6.252 -0.7323 -1.7333  2.2004
 2213SOL    HW218102   0.174   0.059   6.223 -1.7905  1.3653  0.3300
 2214SOL     OW18103   3.542   4.057   1.506  0.2577  0.1695 -0.4164
 2214SOL    HW118104   3.570   3.976   1.548  1.1028  1.8378  2.3178
 2214SOL    HW218105   3.485   4.021   1.439 -0.5480  1.8190 -0.6190
 2215SOL     OW18106   4.429   2.767   2.445 -0.5208 -0.2628  0.1523
 2215SOL    HW118107   4.377   2.693   2.415 -0.4050 -1.1022  2.0448
 2215SOL    HW218108   4.433   2.826   2.370  1.3044  1.2960  1.4620
 2216SOL     OW18109   3.102   1.163  10.826 -0.6227 -0.1085 -0.6545
 2216SOL    HW118110   3.111   1.254  10.796 -0.9583 -0.4354 -1.7592
 2216SOL    HW218111   3.106   1.172  10.921  1.4886 -0.9945 -0.6718
 2217SOL     OW18112   2.138   3.381   0.402  0.1124 -0.1588 -0.2197
 2217SOL    HW118113   2.116   3.379   0.309  0.1435 -0.3455 -0.2240
 2217SOL    HW218114   2.055   3.348   0.437  0.1725 -1.3298 -1.1668
 2218SOL     OW18115   3.356   0.464   7.916  0.2992  0.0898  0.7439
 2218SOL    HW118116   3.390   0.550   7.891 -1.7787  0.2868 -1.3611
 2218SOL    HW218117   3.407   0.403   7.864  1.3511  1.7662 -0.1922
 2219SOL     OW18118   0.678   2.115   7.589 -0.1196 -0.3470 -0.2307
 2219SOL    HW118119   0.618   2.132   7.516 -0.0868  0.0783 -0.1574
 2219SOL    HW218120   0.736   2.055   7.541 -0.8102  0.7234 -2.3957
 2220SOL     OW18121   4.037   1.892   4.750 -0.0458 -0.5717  0.0290
 2220SOL    HW118122   4.015   1.804   4.721  1.4098 -0.4271 -1.5128
 2220SOL    HW218123   4.042   1.922   4.659  3.0589 -0.4789  0.2229
 2221SOL     OW18124   0.138   0.733  10.667 -0.7107  0.4875 -0.0228
 2221SOL    HW118125   0.137   0.694  10.580  0.4703 -2.1745  1.1548
 2221SOL    HW218126   0.049   0.722  10.700 -1.1768  1.2072 -1.0753
 2222SOL     OW18127   3.590   2.552   2.831  0.5087  0.0873 -0.0255
 2222SOL    HW118128   3.551   2.560   2.917 -0.9377  0.3141 -0.7030
 2222SOL    HW218129   3.535   2.621   2.795 -1.9679 -0.4669  2.7734
 2223SOL     OW18130   4.210   4.127   7.907  0.2196 -0.1377  0.1426
 2223SOL    HW118131   4.218   4.187   7.834 -1.1371  1.1611  1.0576
 2223SOL    HW218132   4.265   4.168   7.973  0.7939 -1.4593  0.4801
 2224SOL     OW18133   2.421   2.743  16.716 -0.1131  0.0639 -0.8430
 2224SOL    HW118134   2.394   2.765  16.627 -2.5570  2.0893  0.3889
 2224SOL    HW218135   2.418   2.648  16.704 -1.5541 -0.0049 -0.0004
 2225SOL     OW18136   1.117   0.456   4.392  0.7500 -0.5740 -0.1982
 2225SOL    HW118137   1.148   0.545   4.375  0.9220 -0.1364  2.3482
 2225SOL    HW218138   1.188   0.405   4.354  0.6691 -0.6881 -0.1978
 2226SOL     OW18139   2.231   2.848  12.486  0.6239 -0.3290  0.0768
 2226SOL    HW118140   2.202   2.939  12.479  2.6393  0.2211 -1.1119
 2226SOL    HW218141   2.213   2.835  12.579 -0.6140  0.5632 -0.0451
 2227SOL     OW18142   2.745   4.025  13.825  0.6386 -0.3816  0.6154
 2227SOL    HW118143   2.782   3.946  13.783  0.1457 -0.1597 -0.2389
 2227SOL    HW218144   2.701   3.981  13.898 -1.0776  0.5925  0.1679
 2228SOL     OW18145   1.999   0.766   1.415  0.0643 -0.1686 -0.2390
 2228SOL    HW118146   1.917   0.782   1.463 -0.3143  1.1403 -1.3352
 2228SOL    HW218147   2.031   0.690   1.464  2.8396  0.9304 -0.3641
 2229SOL     OW18148   1.257   4.310   9.153  0.2137 -0.1437  0.4441
 2229SOL    HW118149   1.174   4.349   9.181  1.4848  2.8236  0.1025
 2229SOL    HW218150   1.284   4.261   9.231  2.5409 -3.0727 -2.1939
 2230SOL     OW18151   2.384   1.445   8.645 -0.4940 -0.0142 -0.1837
 2230SOL    HW118152   2.396   1.364   8.597 -0.8410 -0.5261  0.5906
 2230SOL    HW218153   2.424   1.508   8.585  0.3174 -0.4444 -0.0864
 2231SOL     OW18154   2.491   1.622   1.137 -0.2807  0.6519 -0.0208
 2231SOL    HW118155   2.539   1.661   1.211 -0.5851  0.8220  0.0880
 2231SOL    HW218156   2.530   1.535   1.133 -0.5732  0.5374 -0.3367
 2232SOL     OW18157   1.826   4.059   8.711  0.4910  0.3228 -0.4892
 2232SOL    HW118158   1.873   4.062   8.628  0.8252  0.5600 -0.2890
 2232SOL    HW218159   1.889   4.101   8.769  1.2223 -0.9929 -0.3327
 2233SOL     OW18160   1.117   2.913   6.923 -0.1040 -0.1066  0.0792
 2233SOL    HW118161   1.107   2.960   7.006  0.5993 -1.0606  0.6998
 2233SOL    HW218162   1.199   2.948   6.888 -1.0794  0.5779 -1.5129
 2234SOL     OW18163   3.275   3.144   0.778  0.0028 -0.0400 -0.3189
 2234SOL    HW118164   3.330   3.067   0.795  0.8453  0.1841 -1.9493
 2234SOL    HW218165   3.342   3.208   0.803 -1.0156  0.4524  1.1276
 2235SOL     OW18166   4.619   4.641  14.451  0.4248  0.4989  0.1198
 2235SOL    HW118167   4.637   4.615  14.541  1.8593 -0.5053 -0.4421
 2235SOL    HW218168   4.689   4.596  14.402  0.0971 -0.3373  0.4117
 2236SOL     OW18169   3.739   3.311   6.137  0.2513 -0.1670  0.0953
 2236SOL    HW118170   3.674   3.263   6.086  1.6265 -1.1104 -0.7733
 2236SOL    HW218171   3.818   3.259   6.122  0.5425  0.3104 -0.0706
 2237SOL     OW18172   0.380   0.102   0.618 -0.3820 -0.0616 -0.4772
 2237SOL    HW118173   0.473   0.095   0.596 -0.5316 -0.8194 -0.8648
 2237SOL    HW218174   0.357   0.148   0.537  0.4086  0.3597 -0.4666
 2238SOL     OW18175   0.596   0.293   3.588  0.1262 -0.0675  0.3902
 2238SOL    HW118176   0.617   0.349   3.662  0.7738  0.2080 -0.0055
 2238SOL    HW218177   0.525   0.349   3.556 -1.3021 -1.8447  0.4473
 2239SOL     OW18178   4.497   3.300   6.915 -0.1451 -0.5412  0.0152
 2239SOL    HW118179   4.475   3.363   6.847  2.1205  0.9816  0.6923
 2239SOL    HW218180   4.418   3.245   6.912 -1.5289  1.5326 -1.2549
 2240SOL     OW18181   1.919   4.355   8.407 -0.8153  0.3393  0.1934
 2240SOL    HW118182   1.983   4.318   8.347 -1.8076  2.6435 -2.2822
 2240SOL    HW218183   1.858   4.390   8.342 -0.2045  0.6092 -0.2284
 2241SOL     OW18184   3.430   2.294   0.938 -0.1018  0.0014  0.2241
 2241SOL    HW118185   3.447   2.252   1.023 -1.0245 -0.9965 -0.0864
 2241SOL    HW218186   3.337   2.313   0.937  0.0882  0.9474  0.9342
 2242SOL     OW18187   4.348   1.840   9.183  0.3906  0.2463 -0.8365
 2242SOL    HW118188   4.401   1.835   9.103  3.3164  0.6687  1.0702
 2242SOL    HW218189   4.339   1.746   9.194 -0.0543  0.4038  0.1401
 2243SOL     OW18190   0.515   3.099   4.743  0.4372 -0.3913  0.3936
 2243SOL    HW118191   0.515   3.182   4.790  1.2316 -1.3223  2.0444
 2243SOL    HW218192   0.482   3.128   4.658  0.2517  1.1539  0.9915
 2244SOL     OW18193   0.698   4.660   4.398  0.3250 -0.4845 -0.2797
 2244SOL    HW118194   0.766   4.668   4.465 -0.1986  1.8277 -0.0481
 2244SOL    HW218195   0.739   4.704   4.324 -0.4444 -0.6507 -0.7997
 2245SOL     OW18196   4.068   1.572   5.269  1.2350 -0.7312 -0.0207
 2245SOL    HW118197   4.049   1.593   5.360  0.5501 -0.0126 -0.3202
 2245SOL    HW218198   4.106   1.655   5.239 -1.3065 -0.3625 -2.2480
 2246SOL     OW18199   4.512   1.814   3.939 -0.2215  0.5615  0.1273
 2246SOL    HW118200   4.606   1.812   3.960 -0.4134 -3.1058  0.6041
 2246SOL    HW218201   4.474   1.766   4.012 -0.7043 -1.2207 -1.3093
 2247SOL     OW18202   3.675   2.475   6.458  0.2369 -0.1448 -0.2922
 2247SOL    HW118203   3.756   2.521   6.483 -0.2412  1.5053 -1.7512
 2247SOL    HW218204   3.619   2.551   6.473 -0.2937 -0.6053  0.0605
 2248SOL     OW18205   2.997   0.624   7.338 -0.0290 -0.0739  0.2191
 2248SOL    HW118206   3.066   0.583   7.286 -0.2806  0.2561 -0.3691
 2248SOL    HW218207   3.012   0.592   7.427  0.3498  0.6829  0.4237
 2249SOL     OW18208   0.962   0.803  13.737 -0.6314  0.6277  0.4571
 2249SOL    HW118209   1.036   0.808  13.798  0.1498  0.3425 -0.4757
 2249SOL    HW218210   0.938   0.711  13.738  2.0435 -0.0901 -1.2848
 2250SOL     OW18211   3.476   4.118  10.038  0.1411 -0.1171 -0.6203
 2250SOL    HW118212   3.491   4.196   9.985  0.1442 -0.5980 -1.3148
 2250SOL    HW218213   3.564   4.081  10.034 -0.9444 -2.9536  1.6878
 2251SOL     OW18214   2.765   1.214   6.678 -0.0445  0.0170 -0.4410
 2251SOL    HW118215   2.824   1.284   6.707  1.3877 -1.6533  0.7094
 2251SOL    HW218216   2.769   1.153   6.751  0.9216 -1.4091 -1.6789
 2252SOL     OW18217   3.146   3.599   3.584  0.4886 -0.0483 -0.0666
 2252SOL    HW118218   3.060   3.620   3.548  0.3933 -1.4151 -0.6234
 2252SOL    HW218219   3.137   3.504   3.584 -0.0389  0.0073  2.3258
 2253SOL     OW18220   1.596   2.621   5.129 -0.3512 -0.3503  0.2498
 2253SOL    HW118221   1.668   2.683   5.122  0.4387 -1.2942 -0.0238
 2253SOL    HW218222   1.534   2.668   5.074  4.1190  3.2133 -1.6949
 2254SOL     OW18223   2.588   2.231   4.849 -0.4925 -0.1763 -0.2315
 2254SOL    HW118224   2.615   2.320   4.828 -2.4088 -0.4082 -3.6368
 2254SOL    HW218225   2.594   2.192   4.762  0.6357 -2.3281  0.8197
 2255SOL     OW18226   1.989   3.052  10.182 -0.7887  0.4933 -0.3932
 2255SOL    HW118227   2.017   3.010  10.100  0.1278  3.6018 -1.6730
 2255SOL    HW218228   1.895   3.062  10.166 -0.3692  0.9460 -2.6250
 2256SOL     OW18229   3.121   0.767   4.234  0.6964  0.3056  0.0152
 2256SOL    HW118230   3.201   0.781   4.285  0.2803 -0.0003  0.7616
 2256SOL    HW218231   3.058   0.748   4.304  2.4517 -0.6734  1.3319
 2257SOL     OW18232   2.164   3.563   5.788  0.3964  0.2768  0.2641
 2257SOL    HW118233   2.250   3.530   5.764  1.1906  1.7174  1.1381
 2257SOL    HW218234   2.182   3.610   5.869 -3.1791  1.2312  0.5415
 2258SOL     OW18235   2.455   4.362   6.034  0.5026 -0.6869  0.1133
 2258SOL    HW118236   2.463   4.286   6.093 -0.1440 -1.7096 -1.1115
 2258SOL    HW218237   2.523   4.413   6.078 -2.3849  1.4506  2.0347
 2259SOL     OW18238   0.831   2.220   6.879 -0.0437  0.8571  0.0570
 2259SOL    HW118239   0.782   2.139   6.896  1.0535 -0.0757 -1.2001
 2259SOL    HW218240   0.901   2.208   6.944 -0.3070  1.9098  0.5355
 2260SOL     OW18241   1.063   0.415   8.048 -0.3710 -0.5353  0.5583
 2260SOL    HW118242   1.135   0.478   8.046  0.3765 -1.3507  2.8531
 2260SOL    HW218243   1.110   0.345   8.002 -0.2196 -0.3123  0.3720
 2261SOL     OW18244   1.375   2.380  12.760 -0.2284  0.4872  0.1507
 2261SOL    HW118245   1.409   2.466  12.783 -0.6434  0.4533  0.8962
 2261SOL    HW218246   1.353   2.352  12.849  0.4960  0.4750  0.3276
 2262SOL     OW18247   3.511   0.809   4.110  0.5801  0.3571 -0.4326
 2262SOL    HW118248   3.490   0.716   4.110 -0.4589  0.5861  0.1776
 2262SOL    HW218249   3.458   0.834   4.034 -1.9673 -1.1641  0.8620
 2263SOL     OW18250   1.710   2.731   3.944 -0.5238  0.9661  0.1040
 2263SOL    HW118251   1.669   2.799   3.890 -1.1391 -0.1674 -0.8454
 2263SOL    HW218252   1.798   2.764   3.966 -0.0298 -0.1607 -0.2179
 2264SOL     OW18253   3.089   3.167   7.465  0.5367  0.2991  0.0855
 2264SOL    HW118254   3.140   3.146   7.543 -0.8370 -0.0968  0.8822
 2264SOL    HW218255   3.013   3.109   7.466  0.7746 -0.0837 -3.4664
 2265SOL     OW18256   2.036   0.528   8.248 -0.2009  0.4137  0.6987
 2265SOL    HW118257   2.056   0.496   8.160  0.0229 -0.5900  1.1192
 2265SOL    HW218258   1.943   0.506   8.252 -0.2274  0.0928 -1.3635
 2266SOL     OW18259   2.017   0.257   7.088 -0.1742  0.2921  0.2336
 2266SOL    HW118260   2.103   0.228   7.118 -0.9183  0.5958  2.6771
 2266SOL    HW218261   2.035   0.337   7.038  2.8881 -0.0567  0.7766
 2267SOL     OW18262   4.541   1.993   7.797  0.5553 -0.2504  0.1742
 2267SOL    HW118263   4.532   1.923   7.862  0.3532  1.5576  2.1029
 2267SOL    HW218264   4.448   2.015   7.787  0.8218  0.1887 -1.2598
 2268SOL     OW18265   0.997   3.675   0.107  0.4254 -0.3627 -0.6016
 2268SOL    HW118266   0.909   3.713   0.116  0.8695  0.7133 -0.8068
 2268SOL    HW218267   1.045   3.741   0.158  0.6467 -0.6879 -0.3950
 2269SOL     OW18268   1.556   1.375  15.711 -0.3942 -0.1122  0.0474
 2269SOL    HW118269   1.494   1.368  15.783 -0.3953 -0.0723  0.0503
 2269SOL    HW218270   1.628   1.321  15.745 -1.0894 -0.7629  0.4821
 2270SOL     OW18271   4.253   0.074   0.947 -0.4742 -0.4263  0.6773
 2270SOL    HW118272   4.302   0.119   0.879  0.3158  0.7162  1.9970
 2270SOL    HW218273   4.283   4.707   0.926  1.2340  0.8723 -2.2220
 2271SOL     OW18274   2.273   0.992   7.407 -0.1191  0.0034 -0.0729
 2271SOL    HW118275   2.320   1.066   7.369  3.5790 -1.7591  1.0790
 2271SOL    HW218276   2.193   1.042   7.420 -0.2707 -0.4300  0.6591
 2272SOL     OW18277   1.170   2.789  16.033  0.1900  0.1491  0.3052
 2272SOL    HW118278   1.113   2.842  15.978 -1.4564 -1.7301  0.2105
 2272SOL    HW218279   1.152   2.829  16.118 -0.9342 -0.3961  0.3200
 2273SOL     OW18280   1.601   0.738   9.620  0.0727 -0.2741 -0.0714
 2273SOL    HW118281   1.570   0.659   9.575  0.0439 -0.9290  1.0779
 2273SOL    HW218282   1.574   0.715   9.709 -1.6833  1.7266 -0.0840
 2274SOL     OW18283   4.044   0.355  13.372 -0.0984 -0.5949 -0.5541
 2274SOL    HW118284   4.079   0.342  13.284  1.8650 -0.7240  0.2320
 2274SOL    HW218285   4.121   0.400  13.408 -0.4248  0.3148 -0.9901
 2275SOL     OW18286   2.513   4.570  15.354  0.1502 -0.0006 -0.5625
 2275SOL    HW118287   2.449   4.614  15.299 -0.6706 -0.2342  0.2205
 2275SOL    HW218288   2.557   4.518  15.286 -0.2626  1.6641 -2.1070
 2276SOL     OW18289   3.898   2.186   0.570 -0.4491 -0.2862 -0.1152
 2276SOL    HW118290   3.983   2.150   0.595 -0.9573  0.0650  2.0372
 2276SOL    HW218291   3.867   2.118   0.509 -0.0831 -1.3553  0.8884
 2277SOL     OW18292   1.489   2.253   6.217  0.2164 -0.1878  0.2161
 2277SOL    HW118293   1.478   2.203   6.136 -1.7006  0.8165 -0.1416
 2277SOL    HW218294   1.515   2.178   6.271  1.0158 -0.1148 -0.0722
 2278SOL     OW18295   0.844   1.312   0.176 -0.1772  0.6866 -0.2396
 2278SOL    HW118296   0.880   1.266   0.252 -1.5328  0.6818  0.3903
 2278SOL    HW218297   0.883   1.254   0.110  0.8615  1.0904  0.0097
 2279SOL     OW18298   0.259   4.437   5.219  0.4859 -0.1639 -0.2556
 2279SOL    HW118299   0.228   4.387   5.144 -1.1600  1.8922 -0.9518
 2279SOL    HW218300   0.347   4.452   5.187 -0.1088  1.7085 -0.9788
 2280SOL     OW18301   3.013   2.552   3.587 -0.1958 -0.1252  0.2732
 2280SOL    HW118302   3.076   2.598   3.643  1.8666 -1.2445 -1.1179
 2280SOL    HW218303   2.959   2.629   3.570  1.2765  0.5013 -1.5789
 2281SOL     OW18304   4.011   1.774   5.011  0.0115 -0.4455  0.0592
 2281SOL    HW118305   4.098   1.762   5.049  0.4408  0.7034 -0.5654
 2281SOL    HW218306   4.038   1.810   4.926  1.0742 -2.3350 -0.3925
 2282SOL     OW18307   1.245   3.346  17.596  0.6683 -0.0490  0.5415
 2282SOL    HW118308   1.274   3.265  17.640  1.5172  0.8014  1.5695
 2282SOL    HW218309   1.330   3.389  17.585 -0.3461  1.9643  0.7812
 2283SOL     OW18310   0.318   3.917  15.842  1.0647 -0.0649  0.0376
 2283SOL    HW118311   0.312   3.973  15.765  1.1346  0.8740  0.7271
 2283SOL    HW218312   0.235   3.875  15.823 -2.5481  6.6381  1.2134
 2284SOL     OW18313   0.895   3.683   2.474  0.0710  0.7405 -0.8317
 2284SOL    HW118314   0.823   3.652   2.419 -0.0428  1.3833 -1.0498
 2284SOL    HW218315   0.848   3.708   2.553  1.3627  2.3636 -0.5612
 2285SOL     OW18316   4.509   4.162   5.987 -0.1143 -0.0378 -0.0277
 2285SOL    HW118317   4.592   4.115   5.974 -0.0705 -0.1934  0.8473
 2285SOL    HW218318   4.523   4.200   6.074 -0.4509 -1.5089  0.6580
 2286SOL     OW18319   3.451   3.166  15.290  0.0121 -0.3137 -0.3395
 2286SOL    HW118320   3.399   3.246  15.281  0.1968 -0.0138  1.1840
 2286SOL    HW218321   3.427   3.134  15.377  2.2841 -2.2148 -0.4145
 2287SOL     OW18322   3.853   1.354   4.923  0.2259  0.0463 -0.5121
 2287SOL    HW118323   3.859   1.367   4.828  0.9683 -0.7442 -0.5727
 2287SOL    HW218324   3.758   1.342   4.921  0.3689 -1.3135  1.5627
 2288SOL     OW18325   3.115   3.002   4.480  0.4122  0.3380  0.2582
 2288SOL    HW118326   3.070   3.042   4.404  0.8459  2.0998  0.9164
 2288SOL    HW218327   3.194   3.057   4.483 -1.4021  2.8952  1.5865
 2289SOL     OW18328   0.669   2.675   2.245 -0.4282  0.0645  0.2073
 2289SOL    HW118329   0.661   2.717   2.159 -0.7271  1.6681  1.0257
 2289SOL    HW218330   0.631   2.736   2.308  2.2977  0.8528  1.0909
 2290SOL     OW18331   0.570   0.454   4.014 -0.5661 -0.0511  0.1520
 2290SOL    HW118332   0.542   0.457   4.105 -1.1724 -2.0372  0.0302
 2290SOL    HW218333   0.548   0.362   4.004 -3.0326  0.8745 -3.0910
 2291SOL     OW18334   3.633   2.157   9.547  0.0292 -0.6295  0.0400
 2291SOL    HW118335   3.579   2.094   9.595  0.0345 -0.0433  0.8187
 2291SOL    HW218336   3.639   2.221   9.618 -1.2161  0.5100 -0.9050
 2292SOL     OW18337   4.123   1.470  11.683  0.5433 -0.0220  0.0609
 2292SOL    HW118338   4.206   1.474  11.636  0.4334  2.6443  0.0805
 2292SOL    HW218339   4.109   1.556  11.722  2.7224  0.4840 -0.2312
 2293SOL     OW18340   2.502   1.348   6.798  0.1266  0.4175  0.0957
 2293SOL    HW118341   2.595   1.331   6.782  0.3666  1.7776  0.0680
 2293SOL    HW218342   2.469   1.347   6.708  2.1815 -2.1657 -0.6220
 2294SOL     OW18343   0.733   3.674  13.763  0.1219 -0.0726  0.2339
 2294SOL    HW118344   0.643   3.700  13.745 -0.4711 -1.6154  1.0308
 2294SOL    HW218345   0.776   3.760  13.763  0.7375 -0.3795  0.0741
 2295SOL     OW18346   3.573   1.538  10.232  0.1929  0.7054 -0.4328
 2295SOL    HW118347   3.563   1.446  10.206  1.3755 -0.0195  1.6816
 2295SOL    HW218348   3.561   1.583  10.149 -1.3168  1.3966  0.1610
 2296SOL     OW18349   1.397   1.486   8.014  0.5654  0.3337 -0.0355
 2296SOL    HW118350   1.469   1.478   8.077  0.0787 -2.8370  0.0896
 2296SOL    HW218351   1.335   1.535   8.069  0.3621  2.3237 -2.0274
 2297SOL     OW18352   1.335   3.673   6.708 -0.1598  0.5648  0.1267
 2297SOL    HW118353   1.249   3.632   6.701 -0.6446  1.6286 -0.0255
 2297SOL    HW218354   1.385   3.595   6.733 -2.5466 -1.3858 -1.1452
 2298SOL     OW18355   2.051   1.189   1.826 -0.7162 -0.3049  0.6611
 2298SOL    HW118356   1.991   1.171   1.753 -0.7020 -0.2272  0.6314
 2298SOL    HW218357   2.104   1.109   1.825 -0.8727 -0.4080  0.5669
 2299SOL     OW18358   4.315   0.268   1.373 -0.1630 -0.1200 -0.0732
 2299SOL    HW118359   4.315   0.361   1.350  1.5838  0.2405  1.3833
 2299SOL    HW218360   4.280   0.234   1.291 -0.1092  1.8636 -0.8987
 2300SOL     OW18361   0.928   1.845  14.935  0.1809 -0.1744 -0.6647
 2300SOL    HW118362   0.858   1.854  15.000  0.0315  0.2900 -0.8868
 2300SOL    HW218363   0.960   1.761  14.967 -1.6994 -0.6315  0.0324
 2301SOL     OW18364   0.231   3.378  12.568 -0.1461  0.4682 -0.3988
 2301SOL    HW118365   0.164   3.422  12.516  0.5771 -0.9633 -2.5095
 2301SOL    HW218366   0.288   3.346  12.499 -1.8049 -0.7808 -1.1841
 2302SOL     OW18367   2.046   0.888   7.630  0.3785  0.2492 -0.3199
 2302SOL    HW118368   2.106   0.817   7.654  1.2989  1.5982  1.3651
 2302SOL    HW218369   2.012   0.858   7.545 -1.1599 -1.3910  0.8727
 2303SOL     OW18370   0.289   2.064   2.985  0.1997  0.1970 -0.7701
 2303SOL    HW118371   0.382   2.074   3.004 -0.2361  1.6938  0.6252
 2303SOL    HW218372   0.261   2.103   3.068  2.5441  0.3172 -0.0418
 2304SOL     OW18373   4.122   2.019   4.498  0.1813  0.0086  0.4394
 2304SOL    HW118374   4.056   2.072   4.453  0.3653 -1.0343 -1.0518
 2304SOL    HW218375   4.156   1.958   4.432  0.8643  0.7195  0.1336
 2305SOL     OW18376   3.028   3.719   6.216 -0.1431  0.9301  0.0378
 2305SOL    HW118377   3.103   3.660   6.225 -0.9024 -0.1489 -0.7525
 2305SOL    HW218378   3.040   3.757   6.304  1.8857 -0.5652  0.4026
 2306SOL     OW18379   3.861   0.313   6.433  0.5290  0.0410 -0.2941
 2306SOL    HW118380   3.897   0.229   6.462 -0.4499 -1.2911 -2.9913
 2306SOL    HW218381   3.936   0.362   6.399  0.6534  1.1632  1.6086
 2307SOL     OW18382   3.549   1.967  11.117 -0.3173 -0.0505  0.0136
 2307SOL    HW118383   3.625   1.960  11.176  1.2822  0.0851 -2.0101
 2307SOL    HW218384   3.482   1.970  11.185 -1.0814  0.1112 -0.7540
 2308SOL     OW18385   3.132   3.178   2.031 -0.9775  0.5168  0.9190
 2308SOL    HW118386   3.114   3.085   2.045 -0.2190 -0.0189 -1.6450
 2308SOL    HW218387   3.041   3.205   2.016 -0.5443  0.7527 -1.2874
 2309SOL     OW18388   0.729   3.134   9.024 -0.4711 -0.0877  0.9957
 2309SOL    HW118389   0.721   3.153   8.930 -0.7783 -0.4819  0.9440
 2309SOL    HW218390   0.820   3.156   9.046 -0.9979  2.0666  1.0205
 2310SOL     OW18391   0.150   1.626   4.933  0.0721  0.2216  0.1560
 2310SOL    HW118392   0.159   1.718   4.960  2.8059  0.4190 -1.5238
 2310SOL    HW218393   0.188   1.620   4.846 -0.0015 -2.2593  0.2895
 2311SOL     OW18394   3.413   3.270   4.792  0.4690 -1.1313 -0.0044
 2311SOL    HW118395   3.478   3.333   4.823 -0.4265 -0.5170  0.6166
 2311SOL    HW218396   3.391   3.313   4.709 -1.4666 -0.6587  0.7760
 2312SOL     OW18397   4.515   3.572   9.413  0.2748  0.0935 -0.2934
 2312SOL    HW118398   4.551   3.646   9.461  1.8053  0.2876 -1.7503
 2312SOL    HW218399   4.432   3.552   9.456  0.5254 -1.0164 -0.3207
 2313SOL     OW18400   2.833   2.494   0.307 -0.2812 -0.1139 -0.3185
 2313SOL    HW118401   2.839   2.564   0.242  2.2952  1.3088  1.4292
 2313SOL    HW218402   2.921   2.508   0.342  0.1237 -1.5984 -0.7658
 2314SOL     OW18403   2.175   3.662   8.043  0.1403 -0.4394  0.3312
 2314SOL    HW118404   2.193   3.637   7.952  2.8919 -3.5639  1.7155
 2314SOL    HW218405   2.111   3.596   8.072  2.7528 -2.8629  0.5638
 2315SOL     OW18406   3.928   1.392   9.167  0.3431 -0.0674  0.7524
 2315SOL    HW118407   3.957   1.469   9.216 -1.5178  2.1858 -1.6580
 2315SOL    HW218408   3.911   1.438   9.085 -1.6056 -2.7246 -0.3389
 2316SOL     OW18409   1.262   1.458   0.144  0.6857  0.1387 -0.2900
 2316SOL    HW118410   1.280   1.442   0.051 -0.8368 -2.3174 -0.1510
 2316SOL    HW218411   1.207   1.536   0.144 -0.1446 -0.4572  1.7048
 2317SOL     OW18412   0.490   2.747  13.977  0.6784 -0.0397  0.6021
 2317SOL    HW118413   0.507   2.723  13.886 -3.3739 -2.1789  0.3938
 2317SOL    HW218414   0.534   2.676  14.025 -0.4391 -0.0910  1.5364
 2318SOL     OW18415   4.248   2.559   5.233 -0.1725 -0.3262  0.1264
 2318SOL    HW118416   4.293   2.633   5.192 -0.5579  0.7580  1.6535
 2318SOL    HW218417   4.219   2.505   5.159 -0.0935 -2.0323  1.3492
 2319SOL     OW18418   1.413   1.232   7.354  0.2621 -0.2897  0.1627
 2319SOL    HW118419   1.433   1.325   7.362 -2.2330  0.3460 -1.1873
 2319SOL    HW218420   1.478   1.203   7.418 -0.2828 -0.7877  0.5013
 2320SOL     OW18421   2.941   1.023   4.673  0.1137 -0.5063 -0.1922
 2320SOL    HW118422   2.897   1.001   4.591  0.1622  0.1483 -0.3936
 2320SOL    HW218423   2.899   1.102   4.704 -1.2602 -1.1474 -0.4336
 2321SOL     OW18424   3.417   2.621   0.350 -0.2706  0.0772  0.3225
 2321SOL    HW118425   3.377   2.708   0.355  1.9486  1.0811  0.5901
 2321SOL    HW218426   3.468   2.618   0.269 -0.6095 -0.9998  0.1530
 2322SOL     OW18427   0.347   2.489   1.088  0.8380 -0.3302  0.1739
 2322SOL    HW118428   0.278   2.548   1.057 -0.6589 -1.5066  1.2532
 2322SOL    HW218429   0.308   2.407   1.056  0.8389 -0.3974  0.3437
 2323SOL     OW18430   4.626   1.575   5.173 -0.0910  0.4368 -0.1361
 2323SOL    HW118431   4.603   1.503   5.114 -1.8214  1.4916 -0.7705
 2323SOL    HW218432   4.610   1.645   5.109 -0.8704  0.5476  0.1847
 2324SOL     OW18433   2.567   2.639   6.491 -0.4354 -0.0146 -0.4045
 2324SOL    HW118434   2.558   2.569   6.556  1.3896 -0.1382 -0.2810
 2324SOL    HW218435   2.477   2.669   6.497 -0.5615 -0.4570 -0.0908
 2325SOL     OW18436   2.732   3.956   5.322 -0.0838  0.4753 -0.6541
 2325SOL    HW118437   2.753   4.017   5.252 -0.6853  2.7555  1.1726
 2325SOL    HW218438   2.753   4.008   5.399 -1.7912 -0.2157  0.2983
 2326SOL     OW18439   0.880   4.547   2.782  0.1227  0.1573 -0.1937
 2326SOL    HW118440   0.905   4.462   2.746 -2.9443 -0.7610 -0.1343
 2326SOL    HW218441   0.809   4.525   2.842  0.5266 -1.3472 -0.2815
 2327SOL     OW18442   3.070   3.352   8.299 -0.1120  0.0608 -0.0788
 2327SOL    HW118443   2.975   3.361   8.291 -0.0065  1.7945  0.7467
 2327SOL    HW218444   3.079   3.436   8.344  0.4537 -0.8167  1.4740
 2328SOL     OW18445   2.630   0.231   4.575 -0.1311 -0.3019 -0.0245
 2328SOL    HW118446   2.702   0.170   4.588  0.7187  0.3095 -1.9157
 2328SOL    HW218447   2.555   0.172   4.581  0.4852 -0.9121  1.7375
 2329SOL     OW18448   4.719   1.353   3.631  0.1684  0.4942  0.1599
 2329SOL    HW118449   0.082   1.350   3.586  0.4074  1.9532  0.5261
 2329SOL    HW218450   4.706   1.448   3.626  2.0468  0.7953  0.8187
 2330SOL     OW18451   1.983   1.147  13.960  0.0505 -0.6295 -0.3152
 2330SOL    HW118452   2.020   1.231  13.986  1.3173 -1.5835  0.9834
 2330SOL    HW218453   1.891   1.167  13.976  0.0556  1.0869 -2.4120
 2331SOL     OW18454   0.994   0.707   2.537 -0.1745 -0.9011 -0.5693
 2331SOL    HW118455   1.052   0.738   2.467  0.5561 -0.3428  0.2810
 2331SOL    HW218456   1.049   0.631   2.558  0.2130 -0.1294  1.1855
 2332SOL     OW18457   1.569   4.107   5.957  0.0096  0.6032  0.2780
 2332SOL    HW118458   1.538   4.100   5.866 -0.0421 -1.8059  0.4722
 2332SOL    HW218459   1.600   4.018   5.971  0.1494  0.3131 -1.7856
 2333SOL     OW18460   3.634   2.214   1.716 -0.7126 -0.0102  0.4205
 2333SOL    HW118461   3.606   2.238   1.628 -1.6833 -0.0206  0.7284
 2333SOL    HW218462   3.729   2.199   1.710 -0.3844  2.4881 -0.6788
 2334SOL     OW18463   0.798   3.912  13.217 -0.4161 -0.0066 -0.1036
 2334SOL    HW118464   0.881   3.907  13.265 -0.7867  0.6217  0.5905
 2334SOL    HW218465   0.805   3.977  13.147  1.2397  0.1740  0.2116
 2335SOL     OW18466   1.528   2.814   3.273 -0.1317 -0.2042 -0.1110
 2335SOL    HW118467   1.578   2.734   3.290 -0.9065 -0.5656  0.4830
 2335SOL    HW218468   1.444   2.769   3.269 -0.7655  0.9695  0.0976
 2336SOL     OW18469   4.267   2.796   9.046  0.1497  0.4453 -0.0661
 2336SOL    HW118470   4.175   2.786   9.023 -0.3371 -0.2753  2.2612
 2336SOL    HW218471   4.259   2.815   9.140  1.7058 -1.6904  0.4851
 2337SOL     OW18472   3.201   0.647   8.278 -0.0129 -0.0255  0.1143
 2337SOL    HW118473   3.169   0.678   8.193  1.4702 -2.9851 -1.5479
 2337SOL    HW218474   3.287   0.610   8.257  0.8693  1.3938  1.1923
 2338SOL     OW18475   2.218   2.523   9.247  0.5425 -0.2502 -0.0503
 2338SOL    HW118476   2.242   2.463   9.177 -0.8576 -1.4956  0.5408
 2338SOL    HW218477   2.251   2.474   9.323  0.9470 -1.1563 -0.8166
 2339SOL     OW18478   1.679   2.238   0.060  0.2086  0.1817 -0.1662
 2339SOL    HW118479   1.648   2.328   0.050  1.3227  0.6910  1.0851
 2339SOL    HW218480   1.734   2.252   0.137  0.0178  0.4357 -0.0776
 2340SOL     OW18481   2.418   1.306   2.025 -0.3435 -0.1291 -0.2657
 2340SOL    HW118482   2.330   1.332   2.050  0.5614  2.1397  0.5237
 2340SOL    HW218483   2.449   1.379   1.970 -0.9901  1.3727  1.3537
 2341SOL     OW18484   1.035   0.570   6.548  0.2255  0.4215  0.0465
 2341SOL    HW118485   1.060   0.486   6.509  0.9952  1.3232 -1.3763
 2341SOL    HW218486   1.072   0.557   6.636  0.3848 -1.8399 -0.3428
 2342SOL     OW18487   2.845   2.189   6.101 -0.4731 -0.3174 -0.4656
 2342SOL    HW118488   2.822   2.233   6.020  3.4432  2.4808 -0.0125
 2342SOL    HW218489   2.847   2.096   6.078  1.2488 -1.2117  3.1765
 2343SOL     OW18490   0.521   1.656  17.183  0.2166  0.2686 -0.1889
 2343SOL    HW118491   0.552   1.724  17.124  2.0365  1.3239  1.9896
 2343SOL    HW218492   0.439   1.621  17.149 -0.2834  0.6088  0.6635
 2344SOL     OW18493   3.631   1.303   6.369  0.6048 -0.0747  0.0330
 2344SOL    HW118494   3.584   1.385   6.357 -2.1352 -1.9097 -1.7624
 2344SOL    HW218495   3.567   1.242   6.331  0.7544 -0.2318  0.0303
 2345SOL     OW18496   2.630   1.041   7.199  0.5678 -0.1620  0.1178
 2345SOL    HW118497   2.703   1.097   7.173  0.1051  0.3618 -0.0451
 2345SOL    HW218498   2.569   1.102   7.241 -0.5457 -1.5723  0.5514
 2346SOL     OW18499   4.577   3.630   2.799 -0.2133 -0.3415  0.3635
 2346SOL    HW118500   4.511   3.684   2.755  0.6935  0.9675  0.5954
 2346SOL    HW218501   4.521   3.578   2.857 -2.4100  1.0764 -0.4496
 2347SOL     OW18502   3.919   3.247   1.610 -0.0857 -0.5528 -0.7364
 2347SOL    HW118503   3.884   3.260   1.522 -1.3968 -0.0744 -0.1455
 2347SOL    HW218504   3.839   3.210   1.648 -0.4683 -2.3970 -3.2892
 2348SOL     OW18505   1.067   0.820   1.744 -0.9295  0.0151 -0.0092
 2348SOL    HW118506   1.053   0.725   1.751  1.7487 -0.3564  0.3507
 2348SOL    HW218507   1.047   0.845   1.654  0.5117 -0.6075 -0.5057
 2349SOL     OW18508   1.720   1.218  11.753  0.2070  0.3740 -0.0884
 2349SOL    HW118509   1.786   1.198  11.820  0.7785 -1.4614 -1.2182
 2349SOL    HW218510   1.729   1.136  11.705 -0.3487  0.4306 -0.2863
 2350SOL     OW18511   2.915   2.926   8.264 -0.2898 -0.3591 -0.1755
 2350SOL    HW118512   2.942   2.835   8.280 -1.3754 -0.2400  2.3189
 2350SOL    HW218513   2.829   2.919   8.307 -1.2900 -1.4197 -2.3522
 2351SOL     OW18514   4.337   2.146   0.516 -0.1470  0.4031 -0.2008
 2351SOL    HW118515   4.267   2.133   0.453  1.1659 -0.2213 -1.5181
 2351SOL    HW218516   4.309   2.088   0.587 -1.2908  1.6662  0.4022
 2352SOL     OW18517   0.220   2.247   7.267  0.1171 -0.2620  0.5988
 2352SOL    HW118518   0.187   2.161   7.295 -2.9367  0.8300  0.2497
 2352SOL    HW218519   0.172   2.263   7.187 -0.2845 -1.5989  0.5721
 2353SOL     OW18520   2.788   3.478   8.592 -0.7508 -0.2366  0.1865
 2353SOL    HW118521   2.880   3.459   8.609 -0.7271 -0.0000  0.3107
 2353SOL    HW218522   2.755   3.511   8.675  1.2264  1.0015  0.4719
 2354SOL     OW18523   0.706   2.638  11.409  0.4286 -0.2610 -0.1014
 2354SOL    HW118524   0.773   2.578  11.442  2.1815  1.9753  0.3987
 2354SOL    HW218525   0.634   2.581  11.433 -0.4981  0.9096 -0.1220
 2355SOL     OW18526   1.413   3.597   4.476 -0.2533 -0.9497 -0.1424
 2355SOL    HW118527   1.336   3.570   4.527 -0.2596 -1.1437 -0.2548
 2355SOL    HW218528   1.393   3.542   4.401  0.6384  2.1624 -2.6705
 2356SOL     OW18529   2.617   0.405   9.080 -0.3565 -0.1557 -0.3538
 2356SOL    HW118530   2.677   0.398   9.154 -1.7640  2.9530  1.0666
 2356SOL    HW218531   2.570   0.322   9.078 -1.6443  0.5668  0.2102
 2357SOL     OW18532   2.792   3.103   4.988  0.3538  0.1674 -0.5486
 2357SOL    HW118533   2.834   3.147   5.062  1.7711 -0.7351 -0.8187
 2357SOL    HW218534   2.769   3.181   4.937  0.4035  1.3322  1.1762
 2358SOL     OW18535   3.759   2.697   4.482  0.6409 -0.0347 -0.1785
 2358SOL    HW118536   3.818   2.759   4.440  1.0292  0.2467  0.7871
 2358SOL    HW218537   3.676   2.740   4.463 -0.5680 -0.7621  3.5111
 2359SOL     OW18538   2.283   4.006   0.747 -0.0129 -0.5488  0.3686
 2359SOL    HW118539   2.258   4.013   0.839  0.2353  1.7442  0.2709
 2359SOL    HW218540   2.211   3.954   0.711  0.6012 -0.9577 -0.2735
 2360SOL     OW18541   2.322   1.767   1.327 -0.1746 -0.1065  0.4236
 2360SOL    HW118542   2.337   1.732   1.415 -0.2500 -0.6598  0.2172
 2360SOL    HW218543   2.258   1.837   1.343  0.9014  1.1147 -0.6431
 2361SOL     OW18544   2.227   3.143   5.334  0.0138 -0.0336  0.2450
 2361SOL    HW118545   2.239   3.058   5.292 -1.3437  0.5404 -1.2887
 2361SOL    HW218546   2.303   3.148   5.392  1.2749 -1.4770 -1.2706
 2362SOL     OW18547   2.754   1.567   5.946 -0.0673  0.2644 -0.4483
 2362SOL    HW118548   2.685   1.529   5.891 -1.5173  2.0318  0.1510
 2362SOL    HW218549   2.808   1.599   5.874  1.3342  0.3524  0.6490
 2363SOL     OW18550   4.338   0.106   4.996 -0.1343 -0.4562 -0.3060
 2363SOL    HW118551   4.293   0.053   4.931  0.4058 -1.3572  0.0599
 2363SOL    HW218552   4.357   0.180   4.938  3.6463 -1.2096 -0.0390
 2364SOL     OW18553   1.995   2.185   3.933 -0.1627 -0.1033 -0.0237
 2364SOL    HW118554   2.021   2.248   4.000  1.2153 -0.3816 -0.2881
 2364SOL    HW218555   1.985   2.110   3.991 -0.2852  0.4125  0.6252
 2365SOL     OW18556   4.167   3.260   3.657  0.0702  0.1988 -0.0055
 2365SOL    HW118557   4.176   3.347   3.618  1.1720  1.5727  3.3660
 2365SOL    HW218558   4.258   3.230   3.655  0.5916  1.7446  0.8423
 2366SOL     OW18559   0.272   1.500   3.767 -0.5198 -0.5599 -1.1410
 2366SOL    HW118560   0.322   1.568   3.812 -1.4663 -1.0005  0.5628
 2366SOL    HW218561   0.333   1.478   3.696 -0.3379  0.9323 -1.4416
 2367SOL     OW18562   0.541   4.068  13.706 -0.6963  0.0033 -0.5207
 2367SOL    HW118563   0.536   3.973  13.702 -0.4565  0.0545 -2.0688
 2367SOL    HW218564   0.465   4.091  13.653 -0.8786 -0.0641 -0.2896
 2368SOL     OW18565   3.571   0.210   5.642 -0.1389  0.3922 -0.4525
 2368SOL    HW118566   3.512   0.262   5.588  0.4344 -0.4016 -1.8322
 2368SOL    HW218567   3.540   0.120   5.633  0.6154  0.2292 -1.4382
 2369SOL     OW18568   2.204   2.084   8.011 -1.1377 -0.2425  0.6939
 2369SOL    HW118569   2.248   2.060   7.929 -3.6193  1.1187 -1.0101
 2369SOL    HW218570   2.227   2.003   8.056 -0.8719 -0.8606 -0.5425
 2370SOL     OW18571   1.576   0.945   2.338 -0.3390 -0.1819  0.4390
 2370SOL    HW118572   1.597   0.981   2.251  0.8519  1.6026  1.4612
 2370SOL    HW218573   1.491   0.987   2.348 -0.3335 -0.0795  0.0719
 2371SOL     OW18574   2.637   1.293  12.650 -0.1621 -0.1145 -0.2298
 2371SOL    HW118575   2.658   1.251  12.734 -1.0223 -1.3757 -0.6444
 2371SOL    HW218576   2.634   1.383  12.681  0.8832 -0.2680  0.3506
 2372SOL     OW18577   4.193   1.795   2.821  0.0371  0.5612 -0.1058
 2372SOL    HW118578   4.254   1.723   2.804  0.5473  0.9525  0.0792
 2372SOL    HW218579   4.251   1.856   2.867  0.0259 -0.7048  1.6155
 2373SOL     OW18580   0.605   1.965   2.766  1.3251  0.2732  0.0427
 2373SOL    HW118581   0.528   1.910   2.755  0.3660  1.2529  1.8764
 2373SOL    HW218582   0.609   1.987   2.673 -0.8547 -1.8195 -0.5480
 2374SOL     OW18583   0.409   3.099   9.009  0.2643 -0.6020 -0.0553
 2374SOL    HW118584   0.445   3.131   9.092 -2.4065  1.0083  0.4944
 2374SOL    HW218585   0.318   3.080   9.031  0.2753 -0.5400  0.0425
 2375SOL     OW18586   1.634   0.894  16.232  0.3373  0.4492 -0.4096
 2375SOL    HW118587   1.713   0.900  16.285  3.0508  0.3068 -4.3996
 2375SOL    HW218588   1.665   0.870  16.145  2.0867  0.4271  0.2320
 2376SOL     OW18589   4.717   1.859   5.568 -0.3237  0.3422  0.2316
 2376SOL    HW118590   4.628   1.829   5.551 -0.7420  2.2427 -0.9370
 2376SOL    HW218591   0.044   1.800   5.510  0.1206  1.3007 -0.3775
 2377SOL     OW18592   3.496   0.267  10.750  0.0313 -0.2083 -0.1902
 2377SOL    HW118593   3.439   0.318  10.807  1.4543  3.6172 -2.2163
 2377SOL    HW218594   3.548   0.228  10.820 -0.1736 -0.8222 -0.3820
 2378SOL     OW18595   1.785   4.151   6.729  0.2993 -0.6107  0.2703
 2378SOL    HW118596   1.692   4.131   6.724  0.1925  0.2721 -1.2261
 2378SOL    HW218597   1.818   4.139   6.639 -1.4424  0.2045 -0.4652
 2379SOL     OW18598   2.116   4.037  14.568  0.3255 -0.0010  0.2416
 2379SOL    HW118599   2.046   3.995  14.518 -0.9892  1.5006  0.8408
 2379SOL    HW218600   2.194   3.995  14.530  0.1814  0.6220 -0.7442
 2380SOL     OW18601   4.669   2.728   4.675  0.3456 -0.6963  0.3884
 2380SOL    HW118602   4.717   2.732   4.592  1.0234 -2.0254  0.6994
 2380SOL    HW218603   4.580   2.725   4.641  0.3342 -1.3761  0.4651
 2381SOL     OW18604   4.512   2.546   2.824  0.7334 -0.2427 -0.0520
 2381SOL    HW118605   4.537   2.493   2.748 -0.2317  1.3704 -1.4909
 2381SOL    HW218606   4.436   2.492   2.849  1.1478 -0.5268  0.6001
 2382SOL     OW18607   0.994   4.383   3.134 -0.0678  0.4423  0.5564
 2382SOL    HW118608   1.086   4.410   3.126  0.1762 -1.1978 -2.3068
 2382SOL    HW218609   0.959   4.440   3.065  3.7768  1.3901 -0.6355
 2383SOL     OW18610   0.046   3.721   2.453  0.1386  0.3208  0.0137
 2383SOL    HW118611   0.011   3.801   2.491 -0.8515 -0.3696  0.5381
 2383SOL    HW218612   0.111   3.765   2.399 -0.5793 -0.2536 -1.3278
 2384SOL     OW18613   0.258   1.901   7.884 -0.1583  0.0319  0.9224
 2384SOL    HW118614   0.251   1.951   7.965  3.0717  0.8612  0.6746
 2384SOL    HW218615   0.253   1.969   7.816  0.6901  0.1267  0.9614
 2385SOL     OW18616   2.514   4.491   2.755  0.0541 -0.3268  0.2149
 2385SOL    HW118617   2.468   4.476   2.672  1.0466  0.5743 -0.5087
 2385SOL    HW218618   2.590   4.535   2.715  0.8948 -1.2581  0.8034
 2386SOL     OW18619   3.965   1.083   4.157 -0.0830  0.2319  0.7307
 2386SOL    HW118620   4.031   1.101   4.089  0.5627  1.2838  1.6398
 2386SOL    HW218621   3.980   0.991   4.176 -2.8981 -0.2778  0.3877
 2387SOL     OW18622   4.662   1.536   9.060  0.4729 -0.4511  0.0354
 2387SOL    HW118623   4.702   1.555   9.144 -0.2247  0.6614  0.1209
 2387SOL    HW218624   4.656   1.440   9.061  0.9173 -0.4941 -0.9159
 2388SOL     OW18625   4.632   0.138   6.537 -0.3533  0.0828 -0.7725
 2388SOL    HW118626   4.656   0.228   6.560 -2.1285  0.5050 -0.5793
 2388SOL    HW218627   4.665   0.093   6.615  0.2646  1.4380 -0.2417
 2389SOL     OW18628   2.902   3.251   1.894  0.3846  0.5392  0.4434
 2389SOL    HW118629   2.942   3.232   1.809  2.8130  0.6362  1.5740
 2389SOL    HW218630   2.810   3.247   1.868  0.4314 -1.6002  0.5739
 2390SOL     OW18631   1.190   2.860   4.017  0.4277  0.4988 -0.0738
 2390SOL    HW118632   1.185   2.940   3.966 -0.6860  0.0246 -0.7220
 2390SOL    HW218633   1.182   2.793   3.948  0.1446  0.3079  0.1433
 2391SOL     OW18634   3.933   0.014   3.189 -0.5562  0.0543  0.7516
 2391SOL    HW118635   3.862   4.679   3.160  0.3322 -0.7235  0.0717
 2391SOL    HW218636   3.936   0.088   3.128  0.0296 -0.3923  0.2418
 2392SOL     OW18637   4.681   2.323   9.048 -0.0997  0.2430  0.0377
 2392SOL    HW118638   4.702   2.300   9.138  0.6671 -1.2774 -0.5310
 2392SOL    HW218639   4.595   2.365   9.053  0.7655  1.9496  0.5247
 2393SOL     OW18640   3.710   1.905  13.816 -0.8320 -0.6996  0.0532
 2393SOL    HW118641   3.679   1.918  13.726  0.9037 -1.3283 -0.6359
 2393SOL    HW218642   3.784   1.846  13.801  0.8166  0.5051  3.5352
 2394SOL     OW18643   0.177   3.317   6.352 -0.2217 -0.0294  0.1029
 2394SOL    HW118644   0.237   3.363   6.410  0.2762 -1.2596  0.5779
 2394SOL    HW218645   0.225   3.237   6.328 -0.3615  0.0439 -0.4095
 2395SOL     OW18646   2.515   4.714   7.930  0.5320  0.2299 -0.0681
 2395SOL    HW118647   2.521   0.085   7.905  1.1110 -0.0478 -0.9448
 2395SOL    HW218648   2.426   4.690   7.904  0.3082  0.5495  0.3913
 2396SOL     OW18649   0.187   0.997   8.368  0.0120 -0.1732 -0.0819
 2396SOL    HW118650   0.206   1.057   8.295 -1.0442  0.6374  0.3074
 2396SOL    HW218651   0.127   1.051   8.419  1.0523 -0.4758  1.4727
 2397SOL     OW18652   3.550   2.673   8.387  0.0802  0.4229 -0.3460
 2397SOL    HW118653   3.532   2.579   8.388  2.4628 -0.0286  1.9897
 2397SOL    HW218654   3.465   2.709   8.411  2.2828  2.7544  3.9301
 2398SOL     OW18655   0.812   2.251   7.243 -0.3389 -0.0376 -0.0959
 2398SOL    HW118656   0.852   2.331   7.277 -1.4909 -0.6659  2.7048
 2398SOL    HW218657   0.750   2.287   7.179  1.5059  0.6465 -1.4961
 2399SOL     OW18658   2.225   2.990  13.876  0.7619  0.1938  0.7424
 2399SOL    HW118659   2.289   3.060  13.862  0.0228  0.7991  0.3634
 2399SOL    HW218660   2.258   2.949  13.956 -0.0825 -1.5822  0.1818
 2400SOL     OW18661   2.356   1.552  12.974  0.2063  0.5415 -0.0007
 2400SOL    HW118662   2.342   1.642  13.002 -1.7615  0.5559 -1.0742
 2400SOL    HW218663   2.353   1.496  13.052  2.3538 -0.3520 -0.5585
 2401SOL     OW18664   1.466   1.462   0.323 -0.2295 -0.6554  0.3405
 2401SOL    HW118665   1.501   1.377   0.347  2.0665  0.0740 -0.4230
 2401SOL    HW218666   1.391   1.434   0.270  1.2050  0.4402 -2.3057
 2402SOL     OW18667   0.865   1.851   5.573  0.6115 -0.3074 -0.5471
 2402SOL    HW118668   0.876   1.924   5.633 -0.1499 -0.2249 -0.5058
 2402SOL    HW218669   0.812   1.886   5.501  0.1257 -0.7691 -0.4114
 2403SOL     OW18670   1.156   1.179   3.619 -0.6349 -0.4301  0.4379
 2403SOL    HW118671   1.159   1.252   3.557 -1.0222 -0.6766  0.1317
 2403SOL    HW218672   1.105   1.116   3.568 -0.5378 -1.1536  1.2486
 2404SOL     OW18673   3.033   3.111   9.214  0.1093 -0.0597  0.5154
 2404SOL    HW118674   2.955   3.114   9.269  0.8749 -0.7394  1.6390
 2404SOL    HW218675   2.993   3.079   9.133 -0.6291 -0.3017  0.9796
 2405SOL     OW18676   3.480   0.906   4.651 -0.4332  0.0342  0.1442
 2405SOL    HW118677   3.440   0.990   4.675 -1.7840  0.1317 -2.4570
 2405SOL    HW218678   3.555   0.909   4.710 -0.7840 -1.3154  0.6486
 2406SOL     OW18679   0.284   2.647   1.561 -0.5352 -0.1171  0.0128
 2406SOL    HW118680   0.260   2.737   1.539  1.6608  0.7839  1.2821
 2406SOL    HW218681   0.337   2.615   1.488 -1.0977 -1.2303  0.1070
 2407SOL     OW18682   2.686   2.574   0.710  0.0981  0.0187  0.0499
 2407SOL    HW118683   2.732   2.493   0.731  0.7188 -0.1659 -2.0303
 2407SOL    HW218684   2.746   2.608   0.644 -1.9446  0.3981 -1.6315
 2408SOL     OW18685   2.272   4.575   6.136  0.0043  0.2918 -0.0046
 2408SOL    HW118686   2.328   4.514   6.087 -0.8719  0.1749 -0.8652
 2408SOL    HW218687   2.304   4.659   6.102 -0.1930  0.3508 -0.0470
 2409SOL     OW18688   3.734   4.356   7.299  0.1384  0.8897  0.3115
 2409SOL    HW118689   3.761   4.293   7.366  0.2747  2.5934  1.8566
 2409SOL    HW218690   3.787   4.432   7.323 -0.3650  0.8006  1.7043
 2410SOL     OW18691   3.876   0.091   6.643 -0.2172  0.2714 -0.7100
 2410SOL    HW118692   3.784   0.087   6.619  0.1049 -1.6846 -1.5653
 2410SOL    HW218693   3.872   0.060   6.733 -0.9475  2.1021 -0.1204
 2411SOL     OW18694   0.331   0.253   5.680 -0.1383  0.2238  1.1361
 2411SOL    HW118695   0.275   0.176   5.671  0.3278  0.2257 -1.9122
 2411SOL    HW218696   0.275   0.321   5.642  0.4097 -0.2764 -0.5718
 2412SOL     OW18697   1.514   0.039  15.192  0.2699 -0.2572 -0.6054
 2412SOL    HW118698   1.484   0.013  15.105  0.6550  0.7633 -1.0494
 2412SOL    HW218699   1.434   0.075  15.228 -0.8931 -1.2491 -2.2262
 2413SOL     OW18700   4.198   3.137   6.418 -0.6653 -0.1221 -0.2390
 2413SOL    HW118701   4.280   3.164   6.377 -0.2480 -0.3523  0.4560
 2413SOL    HW218702   4.186   3.053   6.374  1.3407  0.0691 -1.1454
 2414SOL     OW18703   1.350   4.486  10.868 -0.2207  0.0855  0.3599
 2414SOL    HW118704   1.365   4.403  10.822 -0.1952  1.3349 -1.9385
 2414SOL    HW218705   1.436   4.522  10.843  0.4736 -0.4694  2.0030
 2415SOL     OW18706   4.721   4.711   2.508 -0.1521 -0.0470  0.1199
 2415SOL    HW118707   4.720   4.642   2.441 -0.9959  1.5020 -1.4812
 2415SOL    HW218708   0.007   0.069   2.455  0.3100  0.8234  1.5104
 2416SOL     OW18709   4.040   3.786   6.176 -0.4321  0.4363  0.0657
 2416SOL    HW118710   4.131   3.757   6.165 -1.2908 -2.3900  0.4016
 2416SOL    HW218711   4.023   3.759   6.266 -0.0916  1.5317  0.4547
 2417SOL     OW18712   0.194   4.436   6.050  0.2419  0.1047 -0.0694
 2417SOL    HW118713   0.136   4.472   5.982  0.5893 -0.1570 -0.5033
 2417SOL    HW218714   0.175   4.495   6.123 -1.6913 -0.7760  0.1389
 2418SOL     OW18715   1.000   3.030   5.248 -0.4845  0.5988 -0.3640
 2418SOL    HW118716   0.962   2.943   5.233 -0.2565  0.5735 -0.7934
 2418SOL    HW218717   1.008   3.066   5.159  1.1101 -0.2811 -0.5803
 2419SOL     OW18718   2.739   2.682  13.848 -0.1590  0.2703 -0.3357
 2419SOL    HW118719   2.802   2.661  13.917 -2.4922 -0.6902  1.5070
 2419SOL    HW218720   2.728   2.777  13.851  0.0272  0.2677  0.3246
 2420SOL     OW18721   2.500   4.597   4.946  0.7504  0.3658 -0.2118
 2420SOL    HW118722   2.408   4.578   4.929  0.5606 -1.2287  2.6385
 2420SOL    HW218723   2.532   4.586   4.856 -0.2243  0.1111 -0.5265
 2421SOL     OW18724   1.320   0.246   4.921  0.2958  0.1457  0.3749
 2421SOL    HW118725   1.239   0.294   4.905  0.1472 -0.5484 -1.0186
 2421SOL    HW218726   1.360   0.255   4.834  3.2499 -3.2425  1.3604
 2422SOL     OW18727   0.999   2.644   6.870 -0.3363 -0.0796  0.7248
 2422SOL    HW118728   1.046   2.727   6.880  0.1810 -0.5788  2.5057
 2422SOL    HW218729   0.931   2.649   6.937 -0.0293  1.2690  0.9250
 2423SOL     OW18730   1.991   3.920   2.962 -0.2673 -0.4514  0.2717
 2423SOL    HW118731   1.997   3.999   2.908 -0.1219 -0.6641 -0.0234
 2423SOL    HW218732   1.897   3.902   2.955 -0.5717  0.5692  1.7145
 2424SOL     OW18733   0.503   1.520   6.575  0.0099 -0.0667  0.1702
 2424SOL    HW118734   0.480   1.439   6.528 -2.5491  0.2056  0.9334
 2424SOL    HW218735   0.416   1.538   6.612 -1.5109  0.0652 -3.4179
 2425SOL     OW18736   3.086   2.217   6.687 -0.3141 -0.2542 -0.6283
 2425SOL    HW118737   3.117   2.148   6.628  1.6964 -0.3818  0.5734
 2425SOL    HW218738   2.997   2.219   6.653 -0.4425 -2.4322 -0.4299
 2426SOL     OW18739   0.827   2.876   0.309  0.6798  0.2490  0.0867
 2426SOL    HW118740   0.915   2.855   0.278  0.6435 -0.4447  0.4447
 2426SOL    HW218741   0.835   2.936   0.383  0.9765  0.9948 -0.5514
 2427SOL     OW18742   0.447   3.420   7.979 -0.1826  0.4838  0.2946
 2427SOL    HW118743   0.457   3.461   8.065  1.1941 -2.9931  1.7858
 2427SOL    HW218744   0.492   3.336   7.975 -1.3164 -0.0195 -2.2917
 2428SOL     OW18745   0.570   4.563   8.671 -0.2435  0.5245  0.9164
 2428SOL    HW118746   0.524   4.633   8.625 -1.5627 -0.6458  0.4367
 2428SOL    HW218747   0.648   4.574   8.618 -0.5261 -1.1212  0.1834
 2429SOL     OW18748   0.668   4.685   0.125 -0.5661 -0.5861  0.1357
 2429SOL    HW118749   0.759   4.667   0.099 -0.7027 -0.2258 -0.5860
 2429SOL    HW218750   0.692   0.009   0.206 -0.8332  1.7224 -1.0721
 2430SOL     OW18751   3.672   2.322   0.434  0.2608 -0.4463 -0.5997
 2430SOL    HW118752   3.747   2.316   0.493 -1.0142  0.8432  1.1339
 2430SOL    HW218753   3.599   2.302   0.493  1.7280  1.0118  1.7167
 2431SOL     OW18754   3.695   2.776  13.031  0.2371 -0.0467 -0.6296
 2431SOL    HW118755   3.634   2.768  12.958  0.5970 -0.1149 -0.9226
 2431SOL    HW218756   3.779   2.799  12.991 -0.3655 -0.3120 -2.0483
 2432SOL     OW18757   2.630   1.270   5.222 -0.1511  0.3194  0.4101
 2432SOL    HW118758   2.543   1.231   5.225  0.0506 -0.1038  0.7920
 2432SOL    HW218759   2.669   1.233   5.302 -0.9165 -2.3449 -0.4373
 2433SOL     OW18760   2.706   3.183  11.246 -0.6802  0.4000 -0.5928
 2433SOL    HW118761   2.688   3.187  11.340 -3.6425 -1.8184 -1.0530
 2433SOL    HW218762   2.763   3.258  11.232  0.1169 -0.0069  0.4761
 2434SOL     OW18763   2.001   3.682   2.408 -0.2544  0.2502 -0.6827
 2434SOL    HW118764   1.922   3.714   2.363 -2.0071 -0.7476  1.6503
 2434SOL    HW218765   1.966   3.593   2.412  0.5428 -0.0387 -0.1331
 2435SOL     OW18766   0.168   3.836   5.108  0.0573 -0.0967  0.1353
 2435SOL    HW118767   0.165   3.889   5.188  1.6325  0.4744 -0.1893
 2435SOL    HW218768   0.257   3.856   5.080 -0.5888 -1.8265 -3.0925
 2436SOL     OW18769   4.453   2.703   5.709  0.3814  1.0055  0.0723
 2436SOL    HW118770   4.446   2.721   5.803  0.2177 -2.6420  0.7819
 2436SOL    HW218771   4.401   2.772   5.669  1.5142  2.2156  0.6996
 2437SOL     OW18772   2.607   1.914   4.784 -0.1538  0.0242  0.7472
 2437SOL    HW118773   2.559   1.946   4.707  1.0654 -1.2504 -0.5318
 2437SOL    HW218774   2.547   1.871   4.845 -1.8633 -1.3620 -1.9287
 2438SOL     OW18775   0.789   1.768   7.057 -0.2354  0.0831  0.4516
 2438SOL    HW118776   0.832   1.845   7.095 -3.0266  1.4830  0.8614
 2438SOL    HW218777   0.849   1.697   7.078  1.2493  1.1536 -0.1881
 2439SOL     OW18778   1.283   2.787   8.219  0.4720 -0.5924  0.4666
 2439SOL    HW118779   1.377   2.783   8.232  0.5926 -0.1598 -0.2862
 2439SOL    HW218780   1.264   2.693   8.221 -1.0241 -0.2095  5.0755
 2440SOL     OW18781   3.309   2.158   9.964 -0.3155  0.3611  0.1597
 2440SOL    HW118782   3.331   2.242   9.925 -0.8266  0.5615  0.3056
 2440SOL    HW218783   3.215   2.147   9.950 -0.3441  0.7280  0.0596
 2441SOL     OW18784   1.489   2.973  13.886  0.3107 -0.0200 -0.0150
 2441SOL    HW118785   1.476   3.059  13.925  0.4157  0.1599 -0.3815
 2441SOL    HW218786   1.572   2.939  13.919 -0.0993 -0.6314  0.3924
 2442SOL     OW18787   2.446   2.195   9.605  0.0826 -0.0371  0.1333
 2442SOL    HW118788   2.517   2.201   9.669 -1.6102 -0.5792  2.0752
 2442SOL    HW218789   2.451   2.101   9.586  1.2451  0.0029  0.2726
 2443SOL     OW18790   3.456   3.637   3.423  0.0292 -0.8044  0.2466
 2443SOL    HW118791   3.384   3.633   3.486 -0.5340  3.6571 -0.0990
 2443SOL    HW218792   3.524   3.659   3.487  2.0723 -1.4170 -1.6979
 2444SOL     OW18793   1.337   0.854   6.695  0.0911  0.2903 -0.1729
 2444SOL    HW118794   1.348   0.874   6.788  0.3362  2.3361 -0.6460
 2444SOL    HW218795   1.424   0.872   6.659 -0.5846 -0.1919 -2.0456
 2445SOL     OW18796   0.687   2.011   8.079 -0.3133  0.5219  0.4289
 2445SOL    HW118797   0.689   1.981   7.988 -1.1100  3.1207 -0.4554
 2445SOL    HW218798   0.717   2.101   8.070 -0.4065  0.6636  1.4890
 2446SOL     OW18799   3.341   2.496   3.685 -0.0260 -0.2261 -0.0056
 2446SOL    HW118800   3.320   2.404   3.703  1.2029 -0.7597 -1.2632
 2446SOL    HW218801   3.366   2.498   3.593  0.2701  1.3478  0.1048
 2447SOL     OW18802   3.228   4.237   4.156  0.0439  0.5568 -0.2256
 2447SOL    HW118803   3.270   4.302   4.099 -0.1737 -0.8494 -1.9888
 2447SOL    HW218804   3.139   4.267   4.136 -0.1764  0.3486  0.4443
 2448SOL     OW18805   4.131   4.152   6.277 -0.0219 -0.1738  0.2849
 2448SOL    HW118806   4.120   4.231   6.330 -0.8420  0.5692 -0.9724
 2448SOL    HW218807   4.069   4.086   6.307 -1.1106  0.2461 -0.9808
 2449SOL     OW18808   0.646   3.343   0.383 -0.3935 -0.2784  0.0010
 2449SOL    HW118809   0.598   3.423   0.405  0.2939 -0.2798  1.4621
 2449SOL    HW218810   0.585   3.275   0.412 -0.6208 -0.4805 -0.9575
 2450SOL     OW18811   1.142   1.084   2.478  0.1780 -0.2127 -0.0515
 2450SOL    HW118812   1.101   1.040   2.552 -2.1156  1.3444 -0.3625
 2450SOL    HW218813   1.090   1.164   2.465  0.5449 -0.0038 -0.2228
 2451SOL     OW18814   2.452   2.148   8.899 -0.1292 -0.5982  0.0015
 2451SOL    HW118815   2.456   2.128   8.993  2.6954 -0.5927 -0.1165
 2451SOL    HW218816   2.531   2.203   8.901 -0.5956  0.0847 -0.3722
 2452SOL     OW18817   4.099   1.440   2.338 -0.1198 -0.4174  0.5192
 2452SOL    HW118818   4.155   1.508   2.300  0.7605 -1.8303 -0.7414
 2452SOL    HW218819   4.163   1.370   2.355 -0.4494 -0.2697  2.2924
 2453SOL     OW18820   0.354   0.762   1.104  0.0480  0.4886  1.0261
 2453SOL    HW118821   0.300   0.745   1.181 -0.1600 -3.6211 -0.0570
 2453SOL    HW218822   0.313   0.834   1.056 -0.7873 -0.3307  0.5162
 2454SOL     OW18823   1.920   0.522  15.658  0.4051  0.3369 -0.4713
 2454SOL    HW118824   1.991   0.581  15.686 -0.3343  0.2801  1.4816
 2454SOL    HW218825   1.854   0.582  15.623  0.5450  0.6478 -0.2005
 2455SOL     OW18826   0.163   4.620   5.408  0.9032  0.4899  0.0105
 2455SOL    HW118827   0.240   4.645   5.459  0.3116 -1.4819  1.8716
 2455SOL    HW218828   0.206   4.561   5.345 -1.7415  0.2063 -1.5288
 2456SOL     OW18829   3.881   1.390   5.801 -0.1625  0.3522  0.1753
 2456SOL    HW118830   3.974   1.380   5.819 -0.1014  2.8348  1.2242
 2456SOL    HW218831   3.882   1.392   5.705 -0.0666  0.2438  0.1756
 2457SOL     OW18832   3.401   4.611  17.189  0.2767 -0.0337  0.1170
 2457SOL    HW118833   3.310   4.639  17.191  0.3902  0.3414  0.0192
 2457SOL    HW218834   3.429   4.614  17.097  0.7167  2.4240  0.3349
 2458SOL     OW18835   2.892   3.745   4.953  0.6993  0.0431 -0.5652
 2458SOL    HW118836   2.905   3.800   4.875  1.1120  0.6956 -0.0403
 2458SOL    HW218837   2.947   3.793   5.014  2.1888 -1.6252 -0.5928
 2459SOL     OW18838   2.036   1.139   6.610 -0.2026  0.6351 -0.0493
 2459SOL    HW118839   2.099   1.209   6.622  0.4654 -0.6228  3.8639
 2459SOL    HW218840   2.096   1.068   6.588 -0.4635  0.1925  0.6728
 2460SOL     OW18841   4.684   1.073   8.503  0.4120 -0.1755  0.3074
 2460SOL    HW118842   4.623   1.142   8.529  1.6385  0.5749  1.2112
 2460SOL    HW218843   4.650   0.995   8.547 -2.5746  0.4343 -0.8724
 2461SOL     OW18844   1.688   0.188   5.219 -0.0298 -0.4277 -0.2836
 2461SOL    HW118845   1.613   0.129   5.211 -0.8487  0.4105  1.1824
 2461SOL    HW218846   1.670   0.229   5.303  0.4401  0.3064 -0.5477
 2462SOL     OW18847   4.520   1.647   4.755  0.3599  0.2786  0.2655
 2462SOL    HW118848   4.456   1.585   4.721 -2.3594  2.0557  2.1466
 2462SOL    HW218849   4.478   1.676   4.836 -0.3162 -1.4514  0.5416
 2463SOL     OW18850   3.881   0.415   0.763 -0.2923  0.1579 -0.4237
 2463SOL    HW118851   3.951   0.401   0.826  0.0624  0.9523 -0.6323
 2463SOL    HW218852   3.863   0.322   0.750  0.0933  0.0031  0.1448
 2464SOL     OW18853   4.337   4.138  10.053  0.1889  0.2771  0.1100
 2464SOL    HW118854   4.427   4.160  10.028  0.7981 -1.6294  0.6777
 2464SOL    HW218855   4.313   4.218  10.099 -0.9589  0.0475 -0.1014
 2465SOL     OW18856   2.994   3.227  15.290 -0.5938 -0.3828 -0.6574
 2465SOL    HW118857   3.046   3.150  15.267  1.3305  1.4370 -2.3250
 2465SOL    HW218858   2.977   3.219  15.384 -1.1581 -2.6265 -0.9527
 2466SOL     OW18859   4.690   4.335   3.408  0.0415  0.5392 -0.2415
 2466SOL    HW118860   4.630   4.336   3.483 -0.4459  3.4216 -0.6436
 2466SOL    HW218861   4.704   4.429   3.396  0.5242  0.5123  0.1511
 2467SOL     OW18862   1.598   1.749  12.913  0.1722 -0.0187  0.3430
 2467SOL    HW118863   1.628   1.839  12.905 -1.1544  0.3409 -0.5147
 2467SOL    HW218864   1.555   1.731  12.829  0.6147 -0.5526  0.2286
 2468SOL     OW18865   1.874   3.887  15.331  0.7144  0.5035 -0.1545
 2468SOL    HW118866   1.872   3.964  15.388  0.0650 -1.0202  1.8618
 2468SOL    HW218867   1.930   3.831  15.384  1.7660  0.2412 -1.5269
 2469SOL     OW18868   0.346   1.197   6.976 -0.8105 -0.3463 -0.1565
 2469SOL    HW118869   0.344   1.113   7.022 -0.5852 -0.0966  0.3156
 2469SOL    HW218870   0.395   1.174   6.897 -0.6147  2.0567 -0.7643
 2470SOL     OW18871   3.237   4.542  17.513  0.2614  0.0970 -0.1944
 2470SOL    HW118872   3.296   4.615  17.529  1.1896 -0.8230  0.5783
 2470SOL    HW218873   3.231   4.538  17.417  1.9713 -0.0940 -0.2892
 2471SOL     OW18874   0.628   1.796   7.526 -0.5856 -0.9442  0.3207
 2471SOL    HW118875   0.611   1.751   7.443  0.0827 -0.6192  0.0078
 2471SOL    HW218876   0.553   1.856   7.521 -0.4716 -0.7435  0.9549
 2472SOL     OW18877   1.689   1.598   6.220 -0.2273 -0.1504  0.1670
 2472SOL    HW118878   1.728   1.539   6.284  0.5252  1.2178  0.9765
 2472SOL    HW218879   1.598   1.595   6.249  0.1934 -0.5462  1.4220
 2473SOL     OW18880   4.188   2.678   3.610  0.0391 -0.4551  0.0794
 2473SOL    HW118881   4.156   2.751   3.558 -0.3937 -0.6803  0.0268
 2473SOL    HW218882   4.121   2.697   3.676 -1.5928  0.8909 -1.9917
 2474SOL     OW18883   3.479   0.390   3.841  0.3535  0.6653 -0.1892
 2474SOL    HW118884   3.516   0.474   3.813  0.2383  1.1742  1.1995
 2474SOL    HW218885   3.482   0.411   3.934 -0.0121 -0.1919  0.0194
 2475SOL     OW18886   2.871   3.270   2.944  0.1256 -0.1451  0.4361
 2475SOL    HW118887   2.876   3.290   3.037 -1.4685  0.7374  0.3256
 2475SOL    HW218888   2.910   3.182   2.936 -0.4128 -0.1735 -2.1255
 2476SOL     OW18889   2.214   3.604  11.336  0.4199 -0.1427  0.6167
 2476SOL    HW118890   2.157   3.679  11.318 -0.4990  0.0183  4.2927
 2476SOL    HW218891   2.150   3.536  11.316  0.4742 -0.4590  1.5247
 2477SOL     OW18892   3.772   1.259   5.262 -0.2768  0.0915  0.0548
 2477SOL    HW118893   3.757   1.235   5.353  1.5153 -1.2553 -0.0079
 2477SOL    HW218894   3.758   1.354   5.261  0.3030  0.1827  0.6686
 2478SOL     OW18895   0.583   3.235   1.179  0.2808  0.5038 -0.1889
 2478SOL    HW118896   0.522   3.271   1.114 -0.4620 -0.5268 -0.0589
 2478SOL    HW218897   0.543   3.148   1.181  1.9812 -0.2558  0.9055
 2479SOL     OW18898   4.171   2.296  13.260  0.6298  0.0910  0.9064
 2479SOL    HW118899   4.197   2.333  13.345  0.4371  0.8567  0.6257
 2479SOL    HW218900   4.105   2.236  13.294 -2.7023  0.9328 -4.0794
 2480SOL     OW18901   0.129   0.397  14.883  0.6694 -0.3870 -0.4730
 2480SOL    HW118902   0.171   0.336  14.823 -3.0255 -2.3525 -1.1050
 2480SOL    HW218903   0.195   0.396  14.953  0.0369  1.7021  0.1721
 2481SOL     OW18904   4.182   4.604   5.915  0.1492 -0.1436 -0.2728
 2481SOL    HW118905   4.160   4.695   5.932 -2.9168 -0.8764 -0.2678
 2481SOL    HW218906   4.103   4.575   5.869 -0.2474 -0.0906  0.3635
 2482SOL     OW18907   3.513   0.937   7.230 -0.2317  0.3077  0.1687
 2482SOL    HW118908   3.555   0.984   7.302  1.8155  1.8067 -2.0026
 2482SOL    HW218909   3.556   0.969   7.151 -2.7471  1.6015 -0.6931
 2483SOL     OW18910   4.110   1.279   5.901 -0.0984  1.2941  0.2504
 2483SOL    HW118911   4.119   1.322   5.986  1.1110 -1.3225  1.4138
 2483SOL    HW218912   4.138   1.189   5.915  2.1383  2.2153  1.5968
 2484SOL     OW18913   1.070   0.937   2.704  0.0911 -0.0968 -0.1864
 2484SOL    HW118914   1.014   0.863   2.681 -0.0656 -0.3273  0.9375
 2484SOL    HW218915   1.053   0.943   2.798  3.3737  1.6207  0.2984
 2485SOL     OW18916   2.949   4.603   5.019 -0.7981  0.1524  0.2429
 2485SOL    HW118917   2.949   4.685   4.971 -0.4458  0.3095  0.5082
 2485SOL    HW218918   3.044   4.604   5.035 -0.9859  1.6334  1.3056
 2486SOL     OW18919   2.912   3.735  13.827 -0.3088 -0.3308 -1.2561
 2486SOL    HW118920   2.982   3.794  13.856 -0.5421 -1.3173  1.3377
 2486SOL    HW218921   2.930   3.660  13.884  0.9381  0.4799 -0.5783
 2487SOL     OW18922   4.489   4.382   6.771  0.2141 -0.1110  0.0555
 2487SOL    HW118923   4.545   4.452   6.804 -0.1259 -0.2836  0.9825
 2487SOL    HW218924   4.417   4.389   6.834 -0.2181 -1.3140 -0.2951
 2488SOL     OW18925   4.102   2.676   4.793 -0.2148 -0.8756  0.6465
 2488SOL    HW118926   4.155   2.749   4.826 -0.5222 -0.5260  0.3762
 2488SOL    HW218927   4.031   2.733   4.761  1.4958  0.2111 -1.2684
 2489SOL     OW18928   2.415   2.214  13.157  0.0544  0.2854  0.8816
 2489SOL    HW118929   2.462   2.297  13.170  1.4575 -0.2059 -1.0900
 2489SOL    HW218930   2.454   2.159  13.224  1.0660  3.2824  2.7717
 2490SOL     OW18931   1.079   3.578  15.421  0.2055 -0.1744  0.3578
 2490SOL    HW118932   1.156   3.605  15.471 -1.3278  2.2331  1.4357
 2490SOL    HW218933   1.110   3.597  15.332  1.9938 -2.1441  0.5426
 2491SOL     OW18934   4.043   3.085  14.253 -0.2591 -0.0268 -0.1260
 2491SOL    HW118935   4.024   3.035  14.173 -1.1214 -0.7398  0.5294
 2491SOL    HW218936   4.040   3.175  14.219  0.0782 -1.0509 -2.8533
 2492SOL     OW18937   0.083   4.277  13.348  0.0484  0.2824 -0.2361
 2492SOL    HW118938   0.002   4.328  13.341 -0.8277 -0.8102  1.8064
 2492SOL    HW218939   0.106   4.303  13.438  0.3498 -2.3791  0.4595
 2493SOL     OW18940   0.456   0.102   6.420  0.7166  0.1671  0.0087
 2493SOL    HW118941   0.492   0.187   6.393 -0.2934  1.1355  1.6525
 2493SOL    HW218942   0.370   0.121   6.381  0.7033  1.5355  0.6811
 2494SOL     OW18943   2.231   0.956   3.831  0.1629  0.3310  0.2955
 2494SOL    HW118944   2.310   1.010   3.821  0.5977  0.1213  2.6744
 2494SOL    HW218945   2.272   0.880   3.790 -0.7288 -0.9169  1.7311
 2495SOL     OW18946   1.544   2.005   5.064  0.2315  0.4302  0.2317
 2495SOL    HW118947   1.561   2.042   5.150  1.1370  0.4335  0.0551
 2495SOL    HW218948   1.492   2.080   5.035  0.1292  0.3327  0.1647
 2496SOL     OW18949   2.255   1.840   8.160 -0.1973  0.2110 -0.0121
 2496SOL    HW118950   2.284   1.750   8.178  0.4633  0.7642  1.6726
 2496SOL    HW218951   2.226   1.861   8.249 -0.5465  2.3776 -0.6431
 2497SOL     OW18952   0.180   4.578   6.297 -0.3864 -0.2783 -0.3821
 2497SOL    HW118953   0.248   4.513   6.314 -0.5786 -0.2041  0.7169
 2497SOL    HW218954   0.162   4.616   6.384  1.2696 -1.9223  0.6850
 2498SOL     OW18955   2.033   1.033   4.789 -0.3277  0.0071 -0.2996
 2498SOL    HW118956   1.988   0.951   4.771  0.6616 -0.4004 -0.8997
 2498SOL    HW218957   1.956   1.088   4.804  0.4408  0.9534  0.1537
 2499SOL     OW18958   3.271   1.553  11.911  0.0538  0.4942  0.6308
 2499SOL    HW118959   3.245   1.644  11.899  2.5075  0.7383 -2.7460
 2499SOL    HW218960   3.365   1.556  11.898 -0.0748 -0.4606 -0.5559
 2500SOL     OW18961   4.477   0.051   4.705  0.0383  0.4319 -0.5710
 2500SOL    HW118962   4.445   0.140   4.718  0.5490  0.4471  0.6456
 2500SOL    HW218963   4.411   0.021   4.643 -0.2041 -0.8397  0.3075
 2501SOL     OW18964   3.658   2.770  11.622  0.0513 -0.0172 -0.0082
 2501SOL    HW118965   3.590   2.707  11.601 -0.3452  0.4401 -0.0966
 2501SOL    HW218966   3.683   2.801  11.535  1.8162 -3.4060 -0.7159
 2502SOL     OW18967   0.968   3.030   3.377 -0.1805  0.3916 -0.3631
 2502SOL    HW118968   0.900   3.097   3.382  1.1583  1.8321 -1.5376
 2502SOL    HW218969   1.002   3.044   3.289 -1.0756  0.2758 -0.7346
 2503SOL     OW18970   1.377   0.657   8.187 -0.4178 -0.4715 -0.1964
 2503SOL    HW118971   1.356   0.618   8.102  1.6591  1.2086 -1.5050
 2503SOL    HW218972   1.290   0.681   8.218  0.2663  0.6023  0.8718
 2504SOL     OW18973   0.474   4.284   2.000 -0.1508  0.2212 -0.2276
 2504SOL    HW118974   0.484   4.196   1.966  0.3491 -0.6476  2.1338
 2504SOL    HW218975   0.380   4.304   2.002 -0.1398  0.2775 -0.2668
 2505SOL     OW18976   1.084   1.438  11.079  0.1105 -0.4589  0.6972
 2505SOL    HW118977   1.153   1.504  11.090  1.0682 -1.1251 -1.1712
 2505SOL    HW218978   1.129   1.360  11.046  0.5918  0.0457  0.1340
 2506SOL     OW18979   3.688   0.341   8.092 -0.3371 -0.1137  0.2386
 2506SOL    HW118980   3.695   0.312   8.001  0.8399 -0.9225  0.5834
 2506SOL    HW218981   3.712   0.431   8.069  0.7957 -0.3076  0.6582
 2507SOL     OW18982   3.102   3.144   6.040 -0.4138 -0.4069  0.0562
 2507SOL    HW118983   3.009   3.161   6.021 -0.5183 -0.2413  0.7115
 2507SOL    HW218984   3.121   3.059   6.001 -0.2474 -0.9464  1.3364
 2508SOL     OW18985   4.191   3.487   1.552  0.4361 -0.3661  0.2270
 2508SOL    HW118986   4.263   3.548   1.565  1.0580 -1.3471  1.4251
 2508SOL    HW218987   4.190   3.482   1.456  0.7350 -2.3974  0.3143
 2509SOL     OW18988   3.904   4.307   6.542  0.0969  0.3036  0.5246
 2509SOL    HW118989   3.851   4.375   6.501 -0.8029  0.0270  1.2214
 2509SOL    HW218990   3.990   4.346   6.557 -0.6657  2.3834 -0.6194
 2510SOL     OW18991   0.607   2.515  15.689  0.0355  0.0757 -0.1531
 2510SOL    HW118992   0.587   2.566  15.768  2.5140  0.2270  0.3802
 2510SOL    HW218993   0.684   2.564  15.662 -0.6810  0.5806 -1.2703
 2511SOL     OW18994   2.151   3.145   4.453 -0.5936 -0.4824 -0.7048
 2511SOL    HW118995   2.074   3.200   4.445 -0.3993 -0.2457 -0.9300
 2511SOL    HW218996   2.186   3.189   4.530 -0.4336  2.2578 -2.3443
 2512SOL     OW18997   0.034   1.924   7.574  0.6323  0.2270 -0.0054
 2512SOL    HW118998   4.684   1.911   7.637 -0.9562 -0.2494 -1.9139
 2512SOL    HW218999   0.079   1.999   7.614  1.6913 -0.3664 -0.1145
 2513SOL     OW19000   1.936   0.995   8.329  0.6231 -0.0867  0.0204
 2513SOL    HW119001   1.964   0.906   8.350  0.5165  0.1183  1.0251
 2513SOL    HW219002   1.864   1.004   8.392  2.1830 -0.0755  1.8115
 2514SOL     OW19003   0.502   0.034  10.746  0.3490  0.0183 -0.9398
 2514SOL    HW119004   0.586   4.710  10.737 -0.1378 -1.1825  0.5715
 2514SOL    HW219005   0.455   0.003  10.668 -0.0898  1.3801 -1.2187
 2515SOL     OW19006   2.710   3.205   8.846 -0.4617  0.2898 -0.1853
 2515SOL    HW119007   2.661   3.280   8.814  1.6084  1.6975 -0.0623
 2515SOL    HW219008   2.748   3.246   8.924 -1.2972 -0.0184  0.3838
 2516SOL     OW19009   4.400   3.771   8.721  0.6621  0.0671  0.5916
 2516SOL    HW119010   4.458   3.697   8.703  1.9108  1.0003  0.8086
 2516SOL    HW219011   4.334   3.727   8.775  0.0351  0.9920  0.5705
 2517SOL     OW19012   2.262   1.930  13.299 -0.0570 -0.2389  0.1103
 2517SOL    HW119013   2.253   1.861  13.365  1.0318  0.1378  0.6598
 2517SOL    HW219014   2.268   2.010  13.351 -0.7689  1.3611 -2.2610
 2518SOL     OW19015   0.890   0.674   1.376  0.2309  0.1961  0.4876
 2518SOL    HW119016   0.936   0.642   1.298 -1.7456  0.5992 -0.8368
 2518SOL    HW219017   0.910   0.596   1.429 -0.9360 -0.5666 -0.2101
 2519SOL     OW19018   3.746   2.852  16.158 -0.2549  0.4682  0.3727
 2519SOL    HW119019   3.786   2.778  16.203 -1.4827 -0.4608 -0.0810
 2519SOL    HW219020   3.713   2.814  16.077  1.8033  2.1015 -1.2347
 2520SOL     OW19021   1.568   1.936   5.682  0.2065 -0.9249 -0.2239
 2520SOL    HW119022   1.552   2.011   5.625 -0.1536  0.6367  1.9401
 2520SOL    HW219023   1.521   1.861   5.646 -2.5183 -0.5012  2.4479
 2521SOL     OW19024   3.268   0.100  14.615 -0.0357  0.3378  0.3384
 2521SOL    HW119025   3.328   0.153  14.668  0.2786 -1.6746  2.0097
 2521SOL    HW219026   3.256   0.035  14.684 -0.9273  0.3902  0.2276
 2522SOL     OW19027   0.168   3.790   8.246  0.5351  0.1410  0.2592
 2522SOL    HW119028   0.148   3.699   8.224  2.7647 -0.6740  1.7280
 2522SOL    HW219029   0.088   3.828   8.284  1.2283 -0.5185  2.3419
 2523SOL     OW19030   1.131   1.492   6.762 -0.3806  0.4587 -0.7157
 2523SOL    HW119031   1.199   1.499   6.695 -0.7332  1.2051 -1.0006
 2523SOL    HW219032   1.099   1.582   6.774  0.6299  0.6897  0.3118
 2524SOL     OW19033   4.043   0.253   6.184  0.1493  0.1765 -0.0346
 2524SOL    HW119034   3.963   0.297   6.154 -0.1772 -0.4694 -0.1250
 2524SOL    HW219035   4.072   0.301   6.262  1.6248 -1.9410  0.7185
 2525SOL     OW19036   0.480   0.375   8.033 -0.8298 -0.3944  0.2126
 2525SOL    HW119037   0.437   0.340   7.955 -0.0986 -2.8574  0.9463
 2525SOL    HW219038   0.531   0.304   8.070 -0.9620 -1.9704 -2.6353
 2526SOL     OW19039   3.436   3.045   7.170  0.3316 -0.0189 -0.0550
 2526SOL    HW119040   3.405   2.964   7.130 -2.3042  0.9821  0.0041
 2526SOL    HW219041   3.529   3.023   7.175  0.0149 -1.4683 -0.7807
 2527SOL     OW19042   2.816   1.556   0.772 -0.0521 -0.3211  0.2359
 2527SOL    HW119043   2.764   1.615   0.827  0.1770  1.4426 -1.4429
 2527SOL    HW219044   2.875   1.514   0.835 -0.1219 -0.1851  0.3920
 2528SOL     OW19045   1.865   1.989  12.576  0.1254 -0.6111 -0.1918
 2528SOL    HW119046   1.799   2.056  12.592  1.0437  0.0354  0.8728
 2528SOL    HW219047   1.839   1.960  12.488 -1.3105 -3.8670  1.3135
 2529SOL     OW19048   4.639   0.659   2.414  0.6189 -0.3460  0.2152
 2529SOL    HW119049   4.641   0.642   2.508  0.6456 -0.0848  0.2624
 2529SOL    HW219050   0.013   0.649   2.403  0.2870 -2.0718 -0.9317
 2530SOL     OW19051   2.731   1.415  13.142 -0.4370 -0.2189  0.2101
 2530SOL    HW119052   2.712   1.498  13.186  0.7298 -0.6361  1.4900
 2530SOL    HW219053   2.818   1.398  13.176 -0.2116  3.4801  1.4254
 2531SOL     OW19054   0.435   3.729  11.482  0.2756  0.0105  0.0058
 2531SOL    HW119055   0.444   3.816  11.441  1.9475 -1.5070 -2.8233
 2531SOL    HW219056   0.461   3.671  11.411 -0.4733 -0.6326  0.2636
 2532SOL     OW19057   0.555   4.412   3.140  0.1839  0.3186 -0.1509
 2532SOL    HW119058   0.522   4.422   3.229 -1.6361 -1.8926 -0.5711
 2532SOL    HW219059   0.504   4.339   3.103  0.6069 -0.3905  0.6806
 2533SOL     OW19060   1.835   1.993   8.628 -0.5573 -0.3124 -0.5111
 2533SOL    HW119061   1.811   1.972   8.718 -1.9928  0.6188 -0.6755
 2533SOL    HW219062   1.906   1.932   8.611 -0.7492 -0.5806 -0.3398
 2534SOL     OW19063   0.389   2.389   6.979  0.4106 -0.0940 -0.5628
 2534SOL    HW119064   0.408   2.475   6.942  0.2839 -0.1519 -0.7634
 2534SOL    HW219065   0.455   2.375   7.047 -1.3005 -0.0790  1.1103
 2535SOL     OW19066   3.856   1.492  11.771 -0.1439  0.3791 -0.6867
 2535SOL    HW119067   3.941   1.479  11.728 -0.5313 -0.3828 -1.2233
 2535SOL    HW219068   3.838   1.584  11.752  1.6511  0.7333 -0.6848
 2536SOL     OW19069   1.348   4.402   7.610  0.1252 -0.3221  0.2309
 2536SOL    HW119070   1.390   4.487   7.605  0.4745 -0.6061 -1.5951
 2536SOL    HW219071   1.348   4.388   7.705  2.8101 -0.5157  0.2083
 2537SOL     OW19072   1.255   0.257   8.768  0.6753 -0.3021 -0.2003
 2537SOL    HW119073   1.249   0.268   8.863  0.6183  1.3379 -0.3899
 2537SOL    HW219074   1.262   0.162   8.760 -2.2535 -0.3168 -2.4692
 2538SOL     OW19075   2.521   2.458   9.845  0.0306 -0.4954  0.0291
 2538SOL    HW119076   2.585   2.394   9.815  0.4668 -0.4465  0.8464
 2538SOL    HW219077   2.522   2.498   9.758  0.8890  1.5260  0.9569
 2539SOL     OW19078   2.006   1.229   8.184 -0.1053  0.8689  0.0949
 2539SOL    HW119079   1.998   1.136   8.201  1.0903  0.8522  0.5941
 2539SOL    HW219080   2.062   1.220   8.107 -0.6758 -2.3422  0.0873
 2540SOL     OW19081   4.493   3.749   0.938 -0.4409  0.0628 -0.7920
 2540SOL    HW119082   4.502   3.841   0.961  0.4284  0.9279 -4.5646
 2540SOL    HW219083   4.487   3.705   1.023 -1.5860  1.1304 -0.3262
 2541SOL     OW19084   1.774   4.579  15.178  0.5620  0.0044 -0.0478
 2541SOL    HW119085   1.690   4.608  15.216  0.7166  1.8795 -1.1160
 2541SOL    HW219086   1.786   4.653  15.118  0.0169 -0.7252 -1.0557
 2542SOL     OW19087   2.839   2.115   9.967  0.4838  0.2601  0.2146
 2542SOL    HW119088   2.780   2.146  10.036  2.1126  1.9465  0.8585
 2542SOL    HW219089   2.779   2.099   9.894  2.0575  0.1693 -1.0573
 2543SOL     OW19090   2.158   2.214   3.506 -0.0388  0.0795  0.2165
 2543SOL    HW119091   2.167   2.127   3.545  1.2558 -1.0275 -2.5425
 2543SOL    HW219092   2.123   2.266   3.578 -1.4964 -3.4910  2.0797
 2544SOL     OW19093   1.526   3.940  12.059 -0.4326  0.6343 -0.0501
 2544SOL    HW119094   1.492   3.942  11.969 -3.0400  1.3626  0.9504
 2544SOL    HW219095   1.614   3.977  12.051 -1.4189  3.3454  1.6941
 2545SOL     OW19096   0.015   4.424   8.566 -0.9448 -0.3870  0.5721
 2545SOL    HW119097   0.018   4.491   8.634 -0.7745  0.5943 -0.3844
 2545SOL    HW219098   0.084   4.459   8.509 -2.0497  1.1567  0.1916
 2546SOL     OW19099   0.525   2.723   9.157  0.3460 -0.9081 -0.0989
 2546SOL    HW119100   0.551   2.758   9.242 -1.0677 -0.3012  0.0767
 2546SOL    HW219101   0.434   2.751   9.151  1.2153  1.6118 -1.5569
 2547SOL     OW19102   2.378   4.156  16.245  0.4895  0.2289  0.2069
 2547SOL    HW119103   2.335   4.110  16.174 -0.5960  1.4797  0.0536
 2547SOL    HW219104   2.430   4.219  16.195 -0.4358  0.9438  0.1540
 2548SOL     OW19105   1.884   1.634   2.981  0.2187  0.7517 -0.9428
 2548SOL    HW119106   1.888   1.721   3.021 -0.6331  0.4573 -0.2122
 2548SOL    HW219107   1.908   1.579   3.056  0.7648  1.6495 -0.4512
 2549SOL     OW19108   0.389   2.330   0.172 -0.1634  0.1142  0.1400
 2549SOL    HW119109   0.341   2.333   0.255  1.9346  0.1066  1.3595
 2549SOL    HW219110   0.444   2.408   0.167  0.1758 -0.1438 -0.1322
 2550SOL     OW19111   3.302   0.858  16.717  0.2862  0.4923  0.3732
 2550SOL    HW119112   3.327   0.945  16.747 -1.0759  0.3287  1.9640
 2550SOL    HW219113   3.378   0.838  16.663 -0.2316 -1.1112  0.2559
 2551SOL     OW19114   2.573   0.437   1.204  0.5850 -0.1850 -0.5184
 2551SOL    HW119115   2.555   0.484   1.285 -0.1093 -2.3032  0.5464
 2551SOL    HW219116   2.503   0.372   1.207 -0.4910  0.9889 -0.1056
 2552SOL     OW19117   3.529   1.986   5.200 -0.1606 -0.1667  0.1796
 2552SOL    HW119118   3.573   2.015   5.120 -0.5709 -1.7213 -0.6068
 2552SOL    HW219119   3.460   2.053   5.207 -0.1554 -0.4372  2.7821
 2553SOL     OW19120   4.241   0.612  17.626  0.7440 -0.5841  0.4167
 2553SOL    HW119121   4.289   0.550  17.680 -0.5242  0.4511  2.7160
 2553SOL    HW219122   4.261   0.566  17.544 -1.2737 -1.2063  0.2846
 2554SOL     OW19123   1.188   4.587   2.079 -0.3858  0.3955 -0.0690
 2554SOL    HW119124   1.193   4.510   2.135 -0.5538  0.0168 -0.5748
 2554SOL    HW219125   1.102   4.576   2.039 -0.8547  2.0586  0.4672
 2555SOL     OW19126   1.394   3.081   2.834  0.4972 -0.0656 -0.6068
 2555SOL    HW119127   1.444   3.011   2.877  0.1186 -0.2519 -0.4648
 2555SOL    HW219128   1.456   3.133   2.783 -0.4246  2.0817  0.4980
 2556SOL     OW19129   2.375   2.676   9.074  0.0322  0.1987 -0.3990
 2556SOL    HW119130   2.353   2.653   8.984 -1.0554  1.6811 -0.5048
 2556SOL    HW219131   2.362   2.591   9.117 -0.6358 -0.5838 -2.1423
 2557SOL     OW19132   3.150   0.097  12.291  0.3880 -0.0024  0.0263
 2557SOL    HW119133   3.146   0.130  12.202 -1.6630  1.2452  0.5790
 2557SOL    HW219134   3.161   0.004  12.272  2.4395  0.3070 -0.1919
 2558SOL     OW19135   2.786   3.996   0.743 -0.2381 -0.3713  0.5781
 2558SOL    HW119136   2.744   4.066   0.692  1.1986  1.8663  2.4714
 2558SOL    HW219137   2.727   3.988   0.818 -0.5635 -0.4212  0.3164
 2559SOL     OW19138   1.297   1.494   5.019 -0.0149 -0.2137  0.1077
 2559SOL    HW119139   1.289   1.422   5.082 -1.1163 -2.2527 -2.3268
 2559SOL    HW219140   1.243   1.565   5.052 -0.0055  0.2290 -0.8285
 2560SOL     OW19141   2.075   3.227  16.739  0.0829  0.6610 -0.0176
 2560SOL    HW119142   2.021   3.236  16.661  1.7620 -0.6918 -1.3383
 2560SOL    HW219143   2.116   3.143  16.719  0.7774  0.8018  0.8361
 2561SOL     OW19144   1.949   4.152  10.381  0.0904  0.0268  0.5313
 2561SOL    HW119145   2.035   4.178  10.412 -0.3132  1.5624  0.3745
 2561SOL    HW219146   1.952   4.056  10.376 -1.0689 -0.1490  2.8525
 2562SOL     OW19147   0.886   1.159   4.060 -0.0922  0.0829  0.6082
 2562SOL    HW119148   0.853   1.101   3.992  0.5044  2.0717 -1.3564
 2562SOL    HW219149   0.976   1.160   4.026 -0.7359 -0.6645 -1.0968
 2563SOL     OW19150   4.348   1.845   6.905 -0.0708 -0.3163 -0.4199
 2563SOL    HW119151   4.372   1.856   6.997 -0.2181  0.8390 -0.5304
 2563SOL    HW219152   4.411   1.783   6.868  0.7282  0.9559 -1.1486
 2564SOL     OW19153   2.292   4.341   0.298  0.1090  0.3092 -0.4025
 2564SOL    HW119154   2.221   4.380   0.350 -1.1220 -0.4246 -1.5178
 2564SOL    HW219155   2.353   4.411   0.276  1.0892 -0.9602 -1.6943
 2565SOL     OW19156   0.276   2.792  12.610 -0.0132 -0.0082 -0.3646
 2565SOL    HW119157   0.329   2.730  12.660 -1.2939 -0.8197 -0.0107
 2565SOL    HW219158   0.338   2.815  12.540  0.8779  0.4434  0.5713
 2566SOL     OW19159   1.405   0.640   2.747 -0.5773 -0.8036  0.1844
 2566SOL    HW119160   1.377   0.675   2.832 -1.6211  0.8065 -0.8211
 2566SOL    HW219161   1.463   0.567   2.770 -0.5958 -0.4279  1.4256
 2567SOL     OW19162   3.972   0.820   4.086  0.1024 -0.0976  0.5820
 2567SOL    HW119163   4.002   0.811   3.995  0.3142  3.2091  0.3280
 2567SOL    HW219164   4.044   0.768   4.122 -1.6516 -3.3173 -0.6268
 2568SOL     OW19165   4.677   2.706   1.765 -0.1091  0.1818 -0.2923
 2568SOL    HW119166   4.595   2.738   1.803  0.7794  1.1488  0.7826
 2568SOL    HW219167   4.634   2.681   1.683 -1.0541  2.3103 -0.4503
 2569SOL     OW19168   3.060   2.936   6.323  0.3713  0.2245  0.0868
 2569SOL    HW119169   3.053   2.843   6.301 -0.7270 -0.0978  1.7814
 2569SOL    HW219170   2.979   2.964   6.280  0.8927  1.0522 -0.3347
 2570SOL     OW19171   1.095   4.066   2.073 -0.4245  0.3816 -0.4163
 2570SOL    HW119172   1.117   4.089   2.163 -4.0799 -1.4195  0.9359
 2570SOL    HW219173   1.146   3.985   2.069 -0.6724  0.2190 -0.3191
 2571SOL     OW19174   1.633   0.719   7.380 -0.1428  0.3539  0.0672
 2571SOL    HW119175   1.677   0.711   7.295 -0.4929  2.4696 -0.3174
 2571SOL    HW219176   1.610   0.626   7.381  2.6632 -0.3759 -1.5539
 2572SOL     OW19177   4.442   4.548   3.474 -0.4604 -0.4506 -0.4380
 2572SOL    HW119178   4.411   4.494   3.401  1.8659 -0.8710 -1.1205
 2572SOL    HW219179   4.410   4.631   3.440 -1.9780 -0.3604  1.1873
 2573SOL     OW19180   1.781   1.994  12.264 -0.7659 -0.3799  0.0619
 2573SOL    HW119181   1.840   2.063  12.235 -1.4735  1.2152  2.4629
 2573SOL    HW219182   1.715   1.994  12.195 -1.7179 -1.0790  0.9740
 2574SOL     OW19183   3.760   4.704   6.928 -0.3585  0.4464 -0.0901
 2574SOL    HW119184   3.666   4.687   6.937 -0.2851  0.9412  1.5829
 2574SOL    HW219185   3.772   0.018   7.016  1.9196 -0.5576  0.0120
 2575SOL     OW19186   0.570   4.412   4.838 -0.0813 -0.0240 -0.6600
 2575SOL    HW119187   0.654   4.395   4.796  0.8744  0.3539  1.0679
 2575SOL    HW219188   0.532   4.472   4.774 -1.2318 -0.2766 -0.2147
 2576SOL     OW19189   3.206   2.777  17.561 -0.3303  0.4234 -0.2211
 2576SOL    HW119190   3.210   2.840  17.633 -0.6942 -1.4855  1.4831
 2576SOL    HW219191   3.216   2.701  17.620 -0.6940  0.1364 -0.5327
 2577SOL     OW19192   4.206   3.699  13.937 -0.1905  0.2215  0.8917
 2577SOL    HW119193   4.178   3.756  14.008  0.5820  0.7143  0.7976
 2577SOL    HW219194   4.287   3.742  13.909  0.8577 -1.5312  1.1810
 2578SOL     OW19195   0.912   4.424  11.859 -0.1554 -0.4667  0.1082
 2578SOL    HW119196   0.955   4.345  11.892  1.9849  1.7237  2.5906
 2578SOL    HW219197   0.984   4.481  11.835 -0.1232  0.2058  1.7953
 2579SOL     OW19198   3.790   3.935   9.461  0.3225  0.1532  0.6794
 2579SOL    HW119199   3.759   3.873   9.527 -0.0501  1.4965  1.7496
 2579SOL    HW219200   3.856   3.879   9.420 -1.0929  0.0206 -1.3822
 2580SOL     OW19201   1.311   2.778   3.526  0.1753 -0.0446 -0.1996
 2580SOL    HW119202   1.293   2.774   3.432  0.7797  3.3637 -0.4854
 2580SOL    HW219203   1.274   2.864   3.548 -1.0612 -0.8750  0.9846
 2581SOL     OW19204   1.710   0.370   2.684  0.2470 -0.3174 -0.3048
 2581SOL    HW119205   1.704   0.421   2.765  2.8975 -1.4533  0.6202
 2581SOL    HW219206   1.677   0.440   2.628  1.3275 -0.2412 -0.8518
 2582SOL     OW19207   3.687   2.134   6.924  0.3893 -0.0118 -0.2289
 2582SOL    HW119208   3.666   2.191   6.850 -1.4325  0.4102  0.6174
 2582SOL    HW219209   3.669   2.204   6.987 -0.7084  0.8148 -1.4609
 2583SOL     OW19210   4.325   4.436   0.429  0.1755 -0.5964  0.2439
 2583SOL    HW119211   4.377   4.502   0.474 -0.0365 -0.5277  0.3884
 2583SOL    HW219212   4.238   4.447   0.468 -0.1907  0.9802 -1.0269
 2584SOL     OW19213   2.594   0.054   8.629 -0.5970 -0.9587  0.0042
 2584SOL    HW119214   2.595   4.699   8.687  0.4728 -0.6839  0.3381
 2584SOL    HW219215   2.669   0.104   8.663 -0.9639  0.5569 -1.4112
 2585SOL     OW19216   3.096   0.349   2.587  0.0024 -0.5319  0.1728
 2585SOL    HW119217   3.134   0.389   2.665 -1.4313  0.6067  0.2938
 2585SOL    HW219218   3.040   0.281   2.624 -0.0608 -0.5226  0.0934
 2586SOL     OW19219   0.730   1.895   7.827 -0.2519 -0.9183 -0.1891
 2586SOL    HW119220   0.747   1.964   7.762 -1.2533  0.6756  1.2392
 2586SOL    HW219221   0.671   1.844   7.772 -2.0403  1.7324 -0.7240
 2587SOL     OW19222   3.808   4.681   5.541 -0.1203 -0.0748 -0.2179
 2587SOL    HW119223   3.723   4.665   5.499 -0.1945 -0.9073  0.2387
 2587SOL    HW219224   3.840   0.032   5.488  0.5976 -0.8980 -0.9034
 2588SOL     OW19225   2.916   2.716  14.068 -0.3409 -0.2039  0.2489
 2588SOL    HW119226   2.982   2.779  14.039 -1.7045  1.5899  1.0511
 2588SOL    HW219227   2.969   2.651  14.114  0.2608  1.0027  1.2388
 2589SOL     OW19228   2.099   2.752   8.243  0.4397  0.0169 -0.1896
 2589SOL    HW119229   2.169   2.739   8.180  0.8673 -0.4585  0.3821
 2589SOL    HW219230   2.037   2.791   8.182 -1.0494 -0.6339  0.9052
 2590SOL     OW19231   2.988   4.429   3.868  0.2730 -0.6985 -0.3786
 2590SOL    HW119232   2.902   4.458   3.840 -0.0142 -1.2468 -0.0811
 2590SOL    HW219233   3.005   4.346   3.823 -0.7440  0.1255 -2.2756
 2591SOL     OW19234   2.513   1.355   7.075 -0.4201  0.3689  0.0987
 2591SOL    HW119235   2.602   1.374   7.105 -1.2042  1.5993  1.6587
 2591SOL    HW219236   2.513   1.366   6.979 -0.7706 -0.3652  0.0172
 2592SOL     OW19237   4.135   0.880  16.224 -1.0199 -0.0981 -0.5835
 2592SOL    HW119238   4.154   0.788  16.204  0.6746  0.2565 -0.6020
 2592SOL    HW219239   4.049   0.874  16.265 -0.4250 -1.4351  0.4786
 2593SOL     OW19240   2.314   0.702   0.820  0.1942  0.2683  0.6501
 2593SOL    HW119241   2.229   0.740   0.796  0.7115  1.7690  1.1742
 2593SOL    HW219242   2.287   0.654   0.898  0.3689  0.2988  0.7286
 2594SOL     OW19243   2.378   0.462   8.911  0.1593 -0.0035 -0.2820
 2594SOL    HW119244   2.391   0.415   8.829  0.8264 -1.0387  0.4147
 2594SOL    HW219245   2.465   0.449   8.951 -1.1994 -1.3907  2.2417
 2595SOL     OW19246   3.992   4.578   0.917 -0.3635  0.2248 -0.5250
 2595SOL    HW119247   3.992   4.596   0.822  1.6432  0.1067 -0.5443
 2595SOL    HW219248   3.927   4.642   0.946 -0.1260 -0.8675  2.3226
 2596SOL     OW19249   0.103   0.814   5.247  0.5041 -0.3835 -0.4422
 2596SOL    HW119250   0.062   0.901   5.250 -1.5991 -1.4893  2.9532
 2596SOL    HW219251   0.195   0.837   5.258  0.2049  0.5809  0.0260
 2597SOL     OW19252   3.755   3.930   7.362  0.3644 -0.1120  0.5583
 2597SOL    HW119253   3.829   3.982   7.332 -0.0023  0.5260  0.7644
 2597SOL    HW219254   3.777   3.910   7.453 -1.1907 -1.3142  0.6748
 2598SOL     OW19255   0.160   3.088   2.574 -0.6354 -0.2353 -0.0058
 2598SOL    HW119256   0.247   3.128   2.573 -0.7094 -0.0437  1.0393
 2598SOL    HW219257   0.122   3.115   2.490  1.4573  0.2525 -0.7887
 2599SOL     OW19258   0.579   2.284   5.005 -0.0138  0.1844  0.5341
 2599SOL    HW119259   0.531   2.356   5.046 -0.3895  0.6082 -0.6385
 2599SOL    HW219260   0.643   2.268   5.074  0.4748 -3.7833 -0.8270
 2600SOL     OW19261   2.341   0.809   1.152 -0.0553 -0.2673  0.2666
 2600SOL    HW119262   2.247   0.814   1.171 -0.3481  0.3908 -1.3265
 2600SOL    HW219263   2.351   0.863   1.073 -2.7170  3.4176  2.4233
 2601SOL     OW19264   2.673   3.853   2.856  0.0510 -0.0588  0.2473
 2601SOL    HW119265   2.598   3.828   2.910  0.2405 -0.7814  0.1761
 2601SOL    HW219266   2.679   3.787   2.787  2.9139 -2.0872  2.3904
 2602SOL     OW19267   3.296   1.304  15.205 -0.1238  0.0380  0.2226
 2602SOL    HW119268   3.295   1.275  15.296  0.7595 -1.8636 -0.3797
 2602SOL    HW219269   3.388   1.309  15.177 -0.5804 -0.1414 -1.3443
 2603SOL     OW19270   4.315   4.338   1.381 -0.1856  0.0927 -0.8475
 2603SOL    HW119271   4.397   4.382   1.358  0.2719 -0.5162 -0.3817
 2603SOL    HW219272   4.258   4.411   1.404 -0.3032 -0.9423  2.1551
 2604SOL     OW19273   2.795   1.235  15.777  0.2014  0.5561 -0.6276
 2604SOL    HW119274   2.707   1.243  15.815  0.2731 -0.7782 -0.1929
 2604SOL    HW219275   2.778   1.231  15.683 -1.2810  1.1795 -0.3804
 2605SOL     OW19276   2.241   0.963   7.109 -0.1229  0.2186 -0.0107
 2605SOL    HW119277   2.233   0.931   7.199  2.0024  1.3206  0.5661
 2605SOL    HW219278   2.189   0.902   7.056 -2.1979  1.9798 -0.0283
 2606SOL     OW19279   3.007   4.242   2.396 -0.9635  0.1939 -0.2682
 2606SOL    HW119280   2.961   4.160   2.415  1.5008 -1.0272  0.3858
 2606SOL    HW219281   2.940   4.289   2.346  0.4229  1.2889 -1.0963
 2607SOL     OW19282   2.202   3.549   9.727 -0.2907 -0.0316  0.2457
 2607SOL    HW119283   2.246   3.511   9.803  0.4027  0.4010  0.0593
 2607SOL    HW219284   2.269   3.542   9.659  0.1911 -0.4272  0.7605
 2608SOL     OW19285   3.367   4.273  10.479 -0.5374  0.2775 -0.5348
 2608SOL    HW119286   3.346   4.224  10.400 -2.5564  0.9423 -0.4093
 2608SOL    HW219287   3.313   4.351  10.465 -1.5735 -0.6363 -1.6231
 2609SOL     OW19288   0.648   0.344   1.744 -0.1907 -0.0612 -0.0480
 2609SOL    HW119289   0.644   0.271   1.682  1.0681 -1.1729  1.1955
 2609SOL    HW219290   0.637   0.303   1.830 -2.7302  0.8311  0.0536
 2610SOL     OW19291   3.737   1.197   8.700  0.0914 -0.0308 -1.1464
 2610SOL    HW119292   3.701   1.116   8.665 -0.8548  0.9476 -2.4074
 2610SOL    HW219293   3.674   1.229   8.765  3.1441  0.6200  1.5437
 2611SOL     OW19294   1.929   3.967   5.061 -0.0681  0.2966 -0.1567
 2611SOL    HW119295   1.906   4.049   5.106 -2.8791 -1.7621  2.1993
 2611SOL    HW219296   1.856   3.962   4.999 -0.7123  0.2961  0.5989
 2612SOL     OW19297   3.062   1.746   2.860  0.0577 -0.9814  1.1014
 2612SOL    HW119298   3.065   1.674   2.797  1.5475  2.4049 -2.7149
 2612SOL    HW219299   2.967   1.761   2.863  0.3600  1.2501 -0.7932
 2613SOL     OW19300   4.411   2.489   7.179 -0.0511 -0.0459 -0.5284
 2613SOL    HW119301   4.431   2.469   7.087  0.3600  1.4657 -0.7803
 2613SOL    HW219302   4.319   2.469   7.194 -0.4711 -0.2700 -3.3142
 2614SOL     OW19303   0.042   4.502  13.994  0.1883 -0.0723 -0.2011
 2614SOL    HW119304   0.135   4.480  13.984  0.0056 -0.5583 -0.8208
 2614SOL    HW219305   4.715   4.462  13.921  1.4562  1.7614 -2.0375
 2615SOL     OW19306   4.266   0.214   2.591  0.0053 -0.2945  0.1607
 2615SOL    HW119307   4.279   0.297   2.544  0.0353 -0.7022 -0.5466
 2615SOL    HW219308   4.225   0.164   2.522 -4.0720  0.4246  2.0353
 2616SOL     OW19309   1.807   3.212  13.461  0.0688  0.2805 -0.1562
 2616SOL    HW119310   1.766   3.185  13.543  2.1480 -1.5325  0.2837
 2616SOL    HW219311   1.785   3.305  13.462 -3.4299 -0.4981 -3.8436
 2617SOL     OW19312   2.984   2.461   4.691  0.8614  0.2480  0.1890
 2617SOL    HW119313   3.012   2.425   4.775 -2.0584  0.0550  1.0606
 2617SOL    HW219314   3.061   2.514   4.670  1.2781 -0.8569 -1.0607
 2618SOL     OW19315   4.152   2.727   5.921  0.6135  0.1220 -0.1786
 2618SOL    HW119316   4.205   2.716   6.001  1.4599 -0.4372 -0.8094
 2618SOL    HW219317   4.149   2.635   5.896 -0.7215  0.1928 -0.2774
 2619SOL     OW19318   4.471   2.196  14.760 -0.2449  0.3805  0.9345
 2619SOL    HW119319   4.504   2.202  14.850  0.1271 -2.0028  0.9615
 2619SOL    HW219320   4.413   2.272  14.765  1.5660  1.7850  0.4230
 2620SOL     OW19321   1.982   3.046   5.766  0.4847  0.6495 -0.5714
 2620SOL    HW119322   2.035   2.972   5.738  0.0497  0.5967 -1.2579
 2620SOL    HW219323   1.932   3.067   5.687 -0.7492  1.1207  0.3222
 2621SOL     OW19324   4.118   2.713   9.286  0.1907 -0.2043 -0.2673
 2621SOL    HW119325   4.082   2.657   9.355  1.1642  0.3387  0.6810
 2621SOL    HW219326   4.211   2.705   9.303  0.2595  1.7173  0.2826
 2622SOL     OW19327   3.614   0.609   2.690  0.2442 -0.1220 -0.2059
 2622SOL    HW119328   3.558   0.547   2.643 -2.7332  2.1239  0.3547
 2622SOL    HW219329   3.655   0.668   2.627 -0.5286  0.6248 -0.0208
 2623SOL     OW19330   1.556   3.874   7.367  0.1068  0.3249 -0.0625
 2623SOL    HW119331   1.483   3.848   7.424 -0.4842 -2.6299 -2.1516
 2623SOL    HW219332   1.507   3.894   7.287 -3.5258 -2.0141  1.5531
 2624SOL     OW19333   3.793   3.405   9.602 -0.1671 -0.7214 -0.4699
 2624SOL    HW119334   3.805   3.358   9.684 -0.5242 -0.3112 -0.1821
 2624SOL    HW219335   3.706   3.443   9.615  0.3515 -0.6222  2.7938
 2625SOL     OW19336   2.885   0.500   5.687 -0.5480  0.7218 -0.4227
 2625SOL    HW119337   2.918   0.545   5.764 -0.0581 -0.3122 -0.0351
 2625SOL    HW219338   2.938   0.421   5.689 -1.5661  0.0849  2.2330
 2626SOL     OW19339   2.311   3.336   2.762 -0.2051 -0.1557  0.0970
 2626SOL    HW119340   2.266   3.294   2.688  0.2426 -2.3130  1.0243
 2626SOL    HW219341   2.364   3.404   2.720 -1.8424  1.2817  0.3652
 2627SOL     OW19342   1.580   2.630  17.024 -0.7896  0.0545 -0.3459
 2627SOL    HW119343   1.620   2.581  17.096  0.3878 -2.2506 -2.5698
 2627SOL    HW219344   1.608   2.715  17.057  2.4777 -0.0586 -2.8599
 2628SOL     OW19345   4.717   1.575   9.908 -0.5023  0.2129  0.0815
 2628SOL    HW119346   0.081   1.616   9.892  0.9389 -2.8618 -0.2005
 2628SOL    HW219347   0.001   1.586  10.003  3.8785 -1.3207  0.0632
 2629SOL     OW19348   1.522   0.666  15.753  0.5315 -0.4062 -0.0319
 2629SOL    HW119349   1.601   0.719  15.743 -0.8904  1.2723 -2.2876
 2629SOL    HW219350   1.487   0.680  15.665 -0.1691 -2.6005 -0.1155
 2630SOL     OW19351   0.712   3.501  11.536 -0.3554 -0.3001 -0.3591
 2630SOL    HW119352   0.770   3.466  11.469 -0.1236 -0.8323  0.1158
 2630SOL    HW219353   0.649   3.542  11.477 -0.0088  1.7424  0.6966
 2631SOL     OW19354   0.288   0.616   3.300 -0.3344  0.1897 -0.6665
 2631SOL    HW119355   0.227   0.542   3.301 -0.5973  0.4441  1.4323
 2631SOL    HW219356   0.283   0.641   3.207  0.1704 -1.6488 -1.1968
 2632SOL     OW19357   1.542   3.578   4.755  0.4466  0.7831 -0.4950
 2632SOL    HW119358   1.603   3.646   4.783  0.4406  0.4737  0.2476
 2632SOL    HW219359   1.503   3.616   4.675 -0.3599 -0.0566 -0.5001
 2633SOL     OW19360   0.277   4.580   7.747 -0.0496 -0.0237  0.0111
 2633SOL    HW119361   0.203   4.555   7.691 -0.7767 -0.9189  1.3556
 2633SOL    HW219362   0.283   4.671   7.720 -0.5154  0.5786  1.9502
 2634SOL     OW19363   4.026   1.583   3.352 -0.3245 -0.2849 -0.2768
 2634SOL    HW119364   3.961   1.653   3.346  1.1913  1.2843  1.5516
 2634SOL    HW219365   4.106   1.630   3.372 -0.3496 -0.9656  1.4185
 2635SOL     OW19366   0.136   2.292  12.906  0.1751 -0.7224  0.0574
 2635SOL    HW119367   0.085   2.340  12.842  1.3558 -0.5252 -0.7370
 2635SOL    HW219368   0.159   2.216  12.854 -0.5472 -0.7494 -0.2163
 2636SOL     OW19369   3.709   2.679   1.364  0.0878  0.4472  0.6019
 2636SOL    HW119370   3.722   2.773   1.380  0.7127  0.2357  1.3241
 2636SOL    HW219371   3.697   2.682   1.269 -2.4483  1.7449  0.9721
 2637SOL     OW19372   1.683   2.992   3.779 -0.0846 -0.3583 -0.2766
 2637SOL    HW119373   1.761   3.023   3.732 -0.6791  1.2261 -0.2133
 2637SOL    HW219374   1.662   2.913   3.729  1.8754 -0.2734 -1.2649
 2638SOL     OW19375   3.701   2.947   8.230 -0.0109 -0.2577 -0.2357
 2638SOL    HW119376   3.759   2.937   8.306 -1.7504  0.0285  1.1282
 2638SOL    HW219377   3.757   2.984   8.162  0.7964 -1.7912 -0.4067
 2639SOL     OW19378   2.316   0.311  11.390  0.0911  0.2806  0.2054
 2639SOL    HW119379   2.404   0.276  11.409 -0.0152 -0.3785 -0.4918
 2639SOL    HW219380   2.288   0.292  11.479 -0.7383 -2.4541 -0.6393
 2640SOL     OW19381   0.059   0.742   9.367  0.0059 -0.1162  0.0328
 2640SOL    HW119382   0.090   0.833   9.369 -1.0734  0.3059 -1.6384
 2640SOL    HW219383   0.137   0.720   9.316  0.5829 -0.9545  1.2810
 2641SOL     OW19384   4.627   2.150   6.437 -0.4111 -0.7624 -0.0415
 2641SOL    HW119385   4.687   2.183   6.504  0.8540 -0.3543 -1.3631
 2641SOL    HW219386   4.689   2.116   6.372 -0.5962  0.8832 -1.0756
 2642SOL     OW19387   2.279   0.783   1.514 -0.0828 -0.4758  0.0384
 2642SOL    HW119388   2.198   0.802   1.467  0.0932 -0.3511 -0.2150
 2642SOL    HW219389   2.269   0.690   1.533 -0.6685 -0.0335  1.9305
 2643SOL     OW19390   1.027   2.260   8.317  0.3873  0.6167 -0.3859
 2643SOL    HW119391   1.001   2.171   8.294  1.9114  0.3704 -1.1465
 2643SOL    HW219392   1.107   2.250   8.368 -0.0362 -0.0199  0.1502
 2644SOL     OW19393   1.698   1.910   3.647 -0.1466  0.3661 -0.2101
 2644SOL    HW119394   1.652   1.994   3.641 -1.0819 -0.2692 -1.8462
 2644SOL    HW219395   1.737   1.920   3.734 -0.3689 -1.7444  0.1193
 2645SOL     OW19396   3.835   1.509   6.880  0.2848  0.1911  0.1863
 2645SOL    HW119397   3.918   1.489   6.837  0.5557 -2.5965  2.0087
 2645SOL    HW219398   3.807   1.577   6.819 -3.1366 -0.9817  0.4492
 2646SOL     OW19399   2.776   2.675  12.908  0.5116 -0.2164 -0.1073
 2646SOL    HW119400   2.870   2.667  12.891  0.4859  1.8791 -1.2527
 2646SOL    HW219401   2.782   2.649  13.000  1.1206 -3.1040 -0.9440
 2647SOL     OW19402   3.997   2.364  14.163 -0.6534  0.3279 -0.0365
 2647SOL    HW119403   4.048   2.411  14.229  0.6772  0.0289 -0.8658
 2647SOL    HW219404   3.914   2.389  14.204  0.7286  0.5704  2.5894
 2648SOL     OW19405   4.489   0.349   7.789 -1.0252 -0.0664  0.1108
 2648SOL    HW119406   4.563   0.323   7.844 -0.2058 -0.6179 -1.2544
 2648SOL    HW219407   4.512   0.442   7.794  1.5304 -0.8037  1.6614
 2649SOL     OW19408   3.221   0.596  16.276  0.2404 -0.2303 -0.1901
 2649SOL    HW119409   3.214   0.511  16.233 -0.1500  0.5311 -1.6304
 2649SOL    HW219410   3.141   0.634  16.238 -0.7678 -0.0265  2.1747
 2650SOL     OW19411   3.691   1.276   0.184  0.6926  0.0130 -0.5272
 2650SOL    HW119412   3.681   1.216   0.110  0.2391  0.4271 -0.8045
 2650SOL    HW219413   3.734   1.347   0.136  2.4081 -1.5098 -1.2308
 2651SOL     OW19414   0.060   4.009  11.103 -0.4332 -0.1325  0.1544
 2651SOL    HW119415   4.700   3.983  11.059 -1.4755  1.6386  1.0342
 2651SOL    HW219416   0.087   3.921  11.129 -0.1570 -0.1990 -0.3628
 2652SOL     OW19417   4.273   0.647   8.011 -0.5162  0.0541 -0.0086
 2652SOL    HW119418   4.277   0.740   8.033  0.6823  0.0179 -0.0696
 2652SOL    HW219419   4.252   0.608   8.096  0.1508  1.7980  0.9558
 2653SOL     OW19420   0.247   4.510   8.482  0.2777 -0.0556 -0.2350
 2653SOL    HW119421   0.294   4.590   8.504 -0.0688  0.4310 -1.2825
 2653SOL    HW219422   0.319   4.447   8.494  0.0963 -0.2027  0.0914
 2654SOL     OW19423   3.649   2.896   8.988  0.4934 -0.4470  0.7230
 2654SOL    HW119424   3.602   2.953   9.049  1.3382 -0.0606  1.0062
 2654SOL    HW219425   3.740   2.918   9.003  0.3588 -0.0716  0.9937
 2655SOL     OW19426   4.446   1.395   5.862 -0.6087  0.4550 -0.7680
 2655SOL    HW119427   4.521   1.335   5.869 -1.3858 -0.4296 -0.0359
 2655SOL    HW219428   4.390   1.348   5.801  0.1311 -1.5241  0.0766
 2656SOL     OW19429   3.433   2.546   5.445  0.7186 -0.0163  0.3390
 2656SOL    HW119430   3.430   2.521   5.537 -0.7321 -1.4038 -0.0777
 2656SOL    HW219431   3.415   2.461   5.405 -3.5477  1.1009 -0.1638
 2657SOL     OW19432   0.704   0.176  10.034 -0.4288 -0.1673  0.2719
 2657SOL    HW119433   0.727   0.172  10.127 -3.4949  1.0869  1.1130
 2657SOL    HW219434   0.774   0.225   9.991 -1.3288  0.5747 -0.3689
 2658SOL     OW19435   2.590   0.534   2.655  0.0537  0.0802 -0.1931
 2658SOL    HW119436   2.573   0.554   2.747  0.0651 -1.3434  0.1273
 2658SOL    HW219437   2.592   0.438   2.656  2.1492  0.1190 -0.1711
 2659SOL     OW19438   0.667   1.471   8.420  0.3591 -0.4710 -0.4774
 2659SOL    HW119439   0.670   1.567   8.411  0.2223 -0.3952  0.3568
 2659SOL    HW219440   0.602   1.452   8.487 -1.0859  0.6368 -1.5853
 2660SOL     OW19441   0.957   0.030   2.162 -0.6721  0.1873 -0.1712
 2660SOL    HW119442   0.919   0.116   2.149  1.4343  1.2626  0.7861
 2660SOL    HW219443   1.034   0.038   2.104 -1.0099  1.7338 -0.3867
 2661SOL     OW19444   0.922   3.491   5.839  0.2280 -0.2444 -0.2964
 2661SOL    HW119445   0.948   3.420   5.899  2.5157  0.8634  0.0160
 2661SOL    HW219446   0.976   3.559   5.879 -0.1139 -0.3555  0.3622
 2662SOL     OW19447   4.464   3.948  11.784  0.3222 -0.2717 -0.1196
 2662SOL    HW119448   4.398   3.975  11.848  0.4493 -2.6919  1.0336
 2662SOL    HW219449   4.538   3.918  11.838 -0.7714 -0.9735  0.9917
 2663SOL     OW19450   2.871   2.001   5.701  0.2882 -0.3004 -0.3969
 2663SOL    HW119451   2.801   2.055   5.739  0.8535 -1.3791  2.1949
 2663SOL    HW219452   2.816   1.927   5.677 -0.8364 -0.2262  1.9681
 2664SOL     OW19453   4.072   4.551   5.210 -0.0721 -0.4435 -0.0968
 2664SOL    HW119454   4.069   4.647   5.215  0.2224 -0.5132  1.4455
 2664SOL    HW219455   4.030   4.546   5.124  0.9600 -0.4585 -0.6011
 2665SOL     OW19456   2.838   1.401   8.481  0.7793  0.0878  0.6689
 2665SOL    HW119457   2.796   1.415   8.566 -0.5907  1.1202 -0.1710
 2665SOL    HW219458   2.759   1.391   8.427 -0.2105  2.2164  1.6728
 2666SOL     OW19459   0.574   2.043   9.042  0.2591  0.0479 -0.8302
 2666SOL    HW119460   0.635   1.983   9.085  1.1331  1.1562 -0.5583
 2666SOL    HW219461   0.538   2.088   9.117  0.0773  1.7410 -1.9400
 2667SOL     OW19462   3.271   2.921  16.677 -0.1926 -0.1597 -0.4950
 2667SOL    HW119463   3.346   2.938  16.734  0.1388 -1.2252 -0.6118
 2667SOL    HW219464   3.299   2.838  16.639 -1.0114 -0.0494 -1.3551
 2668SOL     OW19465   1.231   0.399   5.328  0.5638  0.2993  0.5009
 2668SOL    HW119466   1.278   0.451   5.262 -0.3741  1.9857  1.1410
 2668SOL    HW219467   1.138   0.423   5.334  0.5030  0.4590 -1.0749
 2669SOL     OW19468   2.656   0.237   8.243 -0.2726  0.1794  0.0914
 2669SOL    HW119469   2.701   0.260   8.324  0.1327 -1.2724  0.2778
 2669SOL    HW219470   2.567   0.216   8.271  0.4106  1.3936  3.1607
 2670SOL     OW19471   3.415   2.968   0.937 -0.3118  0.1343  0.0355
 2670SOL    HW119472   3.420   3.007   1.025  0.4204 -1.7942  0.8469
 2670SOL    HW219473   3.391   2.877   0.952 -0.1625 -0.1168 -1.2965
 2671SOL     OW19474   1.254   4.262  15.660  0.3413 -0.2249  0.5679
 2671SOL    HW119475   1.244   4.198  15.589  3.2070  0.8495 -0.7922
 2671SOL    HW219476   1.345   4.247  15.687  0.3810 -0.2085  0.4455
 2672SOL     OW19477   2.152   2.055  14.286  0.4255 -0.0976 -0.1312
 2672SOL    HW119478   2.086   2.005  14.335 -0.8338  1.9087  0.2098
 2672SOL    HW219479   2.233   2.049  14.336 -0.6021 -3.1913  1.1954
 2673SOL     OW19480   0.964   1.391   1.689 -0.6165 -0.1469 -0.1695
 2673SOL    HW119481   1.003   1.442   1.619 -0.8621  2.4159  1.5605
 2673SOL    HW219482   0.998   1.437   1.765 -1.4939  2.1563 -1.1880
 2674SOL     OW19483   4.268   3.296   2.194  0.3955 -0.2734  0.0941
 2674SOL    HW119484   4.316   3.358   2.249  0.0488 -0.5121  0.6660
 2674SOL    HW219485   4.206   3.346   2.142  0.5171 -2.5448 -2.2607
 2675SOL     OW19486   1.362   4.673   3.421  0.2468  0.0631  0.7561
 2675SOL    HW119487   1.443   4.645   3.465  0.4838 -0.4104  0.0177
 2675SOL    HW219488   1.396   4.717   3.343 -0.0275 -0.7396  0.1861
 2676SOL     OW19489   3.643   4.642   4.035 -0.1763  0.1841 -0.0258
 2676SOL    HW119490   3.565   4.621   4.087  0.3636  1.3210  1.2129
 2676SOL    HW219491   3.603   4.713   3.985  1.0313 -0.0635 -1.3524
 2677SOL     OW19492   2.669   4.288  13.291  0.6819 -0.2900 -0.0900
 2677SOL    HW119493   2.743   4.293  13.230 -0.3707  1.1562 -1.2668
 2677SOL    HW219494   2.671   4.375  13.330  0.3088  0.4424 -1.6786
 2678SOL     OW19495   3.523   2.210   5.864  0.4101 -0.3429 -0.2497
 2678SOL    HW119496   3.593   2.146   5.869  0.7395 -0.0514 -1.1095
 2678SOL    HW219497   3.554   2.278   5.924 -2.9654  0.9599  0.0354
 2679SOL     OW19498   3.667   4.284   3.672  0.5885 -0.5371 -0.4327
 2679SOL    HW119499   3.699   4.338   3.745  2.2687  3.0967 -3.9059
 2679SOL    HW219500   3.659   4.195   3.706 -0.7859 -0.5418 -0.8077
 2680SOL     OW19501   4.207   4.572  14.042 -0.7058  0.0898  0.7547
 2680SOL    HW119502   4.246   4.542  13.960 -0.2400 -0.2094  1.0907
 2680SOL    HW219503   4.208   4.492  14.094 -0.9943  0.9674  2.1175
 2681SOL     OW19504   0.343   2.318  12.551 -0.1257  0.3503 -0.4353
 2681SOL    HW119505   0.405   2.342  12.482  2.0139  0.2410  1.4368
 2681SOL    HW219506   0.314   2.398  12.593  0.0261  0.8456 -1.2831
 2682SOL     OW19507   0.920   0.200  11.559 -0.5156  0.2836 -0.1873
 2682SOL    HW119508   0.931   0.174  11.650  1.8886 -1.7575 -1.0589
 2682SOL    HW219509   1.007   0.188  11.521 -0.3108  1.5836 -0.1056
 2683SOL     OW19510   1.740   1.361   8.501 -0.6839 -0.2383 -0.3184
 2683SOL    HW119511   1.729   1.309   8.421 -0.5756 -0.3542 -0.2579
 2683SOL    HW219512   1.823   1.323   8.529 -0.4651 -0.7110 -1.6019
 2684SOL     OW19513   3.407   0.425   4.779 -0.4334 -0.9886  0.2129
 2684SOL    HW119514   3.484   0.400   4.728 -1.9246 -1.6110 -1.7442
 2684SOL    HW219515   3.407   0.518   4.756 -1.3570 -0.8135  0.9006
 2685SOL     OW19516   2.598   1.417   6.140 -0.5142  0.4841 -1.2295
 2685SOL    HW119517   2.657   1.462   6.080  2.8819 -1.7880  0.3858
 2685SOL    HW219518   2.577   1.494   6.193 -0.4454 -0.0955 -0.3449
 2686SOL     OW19519   0.967   4.560   7.933 -0.4885 -0.6106 -0.3635
 2686SOL    HW119520   0.976   4.529   8.022 -0.3731 -3.1981 -1.2930
 2686SOL    HW219521   1.058   4.564   7.903 -0.3488 -1.2418 -0.0111
 2687SOL     OW19522   3.590   0.267   2.857  0.1579 -0.0221 -0.0433
 2687SOL    HW119523   3.629   0.350   2.827 -0.7512  0.1588 -0.7426
 2687SOL    HW219524   3.652   0.200   2.830  0.2640  0.5064 -1.1266
 2688SOL     OW19525   2.362   2.796   7.165  0.1855 -0.0272 -0.0046
 2688SOL    HW119526   2.296   2.830   7.105  1.1688  0.9822 -0.5044
 2688SOL    HW219527   2.397   2.729   7.106 -0.1428 -1.0081  0.9022
 2689SOL     OW19528   2.112   0.542  15.081  0.7874 -0.6051  0.3853
 2689SOL    HW119529   2.022   0.567  15.104 -0.2729 -2.1120 -2.1882
 2689SOL    HW219530   2.138   0.626  15.043 -3.1627  0.8667  0.8641
 2690SOL     OW19531   3.192   2.268   4.844 -0.4253  0.2724 -0.2422
 2690SOL    HW119532   3.180   2.251   4.751 -4.5815  1.3904  0.0788
 2690SOL    HW219533   3.260   2.335   4.844  0.0898 -0.2551 -0.7039
 2691SOL     OW19534   1.496   1.733   4.525 -0.0872  0.1809 -0.7239
 2691SOL    HW119535   1.574   1.690   4.561 -0.2767 -0.3687 -0.9746
 2691SOL    HW219536   1.498   1.705   4.433  1.0700  2.4353 -1.4032
 2692SOL     OW19537   3.542   3.601   8.846  0.2818  0.2469 -0.7391
 2692SOL    HW119538   3.561   3.617   8.939  0.8754 -2.4648 -0.4130
 2692SOL    HW219539   3.586   3.517   8.835 -1.1982 -0.7739  1.2769
 2693SOL     OW19540   1.708   1.296   1.359  0.5907  0.4648 -0.4145
 2693SOL    HW119541   1.640   1.362   1.375 -0.3754  0.0450 -2.8067
 2693SOL    HW219542   1.668   1.253   1.283 -0.4256 -0.0350  0.4016
 2694SOL     OW19543   3.706   1.571   2.901  0.0995 -0.0455  0.1595
 2694SOL    HW119544   3.682   1.583   2.809  0.4476  1.2669  0.2351
 2694SOL    HW219545   3.708   1.476   2.915  0.8846 -0.1565 -0.7024
 2695SOL     OW19546   0.584   3.148   5.497  0.0821 -0.2334  0.2512
 2695SOL    HW119547   0.618   3.188   5.417  1.8649  0.1131  1.1804
 2695SOL    HW219548   0.556   3.233   5.531 -1.1773 -0.2521 -0.7312
 2696SOL     OW19549   3.221   3.719   7.412 -0.2941 -0.1165  0.0640
 2696SOL    HW119550   3.209   3.625   7.396 -0.3205  0.0515 -0.8893
 2696SOL    HW219551   3.138   3.755   7.445  0.8381  0.7584  1.9538
 2697SOL     OW19552   3.982   3.552   4.642  0.2583  0.1558 -0.0779
 2697SOL    HW119553   3.972   3.520   4.732  1.4269 -0.8362 -0.3083
 2697SOL    HW219554   4.058   3.609   4.651 -1.4594  2.2778  0.9991
 2698SOL     OW19555   3.289   3.237  16.687  0.1396 -0.4017 -0.6912
 2698SOL    HW119556   3.305   3.277  16.601  2.7359  2.6871  1.1906
 2698SOL    HW219557   3.214   3.287  16.717  2.0789  1.7767  0.4927
 2699SOL     OW19558   2.284   0.705   5.424 -0.1217 -0.5927 -0.1889
 2699SOL    HW119559   2.245   0.779   5.377 -0.3519 -0.5411  0.0792
 2699SOL    HW219560   2.315   0.650   5.352  2.9542  1.9743 -0.8203
 2700SOL     OW19561   3.154   0.711  12.975  0.2278  0.4696  0.5603
 2700SOL    HW119562   3.206   0.730  12.897 -0.1812 -0.6885  0.0109
 2700SOL    HW219563   3.099   0.789  12.984 -1.0515 -0.1300 -2.1973
 2701SOL     OW19564   1.931   4.106   5.334 -0.6002 -0.0713  0.4185
 2701SOL    HW119565   1.889   4.029   5.373 -1.8366 -0.2676 -1.2780
 2701SOL    HW219566   1.870   4.179   5.323 -2.9612 -2.3661 -1.6561
 2702SOL     OW19567   3.675   3.279  12.644 -0.1651 -0.3956 -0.2255
 2702SOL    HW119568   3.596   3.281  12.591  0.3369  0.0499 -0.9592
 2702SOL    HW219569   3.678   3.363  12.690 -2.1053 -2.5751  3.8842
 2703SOL     OW19570   3.485   1.795  10.892  0.2044 -0.1302 -0.2580
 2703SOL    HW119571   3.519   1.835  10.971  2.6385 -1.1365 -0.7721
 2703SOL    HW219572   3.462   1.873  10.842 -1.1845 -0.2488  0.2134
 2704SOL     OW19573   3.902   1.534   1.276 -0.3132  0.6927  0.4892
 2704SOL    HW119574   3.935   1.464   1.220  2.1231  1.9806  0.3158
 2704SOL    HW219575   3.842   1.483   1.331  1.0234 -0.3619  0.9629
 2705SOL     OW19576   1.658   0.845   7.623  0.2322  0.3306 -0.3087
 2705SOL    HW119577   1.650   0.768   7.679  0.2613 -1.0565 -2.2420
 2705SOL    HW219578   1.657   0.794   7.542 -0.5316 -1.0394  0.5635
 2706SOL     OW19579   3.118   2.948   9.598  0.9868 -0.0501 -0.6794
 2706SOL    HW119580   3.024   2.944   9.583  0.8563 -0.7041  0.2979
 2706SOL    HW219581   3.142   2.874   9.542  0.4122 -0.6772 -0.0950
 2707SOL     OW19582   0.394   2.111   3.496  0.2357  0.2840 -0.2951
 2707SOL    HW119583   0.393   2.026   3.541  1.0501 -1.1490 -3.0171
 2707SOL    HW219584   0.466   2.104   3.434  0.8763 -0.6510  0.5557
 2708SOL     OW19585   1.970   0.189   8.521 -0.8976  0.1377  0.0039
 2708SOL    HW119586   1.888   0.159   8.558 -0.2590  2.1179  3.0561
 2708SOL    HW219587   1.971   0.158   8.430 -1.8449  3.2346 -1.0764
 2709SOL     OW19588   3.563   2.360   2.633  0.4107 -0.1606  0.2629
 2709SOL    HW119589   3.566   2.436   2.691  0.1172 -0.2119  0.3452
 2709SOL    HW219590   3.578   2.407   2.551  0.5449  1.1415  1.0299
 2710SOL     OW19591   3.155   0.628  14.333 -0.1934  0.4715 -0.3402
 2710SOL    HW119592   3.117   0.541  14.319 -0.0036  0.2868  0.2696
 2710SOL    HW219593   3.114   0.680  14.264  2.6979  2.9558 -0.1676
 2711SOL     OW19594   4.023   0.641   7.587  0.4058  0.8583  0.1020
 2711SOL    HW119595   4.110   0.670   7.559  0.6293  1.4687  1.4535
 2711SOL    HW219596   3.972   0.640   7.506 -1.9029  1.2190  1.5546
 2712SOL     OW19597   1.789   3.206   9.706  0.6843  0.2664 -0.0191
 2712SOL    HW119598   1.831   3.286   9.676 -0.2580  0.5525 -0.5632
 2712SOL    HW219599   1.859   3.142   9.699 -1.0071 -1.6262  0.3699
 2713SOL     OW19600   3.278   1.239  15.459 -0.2306  0.0707 -0.4625
 2713SOL    HW119601   3.293   1.182  15.535 -1.1643  0.8972  0.3496
 2713SOL    HW219602   3.235   1.309  15.508 -3.0763 -0.3064 -2.4100
 2714SOL     OW19603   2.625   3.471  10.302  0.9601 -0.5047  0.3807
 2714SOL    HW119604   2.596   3.380  10.306 -0.6938 -0.0080 -0.4672
 2714SOL    HW219605   2.590   3.514  10.380 -0.1212 -0.6724 -0.0183
 2715SOL     OW19606   0.176   1.874   5.065  0.1638  0.2601 -0.4385
 2715SOL    HW119607   0.265   1.898   5.041  0.2852 -1.5655 -1.8132
 2715SOL    HW219608   0.131   1.953   5.037 -1.6292 -0.7993 -0.5712
 2716SOL     OW19609   4.521   1.819   3.176 -0.2196  0.2306 -0.6958
 2716SOL    HW119610   4.457   1.748   3.177 -0.7659  0.7326  0.2979
 2716SOL    HW219611   4.477   1.880   3.235  0.3021  0.4103 -0.4936
 2717SOL     OW19612   4.154   2.227   8.265  0.3771 -0.3198 -0.1587
 2717SOL    HW119613   4.147   2.296   8.199  0.2166  1.7900  2.0923
 2717SOL    HW219614   4.144   2.268   8.351 -0.8013  2.5753 -1.6921
 2718SOL     OW19615   3.494   3.387   7.746 -0.2144 -0.2884  0.2066
 2718SOL    HW119616   3.476   3.479   7.727  0.9674  0.0414  0.6852
 2718SOL    HW219617   3.406   3.357   7.768  0.5575 -1.9718  1.0020
 2719SOL     OW19618   1.406   1.663   2.333 -0.3775  0.2411  0.2886
 2719SOL    HW119619   1.348   1.691   2.403 -0.2941  1.5555 -0.1683
 2719SOL    HW219620   1.342   1.620   2.276 -0.8651  1.1446  0.1540
 2720SOL     OW19621   0.659   0.494   3.762 -0.3917 -0.4409  0.4052
 2720SOL    HW119622   0.632   0.476   3.852  0.7459 -4.2531  0.0036
 2720SOL    HW219623   0.649   0.589   3.763 -0.1256 -0.4251  1.5506
 2721SOL     OW19624   3.810   4.267  13.830 -0.4669  0.4295 -0.0307
 2721SOL    HW119625   3.886   4.314  13.796  0.9139 -0.5187  1.7162
 2721SOL    HW219626   3.844   4.217  13.904 -2.6894  0.7852  1.2187
 2722SOL     OW19627   0.753   1.107   9.314 -0.2184 -0.2263 -0.0184
 2722SOL    HW119628   0.777   1.169   9.245 -0.0509  0.9780  1.1191
 2722SOL    HW219629   0.658   1.116   9.307 -0.4401  0.0796  3.3814
 2723SOL     OW19630   2.509   2.540   9.415 -0.0196  0.0740  0.2712
 2723SOL    HW119631   2.455   2.465   9.442 -0.3567  0.1234 -0.2795
 2723SOL    HW219632   2.572   2.492   9.362 -0.3828  1.4514 -1.3738
 2724SOL     OW19633   4.302   0.076  14.164  0.6865  0.6358 -0.2523
 2724SOL    HW119634   4.282   4.714  14.120  0.4896  1.9853 -2.6866
 2724SOL    HW219635   4.366   0.045  14.229  1.4600 -0.6310 -1.6029
 2725SOL     OW19636   3.114   0.323   5.749  0.0011  0.8162 -0.2239
 2725SOL    HW119637   3.104   0.235   5.714  0.3043  0.8604 -0.4168
 2725SOL    HW219638   3.123   0.301   5.842  1.3662 -1.8810 -0.9961
 2726SOL     OW19639   3.775   1.376   2.585 -0.5599 -0.3516 -0.0524
 2726SOL    HW119640   3.700   1.435   2.573  0.4606  1.1499  0.9913
 2726SOL    HW219641   3.845   1.441   2.577 -0.6635 -0.1492  0.7386
 2727SOL     OW19642   3.085   2.022   4.912  0.3495 -0.1044  0.5249
 2727SOL    HW119643   2.990   2.029   4.902  0.1908  1.1535  3.1127
 2727SOL    HW219644   3.114   2.113   4.906 -0.4519  0.1227  0.0584
 2728SOL     OW19645   1.110   4.366   4.095 -0.4412  0.0469 -0.5303
 2728SOL    HW119646   1.102   4.306   4.169 -0.9270 -0.4087 -0.9494
 2728SOL    HW219647   1.021   4.402   4.100 -1.1851 -2.1678  2.2707
 2729SOL     OW19648   3.239   0.110  13.569  0.1144  0.0383  0.2201
 2729SOL    HW119649   3.334   0.120  13.563  0.2002 -1.4472 -1.0582
 2729SOL    HW219650   3.212   0.194  13.533 -0.8933 -0.7648 -0.9424
 2730SOL     OW19651   3.267   0.581   6.363 -0.1550  0.2285  0.1634
 2730SOL    HW119652   3.219   0.662   6.380  0.1164  0.3779  0.2111
 2730SOL    HW219653   3.297   0.606   6.276  1.5253 -1.5556  0.2284
 2731SOL     OW19654   2.145   4.415  10.802  0.3410  0.2350 -0.0080
 2731SOL    HW119655   2.202   4.441  10.730  0.7348  1.2251  0.6652
 2731SOL    HW219656   2.161   4.488  10.862  1.8781  0.2158 -0.3948
 2732SOL     OW19657   3.427   0.172   4.368  0.1512 -0.5594  0.4816
 2732SOL    HW119658   3.469   0.206   4.289 -1.7166 -2.2272 -1.2183
 2732SOL    HW219659   3.337   0.205   4.374  0.4369  0.2118  0.5905
 2733SOL     OW19660   1.428   1.331  12.678 -0.3631  0.1972  0.1611
 2733SOL    HW119661   1.433   1.303  12.769 -2.0192 -0.8822 -0.0911
 2733SOL    HW219662   1.504   1.390  12.671  0.3654 -0.8692 -0.8807
 2734SOL     OW19663   0.151   3.751   5.720  0.1426  0.5411 -0.7630
 2734SOL    HW119664   0.084   3.810   5.755 -0.1709 -0.8440  0.9660
 2734SOL    HW219665   0.095   3.695   5.667  0.6612 -1.2961  0.6189
 2735SOL     OW19666   3.490   2.247   0.652  0.6352  0.4406 -0.7461
 2735SOL    HW119667   3.477   2.288   0.738 -0.8012 -1.4046 -0.0901
 2735SOL    HW219668   3.504   2.157   0.679  0.8489  1.1006  1.3414
 2736SOL     OW19669   2.589   1.270   4.350 -0.2903  0.0294 -0.3482
 2736SOL    HW119670   2.569   1.340   4.287 -1.2275  0.8753  0.8734
 2736SOL    HW219671   2.661   1.315   4.393 -2.0592 -0.6086  3.3027
 2737SOL     OW19672   2.039   2.428   7.722  0.0071  0.4100  0.4633
 2737SOL    HW119673   2.068   2.366   7.655 -2.2254  1.5381 -1.5329
 2737SOL    HW219674   2.009   2.369   7.791  1.0457 -0.0730  0.5050
 2738SOL     OW19675   0.356   2.715  16.054 -0.0125  0.1196 -0.3479
 2738SOL    HW119676   0.385   2.643  16.110  1.0221  1.0238  0.2647
 2738SOL    HW219677   0.263   2.698  16.039 -0.3351  1.9437 -0.4045
 2739SOL     OW19678   4.572   0.823   0.696 -0.5174  0.3859  0.1469
 2739SOL    HW119679   4.497   0.795   0.748  0.8475 -2.4482  0.5954
 2739SOL    HW219680   4.542   0.809   0.607 -0.7692 -2.3931  0.6639
 2740SOL     OW19681   0.736   1.593   6.331 -0.5568 -0.1965 -0.0004
 2740SOL    HW119682   0.731   1.656   6.404 -0.6443 -0.7312  0.4526
 2740SOL    HW219683   0.782   1.515   6.361 -0.7792 -0.7350 -1.0697
 2741SOL     OW19684   2.609   2.454   5.544  0.0005 -0.3786 -0.0797
 2741SOL    HW119685   2.619   2.364   5.512  0.6685  0.7686 -3.0635
 2741SOL    HW219686   2.697   2.481   5.571  0.2697 -1.4712  0.1467
 2742SOL     OW19687   2.346   3.144  10.936 -0.0237 -0.5629 -0.7778
 2742SOL    HW119688   2.365   3.110  11.024 -1.2781 -0.9042 -0.6382
 2742SOL    HW219689   2.344   3.238  10.954  0.8693 -0.5212 -0.9182
 2743SOL     OW19690   1.758   3.312   5.892  0.1072  0.4039  0.1377
 2743SOL    HW119691   1.705   3.233   5.899 -0.0285  0.4416 -0.5055
 2743SOL    HW219692   1.783   3.299   5.801  0.8593  1.0322  0.2501
 2744SOL     OW19693   3.288   0.195   5.241  0.4896  0.1271 -0.3409
 2744SOL    HW119694   3.261   0.104   5.254  1.4515 -0.3287 -1.5366
 2744SOL    HW219695   3.311   0.206   5.149 -2.3086  0.8882 -0.9551
 2745SOL     OW19696   0.502   1.428   8.637 -0.0416 -0.0882  0.3250
 2745SOL    HW119697   0.426   1.410   8.692 -0.6780  0.7730 -0.2784
 2745SOL    HW219698   0.567   1.442   8.706  0.6279  3.9074 -1.0915
 2746SOL     OW19699   3.979   1.594   6.450 -0.0285  0.6410 -0.5809
 2746SOL    HW119700   4.015   1.682   6.461 -1.0556  0.8884  0.8962
 2746SOL    HW219701   3.931   1.597   6.367  1.1419 -1.7588 -1.3498
 2747SOL     OW19702   3.934   0.680  10.799 -0.4617 -0.4474 -0.0344
 2747SOL    HW119703   3.987   0.759  10.788  0.8725 -1.0570  1.8677
 2747SOL    HW219704   3.919   0.678  10.894 -0.3364  2.9514  0.0472
 2748SOL     OW19705   0.170   1.879  15.331  0.0631  0.5502 -0.3292
 2748SOL    HW119706   0.240   1.943  15.319 -0.1169  0.4985 -1.6254
 2748SOL    HW219707   0.212   1.807  15.286  1.2036  1.7581 -1.1934
 2749SOL     OW19708   3.781   3.412   3.034  0.1023 -0.1566  0.1853
 2749SOL    HW119709   3.753   3.468   2.961  0.0073 -1.6046 -0.8949
 2749SOL    HW219710   3.806   3.335   2.983  2.5547  1.3474 -0.8169
 2750SOL     OW19711   3.039   4.250   7.425 -0.4329  0.5655 -0.0108
 2750SOL    HW119712   2.986   4.268   7.347 -0.4840  1.1532  0.1582
 2750SOL    HW219713   2.974   4.203   7.477  0.9267 -1.4118 -0.0970
 2751SOL     OW19714   3.334   2.171   4.238  0.5724  0.5480  0.6593
 2751SOL    HW119715   3.402   2.114   4.202 -1.1675 -0.7219 -0.6199
 2751SOL    HW219716   3.279   2.109   4.286 -0.6891 -1.7324 -3.7991
 2752SOL     OW19717   2.803   0.340  17.222  0.2224  0.9728  0.3068
 2752SOL    HW119718   2.743   0.280  17.177  1.2645 -2.2495  3.2493
 2752SOL    HW219719   2.818   0.398  17.147  0.1084  1.8817  0.9858
 2753SOL     OW19720   0.751   3.600   2.746 -0.2744 -0.2031 -0.1531
 2753SOL    HW119721   0.834   3.581   2.790 -0.9306 -1.7159  0.4190
 2753SOL    HW219722   0.704   3.518   2.763 -2.0435  0.4224 -2.1334
 2754SOL     OW19723   0.626   3.913   6.900 -0.1874 -0.2253  0.1249
 2754SOL    HW119724   0.616   3.849   6.970  0.6392  1.3340  1.6686
 2754SOL    HW219725   0.562   3.980   6.927 -0.8717 -0.2720 -1.3785
 2755SOL     OW19726   0.388   0.455   3.525  0.5121 -0.2396  0.0756
 2755SOL    HW119727   0.297   0.468   3.552  1.1500  1.1604  1.5237
 2755SOL    HW219728   0.405   0.538   3.482 -0.4530  0.4785  1.0872
 2756SOL     OW19729   3.278   2.800   8.204  0.1397  0.5788 -0.7537
 2756SOL    HW119730   3.257   2.768   8.292 -0.6257 -0.6536 -1.3832
 2756SOL    HW219731   3.329   2.879   8.222 -1.1836  1.3834 -0.5393
 2757SOL     OW19732   2.096   3.099  12.598 -0.1250 -0.9892  0.1356
 2757SOL    HW119733   2.133   3.187  12.604 -1.1539 -0.3442 -2.7872
 2757SOL    HW219734   2.059   3.089  12.685 -0.7472  1.0379  0.1244
 2758SOL     OW19735   0.797   1.482  10.483 -0.1682  0.1008 -0.1069
 2758SOL    HW119736   0.871   1.507  10.538 -1.2007 -0.2027  1.4149
 2758SOL    HW219737   0.848   1.444  10.411  0.7603  1.8330 -0.3497
 2759SOL     OW19738   4.468   3.717   6.939 -0.3456  0.3438  0.2718
 2759SOL    HW119739   4.431   3.686   6.856 -1.4241 -3.1581  2.0450
 2759SOL    HW219740   4.495   3.805   6.914 -1.5978  1.2987  2.3501
 2760SOL     OW19741   0.787   3.223   0.171 -0.3683 -0.0754  0.5688
 2760SOL    HW119742   0.753   3.275   0.244  0.8847  0.0638  1.0567
 2760SOL    HW219743   0.874   3.262   0.161  0.2761 -1.6164  0.1619
 2761SOL     OW19744   2.912   2.976   7.517  0.7348 -0.0018 -0.1104
 2761SOL    HW119745   2.905   2.964   7.611  1.2401  1.3621  0.0987
 2761SOL    HW219746   2.928   2.886   7.488 -1.6504 -0.7408  0.9058
 2762SOL     OW19747   3.419   2.483  16.156  0.5029  0.2334 -0.1585
 2762SOL    HW119748   3.339   2.509  16.201 -0.2116 -0.8973 -0.7977
 2762SOL    HW219749   3.439   2.570  16.120  0.1811  0.9335  1.3550
 2763SOL     OW19750   0.439   3.376  16.561  0.1672  0.0436  0.1512
 2763SOL    HW119751   0.521   3.423  16.548 -0.2519  0.7612  0.1025
 2763SOL    HW219752   0.384   3.442  16.518  2.1886  1.4526 -0.2739
 2764SOL     OW19753   4.234   2.098   6.915  0.6053  0.5097  0.1799
 2764SOL    HW119754   4.155   2.093   6.861 -1.5302 -1.6469  3.5307
 2764SOL    HW219755   4.265   2.007   6.912 -2.1148 -0.3998 -0.6999
 2765SOL     OW19756   2.530   1.194  13.167  0.2409  0.1056  0.0376
 2765SOL    HW119757   2.474   1.271  13.173 -0.1216  0.0224 -2.1198
 2765SOL    HW219758   2.613   1.241  13.178  0.2838 -0.6420  2.7573
 2766SOL     OW19759   3.302   2.486   7.977 -0.5677 -0.5593 -0.4253
 2766SOL    HW119760   3.247   2.553   7.936  1.2514  0.2826 -1.5043
 2766SOL    HW219761   3.259   2.407   7.945  0.4490 -0.6581 -1.5305
 2767SOL     OW19762   3.931   4.448   5.705  0.1578 -0.0364 -0.4757
 2767SOL    HW119763   3.893   4.521   5.656 -1.8583 -0.3221  0.6553
 2767SOL    HW219764   3.956   4.392   5.631  0.0913 -2.0915  1.0554
 2768SOL     OW19765   3.380   2.814   9.903  0.3151 -0.1770  0.0261
 2768SOL    HW119766   3.398   2.784   9.814 -1.0342 -2.9616  0.7085
 2768SOL    HW219767   3.465   2.850   9.930 -0.8889  2.5139  0.1861
 2769SOL     OW19768   3.484   3.813   6.175 -0.2586  0.1476  0.3140
 2769SOL    HW119769   3.452   3.754   6.242 -1.8265 -1.2374 -1.6841
 2769SOL    HW219770   3.468   3.762   6.096 -0.8247 -0.1122  0.5965
 2770SOL     OW19771   1.861   1.664  12.696 -0.0234  0.0893  0.0723
 2770SOL    HW119772   1.768   1.684  12.685 -0.0786  0.2639  0.8924
 2770SOL    HW219773   1.884   1.578  12.660 -1.3292 -0.2987  0.1893
 2771SOL     OW19774   2.982   0.010  13.265 -0.0758  0.2980  0.3434
 2771SOL    HW119775   3.007   4.704  13.177  0.9277  0.1421  0.6772
 2771SOL    HW219776   3.037   0.086  13.279  0.0443 -0.1710  2.4693
 2772SOL     OW19777   1.222   2.692   3.785 -0.6315  0.2839  0.4856
 2772SOL    HW119778   1.235   2.686   3.691  0.1833 -1.2667  0.6875
 2772SOL    HW219779   1.306   2.654   3.808 -1.4563 -0.8069  1.6981
 2773SOL     OW19780   2.719   0.153  16.102  0.0725  0.6285 -0.6355
 2773SOL    HW119781   2.657   0.198  16.045  0.0189  1.4815  0.0900
 2773SOL    HW219782   2.684   0.064  16.102 -2.9431  1.8214  0.4890
 2774SOL     OW19783   0.429   3.473   3.854 -0.6451  0.0828 -0.0236
 2774SOL    HW119784   0.392   3.393   3.890  0.8885 -0.5991  0.0630
 2774SOL    HW219785   0.488   3.432   3.790  1.8669  2.8025  0.5470
 2775SOL     OW19786   4.147   2.025   7.315 -0.3480  0.1559 -0.0406
 2775SOL    HW119787   4.084   2.024   7.243 -0.6972 -1.8154  0.2717
 2775SOL    HW219788   4.217   1.966   7.289  0.2940  0.7225  0.4104
 2776SOL     OW19789   2.594   1.107   7.874  0.2544 -0.3875  0.2108
 2776SOL    HW119790   2.607   1.181   7.814 -1.3839 -0.9808 -0.8775
 2776SOL    HW219791   2.680   1.065   7.866  0.3668 -0.1628  0.2212
 2777SOL     OW19792   3.619   0.812   5.463  0.0592 -0.1372 -0.3108
 2777SOL    HW119793   3.669   0.810   5.381 -0.5366 -0.9161 -0.6569
 2777SOL    HW219794   3.536   0.772   5.436 -0.5821  0.6956  0.4199
 2778SOL     OW19795   0.248   4.039  17.368 -0.4268  0.2596  0.0304
 2778SOL    HW119796   0.229   4.010  17.279 -1.6219 -0.8913  0.6609
 2778SOL    HW219797   0.234   3.955  17.411 -2.1406 -1.4532 -3.9123
 2779SOL     OW19798   3.102   0.933   5.255 -0.0239  0.1814  0.6464
 2779SOL    HW119799   3.084   1.010   5.201  1.4181 -0.4070 -0.6994
 2779SOL    HW219800   3.062   0.861   5.206 -2.5230  1.5119  0.7668
 2780SOL     OW19801   3.363   1.611   4.476 -0.0500  0.0480  0.0439
 2780SOL    HW119802   3.356   1.609   4.572 -0.2577  0.9089  0.0495
 2780SOL    HW219803   3.415   1.688   4.451  1.3676 -1.1129 -0.5769
 2781SOL     OW19804   4.174   0.108   5.247  0.2267  0.0763  0.3429
 2781SOL    HW119805   4.083   0.139   5.246 -0.4470 -1.9661 -0.6918
 2781SOL    HW219806   4.213   0.116   5.160 -2.3902  1.5907 -0.7047
 2782SOL     OW19807   1.812   3.398   6.594  0.2628  0.3439  0.2887
 2782SOL    HW119808   1.789   3.482   6.634  3.8875  0.1755  2.7428
 2782SOL    HW219809   1.806   3.425   6.503  0.9099  0.6367  0.3314
 2783SOL     OW19810   2.242   0.741   7.444  0.0406 -0.0729  0.6384
 2783SOL    HW119811   2.259   0.834   7.436 -1.1761  0.2410  1.5707
 2783SOL    HW219812   2.311   0.717   7.382  0.5670  1.5349  0.6170
 2784SOL     OW19813   3.068   3.823   6.480 -0.1304  0.4830  0.2594
 2784SOL    HW119814   3.140   3.804   6.541  2.9776  2.6854 -2.6970
 2784SOL    HW219815   2.986   3.824   6.529 -2.0331  0.2576 -2.9636
 2785SOL     OW19816   1.245   3.164   4.403  0.0795  0.1248 -0.1567
 2785SOL    HW119817   1.261   3.143   4.311  2.5633 -0.9500  0.5281
 2785SOL    HW219818   1.245   3.259   4.387 -2.6730  0.4125  1.5048
 2786SOL     OW19819   4.402   2.193   3.302  0.4422  0.5994  0.2009
 2786SOL    HW119820   4.403   2.099   3.322  0.0602  0.8983  1.6539
 2786SOL    HW219821   4.495   2.206   3.285  0.4836 -0.9811 -0.8461
 2787SOL     OW19822   1.115   0.352   6.406  0.2259 -0.0150 -0.0701
 2787SOL    HW119823   1.075   0.277   6.451 -0.2488  0.8892  0.9914
 2787SOL    HW219824   1.096   0.343   6.313 -2.4076  1.5145  0.3220
 2788SOL     OW19825   1.775   2.932   1.982  0.2886 -0.3730 -0.6355
 2788SOL    HW119826   1.765   3.027   1.993  0.5943 -0.4570  0.4219
 2788SOL    HW219827   1.788   2.916   2.076 -1.3204 -0.0591 -0.3556
 2789SOL     OW19828   1.295   0.172   7.470  0.5006  0.8943 -0.6699
 2789SOL    HW119829   1.261   0.140   7.553 -1.1187  0.3416 -1.5442
 2789SOL    HW219830   1.280   0.094   7.417  1.7018  0.3228 -0.1734
 2790SOL     OW19831   0.398   1.649   5.833  0.2548  0.3762 -0.1397
 2790SOL    HW119832   0.408   1.561   5.868  0.8607  1.0249  1.3314
 2790SOL    HW219833   0.309   1.642   5.799 -0.1004  1.3858  0.5751
 2791SOL     OW19834   2.172   3.899   8.353 -0.3002 -0.1989 -0.3306
 2791SOL    HW119835   2.202   3.934   8.270  2.1249  0.8748  1.0015
 2791SOL    HW219836   2.148   3.810   8.328  3.5714 -1.5338  0.8202
 2792SOL     OW19837   3.069   3.183   0.211  0.0419 -0.5547 -0.1076
 2792SOL    HW119838   3.009   3.191   0.285 -2.4984  2.2905 -2.4768
 2792SOL    HW219839   3.087   3.276   0.197 -2.2181 -0.4830 -2.5242
 2793SOL     OW19840   3.309   0.808   3.250 -0.0760 -0.4456  0.1476
 2793SOL    HW119841   3.252   0.797   3.174 -0.7128  3.1214  0.1168
 2793SOL    HW219842   3.290   0.901   3.257 -1.6070 -0.8479  1.3620
 2794SOL     OW19843   0.994   3.578  13.765 -0.0525  0.2269 -0.2175
 2794SOL    HW119844   0.980   3.491  13.727  0.6745 -0.5959  1.4123
 2794SOL    HW219845   0.903   3.606  13.775 -0.0282  0.9274 -2.0003
 2795SOL     OW19846   3.995   4.615  15.425 -0.7137 -0.8549  0.1074
 2795SOL    HW119847   4.060   4.621  15.495 -1.6579  0.9153  0.8469
 2795SOL    HW219848   4.043   4.673  15.366 -0.7526 -2.4339 -1.4588
 2796SOL     OW19849   4.202   1.022   8.405 -0.1554  0.4584  0.3106
 2796SOL    HW119850   4.273   0.977   8.451 -1.7193 -0.9416  1.3696
 2796SOL    HW219851   4.139   1.043   8.473  0.7406  0.6837  1.0709
 2797SOL     OW19852   3.813   3.485  10.970  0.3818 -0.0861 -0.1369
 2797SOL    HW119853   3.800   3.496  10.876 -2.0126  1.6729  0.3840
 2797SOL    HW219854   3.870   3.408  10.968  3.0423  1.8838  0.3463
 2798SOL     OW19855   3.645   4.461  13.450 -0.6405 -0.3727  0.6670
 2798SOL    HW119856   3.645   4.438  13.542 -1.5167 -2.8359  0.0506
 2798SOL    HW219857   3.732   4.450  13.412 -0.9681  0.2207 -0.2752
 2799SOL     OW19858   4.704   1.330   9.475 -0.0451  0.3747  0.1977
 2799SOL    HW119859   0.018   1.329   9.564  2.0022  0.6919 -0.6107
 2799SOL    HW219860   4.692   1.424   9.463  1.3760  0.6826  1.1377
 2800SOL     OW19861   4.063   0.268   0.925  0.0824 -0.1722 -0.4084
 2800SOL    HW119862   4.040   0.175   0.920  1.5403 -0.5629 -0.0079
 2800SOL    HW219863   4.157   0.258   0.938  0.2701 -0.9380 -2.4934
 2801SOL     OW19864   1.063   0.085   8.175  0.2663  0.1189 -0.8311
 2801SOL    HW119865   1.108   0.076   8.259  0.8448 -1.4432 -1.3130
 2801SOL    HW219866   1.114   0.143   8.119 -0.9908  1.9935 -0.0223
 2802SOL     OW19867   0.465   2.103  12.653 -0.0910 -0.3666  0.3715
 2802SOL    HW119868   0.419   2.182  12.623 -0.8655 -0.2929  1.7895
 2802SOL    HW219869   0.521   2.094  12.575 -0.8643 -2.0688  0.0306
 2803SOL     OW19870   4.097   4.645   2.620 -0.1389  0.7253 -0.3255
 2803SOL    HW119871   4.039   4.628   2.545  0.0052  0.0211 -0.2839
 2803SOL    HW219872   4.172   4.586   2.604  1.2798  2.2218  0.8442
 2804SOL     OW19873   3.789   3.450  13.908  0.3898  0.2964  0.3869
 2804SOL    HW119874   3.703   3.491  13.898  0.4702  1.0691  2.8518
 2804SOL    HW219875   3.847   3.517  13.871  0.9447 -0.4724 -0.1407
 2805SOL     OW19876   1.587   0.768   5.404 -0.0376  0.3881  0.5385
 2805SOL    HW119877   1.552   0.804   5.322 -0.9326 -1.0754  0.2896
 2805SOL    HW219878   1.678   0.798   5.398  0.0626 -0.3602 -1.6319
 2806SOL     OW19879   0.422   0.847  15.542 -0.2151  0.2078 -0.2744
 2806SOL    HW119880   0.417   0.879  15.632  1.3361 -3.1624  1.0125
 2806SOL    HW219881   0.516   0.843  15.525  0.1427  0.4306  1.6886
 2807SOL     OW19882   4.580   3.076   2.787 -0.0585  0.0126 -0.3610
 2807SOL    HW119883   4.594   2.982   2.795  1.3964  0.1165 -1.6776
 2807SOL    HW219884   4.492   3.088   2.822  0.5461  1.0952  0.8270
 2808SOL     OW19885   0.420   0.841  14.289 -0.0058 -0.0761 -0.1126
 2808SOL    HW119886   0.372   0.768  14.328  0.3592 -0.3230 -0.1250
 2808SOL    HW219887   0.412   0.821  14.196 -1.4513  0.3191 -0.0754
 2809SOL     OW19888   2.117   2.366   8.538 -0.7080 -0.4010 -0.0782
 2809SOL    HW119889   2.177   2.299   8.571 -3.2144 -3.2899 -1.3507
 2809SOL    HW219890   2.170   2.420   8.479 -0.5066 -1.8621 -1.2240
 2810SOL     OW19891   0.202   1.078   4.734 -0.2251 -0.0709  0.4910
 2810SOL    HW119892   0.141   1.074   4.660 -1.0970 -2.6689  1.3548
 2810SOL    HW219893   0.153   1.034   4.803  1.4782 -3.9731 -0.7929
 2811SOL     OW19894   1.267   2.258   6.815 -0.2902 -0.1276  0.2106
 2811SOL    HW119895   1.345   2.268   6.870 -1.6563  0.2733  2.1154
 2811SOL    HW219896   1.247   2.168   6.841  0.1488  0.1903  1.7046
 2812SOL     OW19897   3.618   2.775   7.351 -0.3750  0.3633 -0.4521
 2812SOL    HW119898   3.601   2.799   7.442  0.2760 -1.4776  0.1473
 2812SOL    HW219899   3.537   2.727   7.330 -0.9675  1.4057 -0.5576
 2813SOL     OW19900   1.692   3.444   0.105 -0.4833  0.2509  0.5894
 2813SOL    HW119901   1.650   3.528   0.125 -1.4307  0.3365 -1.7623
 2813SOL    HW219902   1.766   3.444   0.165  0.2769  5.3210 -0.3632
 2814SOL     OW19903   2.520   0.148   9.761 -0.1327 -0.4247 -0.0963
 2814SOL    HW119904   2.549   0.239   9.770  1.5180 -0.9479 -0.1611
 2814SOL    HW219905   2.431   0.164   9.793  0.5561  0.3289  1.4499
 2815SOL     OW19906   1.029   1.642   0.431  0.0952 -0.7090  0.5857
 2815SOL    HW119907   1.122   1.647   0.409  0.0493 -1.0724  0.3237
 2815SOL    HW219908   1.028   1.639   0.527 -0.9580 -0.0564  0.5978
 2816SOL     OW19909   0.731   3.827   8.326 -0.1614  0.0265 -0.0533
 2816SOL    HW119910   0.661   3.796   8.269  0.2809 -0.5966 -0.2595
 2816SOL    HW219911   0.757   3.912   8.291 -1.1148  0.6374  0.7267
 2817SOL     OW19912   4.300   4.382   7.796 -0.3653 -0.4736 -0.1747
 2817SOL    HW119913   4.378   4.436   7.802 -0.3189 -0.7968  2.2222
 2817SOL    HW219914   4.246   4.427   7.861 -0.4702  0.6653 -1.0535
 2818SOL     OW19915   3.713   4.592  15.201 -0.2193  0.3390  0.6521
 2818SOL    HW119916   3.724   4.578  15.107  0.7787  0.6160  0.7240
 2818SOL    HW219917   3.767   4.525  15.242 -2.1405 -0.4110  1.9252
 2819SOL     OW19918   2.218   0.982   6.506 -0.6639  0.2673  0.2137
 2819SOL    HW119919   2.309   0.977   6.534 -0.2671 -0.4080 -1.2064
 2819SOL    HW219920   2.235   1.010   6.416 -0.3776  2.7565  1.0413
 2820SOL     OW19921   3.050   0.725   8.516  0.1590 -0.5922 -0.2705
 2820SOL    HW119922   3.101   0.704   8.437  0.0635 -0.2936 -0.4101
 2820SOL    HW219923   2.984   0.656   8.513  1.8235 -2.1148 -2.5283
 2821SOL     OW19924   0.618   3.555  16.556 -0.2120  0.1046 -0.3052
 2821SOL    HW119925   0.641   3.610  16.631  1.8944  1.1488 -1.6851
 2821SOL    HW219926   0.637   3.618  16.486  0.3146  0.7357  0.4099
 2822SOL     OW19927   2.746   1.403   3.741 -0.3466 -0.1403 -0.3838
 2822SOL    HW119928   2.701   1.383   3.659 -1.4534  1.0975 -0.0717
 2822SOL    HW219929   2.829   1.357   3.723 -2.5683 -4.4998  0.4114
 2823SOL     OW19930   2.145   0.804  10.072  0.6505  0.7671  0.2350
 2823SOL    HW119931   2.075   0.792  10.136 -1.0247  1.2942 -1.4967
 2823SOL    HW219932   2.140   0.725  10.017  1.2731  2.5994 -2.4426
 2824SOL     OW19933   2.924   4.209   4.898 -0.6055 -0.1613 -0.2098
 2824SOL    HW119934   2.937   4.259   4.978 -1.6713 -2.4197  1.3615
 2824SOL    HW219935   2.999   4.219   4.840 -1.8904  2.5165 -1.4600
 2825SOL     OW19936   0.677   4.523  14.786  0.6867  0.5111 -0.2239
 2825SOL    HW119937   0.762   4.566  14.796  1.7403 -1.7129  0.2953
 2825SOL    HW219938   0.664   4.519  14.691  1.0906 -0.0140 -0.2569
 2826SOL     OW19939   2.310   4.335   6.816  0.0559 -0.5673 -0.1154
 2826SOL    HW119940   2.308   4.239   6.820  1.3112 -0.6658 -2.0569
 2826SOL    HW219941   2.274   4.345   6.728 -0.6368  1.2969  0.3863
 2827SOL     OW19942   4.384   3.965   6.361 -0.0369  0.4726  0.1800
 2827SOL    HW119943   4.302   3.916   6.367 -0.4746  0.9914 -1.3628
 2827SOL    HW219944   4.349   4.054   6.352 -2.1885 -0.4202 -0.2024
 2828SOL     OW19945   2.451   3.410   6.550  0.4657  0.1095 -0.5139
 2828SOL    HW119946   2.423   3.498   6.575  0.7124 -0.1388  0.6414
 2828SOL    HW219947   2.418   3.352   6.619 -1.4837 -0.0983 -1.6334
 2829SOL     OW19948   3.392   1.174   4.704  0.7571 -0.5923 -0.0247
 2829SOL    HW119949   3.411   1.218   4.621  0.8885  0.5151  0.5889
 2829SOL    HW219950   3.301   1.202   4.720  1.0077 -0.6705  1.5878
 2830SOL     OW19951   0.182   3.840   4.002  0.3606  0.5950 -0.1128
 2830SOL    HW119952   0.159   3.761   3.954  0.5973 -1.7514  3.6365
 2830SOL    HW219953   0.111   3.851   4.065  1.2691 -0.8405  1.1401
 2831SOL     OW19954   3.606   1.914  10.420  0.0745  0.0548  0.3304
 2831SOL    HW119955   3.596   1.988  10.360 -0.8560  0.6345  1.1970
 2831SOL    HW219956   3.614   1.842  10.357 -1.0858  0.2739 -0.0888
 2832SOL     OW19957   1.096   4.512   9.906  0.2815  0.3351  0.2400
 2832SOL    HW119958   1.092   4.571   9.981  1.7755 -1.1149  1.4384
 2832SOL    HW219959   1.166   4.552   9.855  1.7502 -2.6941 -0.1114
 2833SOL     OW19960   2.574   0.768   1.574  0.1494  0.2515 -0.3123
 2833SOL    HW119961   2.502   0.828   1.555  0.7091  1.2835  0.8313
 2833SOL    HW219962   2.538   0.738   1.658  2.7375  1.0505  1.0654
 2834SOL     OW19963   0.797   3.934   0.434 -0.2735 -0.5405 -0.1847
 2834SOL    HW119964   0.884   3.970   0.451 -0.0866  0.5214 -3.3640
 2834SOL    HW219965   0.806   3.841   0.455  1.4876 -0.4224 -0.4611
 2835SOL     OW19966   4.450   0.042  13.842 -0.1992  0.3231  0.1723
 2835SOL    HW119967   4.397   4.684  13.837  0.5231 -0.0338 -1.8652
 2835SOL    HW219968   4.517   0.010  13.782  0.0150 -1.4409  1.3484
 2836SOL     OW19969   1.931   1.392  15.486  0.2973 -0.4951  0.3555
 2836SOL    HW119970   2.019   1.419  15.514 -0.0973  1.6372 -0.4622
 2836SOL    HW219971   1.882   1.474  15.492  1.7454  0.3017  1.4766
 2837SOL     OW19972   0.089   0.050   8.359 -0.2238  0.3953 -0.2018
 2837SOL    HW119973   0.031   0.042   8.435 -0.6285  0.1758 -0.5340
 2837SOL    HW219974   0.099   4.678   8.343 -0.4905  0.4112 -0.4571
 2838SOL     OW19975   3.092   2.501  10.440 -0.2821 -0.7720  0.4705
 2838SOL    HW119976   3.046   2.579  10.410  0.2071 -1.1451 -1.2818
 2838SOL    HW219977   3.145   2.482  10.362  0.3296  0.8720  0.4950
 2839SOL     OW19978   0.484   0.022  11.355  0.5780 -0.1558  0.3838
 2839SOL    HW119979   0.434   0.017  11.274  1.6470  1.8972 -0.4083
 2839SOL    HW219980   0.478   4.650  11.377 -0.7063 -0.2501 -0.3527
 2840SOL     OW19981   4.064   0.691   1.420 -0.0300  0.4198  0.0158
 2840SOL    HW119982   4.091   0.670   1.509  0.7085  3.9692  0.6500
 2840SOL    HW219983   4.027   0.610   1.386 -0.4909 -0.5333  2.7685
 2841SOL     OW19984   1.967   3.025  13.794  0.1439 -0.2548  0.0180
 2841SOL    HW119985   2.058   3.000  13.804  0.6346  2.3047  2.1486
 2841SOL    HW219986   1.986   3.057  13.706  0.0151  0.5571  0.2840
 2842SOL     OW19987   4.026   1.348   9.468  0.5195 -0.3004  0.2130
 2842SOL    HW119988   4.013   1.361   9.375  0.0127 -0.6108  0.2411
 2842SOL    HW219989   4.076   1.430   9.469 -0.6385  0.4259 -1.5292
 2843SOL     OW19990   4.093   4.257   5.089 -0.5192  0.5227  0.8097
 2843SOL    HW119991   4.088   4.353   5.097 -0.9525  0.4716  1.1111
 2843SOL    HW219992   4.088   4.243   4.995  1.8982  1.3174  0.5527
 2844SOL     OW19993   1.798   4.251   2.215  0.0713  0.0594  0.1279
 2844SOL    HW119994   1.848   4.319   2.261  0.1824 -0.3220  0.5732
 2844SOL    HW219995   1.727   4.310   2.191  0.0403 -0.1563 -0.3023
 2845SOL     OW19996   3.001   2.956  13.773  0.1413  0.1062 -0.2684
 2845SOL    HW119997   3.000   3.030  13.833  0.2392 -0.6028  0.6091
 2845SOL    HW219998   3.094   2.955  13.748 -0.2797  0.9311 -1.8989
 2846SOL     OW19999   0.627   1.607  15.360 -0.2807 -0.4713  0.2114
 2846SOL    HW120000   0.717   1.603  15.326  0.4378  0.0980  2.0447
 2846SOL    HW220001   0.586   1.650  15.285  1.8422  2.3020  0.6616
 2847SOL     OW20002   3.069   3.416   5.512  0.0292  0.6157  0.1169
 2847SOL    HW120003   3.039   3.498   5.474  0.3770  0.0264 -1.4115
 2847SOL    HW220004   3.160   3.416   5.483  0.3322  1.0083  1.0713
 2848SOL     OW20005   0.717   4.710  11.076  0.0166  0.7304  0.6490
 2848SOL    HW120006   0.730   0.014  10.984  0.2962  0.8119  0.7127
 2848SOL    HW220007   0.678   0.070  11.109 -2.3353 -1.1790  2.6125
 2849SOL     OW20008   3.903   4.147   2.429  0.7359 -0.2324  0.3031
 2849SOL    HW120009   3.839   4.079   2.409  0.4146  0.6226 -1.5435
 2849SOL    HW220010   3.849   4.226   2.424 -0.7441 -1.2142  0.9049
 2850SOL     OW20011   4.290   3.045   2.084 -0.1319  0.4404  0.2775
 2850SOL    HW120012   4.281   3.132   2.123  2.5844  1.7038 -1.8981
 2850SOL    HW220013   4.262   3.057   1.993 -1.2237  1.2319  0.7289
 2851SOL     OW20014   1.473   2.781  14.746  0.6079 -0.8491  0.6346
 2851SOL    HW120015   1.472   2.875  14.766  0.1555 -0.2704 -1.9681
 2851SOL    HW220016   1.408   2.777  14.676 -0.0974 -0.9724  1.3011
 2852SOL     OW20017   3.944   3.590   1.626  0.1655  0.3885  0.0621
 2852SOL    HW120018   4.015   3.644   1.660 -0.0504  0.2139  0.7881
 2852SOL    HW220019   3.982   3.536   1.557  0.0895  0.6298 -0.1644
 2853SOL     OW20020   1.196   3.234   2.972  0.0760 -0.4758 -0.8794
 2853SOL    HW120021   1.235   3.165   2.918 -0.3220 -0.0178 -1.7408
 2853SOL    HW220022   1.164   3.281   2.896 -1.1345  0.0322 -0.0558
 2854SOL     OW20023   1.551   0.115  14.579 -0.3545 -0.0443 -0.2495
 2854SOL    HW120024   1.553   0.161  14.663 -1.6120  3.0976 -1.9461
 2854SOL    HW220025   1.459   0.105  14.554 -0.4310  0.2339 -0.0846
 2855SOL     OW20026   1.350   0.341   0.587 -0.3120 -0.2464  0.0493
 2855SOL    HW120027   1.276   0.387   0.547 -1.4731  0.1984  2.7164
 2855SOL    HW220028   1.310   0.256   0.603 -0.2221 -0.2648  0.1747
 2856SOL     OW20029   0.740   1.201  14.781  0.2053 -0.1047  0.2185
 2856SOL    HW120030   0.807   1.154  14.731  1.2481  1.2445  0.3550
 2856SOL    HW220031   0.704   1.124  14.826  1.7565 -1.2346 -0.4998
 2857SOL     OW20032   3.482   4.548   3.533 -0.7996  0.2249 -0.4504
 2857SOL    HW120033   3.515   4.508   3.453 -0.0694 -1.2354  0.5741
 2857SOL    HW220034   3.552   4.611   3.553 -1.1023 -0.5393  3.0995
 2858SOL     OW20035   0.066   3.248   7.454 -0.4199 -0.2867 -0.0874
 2858SOL    HW120036   0.128   3.282   7.518 -3.1228 -0.1360  2.4678
 2858SOL    HW220037   4.707   3.230   7.503 -0.4900  2.1630  0.6930
 2859SOL     OW20038   2.824   0.130  11.269  0.4374  0.0492 -0.6942
 2859SOL    HW120039   2.910   0.092  11.290  1.1583  0.7413 -2.4318
 2859SOL    HW220040   2.836   0.164  11.181  2.4364  0.8376 -0.1162
 2860SOL     OW20041   3.406   1.333  11.116 -0.3940 -0.2746  0.3204
 2860SOL    HW120042   3.440   1.248  11.144 -1.5488 -1.4297 -1.8339
 2860SOL    HW220043   3.490   1.375  11.094 -1.4419  1.7492  0.1683
 2861SOL     OW20044   2.494   3.639   3.689 -0.2577  0.4034 -0.0645
 2861SOL    HW120045   2.581   3.606   3.665 -0.0768 -0.1716  1.3918
 2861SOL    HW220046   2.470   3.698   3.617 -0.4098 -1.3324 -1.4358
 2862SOL     OW20047   3.760   0.694   3.458 -0.2327 -0.5257  0.1553
 2862SOL    HW120048   3.720   0.737   3.383  1.2503  2.3397  0.9722
 2862SOL    HW220049   3.701   0.712   3.531 -1.6161 -0.9311 -0.8853
 2863SOL     OW20050   3.558   3.332   6.684 -0.0113 -0.6132 -0.4904
 2863SOL    HW120051   3.542   3.404   6.623  0.7936 -0.2053 -0.2138
 2863SOL    HW220052   3.631   3.365   6.736  0.1702  0.0151 -1.1481
 2864SOL     OW20053   1.431   2.361   7.884 -0.4525 -0.1452  0.3684
 2864SOL    HW120054   1.418   2.268   7.863 -0.8824  0.3513 -1.5715
 2864SOL    HW220055   1.379   2.373   7.963 -1.1448 -0.2921 -0.0608
 2865SOL     OW20056   0.968   0.442   4.632 -0.5068 -0.0291 -0.3083
 2865SOL    HW120057   0.903   0.511   4.650 -1.1009 -0.8306  0.6449
 2865SOL    HW220058   0.992   0.467   4.543  1.6053  1.8991  0.8156
 2866SOL     OW20059   2.825   3.003   5.633  0.4797 -0.2694 -0.1839
 2866SOL    HW120060   2.844   3.078   5.577 -1.5968  0.3795 -0.0153
 2866SOL    HW220061   2.902   2.948   5.622 -0.5395 -2.2725  2.6924
 2867SOL     OW20062   3.210   4.275   6.104 -0.1970  0.0587  0.2480
 2867SOL    HW120063   3.290   4.327   6.104  0.8473 -1.5342 -0.1249
 2867SOL    HW220064   3.244   4.186   6.117  0.3033  0.2087 -0.0374
 2868SOL     OW20065   3.574   1.375   4.892  0.0692 -0.4697  0.4438
 2868SOL    HW120066   3.546   1.292   4.855  1.7856 -0.6923 -0.3615
 2868SOL    HW220067   3.498   1.384   4.950  1.5163 -0.4381  2.3491
 2869SOL     OW20068   4.280   1.673   7.459  0.3723 -0.0518 -0.6622
 2869SOL    HW120069   4.356   1.615   7.469  0.2441 -0.3160 -1.1938
 2869SOL    HW220070   4.210   1.617   7.492  0.5177 -0.3976 -0.9452
 2870SOL     OW20071   2.791   4.712   6.828  0.3742 -0.3324 -0.3700
 2870SOL    HW120072   2.767   4.667   6.910 -0.1928 -0.2570 -0.4992
 2870SOL    HW220073   2.887   4.711   6.827  0.3787 -2.3261  0.5431
 2871SOL     OW20074   4.031   2.120   9.964  0.1932 -0.4043 -0.0306
 2871SOL    HW120075   4.061   2.056   9.899  0.5599  1.9403 -2.1719
 2871SOL    HW220076   3.938   2.107   9.948  0.6148 -1.9724 -1.2297
 2872SOL     OW20077   3.953   3.637  13.828  0.1144  0.0924  0.0643
 2872SOL    HW120078   4.043   3.645  13.861  0.2229  1.6461 -0.6093
 2872SOL    HW220079   3.963   3.598  13.742  0.5412  1.5715 -0.5639
 2873SOL     OW20080   1.437   0.243   6.367  0.6422  0.0260 -0.2333
 2873SOL    HW120081   1.386   0.275   6.442 -2.4686 -1.4549 -1.7047
 2873SOL    HW220082   1.484   0.323   6.347 -0.8106  0.8799 -0.2281
 2874SOL     OW20083   1.684   0.988   6.979 -0.2451 -0.0231 -0.2600
 2874SOL    HW120084   1.613   1.015   6.922  0.8538  0.9648 -1.1765
 2874SOL    HW220085   1.725   1.070   7.007  1.7082 -1.2182  0.4077
 2875SOL     OW20086   3.943   3.659   5.225 -0.2209  0.1167 -0.1152
 2875SOL    HW120087   3.992   3.699   5.154 -0.8464 -1.6452 -1.5380
 2875SOL    HW220088   3.985   3.684   5.308 -3.1585  0.9569  1.1323
 2876SOL     OW20089   0.294   4.316   8.262 -0.0953  1.0788  0.0169
 2876SOL    HW120090   0.324   4.259   8.333 -0.1297  1.3205  0.2231
 2876SOL    HW220091   0.259   4.389   8.312  2.0476  0.6015  2.2461
 2877SOL     OW20092   0.474   3.783  10.217 -0.2401  0.0559 -0.1229
 2877SOL    HW120093   0.466   3.842  10.292  2.8092 -1.1267  1.1107
 2877SOL    HW220094   0.385   3.748  10.212 -0.3549  0.6330 -2.0933
 2878SOL     OW20095   1.186   3.879   7.248 -0.1133 -0.2100  0.0875
 2878SOL    HW120096   1.235   3.827   7.311 -2.5559 -1.9595  0.5705
 2878SOL    HW220097   1.262   3.920   7.207  1.5359 -2.0695  1.3525
 2879SOL     OW20098   4.180   3.825   6.491  0.5733 -0.9258  0.2956
 2879SOL    HW120099   4.125   3.872   6.553  2.3880  1.4105  0.1739
 2879SOL    HW220100   4.133   3.746   6.467 -2.6606  0.7030  1.2967
 2880SOL     OW20101   1.116   1.991  12.294 -0.4915 -0.3940 -0.0251
 2880SOL    HW120102   1.115   1.924  12.363 -2.2569 -1.4717 -1.0791
 2880SOL    HW220103   1.208   2.016  12.291 -1.3799  2.7231 -1.1777
 2881SOL     OW20104   2.325   1.667   9.122 -0.1761 -0.1434  0.1644
 2881SOL    HW120105   2.400   1.610   9.104 -0.6189 -0.8887  0.6621
 2881SOL    HW220106   2.337   1.674   9.216 -1.1512 -1.6122  0.4094
 2882SOL     OW20107   4.061   2.256   5.322 -0.1240 -0.5712 -0.1911
 2882SOL    HW120108   4.078   2.295   5.236  1.1661 -0.9733 -0.1229
 2882SOL    HW220109   3.994   2.314   5.358  0.8350  0.8108 -0.6737
 2883SOL     OW20110   0.423   4.426   7.927 -0.4551  0.3471  0.0171
 2883SOL    HW120111   0.453   4.495   7.986  1.2358 -1.9232  1.8097
 2883SOL    HW220112   0.360   4.472   7.871 -1.6401  0.6860  1.6354
 2884SOL     OW20113   0.806   3.916   7.994  0.0303 -0.0941  0.0414
 2884SOL    HW120114   0.827   3.990   7.936  0.1709 -0.3579 -0.2455
 2884SOL    HW220115   0.731   3.884   7.945 -0.4577 -1.4334  1.6915
 2885SOL     OW20116   0.477   2.635   5.136 -0.7502 -0.8499  0.8182
 2885SOL    HW120117   0.422   2.682   5.199  1.6925  0.1269  2.2178
 2885SOL    HW220118   0.429   2.661   5.057 -1.1693 -2.1384  0.6554
 2886SOL     OW20119   0.601   0.690  13.081 -0.5610 -0.2804 -0.1854
 2886SOL    HW120120   0.584   0.600  13.055 -0.6156 -0.1278 -0.6973
 2886SOL    HW220121   0.514   0.725  13.063  0.4834  1.8895 -1.1154
 2887SOL     OW20122   3.164   2.008  11.665  0.5843 -0.4318 -0.3565
 2887SOL    HW120123   3.082   1.974  11.629 -0.8676  0.4034  2.1631
 2887SOL    HW220124   3.155   2.099  11.639 -1.0862  0.1812  2.3998
 2888SOL     OW20125   4.516   1.161  15.645 -0.2952 -0.4213 -0.2137
 2888SOL    HW120126   4.518   1.248  15.605 -2.1689 -0.1089  0.3913
 2888SOL    HW220127   4.602   1.154  15.686 -1.2824 -0.5005  1.8292
 2889SOL     OW20128   3.072   1.699   7.932 -0.3741 -0.2615  0.0881
 2889SOL    HW120129   3.143   1.686   7.870  0.9435 -0.6850  1.6939
 2889SOL    HW220130   3.107   1.770   7.985 -0.9684 -0.1636  0.3479
 2890SOL     OW20131   1.779   4.189  16.416 -0.1714  0.5394 -0.0148
 2890SOL    HW120132   1.729   4.233  16.485  0.6318  0.4942  0.5941
 2890SOL    HW220133   1.857   4.243  16.405  0.0428  0.3720  0.6931
 2891SOL     OW20134   0.920   1.551   7.175 -0.4736 -0.2706 -0.3085
 2891SOL    HW120135   0.934   1.480   7.238  0.5706  0.9778  0.8692
 2891SOL    HW220136   1.009   1.582   7.158 -0.5563  0.5988  0.8864
 2892SOL     OW20137   1.099   3.099   6.664  0.3308 -0.1391  0.2099
 2892SOL    HW120138   1.084   3.188   6.631  0.0591 -0.6266 -0.9787
 2892SOL    HW220139   1.084   3.109   6.758 -1.0705  0.9440 -0.1124
 2893SOL     OW20140   2.244   1.516   7.298  0.7438  0.3416  0.1881
 2893SOL    HW120141   2.182   1.522   7.371  1.6277  0.6648  0.9198
 2893SOL    HW220142   2.186   1.553   7.232  2.0347  1.5059 -0.3136
 2894SOL     OW20143   1.239   4.033   3.350  0.0088  0.4100  0.3099
 2894SOL    HW120144   1.218   4.124   3.329 -0.7751  0.3824  0.9796
 2894SOL    HW220145   1.150   4.003   3.368  0.4405 -0.4126  1.0549
 2895SOL     OW20146   2.508   0.472   6.590  0.2239 -0.2253 -0.9748
 2895SOL    HW120147   2.458   0.475   6.672 -0.6355  0.8562 -1.5372
 2895SOL    HW220148   2.434   0.446   6.535  0.1725  2.2437 -2.0804
 2896SOL     OW20149   2.946   0.781   0.855 -0.1562 -0.0742 -0.4079
 2896SOL    HW120150   2.992   0.864   0.869 -2.5234  0.8353  2.1023
 2896SOL    HW220151   2.913   0.757   0.942 -0.6388 -0.5537 -0.7261
 2897SOL     OW20152   3.322   0.480   6.764  0.0170 -0.6081  0.2039
 2897SOL    HW120153   3.353   0.523   6.685 -0.4889  1.0682  0.9212
 2897SOL    HW220154   3.232   0.460   6.740 -0.0374  2.1408 -1.9044
 2898SOL     OW20155   0.578   2.119   5.768 -0.2952  0.6836 -0.1553
 2898SOL    HW120156   0.541   2.036   5.739  0.6995 -0.1496  0.9287
 2898SOL    HW220157   0.617   2.094   5.852 -0.4588 -1.5698 -0.7401
 2899SOL     OW20158   2.977   2.212  10.302  0.0037  0.4374  0.7488
 2899SOL    HW120159   2.884   2.232  10.289  0.2032  1.3460  0.7003
 2899SOL    HW220160   3.017   2.299  10.307 -0.2872  0.5001  1.8003
 2900SOL     OW20161   2.245   0.197   9.739 -0.1589 -0.3762 -0.3708
 2900SOL    HW120162   2.272   0.229   9.653 -1.2303  2.6171  0.3878
 2900SOL    HW220163   2.177   0.260   9.764 -0.4048 -0.0489 -1.8538
 2901SOL     OW20164   4.610   4.066   7.581  0.2050 -0.1264  0.0656
 2901SOL    HW120165   4.626   4.000   7.649 -2.4648 -2.1682 -1.2536
 2901SOL    HW220166   4.653   4.143   7.617  1.9017 -1.1850  0.3305
 2902SOL     OW20167   2.306   0.453   6.811 -0.6252  0.5472  0.0023
 2902SOL    HW120168   2.269   0.538   6.787  0.3902  0.7432 -0.8523
 2902SOL    HW220169   2.336   0.466   6.901  0.4391 -0.5227 -0.2054
 2903SOL     OW20170   4.429   4.107  11.516  0.2999 -0.0992 -0.5315
 2903SOL    HW120171   4.435   4.091  11.610 -1.4088 -0.5596 -0.4963
 2903SOL    HW220172   4.504   4.050  11.500 -0.3063  0.0431 -3.8319
 2904SOL     OW20173   2.558   3.565  12.958  0.5712  0.1410 -0.1288
 2904SOL    HW120174   2.640   3.578  13.005  0.6397 -0.6440 -0.0290
 2904SOL    HW220175   2.511   3.648  12.967  0.3591 -0.1643  1.6082
 2905SOL     OW20176   3.574   4.271  12.610  0.4862  0.4175 -0.0219
 2905SOL    HW120177   3.635   4.317  12.553  3.2171 -1.3525  1.5157
 2905SOL    HW220178   3.489   4.306  12.584 -0.0317 -0.2173  0.7904
 2906SOL     OW20179   0.419   1.138   3.162 -0.0763  0.1550 -0.1849
 2906SOL    HW120180   0.373   1.187   3.093 -0.8950  0.5452  0.6363
 2906SOL    HW220181   0.417   1.047   3.135 -0.9475  0.0336  0.2825
 2907SOL     OW20182   0.251   0.560  16.082  0.3618 -0.5211  0.4872
 2907SOL    HW120183   0.179   0.611  16.120 -0.1955 -0.0949 -1.1724
 2907SOL    HW220184   0.314   0.558  16.154 -1.0341 -2.5939  1.6361
 2908SOL     OW20185   3.368   0.326   6.133  0.6011  0.1486 -0.5140
 2908SOL    HW120186   3.425   0.365   6.199 -0.1402  4.2691 -2.2760
 2908SOL    HW220187   3.290   0.312   6.187  1.4052  1.3474  0.9607
 2909SOL     OW20188   1.835   4.256   4.413  0.3694 -0.1441 -0.0064
 2909SOL    HW120189   1.884   4.218   4.486  1.5859  1.7914  0.1759
 2909SOL    HW220190   1.744   4.269   4.442  0.0474 -1.2739 -0.4849
 2910SOL     OW20191   3.057   2.629   3.277  0.3469 -0.6489 -0.2502
 2910SOL    HW120192   3.122   2.580   3.327 -0.5609 -0.4254  1.1542
 2910SOL    HW220193   3.070   2.607   3.185  1.7583 -1.3772  0.1184
 2911SOL     OW20194   0.215   3.582   5.304  0.0212  0.0352 -0.0083
 2911SOL    HW120195   0.241   3.627   5.384 -1.7217 -1.2603  1.2888
 2911SOL    HW220196   0.223   3.656   5.244 -3.0090 -0.6247 -1.1934
 2912SOL     OW20197   0.560   2.116   3.018 -0.5080 -0.1738 -0.1305
 2912SOL    HW120198   0.585   2.065   2.941 -0.8144  1.8032 -1.5257
 2912SOL    HW220199   0.573   2.205   2.985 -0.0112 -0.5266 -0.9077
 2913SOL     OW20200   2.461   1.501   7.651 -0.1072 -0.1481 -0.3397
 2913SOL    HW120201   2.449   1.412   7.685  2.0611 -0.7628 -1.1765
 2913SOL    HW220202   2.508   1.478   7.570  0.8013 -1.1534  0.4756
 2914SOL     OW20203   3.133   1.136   8.909 -0.2517 -0.5368  0.2616
 2914SOL    HW120204   3.158   1.096   8.826 -0.3735  2.4544 -1.2321
 2914SOL    HW220205   3.159   1.072   8.975 -0.6258 -0.1787  0.7565
 2915SOL     OW20206   3.162   3.513  11.822 -0.0178  0.1989  0.1518
 2915SOL    HW120207   3.084   3.520  11.877  0.2556  1.1841  0.4157
 2915SOL    HW220208   3.130   3.458  11.751  1.0864  0.2845 -0.4248
 2916SOL     OW20209   0.580   0.514  15.064 -0.1176  0.1040 -0.6609
 2916SOL    HW120210   0.637   0.530  15.140 -0.8936  0.4328 -0.1517
 2916SOL    HW220211   0.642   0.537  14.994  0.1859  0.4529 -0.2777
 2917SOL     OW20212   4.449   3.756   3.770  0.5279  0.4742  0.2625
 2917SOL    HW120213   4.500   3.812   3.711 -0.3036 -0.7671 -1.6670
 2917SOL    HW220214   4.473   3.670   3.735  1.3208  1.1675 -0.9046
 2918SOL     OW20215   0.987   1.581   0.698 -0.4179 -0.3556  0.1608
 2918SOL    HW120216   0.996   1.519   0.770 -1.1583 -0.8238 -0.1376
 2918SOL    HW220217   0.899   1.614   0.716  0.5904  1.9010  0.8415
 2919SOL     OW20218   3.218   4.637  14.817  0.5372  0.3626  0.4639
 2919SOL    HW120219   3.148   4.580  14.849 -0.1116  1.7933  1.6115
 2919SOL    HW220220   3.221   4.698  14.891  3.6174  0.6492  0.0978
 2920SOL     OW20221   0.750   3.794   7.392  0.5437 -0.3182  0.1594
 2920SOL    HW120222   0.775   3.749   7.311 -1.0281 -1.5394  0.3444
 2920SOL    HW220223   0.667   3.837   7.370 -1.1129 -2.7394  1.7902
 2921SOL     OW20224   2.189   1.660  15.196 -0.5761  0.5402  0.5820
 2921SOL    HW120225   2.134   1.691  15.124  0.3406  1.3686  0.2309
 2921SOL    HW220226   2.159   1.569  15.199  0.4850  0.0989 -2.5841
 2922SOL     OW20227   4.115   1.965   8.739 -0.0339 -0.1377  0.2690
 2922SOL    HW120228   4.205   1.944   8.762 -0.8554 -2.8316  0.9981
 2922SOL    HW220229   4.064   1.916   8.804 -0.2331 -0.0808  0.1571
 2923SOL     OW20230   2.833   0.446  16.972  0.1117  0.1021 -0.3797
 2923SOL    HW120231   2.800   0.533  16.950  1.7250  0.4556 -1.3978
 2923SOL    HW220232   2.854   0.427  16.881  1.5733 -1.3973  0.2646
 2924SOL     OW20233   3.753   0.813   5.781  0.2107  0.2322 -0.2528
 2924SOL    HW120234   3.773   0.813   5.687  2.4482  1.6184  0.2320
 2924SOL    HW220235   3.809   0.884   5.811 -0.1727  0.5340 -0.2545
 2925SOL     OW20236   2.043   1.266  12.253  0.0007 -0.2851 -0.0211
 2925SOL    HW120237   2.094   1.273  12.333 -0.6756  1.2987  0.2626
 2925SOL    HW220238   2.014   1.355  12.235 -0.6808 -0.5216 -0.0887
 2926SOL     OW20239   4.353   3.742   7.220  0.4835 -0.6439  0.3351
 2926SOL    HW120240   4.366   3.709   7.132  0.9425  1.3628 -0.3430
 2926SOL    HW220241   4.390   3.830   7.215  1.5505 -1.1104  0.1021
 2927SOL     OW20242   0.560   0.276  15.258  0.1156  0.7003  0.1329
 2927SOL    HW120243   0.532   0.363  15.229 -1.1557  0.1341 -0.3757
 2927SOL    HW220244   0.535   0.230  15.177  0.6394  0.4398  0.1214
 2928SOL     OW20245   2.159   0.459   4.543 -0.8257 -0.4015  0.0523
 2928SOL    HW120246   2.187   0.460   4.635 -1.8609 -1.5718  0.3783
 2928SOL    HW220247   2.139   0.366   4.533  1.1745 -0.9932  1.5786
 2929SOL     OW20248   3.317   3.172   4.456 -0.1275 -0.1044 -0.6106
 2929SOL    HW120249   3.396   3.139   4.497 -1.3463 -1.7156  0.4151
 2929SOL    HW220250   3.310   3.260   4.493 -0.2065 -0.5605  0.4440
 2930SOL     OW20251   3.664   2.666   7.794  0.0594 -0.6936  0.0691
 2930SOL    HW120252   3.646   2.694   7.883  1.6915 -1.9863  0.8083
 2930SOL    HW220253   3.588   2.685   7.739  0.2787 -1.0136 -0.3502
 2931SOL     OW20254   0.228   3.489   2.235 -0.0898  0.1401  0.4260
 2931SOL    HW120255   0.174   3.513   2.310 -1.0594  1.1282 -0.5870
 2931SOL    HW220256   0.172   3.443   2.173 -0.5891  1.7394 -0.3280
 2932SOL     OW20257   3.162   1.932  14.471  1.2518  0.7569  0.3500
 2932SOL    HW120258   3.083   1.935  14.418  0.3427 -2.1222  1.5890
 2932SOL    HW220259   3.199   1.846  14.451  0.4368  0.4769  0.0493
 2933SOL     OW20260   2.860   3.920   1.467 -0.1480 -0.5114 -0.5726
 2933SOL    HW120261   2.788   3.872   1.509 -0.5668 -0.2678 -1.0049
 2933SOL    HW220262   2.810   3.983   1.415  0.1633  2.2488  2.4532
 2934SOL     OW20263   0.884   2.286   3.261  0.5361  0.1933  0.1587
 2934SOL    HW120264   0.843   2.293   3.175 -1.0172  2.2523  1.0821
 2934SOL    HW220265   0.824   2.342   3.311 -1.7940 -1.0049 -1.2930
 2935SOL     OW20266   1.900   4.125   6.481  0.1727 -0.3136  0.4946
 2935SOL    HW120267   1.917   4.118   6.387  0.9387 -0.0963  0.6098
 2935SOL    HW220268   1.976   4.076   6.515 -0.0387 -1.2848 -0.4241
 2936SOL     OW20269   2.980   3.040   0.845 -0.0707 -0.0589  0.2153
 2936SOL    HW120270   3.037   3.117   0.833 -0.2153  0.2596  1.6515
 2936SOL    HW220271   3.042   2.980   0.803 -0.0024  0.8064 -0.9272
 2937SOL     OW20272   1.735   4.363   2.872  0.0654 -0.4353 -0.0814
 2937SOL    HW120273   1.797   4.434   2.887 -0.8672  0.4761 -0.6008
 2937SOL    HW220274   1.797   4.303   2.829  1.9967  1.2911  0.2902
 2938SOL     OW20275   2.617   2.441  10.465 -0.3708 -0.1399  0.5188
 2938SOL    HW120276   2.682   2.495  10.511 -1.5127  0.0148  1.9167
 2938SOL    HW220277   2.539   2.466  10.515  1.7000  0.4951  3.4434
 2939SOL     OW20278   2.152   2.276   5.106 -0.0862 -0.1324 -0.0949
 2939SOL    HW120279   2.214   2.208   5.133  0.0283 -0.0550 -0.1634
 2939SOL    HW220280   2.219   2.330   5.065  0.3672 -1.6873 -1.3887
 2940SOL     OW20281   4.106   1.860   7.619 -0.0481  0.0971  0.4080
 2940SOL    HW120282   4.137   1.898   7.537  0.5080 -1.4040 -0.0751
 2940SOL    HW220283   4.184   1.838   7.668  0.5429  2.2676  0.4199
 2941SOL     OW20284   3.117   3.056   6.588 -0.2320  0.3689 -0.7556
 2941SOL    HW120285   3.117   3.048   6.492  0.9916  0.1145 -0.7411
 2941SOL    HW220286   3.206   3.090   6.593 -0.2594  0.2085  0.8631
 2942SOL     OW20287   1.036   1.377   4.908  0.1384  0.4814 -0.0286
 2942SOL    HW120288   0.989   1.384   4.991  1.5372  1.1882  0.7238
 2942SOL    HW220289   1.086   1.297   4.923  1.6132  1.3698 -0.0737
 2943SOL     OW20290   2.740   2.122   6.345  0.0637 -0.1493 -0.1156
 2943SOL    HW120291   2.764   2.139   6.254  1.0295  4.3655  1.0062
 2943SOL    HW220292   2.737   2.027   6.357 -0.9752 -0.2587 -1.2402
 2944SOL     OW20293   1.839   2.154  14.352 -0.0091 -0.1232  0.5816
 2944SOL    HW120294   1.914   2.208  14.375  0.0777  0.2043 -0.4913
 2944SOL    HW220295   1.887   2.076  14.325 -1.0980 -0.3962 -0.5524
 2945SOL     OW20296   3.831   3.480   4.977 -0.3157 -0.4893 -0.5767
 2945SOL    HW120297   3.867   3.568   4.970  0.3159 -0.6498  0.7431
 2945SOL    HW220298   3.911   3.435   5.004  0.1664  0.0820 -1.0547
 2946SOL     OW20299   2.813   3.329   2.463  0.6142 -0.1321 -0.0218
 2946SOL    HW120300   2.818   3.421   2.439  1.0762  0.0464  0.7645
 2946SOL    HW220301   2.887   3.317   2.523  0.1749  0.7034  0.6785
 2947SOL     OW20302   3.507   3.317   3.042  0.0157 -0.2387  0.1028
 2947SOL    HW120303   3.463   3.399   3.017 -0.2930 -0.0591  1.2126
 2947SOL    HW220304   3.580   3.351   3.095 -0.4192 -0.9806  1.1723
 2948SOL     OW20305   3.633   0.340   2.535 -0.1453 -0.2358 -0.5633
 2948SOL    HW120306   3.727   0.350   2.548  0.0156 -2.6310  0.1561
 2948SOL    HW220307   3.633   0.245   2.550 -1.1256 -0.2035 -0.3322
 2949SOL     OW20308   0.596   4.628  10.283  0.4720 -0.0979 -0.5416
 2949SOL    HW120309   0.645   4.684  10.343  2.3582 -0.3686 -1.8503
 2949SOL    HW220310   0.597   4.549  10.336 -0.8914  1.6380  2.0946
 2950SOL     OW20311   1.928   1.284   5.512  0.5637 -0.3146 -0.4501
 2950SOL    HW120312   1.934   1.342   5.436 -0.2262 -0.3049 -0.5008
 2950SOL    HW220313   1.897   1.338   5.585  2.5978  2.4141 -1.6148
 2951SOL     OW20314   2.710   3.284   0.192 -0.0237 -0.0251 -0.0851
 2951SOL    HW120315   2.635   3.309   0.246 -1.0803 -0.2064 -1.4427
 2951SOL    HW220316   2.779   3.288   0.257  0.8455  1.3304 -1.0790
 2952SOL     OW20317   4.460   2.249  13.321  0.2138  0.3021  0.1175
 2952SOL    HW120318   4.528   2.214  13.262 -0.1402  0.2594 -0.2684
 2952SOL    HW220319   4.376   2.241  13.275 -0.0675 -0.3330  0.7438
 2953SOL     OW20320   0.488   3.541  15.249  0.3350 -0.3633 -0.0407
 2953SOL    HW120321   0.517   3.457  15.285 -1.2992 -0.3759  1.2172
 2953SOL    HW220322   0.561   3.581  15.202  1.2774 -0.6108  1.2025
 2954SOL     OW20323   1.327   0.104   5.790 -0.5117 -0.2697  0.1913
 2954SOL    HW120324   1.311   0.061   5.874  0.9404 -2.0847 -0.4555
 2954SOL    HW220325   1.238   0.124   5.761 -0.2455 -0.6777 -0.9075
 2955SOL     OW20326   4.670   4.128   5.408  0.4542  0.5391 -0.2762
 2955SOL    HW120327   4.696   4.219   5.425  2.6957  0.1747 -1.7654
 2955SOL    HW220328   0.031   4.086   5.383  0.9929  0.7152  1.1716
 2956SOL     OW20329   4.586   2.858  12.110  0.2516 -0.0185 -0.1388
 2956SOL    HW120330   4.541   2.939  12.085 -1.9973 -1.4941 -0.8599
 2956SOL    HW220331   4.640   2.851  12.032  0.7625  0.1624  0.2000
 2957SOL     OW20332   3.061   4.322   3.406 -0.4738 -0.1154  0.1810
 2957SOL    HW120333   3.133   4.308   3.346 -1.1399  1.4948 -1.0011
 2957SOL    HW220334   3.069   4.418   3.407 -3.1006  0.1268 -2.7280
 2958SOL     OW20335   4.143   3.714   5.444  0.2705 -0.3116  0.6321
 2958SOL    HW120336   4.074   3.771   5.478  1.3979  1.5698 -0.2196
 2958SOL    HW220337   4.198   3.713   5.523  0.7238 -0.0554  0.3198
 2959SOL     OW20338   0.965   2.713   4.975  0.3885  0.2040  0.1978
 2959SOL    HW120339   1.003   2.797   4.952  0.3931  0.2508  0.3811
 2959SOL    HW220340   0.940   2.731   5.066  0.5931 -2.4994  0.7957
 2960SOL     OW20341   0.712   2.499   7.431 -0.1195  0.0094  0.5778
 2960SOL    HW120342   0.686   2.568   7.370  0.1609 -0.7523 -0.4009
 2960SOL    HW220343   0.801   2.524   7.458 -0.6308 -0.4191  2.6439
 2961SOL     OW20344   4.157   3.718   3.714 -0.1555  0.4450 -0.3999
 2961SOL    HW120345   4.230   3.754   3.763  0.1266 -2.4312  1.3030
 2961SOL    HW220346   4.196   3.635   3.685  1.3953  0.8371  0.6257
 2962SOL     OW20347   2.195   2.722   4.264 -0.0336  0.6259 -0.9043
 2962SOL    HW120348   2.197   2.626   4.272  0.6777  0.5195 -2.2709
 2962SOL    HW220349   2.286   2.750   4.272  0.0126  0.2793 -0.2099
 2963SOL     OW20350   2.501   1.606   7.209 -0.6806 -0.0655 -0.6385
 2963SOL    HW120351   2.408   1.592   7.229 -0.1884 -1.4675  0.7104
 2963SOL    HW220352   2.510   1.586   7.116 -0.5001 -1.7927 -0.2532
 2964SOL     OW20353   1.009   2.532   8.185 -0.2367 -0.3838 -0.5155
 2964SOL    HW120354   0.949   2.458   8.196  0.8437 -1.2017 -0.1259
 2964SOL    HW220355   1.097   2.499   8.199  0.3305  0.9089 -1.0456
 2965SOL     OW20356   2.999   2.941  10.087  0.1218 -0.3948 -0.0519
 2965SOL    HW120357   2.932   3.001  10.121  1.1698 -0.0055  1.3007
 2965SOL    HW220358   2.933   2.891  10.038  0.8775 -1.4089 -0.0192
 2966SOL     OW20359   2.157   0.967   9.158  0.5868  0.1418  0.2527
 2966SOL    HW120360   2.187   0.877   9.173  0.4642 -0.2275 -1.7251
 2966SOL    HW220361   2.243   1.010   9.158  1.3518 -1.3438  3.5359
 2967SOL     OW20362   4.181   0.827  15.411  0.0371 -0.2617  0.3677
 2967SOL    HW120363   4.255   0.841  15.470  0.4574  1.4969 -0.5744
 2967SOL    HW220364   4.111   0.825  15.476 -0.6239  0.7519 -0.3118
 2968SOL     OW20365   2.964   0.787   6.245  0.0915 -0.0573 -0.5547
 2968SOL    HW120366   3.007   0.783   6.330 -2.5961 -1.1055  0.7512
 2968SOL    HW220367   3.036   0.802   6.184  0.6768 -2.3738 -0.4456
 2969SOL     OW20368   3.688   3.194   4.088 -0.1228 -0.4374 -0.1276
 2969SOL    HW120369   3.694   3.246   4.009  1.1615  0.7424  0.7456
 2969SOL    HW220370   3.750   3.128   4.056  0.6128 -0.8118  2.0673
 2970SOL     OW20371   1.753   3.225  11.713 -0.0433 -0.2712  0.5791
 2970SOL    HW120372   1.668   3.181  11.709  0.2426 -0.5936 -1.6999
 2970SOL    HW220373   1.810   3.160  11.673 -0.4581 -0.2266 -0.0846
 2971SOL     OW20374   0.841   0.456   2.477 -0.3632  0.3528 -0.2410
 2971SOL    HW120375   0.878   0.529   2.527 -0.3511  0.1240  0.0854
 2971SOL    HW220376   0.860   0.375   2.526 -3.0452 -0.6927 -0.9493
 2972SOL     OW20377   1.714   0.679  10.661 -0.4186  0.6439 -0.0327
 2972SOL    HW120378   1.708   0.587  10.683  0.2804  0.1143 -2.0336
 2972SOL    HW220379   1.673   0.714  10.740  1.1116 -1.2392  1.5687
 2973SOL     OW20380   0.502   0.434  10.733 -0.3792 -0.1588 -0.0514
 2973SOL    HW120381   0.409   0.414  10.720 -0.6511 -0.3676  2.2065
 2973SOL    HW220382   0.508   0.528  10.716  2.9230 -0.6114 -1.3593
 2974SOL     OW20383   0.584   2.659  15.906 -0.2501 -0.0317  0.1398
 2974SOL    HW120384   0.607   2.590  15.968 -1.8639 -0.0142  0.7416
 2974SOL    HW220385   0.512   2.703  15.952 -0.3311  1.0906 -1.0707
 2975SOL     OW20386   4.285   3.195  10.695 -1.2556  0.6127 -0.3750
 2975SOL    HW120387   4.373   3.228  10.676 -0.9192  0.6058  1.0899
 2975SOL    HW220388   4.244   3.273  10.733  0.4441  1.0512  0.5947
 2976SOL     OW20389   4.277   2.909   5.739  0.3334  0.7230 -0.3837
 2976SOL    HW120390   4.223   2.977   5.701 -3.3928 -1.5508  0.8097
 2976SOL    HW220391   4.212   2.865   5.794 -0.3074  2.1000 -0.0565
 2977SOL     OW20392   0.498   1.681  16.836  0.2350  0.0776 -0.2373
 2977SOL    HW120393   0.423   1.644  16.884  0.0958  0.5652 -0.0836
 2977SOL    HW220394   0.571   1.661  16.894  0.4877  0.0338 -0.5742
 2978SOL     OW20395   4.383   3.574   6.344  0.1532 -0.2703 -0.4881
 2978SOL    HW120396   4.369   3.600   6.253  2.3476 -0.1254 -0.7943
 2978SOL    HW220397   4.474   3.542   6.339  0.0887 -0.6371  0.5878
 2979SOL     OW20398   3.919   2.315   9.692 -0.0361 -0.5786 -0.7314
 2979SOL    HW120399   3.986   2.246   9.686  1.0049  0.5231 -1.8767
 2979SOL    HW220400   3.845   2.256   9.704  1.6509 -2.1128  2.3049
 2980SOL     OW20401   0.202   2.389   7.516 -0.0371  0.4058  0.1802
 2980SOL    HW120402   0.208   2.360   7.425 -1.4002 -1.6599  0.7576
 2980SOL    HW220403   0.119   2.436   7.507  1.0380  2.6381  1.7805
 2981SOL     OW20404   0.552   3.529   4.468  0.5502  0.4437 -0.4773
 2981SOL    HW120405   0.646   3.515   4.453  0.2845 -1.7583 -0.0832
 2981SOL    HW220406   0.519   3.592   4.404  1.2088  0.5953 -0.6753
 2982SOL     OW20407   1.925   4.102  15.476  0.5061  0.0221 -0.1920
 2982SOL    HW120408   1.895   4.130  15.562 -1.2432  1.1197 -1.1474
 2982SOL    HW220409   2.012   4.069  15.498 -0.2032  0.1066  2.6185
 2983SOL     OW20410   0.561   3.639   5.531 -0.7764 -0.1658  0.2513
 2983SOL    HW120411   0.597   3.641   5.619 -1.3038 -1.2788  0.4996
 2983SOL    HW220412   0.495   3.708   5.542 -0.5890 -0.3802  2.6089
 2984SOL     OW20413   0.859   1.359   6.438 -0.1467 -0.2576  0.2572
 2984SOL    HW120414   0.896   1.280   6.477 -1.8892  0.2279  2.8808
 2984SOL    HW220415   0.933   1.371   6.378  0.7774 -1.8237  1.0828
 2985SOL     OW20416   0.614   2.709   3.494 -0.7288  0.9431  0.3926
 2985SOL    HW120417   0.690   2.759   3.524 -0.6342  0.3702  1.1293
 2985SOL    HW220418   0.534   2.725   3.544 -2.2755 -1.2374 -1.4112
 2986SOL     OW20419   3.037   0.543   3.430 -0.1585 -0.1361  0.0553
 2986SOL    HW120420   3.114   0.587   3.466 -0.5278 -1.0588  1.9962
 2986SOL    HW220421   3.071   0.453   3.423 -2.2574 -0.7555 -1.9933
 2987SOL     OW20422   3.242   2.297   6.421 -0.6095 -0.5424  0.0916
 2987SOL    HW120423   3.168   2.286   6.482 -0.3687 -0.1335  0.4558
 2987SOL    HW220424   3.203   2.301   6.334 -1.9042  4.5652  0.9293
 2988SOL     OW20425   3.871   0.146   9.446  0.2216 -0.1086  0.3238
 2988SOL    HW120426   3.863   0.196   9.365  1.1699  1.3151  1.1056
 2988SOL    HW220427   3.834   0.201   9.515  2.5009 -3.2308  4.0231
 2989SOL     OW20428   2.154   1.717   4.947  0.1221  0.2038 -0.1354
 2989SOL    HW120429   2.060   1.727   4.933 -0.0358 -0.3769  0.5240
 2989SOL    HW220430   2.158   1.662   5.025 -0.6558  0.0536 -0.1985
 2990SOL     OW20431   2.809   1.015   4.082  0.1333  0.2040 -0.1647
 2990SOL    HW120432   2.824   1.033   3.989 -0.0219  1.3281  0.0217
 2990SOL    HW220433   2.805   1.109   4.103  3.0881  0.0823  0.9106
 2991SOL     OW20434   3.738   3.157   3.287  0.2797 -0.1533  0.1259
 2991SOL    HW120435   3.754   3.079   3.339  1.0702  0.0612  0.2112
 2991SOL    HW220436   3.811   3.216   3.304 -0.4214  1.6578 -3.1755
 2992SOL     OW20437   0.361   1.501   8.391  0.2708 -0.1951 -0.1072
 2992SOL    HW120438   0.420   1.542   8.453 -0.1246 -2.1813  1.5703
 2992SOL    HW220439   0.283   1.554   8.409  0.0121  0.1678 -2.1943
 2993SOL     OW20440   2.705   2.324  12.405  0.1934  0.0248 -0.1679
 2993SOL    HW120441   2.641   2.262  12.440  0.0820 -0.0985 -0.5961
 2993SOL    HW220442   2.734   2.362  12.488  0.8918  2.2826 -1.4439
 2994SOL     OW20443   1.048   3.120  16.009  0.0157  0.0173 -0.3162
 2994SOL    HW120444   1.010   3.056  16.069 -2.4658 -0.7957 -2.7342
 2994SOL    HW220445   1.067   3.055  15.943  0.1913 -0.7018  0.4470
 2995SOL     OW20446   0.479   3.147   8.492  0.0935 -0.3699 -0.0758
 2995SOL    HW120447   0.524   3.063   8.495  0.9885  0.1286  0.4244
 2995SOL    HW220448   0.481   3.168   8.585 -0.9681 -1.1548  0.1135
 2996SOL     OW20449   3.529   4.637   5.691  0.6151 -0.3066 -0.4562
 2996SOL    HW120450   3.564   4.600   5.609  1.7194 -2.4403  0.9727
 2996SOL    HW220451   3.543   4.559   5.744 -1.1744 -0.4678 -0.2214
 2997SOL     OW20452   2.776   4.152   6.192  0.2093 -0.7308  0.2925
 2997SOL    HW120453   2.849   4.202   6.229  2.3074 -1.2931 -3.1117
 2997SOL    HW220454   2.814   4.125   6.109  0.0416  0.7434 -0.2608
 2998SOL     OW20455   1.156   4.166   7.831 -0.2373 -0.2616  0.4041
 2998SOL    HW120456   1.164   4.119   7.748 -3.3728 -0.9026  0.4446
 2998SOL    HW220457   1.061   4.164   7.844  0.1550  1.3545  3.5540
 2999SOL     OW20458   3.329   0.951   6.942 -0.6679 -0.5587 -0.0825
 2999SOL    HW120459   3.421   0.977   6.931 -1.4825  1.4667 -2.0591
 2999SOL    HW220460   3.337   0.861   6.975 -0.2881 -0.3268  0.4529
 3000SOL     OW20461   0.854   2.097   8.694  0.3251  0.0487 -0.2670
 3000SOL    HW120462   0.835   2.151   8.770  0.6763  0.2560 -0.3252
 3000SOL    HW220463   0.763   2.076   8.673 -0.1967  0.6656  1.4313
 3001SOL     OW20464   0.435   1.724   2.731  0.2438  0.4776 -0.0947
 3001SOL    HW120465   0.462   1.632   2.738 -0.2640  0.3499  0.1774
 3001SOL    HW220466   0.378   1.739   2.806 -0.8099 -1.9337 -0.4163
 3002SOL     OW20467   0.755   1.566   5.300  0.0016  0.2615 -0.0965
 3002SOL    HW120468   0.697   1.607   5.235 -0.0812  0.0730 -0.1422
 3002SOL    HW220469   0.720   1.613   5.375 -1.5703 -2.2113  0.7061
 3003SOL     OW20470   2.387   3.496   6.933 -0.4409  0.8118 -0.1727
 3003SOL    HW120471   2.368   3.580   6.976 -1.0489  0.3364  0.4875
 3003SOL    HW220472   2.473   3.519   6.899 -0.3844 -0.1381 -0.6678
 3004SOL     OW20473   0.965   1.542  13.961  0.0450 -0.1334 -0.1262
 3004SOL    HW120474   0.977   1.579  13.873  0.2289  0.6626  0.2284
 3004SOL    HW220475   1.005   1.456  13.950  0.3714  0.1627 -1.2931
 3005SOL     OW20476   0.956   0.601  11.169 -0.0956  0.0410  0.1436
 3005SOL    HW120477   0.990   0.630  11.085 -2.2831  0.6057 -0.5276
 3005SOL    HW220478   0.889   0.665  11.193  0.1138  0.1480  0.4478
 3006SOL     OW20479   1.497   4.414   4.794 -0.6373 -0.3890  1.0535
 3006SOL    HW120480   1.519   4.458   4.876  1.1257  0.9793 -0.1788
 3006SOL    HW220481   1.581   4.383   4.762 -1.7825 -3.8375  1.3723
 3007SOL     OW20482   1.181   3.639   2.805  0.1762  0.3661  0.2523
 3007SOL    HW120483   1.215   3.653   2.894  4.0890 -2.3719 -0.7841
 3007SOL    HW220484   1.089   3.631   2.828  0.2702 -1.3389  0.0642
 3008SOL     OW20485   3.031   3.657   5.755 -0.0459 -0.3188  0.2175
 3008SOL    HW120486   3.044   3.571   5.796  1.6169  0.0789  0.5126
 3008SOL    HW220487   3.116   3.679   5.717  0.6847  1.3851  2.8259
 3009SOL     OW20488   2.772   2.956  14.748 -0.6364 -0.3322  0.2103
 3009SOL    HW120489   2.815   2.992  14.826 -0.1503 -2.6406  1.0227
 3009SOL    HW220490   2.799   2.864  14.743 -1.3520 -0.4592 -1.2924
 3010SOL     OW20491   2.751   1.978   9.676 -0.3740 -0.0021  0.8591
 3010SOL    HW120492   2.781   1.891   9.699 -0.3353  0.3636  2.2005
 3010SOL    HW220493   2.689   1.990   9.748  0.6842 -0.7117  1.8844
 3011SOL     OW20494   0.634   0.936   8.811  0.0095 -0.1767  0.4444
 3011SOL    HW120495   0.699   0.874   8.778  0.9335 -0.3505  2.5852
 3011SOL    HW220496   0.644   1.007   8.747  0.8840  0.3866  1.2047
 3012SOL     OW20497   4.459   4.355   9.851 -0.1591  0.3192  0.2825
 3012SOL    HW120498   4.488   4.386   9.765 -0.5020 -1.9482 -0.6371
 3012SOL    HW220499   4.519   4.284   9.873  1.4630  1.6838  0.2779
 3013SOL     OW20500   0.204   1.990   1.801 -0.2533  0.0954  0.6028
 3013SOL    HW120501   0.161   2.046   1.867  2.7497  1.7784  1.1246
 3013SOL    HW220502   0.238   1.919   1.855 -3.0094 -0.9800  0.9553
 3014SOL     OW20503   2.191   4.668   9.629 -0.4191 -0.1202 -0.5287
 3014SOL    HW120504   2.140   4.694   9.553 -1.2773  0.9397  0.4143
 3014SOL    HW220505   2.213   0.038   9.648 -2.9584  0.4382 -0.2791
 3015SOL     OW20506   0.107   3.036   8.398  0.1521  0.3021 -0.2194
 3015SOL    HW120507   0.165   2.972   8.438  1.2385  0.6724 -1.1754
 3015SOL    HW220508   0.133   3.025   8.306  1.1440  0.9112 -0.0135
 3016SOL     OW20509   0.231   3.203   3.406  0.0851  0.3231  0.5051
 3016SOL    HW120510   0.319   3.195   3.443  0.2645  2.9735  0.6492
 3016SOL    HW220511   0.215   3.116   3.370 -0.0087  0.7020 -0.3586
 3017SOL     OW20512   2.488   2.658   2.396  0.1939  0.0322 -0.3706
 3017SOL    HW120513   2.410   2.705   2.366 -0.1374 -2.6943 -3.6802
 3017SOL    HW220514   2.551   2.703   2.340 -0.9055  0.8941 -0.9156
 3018SOL     OW20515   4.711   0.671   6.066  0.7001  0.3864  0.6200
 3018SOL    HW120516   0.041   0.622   6.001 -0.6464  0.1509 -0.2642
 3018SOL    HW220517   4.672   0.743   6.017  1.1181  0.2437  0.0726
 3019SOL     OW20518   0.076   2.230   1.581 -0.5100  0.6014  0.1571
 3019SOL    HW120519   0.130   2.249   1.658  1.2891  0.2665 -1.0322
 3019SOL    HW220520   0.140   2.261   1.517  0.7026  1.2682  1.6866
 3020SOL     OW20521   4.522   0.885   7.410 -0.3206  0.7203  0.4797
 3020SOL    HW120522   4.610   0.916   7.432  0.6930 -0.2357 -2.2361
 3020SOL    HW220523   4.468   0.963   7.423 -1.9987 -0.5710  1.2436
 3021SOL     OW20524   4.658   2.525   7.220 -0.3204 -0.1717  0.7160
 3021SOL    HW120525   4.564   2.511   7.211 -0.3802  1.4096 -1.1112
 3021SOL    HW220526   4.676   2.597   7.160  1.3454 -1.0518  0.1692
 3022SOL     OW20527   1.339   3.067   5.496  0.1337  0.1082  0.1655
 3022SOL    HW120528   1.389   3.144   5.524  0.0632  1.0182 -2.2412
 3022SOL    HW220529   1.395   3.059   5.419  0.0459  0.7981  0.0282
 3023SOL     OW20530   2.082   4.666   4.417 -0.1210 -0.5781  0.1977
 3023SOL    HW120531   2.084   4.610   4.339  0.4682 -0.5418  0.1839
 3023SOL    HW220532   2.018   0.009   4.386  0.2311  0.5444  1.8254
 3024SOL     OW20533   4.406   0.270   7.545  0.2675  0.6498  0.0965
 3024SOL    HW120534   4.390   0.365   7.543 -4.8218 -0.1780  0.9261
 3024SOL    HW220535   4.453   0.251   7.626  1.1799  1.3762 -0.2556
 3025SOL     OW20536   0.037   0.832   8.896  0.1570 -0.4964  0.0753
 3025SOL    HW120537   0.057   0.920   8.928 -0.6401 -0.4420  0.4165
 3025SOL    HW220538   0.121   0.793   8.921  0.1969 -0.6528 -0.2934
 3026SOL     OW20539   3.904   4.563   7.367  0.0430  0.4058  0.0229
 3026SOL    HW120540   3.981   4.577   7.422 -0.3397  0.2814  0.5928
 3026SOL    HW220541   3.850   4.641   7.374  2.2517  2.0588 -1.2265
 3027SOL     OW20542   1.625   2.442  17.511 -0.0570  0.2510  0.2276
 3027SOL    HW120543   1.564   2.479  17.575 -2.5639 -1.4529 -1.1901
 3027SOL    HW220544   1.566   2.384  17.464  0.7316  1.2583 -1.9845
 3028SOL     OW20545   2.150   0.366  14.708 -0.0895  0.1625  0.3858
 3028SOL    HW120546   2.188   0.448  14.739 -0.1222 -0.3042  1.6651
 3028SOL    HW220547   2.126   0.326  14.792 -0.0854  0.3930  0.4968
 3029SOL     OW20548   0.530   4.632   9.587 -0.1468 -0.4333 -0.2733
 3029SOL    HW120549   0.539   4.684   9.667  0.4789  1.7705 -1.7593
 3029SOL    HW220550   0.558   4.548   9.623  1.1962  0.3965  0.5888
 3030SOL     OW20551   3.724   3.319   7.894 -0.4317 -0.1204 -0.9872
 3030SOL    HW120552   3.653   3.338   7.833 -1.2617  2.0431  0.6640
 3030SOL    HW220553   3.677   3.350   7.972  2.7490  0.3074  0.7517
 3031SOL     OW20554   0.673   3.757  16.786 -0.1278  0.5348 -0.2009
 3031SOL    HW120555   0.639   3.837  16.826 -1.9576 -0.2849 -0.1379
 3031SOL    HW220556   0.719   3.726  16.864 -1.6409 -1.0469  0.0522
 3032SOL     OW20557   3.679   1.861  12.417  0.4915  0.2792 -0.1727
 3032SOL    HW120558   3.736   1.811  12.475 -0.2716  0.3657  0.6559
 3032SOL    HW220559   3.647   1.798  12.353  0.4205  3.5171 -3.3379
 3033SOL     OW20560   2.239   2.623   8.818 -0.1962  0.1459 -0.5221
 3033SOL    HW120561   2.282   2.612   8.733 -0.5712 -1.1272 -0.5483
 3033SOL    HW220562   2.148   2.601   8.800 -0.3884  1.4709 -1.1822
 3034SOL     OW20563   2.416   0.756   8.814  0.4738  0.7207  0.1077
 3034SOL    HW120564   2.484   0.741   8.880  1.0147  2.6285 -0.0240
 3034SOL    HW220565   2.357   0.683   8.830  0.1436  1.1446  0.8137
 3035SOL     OW20566   4.721   0.602  11.283 -0.2217  0.0594 -0.2138
 3035SOL    HW120567   0.001   0.620  11.189 -1.9002  1.7473  0.0903
 3035SOL    HW220568   0.089   0.582  11.311  0.5816  2.7620 -0.9316
 3036SOL     OW20569   0.806   3.222  17.607  0.6776 -0.3936 -0.3533
 3036SOL    HW120570   0.788   3.314  17.622 -0.3344 -0.9783  2.0095
 3036SOL    HW220571   0.794   3.190   0.010  0.7368 -2.0012 -0.9224
 3037SOL     OW20572   3.382   3.597   6.304  0.9512  0.5077  0.4940
 3037SOL    HW120573   3.450   3.541   6.341  0.7761  0.0280  0.0875
 3037SOL    HW220574   3.301   3.557   6.336  1.5282 -2.2857 -1.5323
 3038SOL     OW20575   2.844   0.857  15.230 -0.0762 -0.0011  0.1920
 3038SOL    HW120576   2.896   0.791  15.275 -0.8781  1.0480  2.6341
 3038SOL    HW220577   2.763   0.808  15.219  0.0997  0.4690 -3.3565
 3039SOL     OW20578   3.229   4.073   6.427 -0.2526  0.6402  0.0377
 3039SOL    HW120579   3.280   4.021   6.489  0.0450  1.0062  0.1040
 3039SOL    HW220580   3.137   4.056   6.446 -0.4424  1.2170 -0.3931
 3040SOL     OW20581   4.189   0.596   6.129 -0.3227  0.2200  0.6009
 3040SOL    HW120582   4.245   0.522   6.107 -0.7701 -0.2266  0.9905
 3040SOL    HW220583   4.245   0.660   6.083 -0.4661  0.7926  1.2316
 3041SOL     OW20584   1.103   1.990  16.083  0.3120 -0.8832  0.1518
 3041SOL    HW120585   1.087   2.064  16.024 -1.1237  1.8890  4.0230
 3041SOL    HW220586   1.015   1.958  16.100 -0.7738  2.5043  0.9703
 3042SOL     OW20587   4.690   3.072   6.002  0.2584 -0.2777 -0.0460
 3042SOL    HW120588   4.615   3.128   5.980  0.9185 -0.0265 -1.6167
 3042SOL    HW220589   0.038   3.131   6.031 -1.0574  1.9968 -1.4732
 3043SOL     OW20590   1.597   0.915   8.051 -0.2577  0.6921 -0.2441
 3043SOL    HW120591   1.547   0.916   7.970 -0.5264 -0.5886 -0.0908
 3043SOL    HW220592   1.678   0.871   8.024  0.5586  1.2965  1.2190
 3044SOL     OW20593   2.335   1.208  11.241  0.0764  0.2974  0.3209
 3044SOL    HW120594   2.328   1.297  11.207 -1.1020 -0.2761 -0.9474
 3044SOL    HW220595   2.382   1.225  11.323  0.8067 -1.1584  0.2133
 3045SOL     OW20596   0.871   2.690   0.608  0.0275  0.1288 -0.2216
 3045SOL    HW120597   0.952   2.741   0.611  0.5943 -0.7506 -0.7737
 3045SOL    HW220598   0.873   2.643   0.692  1.6751  0.6287  0.0102
 3046SOL     OW20599   4.543   2.445   3.101 -0.2290 -0.1399  0.2415
 3046SOL    HW120600   4.449   2.455   3.116 -0.0987  1.0889  0.2661
 3046SOL    HW220601   4.558   2.502   3.025 -2.5431  0.6997  0.4129
 3047SOL     OW20602   2.004   1.461   6.551  0.3980 -0.4079  0.4771
 3047SOL    HW120603   2.039   1.409   6.480 -1.1446 -0.0447 -0.5531
 3047SOL    HW220604   2.011   1.547   6.510  0.3280  0.1709  1.6657
 3048SOL     OW20605   2.917   4.478   2.869  0.1678 -0.1727 -0.3391
 3048SOL    HW120606   2.842   4.432   2.907 -0.4075 -0.3308 -1.6526
 3048SOL    HW220607   2.888   4.510   2.784 -0.7971  0.4062  0.2012
 3049SOL     OW20608   1.435   0.011   0.534  0.2565 -0.3733 -0.2367
 3049SOL    HW120609   1.465   4.651   0.575 -0.1744  0.0818  0.9965
 3049SOL    HW220610   1.520   0.054   0.529 -0.4477  1.2554  1.4787
 3050SOL     OW20611   0.690   1.797   5.076 -0.5778  0.0354  0.3485
 3050SOL    HW120612   0.656   1.868   5.131 -0.0095  0.5992 -0.0208
 3050SOL    HW220613   0.752   1.847   5.023 -1.0306  1.0363  0.7644
 3051SOL     OW20614   0.934   1.304   4.601  0.0938 -0.2676 -0.2408
 3051SOL    HW120615   0.993   1.361   4.649  1.9033 -1.2271 -1.3311
 3051SOL    HW220616   0.853   1.328   4.646  0.4569 -0.1163  0.3285
 3052SOL     OW20617   3.883   2.841  12.817 -0.3877  0.1103 -1.2508
 3052SOL    HW120618   3.886   2.895  12.737  1.5420 -1.1473 -2.0383
 3052SOL    HW220619   3.975   2.851  12.844 -0.2121 -2.9626 -0.7761
 3053SOL     OW20620   3.828   4.513   1.669 -0.7085 -0.2175 -0.4686
 3053SOL    HW120621   3.794   4.440   1.618 -1.1879  0.3154 -0.9132
 3053SOL    HW220622   3.750   4.569   1.660 -1.7412 -1.2103  2.2246
 3054SOL     OW20623   1.375   2.932   6.093  0.0049 -0.1289 -0.5559
 3054SOL    HW120624   1.437   2.867   6.128 -1.2839 -0.0969  1.7294
 3054SOL    HW220625   1.369   2.976   6.177 -0.1408  1.8756 -1.6179
 3055SOL     OW20626   3.366   2.022   6.938  0.3481 -0.1808 -1.3220
 3055SOL    HW120627   3.316   1.966   6.879  0.1732 -1.2196 -0.1794
 3055SOL    HW220628   3.403   2.085   6.876  1.5678  1.4831  1.0950
 3056SOL     OW20629   4.193   0.859   1.226 -0.2430  0.3592 -0.3270
 3056SOL    HW120630   4.131   0.848   1.298 -0.7977 -0.6791 -0.9660
 3056SOL    HW220631   4.159   0.802   1.157  0.5864 -2.0271  1.2621
 3057SOL     OW20632   1.053   4.581   3.896 -0.3881 -0.5380 -0.2524
 3057SOL    HW120633   1.075   4.541   3.980  1.0367  3.3646  1.2064
 3057SOL    HW220634   0.966   4.543   3.886 -1.4532  1.8936 -0.0974
 3058SOL     OW20635   2.561   4.578   4.683 -0.1962 -0.4462 -0.3451
 3058SOL    HW120636   2.638   4.635   4.692  0.2400 -0.9195 -1.0483
 3058SOL    HW220637   2.610   4.506   4.644 -1.2183 -0.6864 -1.1840
 3059SOL     OW20638   1.465   0.420   5.873  0.2452 -0.6651  0.0014
 3059SOL    HW120639   1.555   0.427   5.843  0.2683 -0.7913  0.0388
 3059SOL    HW220640   1.473   0.347   5.935 -2.5084 -0.4983  0.5537
 3060SOL     OW20641   1.803   1.405   5.721 -0.0739  0.0556 -0.1196
 3060SOL    HW120642   1.856   1.462   5.776  1.7518 -0.4084 -1.3875
 3060SOL    HW220643   1.730   1.461   5.692  0.6107 -0.2307 -2.4621
 3061SOL     OW20644   4.009   4.228   1.738  0.1973 -0.4844 -0.0621
 3061SOL    HW120645   3.934   4.169   1.729 -0.9673  0.6131  2.4083
 3061SOL    HW220646   4.040   4.222   1.648 -1.4127  0.0205 -0.6469
 3062SOL     OW20647   4.505   3.109   3.333 -0.5984  0.4148 -0.0444
 3062SOL    HW120648   4.508   3.157   3.250  1.7962 -0.6752 -0.5926
 3062SOL    HW220649   4.414   3.124   3.356 -1.0030  0.1469 -1.4360
 3063SOL     OW20650   4.715   3.684   0.756  0.3260 -0.2533 -0.1001
 3063SOL    HW120651   4.687   3.677   0.847 -0.0894  0.9764 -0.1328
 3063SOL    HW220652   0.008   3.779   0.764  0.2785 -0.3433  0.9656
 3064SOL     OW20653   2.862   4.203   3.582  0.0510  0.0715 -0.5015
 3064SOL    HW120654   2.926   4.265   3.547  0.8897 -0.6623 -0.2616
 3064SOL    HW220655   2.793   4.260   3.616  1.4230  2.6887 -2.1079
 3065SOL     OW20656   1.897   0.534   0.512 -0.0047  0.1292 -0.2047
 3065SOL    HW120657   1.936   0.446   0.511 -1.1783 -0.3787 -1.3577
 3065SOL    HW220658   1.890   0.549   0.607 -3.4960 -2.6900 -0.0177
 3066SOL     OW20659   0.113   0.747   6.301 -0.2607 -0.2656 -0.4408
 3066SOL    HW120660   0.077   0.718   6.217 -0.3213  3.5661 -1.7125
 3066SOL    HW220661   0.046   0.815   6.307  0.2022  0.0644  0.8379
 3067SOL     OW20662   2.386   0.975   8.648  0.0249  0.0674 -0.1608
 3067SOL    HW120663   2.358   0.897   8.697  3.2663  0.2743  2.0166
 3067SOL    HW220664   2.355   0.965   8.558  0.4426 -0.4033 -0.2473
 3068SOL     OW20665   0.863   3.714   4.177  0.0607 -0.7847  0.2575
 3068SOL    HW120666   0.785   3.703   4.123  1.3914  0.2794 -1.8507
 3068SOL    HW220667   0.886   3.803   4.151  0.4568 -0.5278  1.4668
 3069SOL     OW20668   2.708   0.594   5.949 -0.4968 -0.0121  0.0854
 3069SOL    HW120669   2.673   0.674   5.912 -0.4902 -0.5365 -1.0787
 3069SOL    HW220670   2.634   0.558   5.998 -0.5835 -0.5899 -0.4595
 3070SOL     OW20671   4.236   1.959   3.581  0.5694  0.1733  0.0772
 3070SOL    HW120672   4.329   1.961   3.556  0.8302  2.6343  1.2692
 3070SOL    HW220673   4.192   1.941   3.498 -0.8120 -0.2951  0.9203
 3071SOL     OW20674   4.412   1.774   8.247 -0.0902  0.1582  0.1018
 3071SOL    HW120675   4.348   1.819   8.302  0.8031 -0.1416  1.3940
 3071SOL    HW220676   4.476   1.740   8.309 -1.6221 -0.6536  1.2317
 3072SOL     OW20677   0.604   2.090  12.404  0.5424  0.4763  0.7021
 3072SOL    HW120678   0.611   1.995  12.400 -1.5350  0.3771 -0.7725
 3072SOL    HW220679   0.520   2.103  12.360  1.3458 -0.0503 -0.9483
 3073SOL     OW20680   2.015   2.344   0.076 -0.2404 -0.1067  0.0764
 3073SOL    HW120681   1.990   2.376  17.676 -0.5577 -0.2832  0.1033
 3073SOL    HW220682   2.011   2.426   0.126 -0.7879 -0.1367  0.0854
 3074SOL     OW20683   0.014   4.271   6.667 -0.3158  0.0049  0.0138
 3074SOL    HW120684   4.644   4.283   6.694 -0.5903  0.4798 -1.1222
 3074SOL    HW220685   4.716   4.248   6.576  2.0230  1.0483 -0.7338
 3075SOL     OW20686   1.405   2.891  17.230 -0.0505 -0.0770 -0.2940
 3075SOL    HW120687   1.449   2.945  17.164 -1.5572  2.8312  1.0816
 3075SOL    HW220688   1.384   2.956  17.298 -0.0776  0.7585 -1.0924
 3076SOL     OW20689   2.719   4.651   4.005  0.2842  0.1397 -0.5347
 3076SOL    HW120690   2.626   4.643   4.025  0.0603  1.2468 -1.1003
 3076SOL    HW220691   2.703   4.645   3.911 -1.0289 -0.6245 -0.2688
 3077SOL     OW20692   3.662   4.656   6.246  0.8540 -0.2976  0.1528
 3077SOL    HW120693   3.635   0.005   6.186 -0.8363 -2.3416 -1.4412
 3077SOL    HW220694   3.602   4.587   6.221  0.7010 -0.7674  1.8220
 3078SOL     OW20695   2.770   2.642   3.287  0.2547  0.1652 -0.5522
 3078SOL    HW120696   2.862   2.665   3.275  0.4176  0.7904  1.9303
 3078SOL    HW220697   2.753   2.643   3.192  0.5358  1.0505 -0.5923
 3079SOL     OW20698   3.841   3.775  13.320  0.0413  0.2108  0.3669
 3079SOL    HW120699   3.828   3.823  13.402 -2.8829  0.1797 -0.0704
 3079SOL    HW220700   3.909   3.713  13.346  0.4791 -0.4215 -2.3549
 3080SOL     OW20701   4.308   4.614   1.995  0.2851  0.0225 -0.2964
 3080SOL    HW120702   4.354   4.590   2.076  0.7662 -0.9238 -0.8469
 3080SOL    HW220703   4.365   4.671   1.945  1.4027  0.1191  1.0752
 3081SOL     OW20704   3.066   4.305   8.941 -0.4050  0.2034  0.0433
 3081SOL    HW120705   3.115   4.246   8.884 -0.6218 -1.7412  1.8639
 3081SOL    HW220706   3.090   4.273   9.028  0.0146  0.7945  0.1447
 3082SOL     OW20707   1.692   0.467  15.292  0.2645 -0.2830  0.4548
 3082SOL    HW120708   1.598   0.447  15.297  0.0307  0.7031  0.2025
 3082SOL    HW220709   1.732   0.384  15.315  1.4553  0.1409 -0.0935
 3083SOL     OW20710   4.640   4.289  11.197 -0.0871 -0.2077 -0.1586
 3083SOL    HW120711   4.574   4.298  11.266  0.0323 -0.1504 -0.0533
 3083SOL    HW220712   4.617   4.368  11.148 -0.1962 -1.3362 -1.9687
 3084SOL     OW20713   0.930   2.602   6.277 -0.4039 -0.0354  0.0434
 3084SOL    HW120714   0.877   2.559   6.344  0.3098 -0.6409  0.2189
 3084SOL    HW220715   0.995   2.639   6.337  0.4363  1.3941 -1.7623
 3085SOL     OW20716   0.729   0.885  15.431 -0.4167  0.3036  0.0821
 3085SOL    HW120717   0.804   0.827  15.418 -1.7146 -0.7887 -2.4123
 3085SOL    HW220718   0.772   0.963  15.465 -0.2516  1.0784 -1.9162
 3086SOL     OW20719   4.426   0.476   4.325  0.2049 -0.0591  0.6518
 3086SOL    HW120720   4.481   0.418   4.377 -0.0376  0.5498  1.5815
 3086SOL    HW220721   4.425   0.548   4.388  1.8707  0.6754 -0.1538
 3087SOL     OW20722   1.728   3.109   6.875  0.2081 -0.3852  0.6214
 3087SOL    HW120723   1.775   3.045   6.820  1.0103 -0.0927  0.9749
 3087SOL    HW220724   1.796   3.148   6.930  0.2340  2.2543 -1.2885
 3088SOL     OW20725   1.876   0.704   0.261  0.4828 -0.3872 -0.0030
 3088SOL    HW120726   1.815   0.659   0.318 -1.2663  2.6204  0.4835
 3088SOL    HW220727   1.826   0.777   0.224  0.0815 -1.4640 -1.5766
 3089SOL     OW20728   1.760   2.844   8.236 -0.1578 -0.3289  0.0480
 3089SOL    HW120729   1.793   2.754   8.228  0.7467 -0.2088  2.4021
 3089SOL    HW220730   1.683   2.828   8.291  0.9321  0.6091  1.8631
 3090SOL     OW20731   3.249   4.025  12.689  0.1735  0.5146 -0.3029
 3090SOL    HW120732   3.241   4.120  12.696 -1.2736  0.3782 -0.2473
 3090SOL    HW220733   3.341   4.000  12.696  0.4932  1.3002 -1.6400
 3091SOL     OW20734   0.977   3.503  14.138 -0.0231  0.4614 -0.1503
 3091SOL    HW120735   0.942   3.476  14.223  1.7848  0.9065  0.7408
 3091SOL    HW220736   0.922   3.571  14.101  1.0657  1.2449 -0.3297
 3092SOL     OW20737   0.194   3.911   2.695 -0.2400 -0.3012 -0.5838
 3092SOL    HW120738   0.241   3.932   2.614  0.5230 -0.8862 -0.2899
 3092SOL    HW220739   0.111   3.957   2.688  0.6351  1.2153 -1.0514
 3093SOL     OW20740   2.716   1.014  12.049 -0.1228 -0.6462 -0.3194
 3093SOL    HW120741   2.761   0.933  12.023  0.4712 -0.1312 -0.8902
 3093SOL    HW220742   2.765   1.034  12.129  0.0868 -0.1874 -0.5649
 3094SOL     OW20743   1.557   3.442   6.370 -0.5817  1.1446  0.5457
 3094SOL    HW120744   1.624   3.427   6.303 -1.1013  0.1173  0.2675
 3094SOL    HW220745   1.549   3.351   6.395  0.2565  1.4461  1.9123
 3095SOL     OW20746   2.553   0.838   0.490 -0.9654 -0.5566  0.1984
 3095SOL    HW120747   2.593   0.751   0.483 -3.4466 -1.5378 -1.7085
 3095SOL    HW220748   2.600   0.876   0.415 -1.1110 -1.1310 -0.1861
 3096SOL     OW20749   0.787   1.885   1.008  0.3359  0.0643 -0.4941
 3096SOL    HW120750   0.831   1.940   0.942  0.1354 -0.0868 -0.7521
 3096SOL    HW220751   0.810   1.935   1.087  0.3690 -0.8379  0.0674
 3097SOL     OW20752   4.090   3.350   1.782 -0.2665  0.4926 -0.5714
 3097SOL    HW120753   4.119   3.412   1.715  0.4369 -1.4075 -2.0118
 3097SOL    HW220754   4.025   3.304   1.730  0.1857  2.5563 -2.9726
 3098SOL     OW20755   2.303   0.057  12.952  0.0598 -0.1751 -0.1204
 3098SOL    HW120756   2.310   4.719  12.876  2.0490  1.6962 -1.3896
 3098SOL    HW220757   2.353   0.000  13.010  3.6911  0.9914 -2.1080
 3099SOL     OW20758   2.801   2.999   3.113 -0.0548 -0.0139 -0.0485
 3099SOL    HW120759   2.770   2.915   3.078  2.2339 -1.8501  2.2923
 3099SOL    HW220760   2.727   3.050   3.081 -0.9441 -0.8571  0.6491
 3100SOL     OW20761   0.717   3.853  11.348  0.4745  0.5492  0.2642
 3100SOL    HW120762   0.728   3.777  11.291  1.2389  0.9750 -0.1656
 3100SOL    HW220763   0.761   3.924  11.301  0.5599 -1.2106 -2.3569
 3101SOL     OW20764   0.794   2.906   3.542  0.2469  0.1300 -0.1945
 3101SOL    HW120765   0.862   2.931   3.479 -0.0320 -0.8388 -0.8824
 3101SOL    HW220766   0.800   2.976   3.607  1.0233 -1.2268  1.1968
 3102SOL     OW20767   4.433   3.789  13.843  0.1891 -0.2286  0.2022
 3102SOL    HW120768   4.463   3.786  13.752  0.0824 -1.1748  0.2003
 3102SOL    HW220769   4.470   3.876  13.861  0.5681 -0.4140  0.3265
 3103SOL     OW20770   2.940   2.831   9.144 -0.1030 -0.5557  0.8723
 3103SOL    HW120771   2.857   2.839   9.191 -0.5429  2.8446 -0.4870
 3103SOL    HW220772   2.923   2.900   9.080  1.4591  0.5119  1.6094
 3104SOL     OW20773   3.192   1.100   8.345  0.6453  0.2123 -0.1153
 3104SOL    HW120774   3.266   1.155   8.370  0.8625  0.0426 -0.3821
 3104SOL    HW220775   3.227   1.011   8.357 -2.8754 -1.1854 -0.2410
 3105SOL     OW20776   4.372   3.756   8.354 -0.6672 -0.7450  0.0525
 3105SOL    HW120777   4.321   3.800   8.285  0.0764 -0.1328 -0.0998
 3105SOL    HW220778   4.354   3.663   8.337 -0.5602 -0.2236 -2.9250
 3106SOL     OW20779   0.337   0.140   7.241  0.5980 -0.0935 -0.0814
 3106SOL    HW120780   0.254   0.184   7.262  0.1966 -0.5764 -0.6592
 3106SOL    HW220781   0.373   0.190   7.167  3.7951  0.5670  1.9471
 3107SOL     OW20782   1.907   1.120   4.393  0.5493  0.0813 -0.0222
 3107SOL    HW120783   1.905   1.121   4.297  1.4172 -2.7209 -0.0766
 3107SOL    HW220784   1.963   1.197   4.402  0.8137  0.0221 -1.2208
 3108SOL     OW20785   4.308   0.698   4.774  0.3733  0.6816 -0.3590
 3108SOL    HW120786   4.235   0.651   4.813 -0.4743  1.7909 -0.5978
 3108SOL    HW220787   4.347   0.757   4.838  0.9169  0.1633 -0.2158
 3109SOL     OW20788   0.594   4.238   5.601  0.1303  0.5130 -0.3227
 3109SOL    HW120789   0.511   4.202   5.571  1.4028 -1.9334 -0.9502
 3109SOL    HW220790   0.627   4.160   5.645  2.4545  0.8614 -1.4395
 3110SOL     OW20791   3.750   3.112  16.148  0.3518  0.6634 -0.4399
 3110SOL    HW120792   3.757   3.017  16.163 -1.8291  0.9507  2.2512
 3110SOL    HW220793   3.661   3.111  16.114  0.8598  0.0234 -1.7855
 3111SOL     OW20794   1.720   0.501   8.695 -0.7139  0.0343 -0.4676
 3111SOL    HW120795   1.744   0.426   8.748 -1.6993 -0.1947 -0.3342
 3111SOL    HW220796   1.674   0.565   8.750 -1.1252 -2.4521  2.0519
 3112SOL     OW20797   1.124   4.574  12.667 -0.1960  0.5266 -0.4528
 3112SOL    HW120798   1.097   4.658  12.630 -0.7040  1.0863  1.2053
 3112SOL    HW220799   1.092   4.587  12.756  0.1046 -0.0402 -0.2613
 3113SOL     OW20800   0.185   2.388   3.403  0.0446 -0.2057  0.0773
 3113SOL    HW120801   0.122   2.438   3.351  1.8071  0.4214 -1.4557
 3113SOL    HW220802   0.133   2.374   3.482 -1.2537  0.9318 -0.5819
 3114SOL     OW20803   2.867   4.389   8.751  0.2040 -0.0641  0.4470
 3114SOL    HW120804   2.941   4.387   8.812 -0.2979 -2.2759  1.0035
 3114SOL    HW220805   2.880   4.467   8.697 -0.6065 -0.8507 -0.8687
 3115SOL     OW20806   2.683   0.797   6.244  0.0425 -0.7310  0.4097
 3115SOL    HW120807   2.646   0.755   6.166 -0.6845 -0.6645  0.7208
 3115SOL    HW220808   2.778   0.782   6.239  0.2808  0.3115  1.7574
 3116SOL     OW20809   0.692   2.027   6.002  0.2321 -0.0924  0.1205
 3116SOL    HW120810   0.759   2.093   6.022  2.0986 -1.9192 -0.1011
 3116SOL    HW220811   0.642   2.036   6.083 -2.4850  1.9572 -1.7449
 3117SOL     OW20812   4.411   0.235  13.061  0.8621 -0.8163 -0.3967
 3117SOL    HW120813   4.496   0.229  13.106 -1.9224 -3.2979  4.5088
 3117SOL    HW220814   4.417   0.171  12.991 -0.3382 -2.6841  1.1923
 3118SOL     OW20815   2.691   3.559   4.431 -0.6330  0.1088  0.7526
 3118SOL    HW120816   2.754   3.498   4.468  2.7727  3.0846 -0.1336
 3118SOL    HW220817   2.648   3.585   4.513 -0.0268  0.7932  0.8497
 3119SOL     OW20818   4.561   1.817  11.253 -0.6810  0.7613  0.5937
 3119SOL    HW120819   4.539   1.781  11.338  0.2812 -0.1009  0.4679
 3119SOL    HW220820   4.497   1.770  11.200  2.5405 -0.0261 -2.5903
 3120SOL     OW20821   2.284   4.107   8.859  0.3997  0.1425  0.3619
 3120SOL    HW120822   2.213   4.153   8.902  0.5919  1.2585 -0.5250
 3120SOL    HW220823   2.338   4.180   8.830  2.1069 -0.8150  1.0765
 3121SOL     OW20824   2.956   0.810   8.795 -0.1276  0.4767 -0.6176
 3121SOL    HW120825   3.021   0.776   8.733  0.4598 -0.8995  0.7447
 3121SOL    HW220826   2.948   0.731   8.848  1.2243  0.7222 -0.0568
 3122SOL     OW20827   3.425   4.047   4.051  0.1585 -0.0033 -0.1948
 3122SOL    HW120828   3.349   4.092   4.088  1.4109  1.5474  0.4913
 3122SOL    HW220829   3.490   4.073   4.116 -2.2678 -1.5599  2.8688
 3123SOL     OW20830   1.035   4.247  15.441  0.3532 -0.1235  0.7995
 3123SOL    HW120831   1.094   4.173  15.453  1.3597  0.5046 -0.3109
 3123SOL    HW220832   1.080   4.276  15.361  1.4299  1.1469  1.8686
 3124SOL     OW20833   3.992   3.945   0.323 -0.6878 -0.3467  0.8526
 3124SOL    HW120834   4.036   4.029   0.321  0.8316 -1.1343  1.4956
 3124SOL    HW220835   4.049   3.892   0.269 -1.5906  0.3453 -0.7681
 3125SOL     OW20836   2.699   0.678   3.143 -0.0504  0.3219 -0.1249
 3125SOL    HW120837   2.719   0.772   3.146 -0.2100  0.3074  1.1390
 3125SOL    HW220838   2.748   0.645   3.067  0.4499  1.2487 -0.2040
 3126SOL     OW20839   1.992   1.111   6.942  0.2851  0.0531  0.0881
 3126SOL    HW120840   2.074   1.137   6.900 -1.1875  1.1724 -2.0954
 3126SOL    HW220841   2.009   1.017   6.950  1.8905  0.2735 -0.6775
 3127SOL     OW20842   1.950   4.644   9.008  1.0069 -0.1836  0.0931
 3127SOL    HW120843   1.943   4.595   9.090  2.5180  2.0757  1.5792
 3127SOL    HW220844   1.920   4.575   8.949  1.0297 -0.9329  0.9519
 3128SOL     OW20845   3.329   4.516  13.178  0.5315  0.3271  0.3322
 3128SOL    HW120846   3.281   4.528  13.260 -0.1607 -0.1395 -0.0030
 3128SOL    HW220847   3.343   4.421  13.179 -0.3173  0.1616 -2.1829
 3129SOL     OW20848   3.339   0.479   5.741 -0.0707  0.4495 -0.2211
 3129SOL    HW120849   3.352   0.445   5.652 -1.2022  0.3442 -0.3390
 3129SOL    HW220850   3.254   0.448   5.772 -0.0949 -0.7300 -1.4870
 3130SOL     OW20851   4.444   3.010   5.531  0.2428  0.2706  0.7974
 3130SOL    HW120852   4.352   3.005   5.503  1.1106 -0.3300 -2.0111
 3130SOL    HW220853   4.435   2.975   5.619  1.4922  0.1297  0.8716
 3131SOL     OW20854   0.372   3.925  12.772 -0.0616 -0.1963 -0.0303
 3131SOL    HW120855   0.352   4.013  12.740 -1.8504 -0.7540 -0.4227
 3131SOL    HW220856   0.340   3.930  12.862  0.7662  2.7434  0.1006
 3132SOL     OW20857   0.626   4.415   6.722  0.1586 -0.2734  0.1454
 3132SOL    HW120858   0.613   4.353   6.650 -2.4806 -0.9884  1.2171
 3132SOL    HW220859   0.546   4.405   6.774 -0.4102  2.0896 -0.2929
 3133SOL     OW20860   2.776   0.803   0.214  0.2754  0.3396  0.7306
 3133SOL    HW120861   2.796   0.895   0.202  1.0594  0.2642  1.4520
 3133SOL    HW220862   2.865   0.768   0.214 -0.1093 -0.6524  2.0189
 3134SOL     OW20863   4.191   2.498   4.582 -0.5538 -0.0169  0.4649
 3134SOL    HW120864   4.129   2.535   4.646 -1.5304 -0.3276 -0.3002
 3134SOL    HW220865   4.131   2.502   4.508  1.3271  1.0937 -0.9895
 3135SOL     OW20866   0.659   4.370   3.433  0.0150 -0.0903 -0.0776
 3135SOL    HW120867   0.717   4.295   3.442  0.3391 -0.0628 -1.8514
 3135SOL    HW220868   0.722   4.435   3.465  0.7387 -0.3439 -0.9805
 3136SOL     OW20869   3.106   0.153  15.914  0.2045  0.4570  0.0452
 3136SOL    HW120870   3.059   0.080  15.874  1.0098 -0.0859  0.0938
 3136SOL    HW220871   3.033   0.210  15.937  1.9994  1.3051  3.5683
 3137SOL     OW20872   1.835   2.459   5.564  0.2720  0.0686 -0.7391
 3137SOL    HW120873   1.818   2.552   5.580 -1.3765 -0.5225  0.8683
 3137SOL    HW220874   1.849   2.457   5.469 -0.1397  0.5440 -0.8096
 3138SOL     OW20875   3.612   4.576   7.824 -0.1784  0.1926 -0.3299
 3138SOL    HW120876   3.591   4.639   7.893  1.0241  0.4264 -0.1865
 3138SOL    HW220877   3.701   4.591   7.795  0.5681  0.3137  2.0066
 3139SOL     OW20878   1.876   1.765   7.066  0.1893  0.5794 -0.1609
 3139SOL    HW120879   1.898   1.855   7.088  0.1415  1.0016 -1.8229
 3139SOL    HW220880   1.852   1.778   6.974  0.0275 -1.2261 -0.3707
 3140SOL     OW20881   3.921   3.371   7.209 -0.3466  0.1335 -0.2913
 3140SOL    HW120882   3.940   3.345   7.300 -1.1778  1.0698  0.1396
 3140SOL    HW220883   3.941   3.283   7.176 -0.7812  0.1563 -0.6136
 3141SOL     OW20884   0.607   4.153   8.751 -0.6475  0.3320 -0.1317
 3141SOL    HW120885   0.527   4.150   8.802 -0.3367  0.8366  0.3814
 3141SOL    HW220886   0.587   4.104   8.671  0.6446  0.9680 -0.8553
 3142SOL     OW20887   0.635   0.727   0.091  0.1864 -0.2559  0.0955
 3142SOL    HW120888   0.649   0.637   0.061 -2.4486 -1.4171  2.3927
 3142SOL    HW220889   0.542   0.734   0.070 -0.2956  1.3413  2.7119
 3143SOL     OW20890   0.935   3.211   9.218  0.3537 -0.8900  0.1165
 3143SOL    HW120891   0.984   3.186   9.139 -0.8571  0.4022 -1.0401
 3143SOL    HW220892   1.006   3.218   9.281 -0.2154 -0.2901  0.6984
 3144SOL     OW20893   2.437   1.915   3.358 -0.4765 -0.0638  0.2936
 3144SOL    HW120894   2.410   2.007   3.350  0.5659  0.1852 -0.3676
 3144SOL    HW220895   2.373   1.883   3.422  0.3722  1.3492  1.8538
 3145SOL     OW20896   4.437   2.530   9.559  0.3075 -0.0306 -0.1865
 3145SOL    HW120897   4.411   2.454   9.507  1.9985  0.0198 -1.1098
 3145SOL    HW220898   4.446   2.485   9.643  1.3872 -0.1294 -0.3572
 3146SOL     OW20899   2.336   3.963  13.172 -0.1526 -0.3315  0.5530
 3146SOL    HW120900   2.359   4.043  13.218  1.0342  0.6681 -1.7672
 3146SOL    HW220901   2.321   3.914  13.253  1.4075 -1.7117  0.0035
 3147SOL     OW20902   1.954   3.227   8.199 -0.0693 -0.1291  0.3172
 3147SOL    HW120903   1.960   3.286   8.274 -0.0515  1.7513 -1.1625
 3147SOL    HW220904   2.039   3.184   8.204  0.3478  0.9083  2.1576
 3148SOL     OW20905   2.790   0.016   4.652  0.7277  0.6831 -0.4895
 3148SOL    HW120906   2.829   0.037   4.737  0.6206  2.9848 -1.0276
 3148SOL    HW220907   2.871   4.718   4.604 -0.0816 -0.4178 -1.4448
 3149SOL     OW20908   3.252   1.463   1.597  0.3991 -0.8221 -0.5299
 3149SOL    HW120909   3.197   1.405   1.649  0.9949  0.8408  1.9724
 3149SOL    HW220910   3.328   1.411   1.570  0.6553  0.2622 -1.8777
 3150SOL     OW20911   0.494   3.178   3.516 -0.2995  0.1682  0.1839
 3150SOL    HW120912   0.442   3.114   3.564  0.0713  0.1722  0.5823
 3150SOL    HW220913   0.543   3.224   3.584 -0.7719  0.6797  0.1769
 3151SOL     OW20914   0.263   3.659   3.766  0.0520  0.7330  0.0988
 3151SOL    HW120915   0.305   3.739   3.798 -0.0515 -0.0765  2.2724
 3151SOL    HW220916   0.311   3.585   3.804 -0.9953  0.2682  0.5090
 3152SOL     OW20917   1.866   2.609   7.934 -0.8823 -0.0950 -0.3650
 3152SOL    HW120918   1.785   2.659   7.926 -0.0139  0.8708 -3.1996
 3152SOL    HW220919   1.843   2.543   7.868 -1.8524  0.7367 -0.8513
 3153SOL     OW20920   0.439   3.152   0.468 -0.1139  0.4673  0.1414
 3153SOL    HW120921   0.406   3.172   0.555 -1.2864 -0.2696 -0.1235
 3153SOL    HW220922   0.391   3.070   0.456  1.5101 -0.5217  0.4951
 3154SOL     OW20923   0.455   2.414   8.335 -0.1459  0.3087 -0.2219
 3154SOL    HW120924   0.454   2.412   8.431 -1.5296  0.8645 -0.2198
 3154SOL    HW220925   0.524   2.478   8.320  1.4720 -1.4839 -0.4101
 3155SOL     OW20926   3.939   3.392   3.857 -0.8954 -0.3665 -0.8674
 3155SOL    HW120927   3.850   3.384   3.822 -0.3987 -0.0800 -2.1925
 3155SOL    HW220928   3.981   3.427   3.779 -0.6743  2.4886  0.5349
 3156SOL     OW20929   1.088   1.790   4.816 -0.0354  0.0757  0.5656
 3156SOL    HW120930   1.099   1.766   4.724  0.4931 -0.8716  0.8738
 3156SOL    HW220931   1.161   1.852   4.818 -1.4171  1.8666 -3.7066
 3157SOL     OW20932   2.482   2.425   8.831  0.8951 -0.2067  0.1681
 3157SOL    HW120933   2.521   2.385   8.753 -0.7770 -0.7526 -0.4021
 3157SOL    HW220934   2.546   2.489   8.861  1.9035 -1.0588 -0.1667
 3158SOL     OW20935   0.878   1.173   3.268 -0.0014 -0.0769 -0.0596
 3158SOL    HW120936   0.834   1.111   3.209 -0.7136  0.6154 -0.2728
 3158SOL    HW220937   0.865   1.255   3.219 -0.7526 -0.0580  0.1670
 3159SOL     OW20938   0.611   1.540   7.720  0.1539 -0.2982 -0.2358
 3159SOL    HW120939   0.691   1.585   7.695  0.5169 -1.5804 -1.3956
 3159SOL    HW220940   0.543   1.587   7.673  2.8259  2.8370 -0.9283
 3160SOL     OW20941   4.086   3.805   2.461  0.3425 -0.0008 -0.9699
 3160SOL    HW120942   4.008   3.845   2.498  0.5967 -0.1304 -0.2971
 3160SOL    HW220943   4.139   3.880   2.435  1.1011  0.2246  1.2534
 3161SOL     OW20944   3.959   0.623   4.311 -0.3203  0.0619  0.0850
 3161SOL    HW120945   3.998   0.545   4.273 -0.1592 -1.1613  2.7180
 3161SOL    HW220946   4.033   0.661   4.359  0.5413 -0.3446 -0.9290
 3162SOL     OW20947   4.327   1.031   4.561  0.6136  0.1160  0.2209
 3162SOL    HW120948   4.390   0.971   4.521  0.0142  0.2198 -0.9016
 3162SOL    HW220949   4.281   1.064   4.483  0.6538  1.9451  0.9739
 3163SOL     OW20950   2.621   0.437   6.932  0.1190 -0.1465  0.0151
 3163SOL    HW120951   2.624   0.512   6.872  0.3833 -0.9296 -0.9480
 3163SOL    HW220952   2.572   0.466   7.009 -1.6177 -1.7805 -0.4906
 3164SOL     OW20953   3.025   4.693   4.515 -0.1828 -0.1611  0.3824
 3164SOL    HW120954   3.017   4.714   4.422 -1.4726  0.3759  0.6123
 3164SOL    HW220955   3.117   4.705   4.538 -0.3115 -1.3779  1.5628
 3165SOL     OW20956   2.205   3.316   5.626 -0.2435  0.6482 -0.8824
 3165SOL    HW120957   2.298   3.326   5.650  0.3032 -2.9676 -1.5478
 3165SOL    HW220958   2.195   3.382   5.557  1.9493  0.6034 -1.2613
 3166SOL     OW20959   2.164   1.253   9.805  0.5130 -0.6377  0.2712
 3166SOL    HW120960   2.108   1.176   9.801  1.2180 -1.2223  1.8345
 3166SOL    HW220961   2.117   1.303   9.872  0.6540  1.6007 -1.2734
 3167SOL     OW20962   0.034   4.050   4.187 -0.6083 -0.1079 -0.6951
 3167SOL    HW120963   0.016   4.108   4.262 -0.0634 -0.3767 -0.3521
 3167SOL    HW220964   0.006   3.966   4.223  0.8009  0.1980  1.1416
 3168SOL     OW20965   3.288   3.720   4.168 -0.0671 -0.2961 -0.0053
 3168SOL    HW120966   3.208   3.689   4.125 -0.1280  0.1268 -0.1937
 3168SOL    HW220967   3.260   3.799   4.213 -0.2495 -0.5477  0.3236
 3169SOL     OW20968   2.957   1.247   3.689  0.1900  0.1750  0.3887
 3169SOL    HW120969   3.052   1.233   3.690  0.2535  0.5861  0.1891
 3169SOL    HW220970   2.924   1.184   3.753 -0.0951  0.9074  0.9651
 3170SOL     OW20971   2.349   2.827   9.925  0.5972 -0.0164 -0.0305
 3170SOL    HW120972   2.315   2.786   9.845 -0.2983 -0.3148  0.5136
 3170SOL    HW220973   2.423   2.768   9.938  1.3582  1.6260  3.0084
 3171SOL     OW20974   4.512   0.975  16.949 -0.1008 -0.1458  0.4282
 3171SOL    HW120975   4.522   1.049  16.890 -1.0563  0.1672  0.6534
 3171SOL    HW220976   4.469   0.902  16.904 -3.7255  1.8508  0.6185
 3172SOL     OW20977   3.712   1.261   3.870  0.3604 -0.3360 -0.5477
 3172SOL    HW120978   3.741   1.175   3.900  0.2230 -0.1826  0.0271
 3172SOL    HW220979   3.795   1.293   3.835  1.2603 -0.6613  1.3298
 3173SOL     OW20980   2.769   1.755   2.860  0.4733 -0.2181  0.3730
 3173SOL    HW120981   2.689   1.703   2.871  0.6935 -0.3425  1.3516
 3173SOL    HW220982   2.763   1.758   2.764  0.1845  0.0472  0.3969
 3174SOL     OW20983   4.278   2.414   3.144 -0.4272 -0.0946  0.0225
 3174SOL    HW120984   4.312   2.331   3.177  0.7930  0.9180  1.3374
 3174SOL    HW220985   4.193   2.403   3.186 -0.7202 -0.2434 -0.6076
 3175SOL     OW20986   3.923   3.227   3.548  0.4615  0.1925 -0.8464
 3175SOL    HW120987   3.999   3.238   3.605  0.9952  0.3362 -1.5821
 3175SOL    HW220988   3.921   3.321   3.531  0.1863 -0.3499 -3.7809
 3176SOL     OW20989   1.567   0.741   4.802  0.3514  0.1044 -0.1174
 3176SOL    HW120990   1.536   0.777   4.719  0.1345 -0.1139 -0.1323
 3176SOL    HW220991   1.527   0.654   4.798  2.5063 -0.8154 -1.6589
 3177SOL     OW20992   4.169   2.724   7.487 -0.2382  0.0710 -0.0760
 3177SOL    HW120993   4.188   2.682   7.571  1.3261  0.4763 -0.2200
 3177SOL    HW220994   4.083   2.685   7.474  0.2542 -0.6328 -1.2678
 3178SOL     OW20995   0.770   1.111   1.038  0.2526  0.7601 -0.0817
 3178SOL    HW120996   0.679   1.082   1.039  0.1728  1.0683  2.2553
 3178SOL    HW220997   0.806   1.064   0.963  0.2709  0.4091  0.1486
 3179SOL     OW20998   3.046   4.102   1.347  0.2834 -0.1884 -0.5282
 3179SOL    HW120999   3.017   4.031   1.405  1.6369 -1.2531 -1.1515
 3179SOL    HW221000   3.032   4.181   1.398 -0.8122 -1.1317  0.6520
 3180SOL     OW21001   1.926   0.262   2.492  0.5342 -0.8367 -0.0708
 3180SOL    HW121002   1.868   0.244   2.567  1.4142 -1.1037  0.5408
 3180SOL    HW221003   1.950   0.350   2.522 -1.3464  0.7069 -3.0837
 3181SOL     OW21004   2.428   0.604   1.749 -0.4570 -0.2717  0.2003
 3181SOL    HW121005   2.452   0.532   1.806  0.7631  0.2832  0.3821
 3181SOL    HW221006   2.371   0.564   1.683  0.2764 -0.1547 -0.5150
 3182SOL     OW21007   2.800   2.628   4.303 -0.2736 -0.2764 -0.2042
 3182SOL    HW121008   2.800   2.723   4.318 -1.6759  0.0098 -2.0271
 3182SOL    HW221009   2.892   2.605   4.317  0.0809  0.8429 -0.6392
 3183SOL     OW21010   3.372   3.419   5.665 -0.6594  0.2141  0.3797
 3183SOL    HW121011   3.368   3.390   5.573 -0.9751 -0.4813  0.6130
 3183SOL    HW221012   3.299   3.370   5.703 -1.1236 -1.6736 -2.9008
 3184SOL     OW21013   2.647   4.559   9.191  0.2210 -0.6964  0.1826
 3184SOL    HW121014   2.601   4.478   9.168 -1.3805  0.0516  0.7633
 3184SOL    HW221015   2.612   4.578   9.278  1.0552  0.8028  0.1867
 3185SOL     OW21016   3.786   1.699  12.589  0.6209  0.8246  0.7613
 3185SOL    HW121017   3.747   1.625  12.636 -2.4704  1.4166 -0.9265
 3185SOL    HW221018   3.865   1.702  12.644  1.2072 -2.9953  0.1770
 3186SOL     OW21019   3.139   0.855   6.453 -0.5405  0.4824 -0.0469
 3186SOL    HW121020   3.141   0.831   6.546  0.2219  0.0515 -0.1799
 3186SOL    HW221021   3.160   0.949   6.449 -2.1908  0.9431  1.7555
 3187SOL     OW21022   2.517   1.104   8.909 -0.0397  0.5555  0.2184
 3187SOL    HW121023   2.593   1.048   8.895  0.5572  1.6857 -1.1080
 3187SOL    HW221024   2.524   1.156   8.829 -0.3841  0.9754  0.4568
 3188SOL     OW21025   1.313   1.443  14.566 -0.0732  0.2103  0.3006
 3188SOL    HW121026   1.388   1.454  14.507 -1.7701  4.4880 -1.0982
 3188SOL    HW221027   1.295   1.533  14.596 -0.7521 -0.4781  1.9723
 3189SOL     OW21028   3.537   2.142   6.414  0.0630 -0.3552 -0.0011
 3189SOL    HW121029   3.630   2.148   6.396 -0.0035  1.5695  0.2481
 3189SOL    HW221030   3.522   2.049   6.401 -1.4800 -0.4023  2.0659
 3190SOL     OW21031   3.582   0.460   2.284 -0.6553  0.1629 -0.2896
 3190SOL    HW121032   3.625   0.448   2.369 -0.4993  0.3921 -0.3352
 3190SOL    HW221033   3.654   0.432   2.228 -0.1360  2.4949 -0.8080
 3191SOL     OW21034   1.394   1.602  10.129  0.0690 -0.1953 -0.3196
 3191SOL    HW121035   1.343   1.662  10.184  1.2979  1.0436 -0.5219
 3191SOL    HW221036   1.421   1.660  10.058  0.8865 -0.6670 -0.3999
 3192SOL     OW21037   0.456   2.580  13.443  0.2053  0.0281 -0.0457
 3192SOL    HW121038   0.392   2.511  13.424 -0.1799  1.2214 -2.9680
 3192SOL    HW221039   0.442   2.641  13.371  1.7943  0.7409  0.2563
 3193SOL     OW21040   1.809   4.016   7.385 -0.2011 -0.4503 -0.0063
 3193SOL    HW121041   1.748   3.944   7.405  0.1928 -0.3405  1.6339
 3193SOL    HW221042   1.759   4.082   7.338  0.0978  1.2181  2.0045
 3194SOL     OW21043   1.646   4.121   7.875  0.0925 -0.2407  0.4107
 3194SOL    HW121044   1.594   4.183   7.927  2.4021  0.0273  2.3725
 3194SOL    HW221045   1.585   4.097   7.804  0.2897 -1.8570  0.7828
 3195SOL     OW21046   1.002   0.165   4.655  0.1911  0.1450 -0.7857
 3195SOL    HW121047   0.920   0.129   4.622  1.1722 -3.0927  0.2525
 3195SOL    HW221048   0.977   0.257   4.665  2.9168  0.8656 -0.6599
 3196SOL     OW21049   1.478   4.203  17.639 -0.0954 -0.2434 -0.2680
 3196SOL    HW121050   1.560   4.220  17.592 -0.6979 -2.2786 -2.0739
 3196SOL    HW221051   1.430   4.283  17.617 -2.1688 -1.2094  0.6960
 3197SOL     OW21052   0.100   1.432   0.464  0.3413 -0.1176  0.4566
 3197SOL    HW121053   0.106   1.350   0.415 -1.1298  0.5255 -0.7790
 3197SOL    HW221054   0.160   1.414   0.537  0.6956  3.2210  1.0077
 3198SOL     OW21055   2.550   4.149   2.561 -0.1522 -0.0888 -0.2247
 3198SOL    HW121056   2.561   4.057   2.535 -0.4658 -0.7176  1.8365
 3198SOL    HW221057   2.634   4.185   2.587 -1.1664  0.2189  2.6477
 3199SOL     OW21058   2.267   4.118   0.433 -0.9701 -0.3752  0.3959
 3199SOL    HW121059   2.257   4.205   0.394 -1.4162 -0.4829  0.2761
 3199SOL    HW221060   2.323   4.078   0.366 -1.6674 -1.6482  0.5883
 3200SOL     OW21061   2.491   4.135   7.039  0.0532  0.1128 -0.0701
 3200SOL    HW121062   2.525   4.101   6.956  2.0776  0.3869  0.6511
 3200SOL    HW221063   2.443   4.058   7.070  0.6123 -0.5893 -0.9551
 3201SOL     OW21064   4.090   3.188   0.925  0.2095 -0.4840 -0.9600
 3201SOL    HW121065   4.094   3.100   0.888  0.8302 -1.0723  0.4889
 3201SOL    HW221066   4.145   3.193   1.003 -0.4628  0.1474 -0.5358
 3202SOL     OW21067   2.811   1.424   2.662  0.3323 -0.4724  0.2943
 3202SOL    HW121068   2.748   1.442   2.593 -1.1709  1.7368  2.2312
 3202SOL    HW221069   2.790   1.334   2.688  1.2031 -0.6603  0.3457
 3203SOL     OW21070   3.092   4.490   5.973 -0.0809 -0.4843  0.6300
 3203SOL    HW121071   3.036   4.458   5.902 -0.1497  0.0074  0.4645
 3203SOL    HW221072   3.129   4.403   5.987 -2.3906 -1.4182  0.9721
 3204SOL     OW21073   1.949   4.669   6.159  0.1422 -0.1556  0.0246
 3204SOL    HW121074   2.001   0.028   6.164 -0.2931  0.0923  0.5564
 3204SOL    HW221075   1.887   4.699   6.093 -0.3487  1.5669  1.2912
 3205SOL     OW21076   3.037   3.148  10.557  0.1965  0.1411  0.3224
 3205SOL    HW121077   2.999   3.174  10.641  0.5969 -2.0743  1.1819
 3205SOL    HW221078   2.967   3.187  10.504 -0.5879 -0.3775  0.9713
 3206SOL     OW21079   4.127   3.451   7.632  0.1572  0.0400 -0.3838
 3206SOL    HW121080   4.147   3.508   7.557 -1.3511 -0.1440 -0.9183
 3206SOL    HW221081   4.213   3.439   7.673 -0.9025 -4.3883  0.5026
 3207SOL     OW21082   2.396   3.646   8.986 -0.5158 -0.6866  0.6227
 3207SOL    HW121083   2.312   3.625   8.945  0.1610 -1.5204 -0.3475
 3207SOL    HW221084   2.398   3.741   8.979 -1.6026 -0.6123  1.2394
 3208SOL     OW21085   2.779   1.788   8.853  0.4419 -0.2157 -0.3597
 3208SOL    HW121086   2.743   1.701   8.870  2.0319 -0.3101  2.6089
 3208SOL    HW221087   2.808   1.772   8.763  0.7868 -1.1648 -0.0740
 3209SOL     OW21088   1.707   0.890   9.079  0.5317  0.3151  0.0567
 3209SOL    HW121089   1.631   0.914   9.133  1.1169  0.3296  0.8663
 3209SOL    HW221090   1.667   0.911   8.994 -3.5091 -0.5897  1.7312
 3210SOL     OW21091   1.687   2.827  13.721 -0.2322  0.1814 -0.3821
 3210SOL    HW121092   1.691   2.741  13.763  1.0743  0.6618  0.4750
 3210SOL    HW221093   1.746   2.876  13.779 -0.2966  0.8062 -0.8462
 3211SOL     OW21094   4.177   4.358  13.067  0.5137  0.0543  0.3851
 3211SOL    HW121095   4.218   4.416  13.003 -0.2664  0.8763  0.6276
 3211SOL    HW221096   4.144   4.285  13.015  4.8250 -2.0664  0.5808
 3212SOL     OW21097   3.546   0.661   5.926 -0.2582  0.4962 -0.3335
 3212SOL    HW121098   3.576   0.572   5.907  1.1568  0.4114  2.3207
 3212SOL    HW221099   3.613   0.713   5.882 -0.0461  2.0172  1.7947
 3213SOL     OW21100   2.788   4.027   5.080 -0.0277 -0.1127  0.2490
 3213SOL    HW121101   2.763   4.119   5.083  0.7649  0.1110  0.0421
 3213SOL    HW221102   2.869   4.032   5.030  1.2277  0.5438  2.3323
 3214SOL     OW21103   2.197   1.852   6.032  0.1803 -0.3533  0.9016
 3214SOL    HW121104   2.102   1.844   6.026  0.2543 -1.3008  0.8798
 3214SOL    HW221105   2.199   1.932   5.980  0.2270 -0.4005  0.8322
 3215SOL     OW21106   0.483   3.996   2.167  0.2292 -0.0996  0.0956
 3215SOL    HW121107   0.563   4.048   2.162 -0.6240  1.1419 -0.6529
 3215SOL    HW221108   0.513   3.906   2.153  2.6185  0.2013  3.0885
 3216SOL     OW21109   3.020   3.133   8.449 -0.1771  0.3635  0.0535
 3216SOL    HW121110   3.006   3.057   8.393 -1.4241  0.6803 -0.0708
 3216SOL    HW221111   3.041   3.203   8.387  1.6377  0.0027  0.2630
 3217SOL     OW21112   0.469   4.643   5.936 -0.1365  0.0651 -0.2205
 3217SOL    HW121113   0.450   0.009   5.902 -1.4489  0.4137  1.4059
 3217SOL    HW221114   0.548   4.620   5.886 -0.4171 -0.6180 -0.3543
 3218SOL     OW21115   1.292   1.314   3.064 -0.1242  0.0559 -0.1259
 3218SOL    HW121116   1.385   1.304   3.047 -0.0124  0.8876  0.0048
 3218SOL    HW221117   1.282   1.266   3.146 -0.1355 -2.0069 -1.3527
 3219SOL     OW21118   0.521   1.438   9.179 -0.0741 -0.0862 -0.0473
 3219SOL    HW121119   0.428   1.459   9.183  0.1470  0.4513  2.3060
 3219SOL    HW221120   0.557   1.489   9.107  0.9821 -0.0431  0.5051
 3220SOL     OW21121   0.319   2.127  15.267 -0.1952  0.2028 -0.1464
 3220SOL    HW121122   0.412   2.147  15.279 -0.2174  0.1571  0.0951
 3220SOL    HW221123   0.289   2.216  15.289  0.3994  0.6377 -1.0769
 3221SOL     OW21124   0.708   0.051   4.133  0.4104  0.6110  0.4007
 3221SOL    HW121125   0.720   0.142   4.161  1.1859  0.8204 -0.6231
 3221SOL    HW221126   0.777   0.061   4.068 -0.9797  3.3905 -0.6523
 3222SOL     OW21127   0.940   1.776   7.957  0.0544  0.0117 -0.1165
 3222SOL    HW121128   0.865   1.817   7.914 -0.2752 -0.3346  0.1179
 3222SOL    HW221129   0.896   1.693   7.977 -0.1901  0.0741 -0.3856
 3223SOL     OW21130   0.549   1.110   0.165  0.2410  0.1977 -0.1867
 3223SOL    HW121131   0.478   1.098   0.101 -0.5592 -0.1944  0.7873
 3223SOL    HW221132   0.596   1.176   0.113  3.0951 -1.5723  0.1630
 3224SOL     OW21133   0.718   4.089   2.447  0.1877  0.0215  0.5050
 3224SOL    HW121134   0.696   3.999   2.472  1.8581 -0.3919  0.4850
 3224SOL    HW221135   0.708   4.087   2.352  2.9651 -0.3231  0.2007
 3225SOL     OW21136   4.268   4.231   7.296  0.1213  0.2495 -0.3546
 3225SOL    HW121137   4.311   4.180   7.365  0.6938 -3.2485 -3.2948
 3225SOL    HW221138   4.178   4.200   7.290 -0.1319  1.1831 -1.3300
 3226SOL     OW21139   2.122   3.197   8.591 -0.2521 -0.2327 -0.3946
 3226SOL    HW121140   2.211   3.169   8.611 -0.6544 -0.2731  1.3302
 3226SOL    HW221141   2.132   3.195   8.496  0.0065 -1.5359 -0.3399
 3227SOL     OW21142   3.206   1.737   3.170  0.0626 -0.0471 -0.3457
 3227SOL    HW121143   3.289   1.774   3.199  0.4361 -1.6052  0.6074
 3227SOL    HW221144   3.230   1.654   3.128  0.2774  1.1596 -2.5691
 3228SOL     OW21145   1.498   0.890   1.853  0.5106 -0.1836 -0.2317
 3228SOL    HW121146   1.430   0.936   1.903  2.7103  0.8372  1.8710
 3228SOL    HW221147   1.435   0.822   1.830  0.1959  0.3587 -0.9683
 3229SOL     OW21148   3.022   2.198   7.394  0.4559  0.1585  1.0330
 3229SOL    HW121149   3.026   2.152   7.478 -0.3919  0.6070  1.3245
 3229SOL    HW221150   3.080   2.272   7.413 -0.5043  1.8460 -2.6816
 3230SOL     OW21151   3.880   3.302   0.751  0.1943 -0.1955 -0.0009
 3230SOL    HW121152   3.833   3.274   0.830  0.2953  1.6604  0.7316
 3230SOL    HW221153   3.960   3.255   0.771 -1.1785 -2.4623  0.1182
 3231SOL     OW21154   2.816   1.876  13.799  0.0767 -0.0998  0.8982
 3231SOL    HW121155   2.747   1.937  13.771  0.9542  0.0906 -0.8627
 3231SOL    HW221156   2.887   1.939  13.815 -0.4682  0.6403  0.4220
 3232SOL     OW21157   2.033   3.405   8.374  0.2071  0.4016  0.2549
 3232SOL    HW121158   1.990   3.484   8.341 -1.8411 -0.3395  1.1714
 3232SOL    HW221159   2.120   3.433   8.345 -0.1204  0.7324 -0.4014
 3233SOL     OW21160   3.005   3.037   2.830  0.9097  0.2108 -0.2187
 3233SOL    HW121161   3.030   2.990   2.909  1.0131 -0.5707 -0.7128
 3233SOL    HW221162   3.003   2.960   2.772 -1.5221  0.3274 -0.2886
 3234SOL     OW21163   4.456   0.454   6.683 -0.3271  0.5443  0.5779
 3234SOL    HW121164   4.429   0.363   6.676 -2.9617  1.4950 -1.5581
 3234SOL    HW221165   4.422   0.482   6.768 -0.4270 -2.7381  1.6323
 3235SOL     OW21166   3.322   2.536  15.757  0.5340 -0.0416  0.5731
 3235SOL    HW121167   3.416   2.551  15.769 -0.2786  3.8507  2.0998
 3235SOL    HW221168   3.323   2.440  15.755 -1.9677 -0.0734  1.2159
 3236SOL     OW21169   4.125   4.066   3.015  0.0919  0.2029 -0.0340
 3236SOL    HW121170   4.075   4.072   2.934 -0.8293 -0.5851  0.4800
 3236SOL    HW221171   4.104   3.980   3.051 -0.4753  1.8409  3.5790
 3237SOL     OW21172   0.756   1.730   0.430 -0.9475 -0.7695 -0.1566
 3237SOL    HW121173   0.848   1.713   0.450 -1.1546 -0.5663  0.9615
 3237SOL    HW221174   0.751   1.661   0.364 -0.6738 -0.5905 -0.3626
 3238SOL     OW21175   2.053   0.751   8.427 -0.0250 -0.1557  0.3943
 3238SOL    HW121176   2.035   0.715   8.513 -0.2066 -1.2817 -0.1214
 3238SOL    HW221177   2.047   0.672   8.373  0.9551 -0.7040  1.0962
 3239SOL     OW21178   1.605   4.585   4.238  0.6503  0.2912 -0.4368
 3239SOL    HW121179   1.547   4.511   4.218  0.7493  0.2182 -0.4531
 3239SOL    HW221180   1.645   4.599   4.152 -2.4145  0.0564 -1.9020
 3240SOL     OW21181   0.056   2.250  11.160 -0.3708 -0.5011  0.0169
 3240SOL    HW121182   0.061   2.160  11.131  0.4001 -0.0128 -1.3261
 3240SOL    HW221183   0.032   2.228  11.250 -1.4817 -3.1468 -0.9284
 3241SOL     OW21184   3.631   2.516   3.222 -0.7950 -0.3435 -0.9141
 3241SOL    HW121185   3.622   2.608   3.195 -0.6106 -0.8896 -2.8445
 3241SOL    HW221186   3.691   2.491   3.152  1.0068 -2.2740  1.3445
 3242SOL     OW21187   0.160   0.592  16.680 -0.3977  0.7221  0.2308
 3242SOL    HW121188   0.075   0.594  16.637  0.3339  3.1222 -1.1162
 3242SOL    HW221189   0.218   0.572  16.606 -1.2534  1.6267 -0.6786
 3243SOL     OW21190   2.753   1.855  10.535  0.2516  0.0579  0.6184
 3243SOL    HW121191   2.831   1.869  10.589  0.0916  2.1986  0.2822
 3243SOL    HW221192   2.675   1.838  10.588  0.4271 -0.6769  0.6417
 3244SOL     OW21193   4.284   2.280  10.863 -0.1947 -0.0067 -0.1307
 3244SOL    HW121194   4.364   2.282  10.916 -0.3331 -2.2093  0.1775
 3244SOL    HW221195   4.227   2.230  10.923 -1.2523  0.5469 -0.6711
 3245SOL     OW21196   1.814   3.638  12.011  0.4709 -0.1986 -0.4501
 3245SOL    HW121197   1.893   3.655  12.062  0.7263  1.0455 -1.2677
 3245SOL    HW221198   1.856   3.596  11.936  0.3668  0.6603 -0.9932
 3246SOL     OW21199   3.434   1.003   1.249  0.2414  0.1754 -0.4149
 3246SOL    HW121200   3.502   1.011   1.316 -0.6763 -0.9526  0.6323
 3246SOL    HW221201   3.438   1.081   1.192  1.2036  0.9992  0.7741
 3247SOL     OW21202   0.570   2.570   6.555  0.6729  0.2527  0.2789
 3247SOL    HW121203   0.554   2.593   6.646 -1.7686 -0.5424  0.0592
 3247SOL    HW221204   0.660   2.598   6.538  0.9825 -0.7615  0.1914
 3248SOL     OW21205   2.609   4.118   2.879  0.5361 -0.5533  0.1548
 3248SOL    HW121206   2.518   4.131   2.852  0.3829 -3.0680 -0.5366
 3248SOL    HW221207   2.623   4.027   2.853 -0.4936 -0.4774 -0.6632
 3249SOL     OW21208   2.082   1.601   5.702  0.4349 -0.1178 -0.2238
 3249SOL    HW121209   2.025   1.609   5.779  2.2133 -0.4676  1.1246
 3249SOL    HW221210   2.118   1.515   5.726  0.8309 -0.5911 -2.5319
 3250SOL     OW21211   3.955   2.336  14.564 -0.0943  0.4680 -0.4663
 3250SOL    HW121212   3.915   2.305  14.645 -0.1732  0.9830 -0.3051
 3250SOL    HW221213   3.875   2.346  14.512 -0.4868 -0.9378 -0.1161
 3251SOL     OW21214   0.365   2.311   5.552 -0.7814  0.2537 -0.1068
 3251SOL    HW121215   0.444   2.298   5.605 -1.2076  1.5694  0.8514
 3251SOL    HW221216   0.298   2.255   5.590 -0.6392 -1.3181 -2.1673
 3252SOL     OW21217   3.580   1.903   7.844  0.1396  0.1133 -0.0738
 3252SOL    HW121218   3.548   1.991   7.862  1.5523  0.7529 -0.7552
 3252SOL    HW221219   3.602   1.909   7.751 -0.6049 -0.5843 -0.3037
 3253SOL     OW21220   2.551   2.688  10.084  0.3091  0.6367  0.1779
 3253SOL    HW121221   2.550   2.692  10.179 -0.2481 -3.9171  0.3409
 3253SOL    HW221222   2.579   2.598  10.071  1.0521  0.9091 -0.1087
 3254SOL     OW21223   2.967   1.853  12.264 -0.3759 -0.0191 -0.3955
 3254SOL    HW121224   2.882   1.871  12.225 -0.0444  2.1705 -0.0937
 3254SOL    HW221225   2.945   1.880  12.353 -0.6480 -0.2693 -0.3855
 3255SOL     OW21226   1.033   1.670  16.084 -0.6967 -0.1421 -0.3864
 3255SOL    HW121227   1.110   1.613  16.082 -0.8015 -0.3299  0.8934
 3255SOL    HW221228   1.079   1.746  16.049  0.5008  0.7332  3.0665
 3256SOL     OW21229   4.078   1.776  17.428  0.0859 -0.1296  0.0901
 3256SOL    HW121230   4.041   1.859  17.398  1.5095  1.2904  2.2924
 3256SOL    HW221231   4.170   1.798  17.442  0.4966 -0.8527 -1.4314
 3257SOL     OW21232   4.683   3.701   4.967  0.1428  0.3657 -0.2103
 3257SOL    HW121233   4.684   3.760   5.043 -0.1632 -0.2940  0.3021
 3257SOL    HW221234   0.047   3.658   4.968  0.8502  1.7338 -2.0725
 3258SOL     OW21235   0.125   3.222   2.814  0.5832  0.8224  0.4376
 3258SOL    HW121236   0.069   3.292   2.782  1.1364  0.7465 -0.6898
 3258SOL    HW221237   0.087   3.147   2.768  1.5060 -0.3194  1.5386
 3259SOL     OW21238   2.205   1.440  12.767  0.0830 -0.2964 -0.3276
 3259SOL    HW121239   2.150   1.367  12.794  0.7396 -0.6044  0.1659
 3259SOL    HW221240   2.241   1.465  12.852 -1.2816 -0.9805  0.4522
 3260SOL     OW21241   1.980   3.643   5.364  0.3362  0.1773  0.0217
 3260SOL    HW121242   2.025   3.717   5.405 -0.2989  0.5479  0.0381
 3260SOL    HW221243   2.051   3.578   5.363  0.9775  0.9076 -2.0447
 3261SOL     OW21244   3.169   2.432  12.610  0.6841  0.0523  0.1195
 3261SOL    HW121245   3.186   2.338  12.610  2.2435  0.3306 -0.7767
 3261SOL    HW221246   3.146   2.443  12.518 -0.9008 -2.1567  0.2391
 3262SOL     OW21247   1.156   0.820   7.862 -0.1431  0.3338 -0.2495
 3262SOL    HW121248   1.087   0.780   7.809 -0.9949  0.0158  1.0953
 3262SOL    HW221249   1.111   0.874   7.927  1.0609  1.4968 -0.3978
 3263SOL     OW21250   1.142   0.418   5.865 -0.2589 -0.0995 -0.1497
 3263SOL    HW121251   1.214   0.451   5.811  0.8171 -1.7751  0.2838
 3263SOL    HW221252   1.091   0.362   5.806 -0.2631 -0.8940  0.6042
 3264SOL     OW21253   0.553   4.637   2.166 -0.2584 -0.4732  0.0947
 3264SOL    HW121254   0.613   4.574   2.205  0.1446 -0.7582 -0.9884
 3264SOL    HW221255   0.581   4.712   2.219  0.9920 -1.0695  0.2883
 3265SOL     OW21256   2.722   2.429   4.744 -0.3604  0.2482  0.0643
 3265SOL    HW121257   2.813   2.458   4.736 -0.1892  0.4892  2.7996
 3265SOL    HW221258   2.675   2.513   4.741  1.4031  1.3437  3.8157
 3266SOL     OW21259   1.887   0.105   4.270  0.0147 -0.1443  0.1524
 3266SOL    HW121260   1.796   0.123   4.290  0.7857  3.3598  0.4227
 3266SOL    HW221261   1.878   0.040   4.200 -0.3284  1.1028 -0.9586
 3267SOL     OW21262   3.915   1.643   7.236  0.2837 -0.5593  0.0573
 3267SOL    HW121263   3.945   1.711   7.177  2.0136 -1.4136 -0.0425
 3267SOL    HW221264   3.965   1.565   7.210  2.1481  0.6559 -0.0171
 3268SOL     OW21265   2.455   3.421   0.106  0.0392 -0.4275 -0.3595
 3268SOL    HW121266   2.462   3.389   0.196  1.6080  0.5833 -0.1344
 3268SOL    HW221267   2.509   3.500   0.097  1.1025 -1.4513 -2.9499
 3269SOL     OW21268   2.263   2.575   5.248  0.0884 -0.5969  0.0973
 3269SOL    HW121269   2.252   2.626   5.168 -3.1024  0.0910  0.9481
 3269SOL    HW221270   2.353   2.602   5.264  0.4835  0.2998 -3.6539
 3270SOL     OW21271   0.234   2.164   3.254  0.0316 -0.1874  0.3329
 3270SOL    HW121272   0.257   2.234   3.314  2.6182  0.9075 -1.9231
 3270SOL    HW221273   0.195   2.097   3.309 -1.3532  0.4374  0.1218
 3271SOL     OW21274   3.919   4.413   5.384 -0.3146 -0.0136  0.0695
 3271SOL    HW121275   3.849   4.454   5.332  0.7400  0.8412 -0.6799
 3271SOL    HW221276   3.997   4.451   5.344  0.5418 -0.1763  1.6263
 3272SOL     OW21277   4.400   4.153   4.503 -0.3132  0.8695 -0.6037
 3272SOL    HW121278   4.340   4.227   4.506 -0.0200  1.0238  1.6066
 3272SOL    HW221279   4.373   4.104   4.425  1.5031 -0.1796 -0.5693
 3273SOL     OW21280   3.305   4.163   3.599 -0.2347 -0.4284  0.6793
 3273SOL    HW121281   3.392   4.124   3.608 -0.1771 -0.4495  0.0677
 3273SOL    HW221282   3.263   4.094   3.547 -1.6041  1.2240 -0.4131
 3274SOL     OW21283   2.874   1.064   6.261 -0.1534 -0.3264 -0.2702
 3274SOL    HW121284   2.876   0.969   6.246 -1.0204 -0.6970  1.9122
 3274SOL    HW221285   2.959   1.072   6.303  0.2637  1.2941 -1.4409
 3275SOL     OW21286   0.618   2.707   5.712  0.1125 -0.1967  0.7088
 3275SOL    HW121287   0.579   2.749   5.788 -1.0679  0.8806 -0.4814
 3275SOL    HW221288   0.567   2.736   5.636  0.2942  3.3046  1.9068
 3276SOL     OW21289   0.956   3.489  10.962 -0.2514  0.4204  0.3273
 3276SOL    HW121290   1.030   3.481  11.022  0.1484 -0.1981 -0.2484
 3276SOL    HW221291   0.903   3.412  10.982  2.6755 -1.5796  0.4388
 3277SOL     OW21292   3.338   3.396  12.913 -0.3041 -0.5129  0.6342
 3277SOL    HW121293   3.405   3.441  12.965  0.6126  0.1156 -1.0796
 3277SOL    HW221294   3.370   3.307  12.904  0.0823 -0.3319  0.1896
 3278SOL     OW21295   3.008   2.063  17.530  0.1223 -0.2167 -0.7644
 3278SOL    HW121296   2.986   1.996  17.594  1.0828  1.3812  1.2353
 3278SOL    HW221297   3.031   2.014  17.451 -3.6343 -1.9271 -0.7872
 3279SOL     OW21298   2.115   0.428   0.968 -0.1919 -0.2365 -0.6316
 3279SOL    HW121299   2.166   0.491   1.018  0.7062 -1.2844 -0.2314
 3279SOL    HW221300   2.188   0.385   0.923 -1.3961 -1.2609 -1.6156
 3280SOL     OW21301   1.934   4.165  11.207 -0.2610 -0.2936 -0.2202
 3280SOL    HW121302   1.932   4.199  11.296  1.1381 -0.5182 -0.0994
 3280SOL    HW221303   2.019   4.192  11.172  0.4410 -0.4496  1.3907
 3281SOL     OW21304   0.862   2.983  11.032  0.2277  0.1000 -0.4019
 3281SOL    HW121305   0.950   2.959  11.064  0.8231  0.4043 -1.8320
 3281SOL    HW221306   0.819   2.909  11.075 -1.7086  0.3721 -1.9111
 3282SOL     OW21307   2.395   2.171   5.234  0.0693 -0.0647  0.1625
 3282SOL    HW121308   2.479   2.217   5.240  0.4432 -0.7785  0.4516
 3282SOL    HW221309   2.415   2.077   5.237 -0.4899 -0.1244  2.2852
 3283SOL     OW21310   3.632   3.998   7.988 -0.3146  0.0993 -0.2554
 3283SOL    HW121311   3.587   4.008   7.904 -2.6545  0.3315  1.0328
 3283SOL    HW221312   3.647   3.904   7.978 -1.7997 -0.4601  2.7157
 3284SOL     OW21313   4.346   2.222   6.474 -0.1659 -0.3670  0.3195
 3284SOL    HW121314   4.408   2.170   6.424  1.0616  1.9140 -0.5071
 3284SOL    HW221315   4.335   2.151   6.538  0.0273  1.6575  2.5721
 3285SOL     OW21316   2.100   4.494  12.941  0.0273  0.2913 -0.7482
 3285SOL    HW121317   2.171   4.523  12.884 -0.0436  1.3438 -0.3078
 3285SOL    HW221318   2.029   4.511  12.879 -0.7664  2.3016  0.7009
 3286SOL     OW21319   2.588   3.843  11.939  0.1829 -0.7099  0.1521
 3286SOL    HW121320   2.591   3.823  11.845  2.3471 -1.8845  0.4633
 3286SOL    HW221321   2.635   3.926  11.936 -1.0294  0.1051  4.3881
 3287SOL     OW21322   3.594   1.872   2.022 -0.4449 -0.7769  0.0337
 3287SOL    HW121323   3.669   1.892   1.966 -0.3215 -0.1576  0.4188
 3287SOL    HW221324   3.542   1.949   1.999  2.3742  1.0883 -0.1993
 3288SOL     OW21325   1.588   1.161   1.139  0.1100  0.6616 -0.0523
 3288SOL    HW121326   1.511   1.122   1.099  0.4185  1.3907 -1.3746
 3288SOL    HW221327   1.643   1.083   1.145 -0.0642  0.5455  0.0241
 3289SOL     OW21328   3.963   4.351   4.681  0.0824 -0.2446 -0.1143
 3289SOL    HW121329   3.912   4.373   4.759  2.7309  0.9378  1.2914
 3289SOL    HW221330   3.900   4.378   4.615 -3.8555 -2.7139  2.6736
 3290SOL     OW21331   0.462   4.180   3.566 -0.2433 -0.4538  0.0886
 3290SOL    HW121332   0.386   4.153   3.514  0.5017 -0.9508 -0.7364
 3290SOL    HW221333   0.534   4.126   3.533 -1.2830 -1.2772 -0.8352
 3291SOL     OW21334   4.099   0.540  16.708  0.1319  0.3777 -0.8721
 3291SOL    HW121335   4.145   0.624  16.705 -0.0376  0.5030 -0.0071
 3291SOL    HW221336   4.061   0.540  16.620  0.2666 -2.1509 -0.9261
 3292SOL     OW21337   4.109   0.199  15.417 -0.2997 -0.7203 -0.4808
 3292SOL    HW121338   4.202   0.222  15.410 -1.5301  4.6432  0.7311
 3292SOL    HW221339   4.102   0.126  15.356  0.2740 -0.9103 -0.3224
 3293SOL     OW21340   1.509   1.959  11.316 -0.2901 -0.1164 -0.2649
 3293SOL    HW121341   1.443   1.902  11.357 -1.1786  1.5420  0.6332
 3293SOL    HW221342   1.541   2.000  11.397  1.5105 -0.5097 -0.7807
 3294SOL     OW21343   2.988   0.725   5.120  0.3365 -0.0667  0.4845
 3294SOL    HW121344   2.967   0.787   5.051 -0.4378  0.2955  1.0408
 3294SOL    HW221345   2.937   0.649   5.091  1.3513 -1.1923  1.6611
 3295SOL     OW21346   2.282   1.854   1.029 -0.0847  0.7303 -0.1638
 3295SOL    HW121347   2.254   1.913   0.959  0.2555 -1.6397 -2.2961
 3295SOL    HW221348   2.336   1.910   1.085  1.9664 -1.0229 -0.3822
 3296SOL     OW21349   0.161   0.010   1.907  0.2696 -0.0021 -0.2235
 3296SOL    HW121350   0.228   4.721   1.840  0.8412 -1.6088  0.6089
 3296SOL    HW221351   0.191   4.657   1.959 -0.6565 -0.9322 -1.0394
 3297SOL     OW21352   1.044   2.126   7.037  0.0923 -0.1116 -0.1827
 3297SOL    HW121353   1.010   2.047   7.081 -2.5607  1.3806  0.4338
 3297SOL    HW221354   1.136   2.099   7.032 -0.1362 -1.1131  0.8487
 3298SOL     OW21355   3.702   0.667   7.718  0.0705  0.3739 -0.6164
 3298SOL    HW121356   3.762   0.741   7.728  0.2280  0.2205 -0.4308
 3298SOL    HW221357   3.659   0.675   7.804  2.4509  1.7822  0.4369
 3299SOL     OW21358   0.084   3.344  16.048 -0.0840 -0.1914 -0.1133
 3299SOL    HW121359   0.176   3.324  16.059  0.2715  0.2333 -2.2662
 3299SOL    HW221360   0.082   3.412  15.980 -0.2200 -0.0678  0.0150
 3300SOL     OW21361   1.724   3.586   1.756 -0.0039  0.5956  0.6096
 3300SOL    HW121362   1.650   3.531   1.784  0.7935 -0.7495  0.0562
 3300SOL    HW221363   1.752   3.614   1.843  1.1512  1.0585  0.0729
 3301SOL     OW21364   2.272   0.129   7.135  0.7227 -0.8714  0.2237
 3301SOL    HW121365   2.351   0.159   7.089  0.7573 -1.3928 -0.0530
 3301SOL    HW221366   2.301   0.122   7.226 -2.8390  2.8993  1.6780
 3302SOL     OW21367   2.866   0.042  17.283  0.2642 -0.3297  0.0477
 3302SOL    HW121368   2.844   4.672  17.266 -1.7987  0.0330  0.7404
 3302SOL    HW221369   2.783   0.075  17.317  1.2845  0.7129  1.5196
 3303SOL     OW21370   1.631   0.070   3.738  0.8193  0.3095 -0.8338
 3303SOL    HW121371   1.652   0.088   3.647 -2.9548  0.4359 -1.7014
 3303SOL    HW221372   1.568   4.720   3.731 -0.3291  1.1796  0.5411
 3304SOL     OW21373   3.841   0.497   2.820  0.2190 -0.8635 -0.0199
 3304SOL    HW121374   3.758   0.518   2.775  0.9234  1.1038 -0.4000
 3304SOL    HW221375   3.868   0.447   2.743  1.7434  0.9836 -0.6869
 3305SOL     OW21376   0.384   0.228   2.018  0.1288  0.4656  0.1317
 3305SOL    HW121377   0.317   0.216   1.951  0.0936  1.0419  0.0662
 3305SOL    HW221378   0.407   0.321   2.016 -0.6626  0.6678  0.6605
 3306SOL     OW21379   0.546   2.274  17.258  0.3312  0.1070  0.1884
 3306SOL    HW121380   0.478   2.206  17.246 -1.1904  1.5739  0.5058
 3306SOL    HW221381   0.498   2.355  17.244  0.2510  0.2945  1.5394
 3307SOL     OW21382   2.022   3.287   5.198 -0.0783  0.1194 -0.1086
 3307SOL    HW121383   2.041   3.307   5.107 -0.3541 -0.3442 -0.2688
 3307SOL    HW221384   2.106   3.266   5.238 -0.3048  0.4478  0.5354
 3308SOL     OW21385   1.368   3.269   9.637 -0.3384 -0.1479 -0.2924
 3308SOL    HW121386   1.418   3.188   9.652 -1.4815 -0.6046  1.1024
 3308SOL    HW221387   1.278   3.238   9.647  1.0671 -2.9899  3.5237
 3309SOL     OW21388   0.991   2.536  10.599  0.0200 -0.6072  0.1854
 3309SOL    HW121389   0.935   2.564  10.672 -0.3302 -2.3106  0.5729
 3309SOL    HW221390   1.056   2.486  10.649  1.0971  0.7239  0.0860
 3310SOL     OW21391   3.034   3.924   2.201  0.8850 -0.1505  0.2367
 3310SOL    HW121392   3.101   3.873   2.156  1.0245 -0.2377  0.5468
 3310SOL    HW221393   3.052   3.897   2.291 -0.6401 -2.0339 -0.0139
 3311SOL     OW21394   1.442   1.254   8.239  0.0762  0.1063  0.1124
 3311SOL    HW121395   1.416   1.320   8.303  1.4984  2.5023 -1.7939
 3311SOL    HW221396   1.534   1.249   8.266 -0.3603 -0.5418  1.4619
 3312SOL     OW21397   3.574   3.535   2.174  0.2443 -0.6375 -0.0426
 3312SOL    HW121398   3.580   3.549   2.079 -1.3493 -0.5737 -0.1286
 3312SOL    HW221399   3.520   3.610   2.199 -0.2025 -1.5888  1.7331
 3313SOL     OW21400   2.769   2.703   6.338  0.2112  0.1798 -0.3496
 3313SOL    HW121401   2.830   2.750   6.396  1.4266 -2.0680  0.2041
 3313SOL    HW221402   2.693   2.683   6.393  0.2038 -0.8556 -0.7470
 3314SOL     OW21403   2.049   1.290   2.878  0.0736 -0.0910 -0.4429
 3314SOL    HW121404   2.115   1.358   2.889  0.4204 -0.8747  2.1997
 3314SOL    HW221405   2.052   1.283   2.782  0.0611  0.1163 -0.4585
 3315SOL     OW21406   1.715   4.653   2.667  0.1665  0.3230 -0.4472
 3315SOL    HW121407   1.626   4.641   2.634 -0.9002  3.6715  1.0999
 3315SOL    HW221408   1.706   0.017   2.711 -1.1226  0.8674 -1.7680
 3316SOL     OW21409   1.635   4.394   5.832 -0.2239 -0.3179 -0.2196
 3316SOL    HW121410   1.613   4.304   5.857 -6.4714  1.5348  0.9713
 3316SOL    HW221411   1.670   4.430   5.913 -0.5786  0.7423 -0.5499
 3317SOL     OW21412   3.323   1.874   5.902 -0.5296  0.2863 -0.1894
 3317SOL    HW121413   3.380   1.833   5.837 -0.9543 -1.0223  0.2486
 3317SOL    HW221414   3.234   1.840   5.893 -0.6467  0.3352  0.8334
 3318SOL     OW21415   0.972   3.571   2.970 -0.2112  0.1676 -0.1605
 3318SOL    HW121416   1.041   3.533   3.025  0.0016  0.3015 -0.3343
 3318SOL    HW221417   0.912   3.496   2.967  1.6361 -1.2473 -1.8368
 3319SOL     OW21418   2.618   3.956   6.666  0.4864  0.5636  0.5065
 3319SOL    HW121419   2.652   3.942   6.755  1.8932 -0.8339 -0.2521
 3319SOL    HW221420   2.673   3.898   6.614 -0.2878 -0.3223  0.6841
 3320SOL     OW21421   2.466   3.141  10.687  0.6555  0.2705  0.3193
 3320SOL    HW121422   2.430   3.155  10.775  0.9043  1.5733  0.2099
 3320SOL    HW221423   2.388   3.171  10.641  1.5633  0.3413 -1.1686
 3321SOL     OW21424   2.689   2.795  16.533  0.2663 -0.2821 -0.3452
 3321SOL    HW121425   2.603   2.802  16.576  0.1789  1.7289 -0.8684
 3321SOL    HW221426   2.740   2.860  16.581 -0.6549 -0.1056  0.3929
 3322SOL     OW21427   4.310   3.096  14.905 -0.0702  0.0097  0.0106
 3322SOL    HW121428   4.302   3.183  14.943 -3.1664  0.3102 -1.3357
 3322SOL    HW221429   4.343   3.044  14.978 -0.8692 -1.1838 -0.4576
 3323SOL     OW21430   0.173   4.508   1.377 -0.0562  0.0957 -0.2557
 3323SOL    HW121431   0.167   4.413   1.369 -0.6051  0.2957 -2.3848
 3323SOL    HW221432   0.250   4.524   1.431 -0.1965 -0.7455  0.2035
 3324SOL     OW21433   4.260   0.973   5.662  0.5357  0.3019  0.5628
 3324SOL    HW121434   4.192   0.908   5.683 -0.7336  1.9126  1.3996
 3324SOL    HW221435   4.285   0.992   5.753 -1.1441  0.0552  1.0681
 3325SOL     OW21436   1.968   2.619   6.402 -0.7215 -0.3407 -0.3756
 3325SOL    HW121437   1.895   2.557   6.403 -0.2886 -0.8016  1.6119
 3325SOL    HW221438   1.995   2.620   6.494 -0.5863  2.2342 -0.4249
 3326SOL     OW21439   2.633   1.742   0.298 -0.3773 -0.5553  0.0841
 3326SOL    HW121440   2.604   1.813   0.354 -0.0224 -1.8123  1.8480
 3326SOL    HW221441   2.729   1.750   0.299 -0.3639 -0.8544  1.1825
 3327SOL     OW21442   2.766   3.809   3.844 -0.2158  0.9694 -0.1961
 3327SOL    HW121443   2.817   3.850   3.914  1.3785 -0.9409 -0.2294
 3327SOL    HW221444   2.809   3.851   3.769 -0.6887 -0.1001 -1.0610
 3328SOL     OW21445   1.556   0.659   6.859  0.1085  0.2894  0.3672
 3328SOL    HW121446   1.507   0.607   6.923 -0.5892 -0.2103 -0.5653
 3328SOL    HW221447   1.522   0.747   6.874 -1.0125  0.5474 -3.6428
 3329SOL     OW21448   4.308   4.256  14.874 -0.0046 -0.1235 -0.6553
 3329SOL    HW121449   4.301   4.334  14.818  1.9062  1.6572  1.5989
 3329SOL    HW221450   4.235   4.267  14.935 -1.2418 -1.2239 -1.9347
 3330SOL     OW21451   1.996   0.627   4.165  0.0332 -0.1284  0.2439
 3330SOL    HW121452   1.911   0.603   4.126 -0.7169  1.1845  1.0736
 3330SOL    HW221453   2.020   0.555   4.222 -0.6787 -0.9020 -0.4191
 3331SOL     OW21454   2.989   2.868   5.280  0.1248  0.0466  0.4562
 3331SOL    HW121455   3.054   2.810   5.320 -2.0739 -1.0704  2.3940
 3331SOL    HW221456   3.046   2.938   5.249 -0.9633 -1.2147 -4.3662
 3332SOL     OW21457   0.208   3.049   8.050  0.1229 -0.0878  0.4786
 3332SOL    HW121458   0.132   3.100   8.022  0.1841  0.4144  1.2155
 3332SOL    HW221459   0.271   3.065   7.980 -2.3297  3.6128 -0.8659
 3333SOL     OW21460   2.414   1.909   8.764 -0.0260 -0.7426 -0.0663
 3333SOL    HW121461   2.429   1.985   8.819 -1.2452  0.3618 -1.2632
 3333SOL    HW221462   2.387   1.939   8.677  0.1137  2.3900  0.9938
 3334SOL     OW21463   4.231   2.148   2.812  0.2141 -0.2043 -0.0634
 3334SOL    HW121464   4.175   2.077   2.844  0.9660 -1.1693 -0.8957
 3334SOL    HW221465   4.283   2.107   2.743 -1.9039  0.0882 -1.8453
 3335SOL     OW21466   0.528   2.699   0.776 -0.6107  0.0501 -0.7051
 3335SOL    HW121467   0.563   2.775   0.730  3.4555 -1.3372  0.0771
 3335SOL    HW221468   0.447   2.740   0.806 -0.9763 -1.8437  0.9594
 3336SOL     OW21469   2.217   4.040  12.731 -0.1216 -0.4303 -0.2691
 3336SOL    HW121470   2.200   4.128  12.697 -0.2194 -0.3317  0.0366
 3336SOL    HW221471   2.306   4.047  12.765 -0.8809 -0.2581  1.6406
 3337SOL     OW21472   3.026   3.493   9.135  0.1606  0.0053  0.1410
 3337SOL    HW121473   3.108   3.518   9.094 -0.8351  0.3921 -1.6354
 3337SOL    HW221474   3.046   3.478   9.227 -0.3799  1.7488  0.5373
 3338SOL     OW21475   2.557   4.112   3.543 -0.1719  0.0315 -0.2952
 3338SOL    HW121476   2.533   4.056   3.470  2.2366 -1.6209  0.1923
 3338SOL    HW221477   2.497   4.184   3.522  0.6146  1.2368  1.5522
 3339SOL     OW21478   0.801   1.805  12.524 -0.6720 -0.4663 -0.6184
 3339SOL    HW121479   0.815   1.896  12.547 -2.6171 -0.4306  0.4980
 3339SOL    HW221480   0.725   1.807  12.465  1.0178 -0.6346 -2.7979
 3340SOL     OW21481   4.557   2.311   2.669 -0.0801  0.6587 -0.0200
 3340SOL    HW121482   4.652   2.307   2.664 -0.1606  0.2883 -1.3552
 3340SOL    HW221483   4.527   2.278   2.584 -0.6454 -1.0526  0.8540
 3341SOL     OW21484   2.867   1.318  11.718  0.3219 -0.1338 -0.8399
 3341SOL    HW121485   2.936   1.380  11.691 -0.9549  1.2438 -0.9492
 3341SOL    HW221486   2.864   1.269  11.635 -2.1054 -0.8876 -0.3006
 3342SOL     OW21487   2.737   1.939   4.269 -0.7018 -0.5150  0.2529
 3342SOL    HW121488   2.767   1.849   4.260  1.4039  0.0636  1.2687
 3342SOL    HW221489   2.797   1.980   4.332 -0.4926 -1.6344  0.7752
 3343SOL     OW21490   1.325   0.856   3.370  0.2796 -0.1661  0.4162
 3343SOL    HW121491   1.396   0.792   3.367  0.3114 -0.0575 -1.0983
 3343SOL    HW221492   1.245   0.803   3.377  0.1398 -0.0158 -0.0252
 3344SOL     OW21493   0.614   4.272  12.563  0.1436 -0.1169 -0.6119
 3344SOL    HW121494   0.612   4.289  12.469  0.8781  0.0849 -0.5857
 3344SOL    HW221495   0.659   4.351  12.592 -0.5238  0.7661 -2.0033
 3345SOL     OW21496   2.809   3.743  17.024 -0.6128  0.0327  0.0774
 3345SOL    HW121497   2.791   3.761  17.116  1.2990 -0.0909  0.4917
 3345SOL    HW221498   2.727   3.746  16.975  0.4107  1.5363 -1.5363
 3346SOL     OW21499   2.602   2.341   5.216 -0.1401 -0.0281  0.3919
 3346SOL    HW121500   2.648   2.314   5.296  0.7041 -0.1963 -0.1528
 3346SOL    HW221501   2.668   2.319   5.150  0.5648  0.3664  0.9692
 3347SOL     OW21502   3.506   0.234  11.010 -0.1113 -0.1572  0.0962
 3347SOL    HW121503   3.461   0.297  11.067 -0.3424 -0.8914  0.7240
 3347SOL    HW221504   3.555   0.185  11.076 -0.8972 -1.9407 -0.6681
 3348SOL     OW21505   0.021   1.060   4.158 -0.1312 -0.6571  0.1630
 3348SOL    HW121506   0.110   1.088   4.179  0.3519 -0.4990 -2.1055
 3348SOL    HW221507   0.005   0.987   4.217  0.6416 -0.4986  0.5639
 3349SOL     OW21508   1.449   2.525   6.106  0.0302  0.1997 -0.0911
 3349SOL    HW121509   1.447   2.438   6.147  1.1261  0.1810 -0.0989
 3349SOL    HW221510   1.543   2.538   6.097 -0.2064  1.6756 -0.3449
 3350SOL     OW21511   4.462   4.648   3.070  0.0706  0.6428 -0.1110
 3350SOL    HW121512   4.378   4.614   3.039  0.6721 -0.5776 -0.4162
 3350SOL    HW221513   4.427   4.678   3.154  0.1505 -0.4110  0.3047
 3351SOL     OW21514   1.689   1.495   6.807 -0.7715  0.1186 -0.4341
 3351SOL    HW121515   1.772   1.449   6.813  0.1438  1.8302 -0.1814
 3351SOL    HW221516   1.699   1.546   6.727  2.9741 -0.2662 -0.1693
 3352SOL     OW21517   4.494   3.744   5.336 -0.2308 -0.3223  0.2023
 3352SOL    HW121518   4.429   3.803   5.373  0.3004 -0.2131  0.9723
 3352SOL    HW221519   4.535   3.798   5.268  0.4516 -0.5112  0.4561
 3353SOL     OW21520   3.552   0.551  11.382  0.0509 -0.1005  0.1373
 3353SOL    HW121521   3.533   0.576  11.292 -4.0362 -0.0896  0.9954
 3353SOL    HW221522   3.626   0.492  11.369  1.3610  1.6701 -0.5019
 3354SOL     OW21523   4.596   0.332  14.449 -0.0611  0.5858 -0.4338
 3354SOL    HW121524   4.505   0.303  14.439  0.9882 -3.3672  1.4007
 3354SOL    HW221525   4.639   0.280  14.381  2.9039  0.8988  1.1954
 3355SOL     OW21526   0.862   3.942   5.093 -0.0746  0.1287  0.6915
 3355SOL    HW121527   0.803   3.923   5.020  0.1680 -0.9943  0.7972
 3355SOL    HW221528   0.906   4.017   5.053 -0.7885  1.2882  2.0869
 3356SOL     OW21529   4.119   4.665   3.998 -0.2162 -0.3255 -1.2967
 3356SOL    HW121530   4.029   4.630   3.995 -0.5624  0.3502  0.8758
 3356SOL    HW221531   4.096   0.035   3.980 -1.3432 -0.2612  0.4250
 3357SOL     OW21532   4.707   0.480   3.984 -0.4471  0.6947  0.3768
 3357SOL    HW121533   0.046   0.408   4.001 -2.3966 -0.6985  1.3979
 3357SOL    HW221534   0.042   0.557   3.980 -1.9411  1.7339 -0.8264
 3358SOL     OW21535   1.531   4.371   6.909  0.0466 -0.0196  0.3450
 3358SOL    HW121536   1.467   4.424   6.861  0.1260  1.2140  1.6148
 3358SOL    HW221537   1.560   4.431   6.978 -0.0120 -1.2943  1.4659
 3359SOL     OW21538   4.623   0.248   1.366  0.2164 -0.2903 -0.3026
 3359SOL    HW121539   4.650   0.339   1.373 -0.2566 -0.3092  1.5867
 3359SOL    HW221540   4.531   0.271   1.381 -0.0257 -1.6605  0.3390
 3360SOL     OW21541   1.983   0.774   6.076  0.0964  0.1307  0.2115
 3360SOL    HW121542   2.049   0.706   6.066  0.7372  0.6244  1.0100
 3360SOL    HW221543   2.000   0.825   5.997 -0.4685  0.4205  0.2769
 3361SOL     OW21544   2.680   1.115   1.234  0.1699  0.3845 -0.9615
 3361SOL    HW121545   2.586   1.107   1.249  0.6579 -1.1373  1.2617
 3361SOL    HW221546   2.721   1.038   1.273 -2.0366  0.6118  1.7759
 3362SOL     OW21547   3.333   1.952   6.348  0.3431  0.2248  0.3620
 3362SOL    HW121548   3.262   1.890   6.334 -0.6810  1.4368  0.2425
 3362SOL    HW221549   3.355   1.992   6.263  1.0360 -1.1476 -0.1031
 3363SOL     OW21550   4.341   2.985   5.977  0.4611 -0.1686  0.3040
 3363SOL    HW121551   4.333   2.960   5.885  0.0163  0.7575  0.0929
 3363SOL    HW221552   4.426   2.948   6.002  0.3404 -0.9840 -0.5021
 3364SOL     OW21553   0.206   2.573   5.352 -0.5999  0.9816  0.3559
 3364SOL    HW121554   0.210   2.658   5.397  1.8548  1.3308 -0.5134
 3364SOL    HW221555   0.298   2.549   5.351 -1.2822 -1.5106 -0.8331
 3365SOL     OW21556   3.110   2.649   6.244  0.3600 -0.0349  0.1461
 3365SOL    HW121557   3.082   2.558   6.242  1.3926 -0.2956 -2.8333
 3365SOL    HW221558   3.204   2.640   6.234  0.2358 -0.3958 -0.7194
 3366SOL     OW21559   2.082   2.861   6.854 -0.2324 -0.6112 -0.1673
 3366SOL    HW121560   2.103   2.904   6.937 -1.8232 -1.1641  0.5341
 3366SOL    HW221561   2.089   2.921   6.780 -0.7634 -1.7015 -1.1026
 3367SOL     OW21562   3.857   1.808   3.293 -0.6896  0.4673 -0.2196
 3367SOL    HW121563   3.839   1.855   3.374  0.5368  1.1477 -0.3522
 3367SOL    HW221564   3.776   1.815   3.243 -0.1716 -0.1251 -1.1579
 3368SOL     OW21565   3.778   4.465   2.679 -0.0390  0.1635  0.4236
 3368SOL    HW121566   3.767   4.410   2.601 -1.2393 -1.6071  1.8229
 3368SOL    HW221567   3.695   4.512   2.684 -0.0045  0.1526  1.0174
 3369SOL     OW21568   1.702   4.275   7.583 -0.3627 -0.1694  0.0317
 3369SOL    HW121569   1.632   4.241   7.639  0.4743 -1.5208  0.2489
 3369SOL    HW221570   1.650   4.280   7.503  0.4736  0.9874 -0.4371
 3370SOL     OW21571   4.412   3.363  16.569 -0.3268  0.5058 -0.1124
 3370SOL    HW121572   4.476   3.301  16.533 -0.6026 -0.2463  0.7110
 3370SOL    HW221573   4.436   3.366  16.661  1.1699  0.2031 -0.4876
 3371SOL     OW21574   3.580   2.541  15.801 -0.4267  0.0983 -0.0947
 3371SOL    HW121575   3.639   2.609  15.834 -1.2101  0.1920  1.1187
 3371SOL    HW221576   3.644   2.472  15.786  0.8753  1.4871 -0.9705
 3372SOL     OW21577   3.241   1.362  13.361  0.8943 -0.0664  0.1046
 3372SOL    HW121578   3.334   1.383  13.372  0.5694  0.2101  2.1773
 3372SOL    HW221579   3.199   1.400  13.438  0.1070  0.7538 -0.7325
 3373SOL     OW21580   4.111   0.436   4.170 -0.7939 -0.7862  0.0266
 3373SOL    HW121581   4.145   0.497   4.105  0.0464 -0.0283  1.1739
 3373SOL    HW221582   4.190   0.383   4.179  1.3254  2.6447  1.9446
 3374SOL     OW21583   0.256   0.810   1.354  0.7769  0.2975  0.2428
 3374SOL    HW121584   0.322   0.854   1.408  1.0147  2.2795 -1.6444
 3374SOL    HW221585   0.192   0.880   1.342  1.2552  0.7385  0.2399
 3375SOL     OW21586   2.651   1.401   1.144  0.4175  0.1711  0.4088
 3375SOL    HW121587   2.658   1.368   1.234 -4.2345 -0.5995  0.4967
 3375SOL    HW221588   2.706   1.347   1.087 -0.2678  0.9245 -0.9603
 3376SOL     OW21589   2.163   0.643  10.724 -0.2457  0.6403  0.0579
 3376SOL    HW121590   2.255   0.668  10.711  0.0370 -0.3962  0.0539
 3376SOL    HW221591   2.173   0.568  10.783  1.0187  0.6431 -0.1569
 3377SOL     OW21592   2.919   1.536  17.429 -0.2052  0.0945  0.6430
 3377SOL    HW121593   2.996   1.553  17.375 -0.3322  1.6713  0.9605
 3377SOL    HW221594   2.870   1.468  17.382 -0.5229 -0.2086  1.4205
 3378SOL     OW21595   1.554   2.383   6.970 -0.2081 -0.3408  0.5848
 3378SOL    HW121596   1.584   2.465   6.932 -2.2007 -0.2654 -0.8234
 3378SOL    HW221597   1.462   2.404   6.986 -0.6016 -1.4680 -0.2293
 3379SOL     OW21598   2.677   3.578   3.467 -0.7566  0.1421  0.7162
 3379SOL    HW121599   2.682   3.483   3.470  1.9781  0.1563 -2.6037
 3379SOL    HW221600   2.607   3.583   3.403 -0.7847  0.5271  0.7717
 3380SOL     OW21601   1.115   1.043   8.010  0.1908  0.4025 -0.1872
 3380SOL    HW121602   1.181   1.022   8.076  1.1598  1.6922 -0.7393
 3380SOL    HW221603   1.155   1.124   7.978 -0.2649 -0.4118 -2.8562
 3381SOL     OW21604   2.073   2.026   8.953 -0.1293 -0.2622  0.4295
 3381SOL    HW121605   2.136   1.955   8.954 -0.1108 -0.1912  2.5943
 3381SOL    HW221606   2.001   1.974   8.916  0.4814 -1.1950  0.5749
 3382SOL     OW21607   2.571   2.431   2.474 -0.8472 -0.3746  0.1548
 3382SOL    HW121608   2.513   2.380   2.417 -1.8908  1.7839 -0.7143
 3382SOL    HW221609   2.561   2.515   2.430 -0.0796 -0.2560  0.2041
 3383SOL     OW21610   2.296   3.298   8.045 -0.7578  0.3960 -0.0400
 3383SOL    HW121611   2.210   3.333   8.021 -1.6299 -1.0575  1.0151
 3383SOL    HW221612   2.357   3.333   7.980 -1.2726  2.7909  0.7588
 3384SOL     OW21613   0.590   2.113  14.119 -0.3193 -0.8656 -0.1901
 3384SOL    HW121614   0.664   2.122  14.059  0.7116 -0.7493  1.1015
 3384SOL    HW221615   0.583   2.206  14.140  1.8275 -0.7125 -0.1702
 3385SOL     OW21616   4.342   3.461   7.766 -0.1860  0.1692 -0.3190
 3385SOL    HW121617   4.385   3.378   7.788 -0.8020 -0.4719 -1.5069
 3385SOL    HW221618   4.423   3.511   7.759 -1.0783  1.6406 -0.2351
 3386SOL     OW21619   1.869   2.436   9.260  0.5166 -0.6000  0.1373
 3386SOL    HW121620   1.925   2.388   9.200  2.1985  0.7304  0.6322
 3386SOL    HW221621   1.785   2.417   9.219  0.5179  3.1483 -1.5506
 3387SOL     OW21622   3.394   0.741  17.546 -0.2017 -0.1551 -0.0026
 3387SOL    HW121623   3.421   0.833  17.541 -1.1149  0.1480  0.5793
 3387SOL    HW221624   3.427   0.708  17.462  1.3047  1.1242  0.0741
 3388SOL     OW21625   0.157   1.140   0.727 -0.2463 -0.1501  0.0304
 3388SOL    HW121626   0.131   1.103   0.812  1.4102  0.1810  0.6709
 3388SOL    HW221627   0.072   1.137   0.682 -2.6321  0.0372  4.4804
 3389SOL     OW21628   0.323   1.939   5.948  0.4369 -0.0827  0.3319
 3389SOL    HW121629   0.385   1.870   5.972  1.5405 -0.0001 -2.2750
 3389SOL    HW221630   0.367   1.971   5.869  1.2883 -0.7959  0.5135
 3390SOL     OW21631   1.570   0.615   3.971 -0.3167 -0.0048  0.0605
 3390SOL    HW121632   1.548   0.697   3.926  0.9922  0.9613  1.1805
 3390SOL    HW221633   1.566   0.562   3.892  0.7502  1.1619 -0.7823
 3391SOL     OW21634   3.693   0.775  13.628 -0.2016 -0.4178 -0.2502
 3391SOL    HW121635   3.778   0.819  13.622 -0.4325 -0.0232 -0.6876
 3391SOL    HW221636   3.692   0.749  13.536 -2.1626  1.1406 -0.6986
 3392SOL     OW21637   4.684   4.618   9.411 -0.6511 -0.1276 -0.7501
 3392SOL    HW121638   0.033   4.555   9.393 -0.4718 -0.1653  0.0413
 3392SOL    HW221639   4.644   4.645   9.329 -2.1918 -0.5965 -0.1596
 3393SOL     OW21640   2.677   0.143  16.449  0.2438  0.8489 -0.1599
 3393SOL    HW121641   2.607   0.187  16.496  0.0708 -0.5527  0.9188
 3393SOL    HW221642   2.635   0.149  16.363  0.0797 -0.7203 -0.1945
 3394SOL     OW21643   1.813   2.560   8.220 -0.3846  0.1570 -0.5412
 3394SOL    HW121644   1.868   2.547   8.143  2.1685  0.8003  1.1567
 3394SOL    HW221645   1.828   2.478   8.267 -0.1481 -0.6812 -2.0769
 3395SOL     OW21646   4.313   2.543   2.366 -0.4147 -0.2566 -0.7193
 3395SOL    HW121647   4.277   2.499   2.443 -0.7939 -0.5112 -1.0419
 3395SOL    HW221648   4.239   2.519   2.310  0.2138 -1.3672 -1.0862
 3396SOL     OW21649   3.811   1.713  16.701 -0.4140  0.0253  0.3815
 3396SOL    HW121650   3.795   1.618  16.698 -0.8100  0.1905 -2.4623
 3396SOL    HW221651   3.726   1.752  16.684 -0.3847 -0.0830 -0.0066
 3397SOL     OW21652   1.659   2.131  15.451 -0.1121 -0.0741  0.4568
 3397SOL    HW121653   1.574   2.167  15.477  0.3650  1.1860  0.2824
 3397SOL    HW221654   1.680   2.064  15.516  0.3798  0.0579  0.4275
 3398SOL     OW21655   1.489   4.342  15.259 -0.0848 -0.0469 -0.0651
 3398SOL    HW121656   1.566   4.286  15.266 -0.7393 -0.9668 -0.3096
 3398SOL    HW221657   1.503   4.392  15.179  4.2074 -1.5793 -0.2823
 3399SOL     OW21658   0.640   0.502  17.428 -0.4767 -0.3670  0.1198
 3399SOL    HW121659   0.605   0.562  17.362 -2.0732 -1.8034 -0.3311
 3399SOL    HW221660   0.694   0.443  17.377  0.2949  1.9891 -1.7877
 3400SOL     OW21661   4.596   4.702   6.141  0.3525 -0.2023 -0.9166
 3400SOL    HW121662   4.569   4.668   6.056  1.0802  0.7619 -1.5386
 3400SOL    HW221663   4.550   0.065   6.149  1.1105  0.1099  0.1601
 3401SOL     OW21664   0.172   3.904   3.451 -0.1356  0.4850  0.2594
 3401SOL    HW121665   0.205   3.983   3.407  2.7086 -0.2461  1.1229
 3401SOL    HW221666   0.102   3.876   3.391 -0.3171  0.8868  0.2812
 3402SOL     OW21667   4.618   0.325   2.463  0.1394 -0.3090  0.1529
 3402SOL    HW121668   4.584   0.275   2.538 -0.5829 -0.5582 -0.3365
 3402SOL    HW221669   4.540   0.372   2.435  1.7728  1.8261 -0.7721
 3403SOL     OW21670   4.180   1.356   4.676 -0.3718  0.0591 -0.2483
 3403SOL    HW121671   4.102   1.383   4.627 -0.6907  1.9276  1.3036
 3403SOL    HW221672   4.245   1.360   4.606  0.6189  0.0599  0.6817
 3404SOL     OW21673   0.821   3.677  14.019  0.0170 -0.1105 -0.6195
 3404SOL    HW121674   0.805   3.656  13.927  2.0848  2.6412 -1.6017
 3404SOL    HW221675   0.743   3.726  14.046  1.8562  1.9955  0.9329
 3405SOL     OW21676   3.819   0.804   7.383 -0.1847 -0.6288  0.1429
 3405SOL    HW121677   3.794   0.751   7.308 -1.7926  1.8411 -1.0663
 3405SOL    HW221678   3.756   0.775   7.449 -1.2296 -0.6687 -0.8854
 3406SOL     OW21679   2.136   0.683   3.929  0.0183 -0.2084 -0.3725
 3406SOL    HW121680   2.090   0.670   4.012  0.8059  0.8713  0.2178
 3406SOL    HW221681   2.070   0.656   3.865 -1.8965 -0.2101  1.6109
 3407SOL     OW21682   3.224   1.386   8.874  0.3215 -0.5490  0.0298
 3407SOL    HW121683   3.184   1.308   8.915 -0.0880  0.5102  1.6540
 3407SOL    HW221684   3.235   1.446   8.948  2.2556 -2.2343  1.1097
 3408SOL     OW21685   4.546   1.516  15.507 -0.2756  0.5552  0.0865
 3408SOL    HW121686   4.559   1.602  15.468 -0.6853  0.6076  0.0669
 3408SOL    HW221687   4.638   1.494  15.521 -0.6467 -0.5333  0.8145
 3409SOL     OW21688   0.417   4.238  17.288 -0.4728 -0.0636 -0.3726
 3409SOL    HW121689   0.365   4.159  17.304  1.5929 -1.2246  0.5636
 3409SOL    HW221690   0.454   4.262  17.372  2.9286 -3.6198 -0.8559
 3410SOL     OW21691   1.958   0.717   9.810 -0.0518  0.2981 -0.0376
 3410SOL    HW121692   1.901   0.725   9.887  0.4952 -0.1548  0.4145
 3410SOL    HW221693   1.902   0.653   9.766 -1.9264  2.5920 -0.9852
 3411SOL     OW21694   1.911   4.339   6.886 -0.3204 -0.1098 -0.4624
 3411SOL    HW121695   1.883   4.276   6.820  0.6454 -1.6398  0.5667
 3411SOL    HW221696   1.961   4.400   6.832 -1.0464  1.3478  0.5110
 3412SOL     OW21697   3.484   4.678  17.440 -0.4486  0.4817 -0.3198
 3412SOL    HW121698   3.484   0.052  17.442  0.1698  0.4436  1.0820
 3412SOL    HW221699   3.456   4.648  17.353 -0.3215  1.5171 -0.7154
 3413SOL     OW21700   0.472   2.982   3.727 -0.0662 -0.1784 -0.2906
 3413SOL    HW121701   0.441   2.907   3.676 -0.5324 -0.1856  0.0015
 3413SOL    HW221702   0.553   2.953   3.770  0.3794  0.7479 -0.5135
 3414SOL     OW21703   3.588   1.880   0.089  0.3664 -0.2864  0.6655
 3414SOL    HW121704   3.633   1.913   0.012 -0.2990 -1.4945 -0.2418
 3414SOL    HW221705   3.637   1.944   0.142 -0.8913  0.4601  0.9162
 3415SOL     OW21706   1.248   2.538   2.380  0.2140 -0.1076 -0.2469
 3415SOL    HW121707   1.215   2.510   2.465  1.8263  2.3129  1.1685
 3415SOL    HW221708   1.269   2.630   2.394  2.2778 -0.8477  1.4586
 3416SOL     OW21709   0.860   2.145   6.551 -0.0156  0.0011 -0.4571
 3416SOL    HW121710   0.789   2.197   6.513 -0.4354  0.3178  0.7509
 3416SOL    HW221711   0.812   2.072   6.590  0.9665 -1.0949 -1.3074
 3417SOL     OW21712   0.083   1.480   7.276 -0.4291  0.3330  0.6820
 3417SOL    HW121713   0.087   1.385   7.285 -0.2662  0.3272  0.5405
 3417SOL    HW221714   0.107   1.510   7.364  1.9700  0.4289 -0.0244
 3418SOL     OW21715   1.616   0.190   8.285 -0.6915  0.5921  0.1557
 3418SOL    HW121716   1.603   0.236   8.367 -0.0567 -0.1225  0.6578
 3418SOL    HW221717   1.571   0.248   8.223 -0.9264 -1.4491 -1.6194
 3419SOL     OW21718   4.653   3.781   4.689 -0.0090  0.6087 -0.5632
 3419SOL    HW121719   4.663   3.770   4.783 -1.9678 -1.0059 -0.5486
 3419SOL    HW221720   0.020   3.763   4.655  0.0774 -0.7726  0.3966
 3420SOL     OW21721   0.384   0.246   7.813  0.5344 -0.3444 -0.0988
 3420SOL    HW121722   0.385   0.202   7.727  0.8788  2.6185 -1.6213
 3420SOL    HW221723   0.357   0.178   7.875  1.5313 -0.4046  0.2579
 3421SOL     OW21724   1.946   3.272   6.100  0.0032  0.1970 -0.2416
 3421SOL    HW121725   2.034   3.249   6.068 -0.1130 -2.0730  1.0970
 3421SOL    HW221726   1.908   3.301   6.017 -1.2618  1.8819  0.9112
 3422SOL     OW21727   4.534   2.130  17.406  0.1891  0.1083  0.3730
 3422SOL    HW121728   4.489   2.200  17.359  0.2228  2.1416  3.3888
 3422SOL    HW221729   4.625   2.154  17.387  0.9396 -1.5481  1.9116
 3423SOL     OW21730   4.229   2.728  12.663  0.2738  0.2625  0.1503
 3423SOL    HW121731   4.172   2.799  12.634  0.3627 -0.6136 -2.1521
 3423SOL    HW221732   4.320   2.759  12.667  0.1618  0.4130  1.5541
 3424SOL     OW21733   4.663   2.085   1.943  0.2629 -0.1695  0.5993
 3424SOL    HW121734   4.649   2.099   2.036 -1.3462  0.9287  0.2026
 3424SOL    HW221735   4.666   2.176   1.913 -0.0187  0.0630  1.2740
 3425SOL     OW21736   3.778   1.197   8.237 -0.0367 -0.8084  0.0030
 3425SOL    HW121737   3.817   1.113   8.260 -0.1426 -1.4745 -2.2506
 3425SOL    HW221738   3.813   1.261   8.300 -0.8708 -1.5552  1.2373
 3426SOL     OW21739   2.485   2.928   5.882  0.3138  0.1333  0.2305
 3426SOL    HW121740   2.395   2.895   5.890  0.8323 -1.2496  0.2900
 3426SOL    HW221741   2.524   2.884   5.957 -1.3436 -1.4827  0.1524
 3427SOL     OW21742   3.060   1.017   0.353 -0.3269  0.3672 -0.7855
 3427SOL    HW121743   3.081   0.955   0.283  1.2221 -0.8300  0.7397
 3427SOL    HW221744   3.144   1.033   0.396 -1.0397 -1.7044  1.4218
 3428SOL     OW21745   0.778   0.809   4.445 -0.6701 -0.3062  0.1712
 3428SOL    HW121746   0.782   0.843   4.534  1.6022  0.1934 -0.1188
 3428SOL    HW221747   0.823   0.883   4.404 -3.4008  2.2281  1.7871
 3429SOL     OW21748   0.673   0.950   0.340  0.2345  0.8377 -0.4201
 3429SOL    HW121749   0.632   1.023   0.292  0.9215  0.7458 -1.1366
 3429SOL    HW221750   0.686   0.880   0.276 -0.4217  1.0379 -0.7764
 3430SOL     OW21751   0.553   0.224  10.932  0.4341 -0.2117 -0.6277
 3430SOL    HW121752   0.532   0.153  10.871 -1.1919  0.3671 -0.7448
 3430SOL    HW221753   0.583   0.295  10.877  0.3133 -0.3504 -0.8731
 3431SOL     OW21754   3.179   0.018   9.694  0.0435  0.1484  0.1592
 3431SOL    HW121755   3.216   4.670   9.639 -0.4314 -1.2967  1.6619
 3431SOL    HW221756   3.159   0.083   9.626 -3.4063  0.8157  1.7887
 3432SOL     OW21757   3.830   3.523   7.626 -0.1611 -0.0811 -0.1689
 3432SOL    HW121758   3.782   3.443   7.608 -0.2626  0.2701 -1.4640
 3432SOL    HW221759   3.924   3.506   7.615  0.0059  0.3687  0.5829
 3433SOL     OW21760   1.682   1.647  16.415  0.2593 -0.1113 -0.1248
 3433SOL    HW121761   1.587   1.656  16.403  0.0936 -0.7980  0.6632
 3433SOL    HW221762   1.707   1.739  16.401 -0.9184  0.0922 -0.8861
 3434SOL     OW21763   2.198   1.127   3.522 -0.2779  0.2016 -0.0644
 3434SOL    HW121764   2.267   1.108   3.586  2.7221  0.9332 -3.1016
 3434SOL    HW221765   2.238   1.086   3.446 -1.1044 -0.2095 -0.2786
 3435SOL     OW21766   4.131   4.212   4.830 -0.0625 -0.0580 -0.7710
 3435SOL    HW121767   4.081   4.266   4.769  0.4061 -0.3286 -1.3953
 3435SOL    HW221768   4.223   4.237   4.824  0.3320 -1.4082 -0.4489
 3436SOL     OW21769   1.214   2.131   8.113  0.0467 -0.6692  0.1254
 3436SOL    HW121770   1.274   2.060   8.090 -0.7009 -1.2625  0.0206
 3436SOL    HW221771   1.248   2.156   8.199 -1.2916 -0.4851  0.6026
 3437SOL     OW21772   2.201   3.317   7.055 -0.0176  0.5747  0.2377
 3437SOL    HW121773   2.241   3.401   7.032  0.3567  0.2303 -0.3892
 3437SOL    HW221774   2.265   3.252   7.027  1.1040  1.6743  0.2553
 3438SOL     OW21775   1.874   3.440   2.541 -0.0235 -0.1276  0.0306
 3438SOL    HW121776   1.785   3.472   2.556 -0.1868 -0.7819  0.4381
 3438SOL    HW221777   1.865   3.347   2.523  1.1648 -0.0993 -0.7300
 3439SOL     OW21778   3.684   4.317   1.536 -0.3179  0.0092 -0.0030
 3439SOL    HW121779   3.636   4.234   1.528 -0.8945  0.2134  1.3910
 3439SOL    HW221780   3.623   4.372   1.488 -0.4845 -1.5149 -1.5399
 3440SOL     OW21781   3.516   4.460   1.384  0.1928  0.2311 -0.3313
 3440SOL    HW121782   3.530   4.524   1.314  0.3832  1.8192  1.1703
 3440SOL    HW221783   3.428   4.431   1.361  0.0699  1.5331 -1.5274
 3441SOL     OW21784   2.842   3.414  11.143  0.1422 -0.0394 -0.1719
 3441SOL    HW121785   2.918   3.419  11.085 -0.5562 -2.5083 -1.2683
 3441SOL    HW221786   2.857   3.484  11.207 -2.6781 -0.6748  1.1526
 3442SOL     OW21787   4.534   3.484   7.409 -0.2573  0.5840  0.3194
 3442SOL    HW121788   4.516   3.576   7.429 -0.8659  0.8850 -1.6096
 3442SOL    HW221789   4.493   3.440   7.483  1.0957  1.2422  1.4591
 3443SOL     OW21790   1.791   0.332   3.845 -0.0928  0.6145 -0.3906
 3443SOL    HW121791   1.825   0.259   3.793  0.6797  0.7467 -0.0571
 3443SOL    HW221792   1.704   0.342   3.804  0.1171 -0.6167 -1.1391
 3444SOL     OW21793   3.302   2.848   5.807  0.2767 -0.5314  0.5990
 3444SOL    HW121794   3.355   2.923   5.836  1.1450 -0.9289  0.0402
 3444SOL    HW221795   3.370   2.782   5.794 -2.6029 -3.6253  1.0672
 3445SOL     OW21796   3.505   3.584   0.678 -0.4411 -0.4601 -0.1631
 3445SOL    HW121797   3.412   3.605   0.674 -0.2199  0.8163  1.1836
 3445SOL    HW221798   3.540   3.655   0.624 -1.1673 -0.0926 -0.1472
 3446SOL     OW21799   2.047   0.090  16.917  0.1614  0.5872  0.5875
 3446SOL    HW121800   2.056   0.185  16.915 -0.7403  0.6604 -0.0099
 3446SOL    HW221801   2.132   0.060  16.886  0.9810  1.7261  1.7346
 3447SOL     OW21802   0.736   0.930   4.676 -0.2984  0.4426 -0.1224
 3447SOL    HW121803   0.645   0.957   4.670 -0.5607 -0.6603 -1.1262
 3447SOL    HW221804   0.765   0.995   4.740 -1.3924  1.5409 -0.7252
 3448SOL     OW21805   4.634   2.869  16.063 -0.0839  0.2393 -0.1410
 3448SOL    HW121806   4.551   2.894  16.103 -0.8758  0.2562 -1.7947
 3448SOL    HW221807   4.673   2.951  16.031 -1.6644  1.2318  0.4790
 3449SOL     OW21808   4.238   0.584   6.945  0.6328 -0.6035 -0.4657
 3449SOL    HW121809   4.211   0.569   7.036 -1.8807 -0.9146 -1.2827
 3449SOL    HW221810   4.231   0.502   6.897  1.8365 -0.0646 -1.5415
 3450SOL     OW21811   3.980   2.946   1.980  0.5709 -0.5883 -0.1543
 3450SOL    HW121812   4.000   2.982   2.067 -0.9830  0.9306 -0.4164
 3450SOL    HW221813   4.032   2.866   1.976 -0.5320 -1.3236  0.0172
 3451SOL     OW21814   2.059   3.230  17.383  0.1922  0.3486  0.2431
 3451SOL    HW121815   2.071   3.312  17.334  0.4523 -0.7642 -1.5459
 3451SOL    HW221816   2.150   3.202  17.381  0.0647 -0.0193 -0.2117
 3452SOL     OW21817   0.539   0.205   5.822 -0.4408 -0.0809  0.4721
 3452SOL    HW121818   0.586   0.156   5.755  0.0758  1.8009 -0.5670
 3452SOL    HW221819   0.466   0.234   5.766  0.5388  0.8499 -0.3301
 3453SOL     OW21820   0.339   4.105   1.543 -0.3824 -0.3448  0.3136
 3453SOL    HW121821   0.313   4.145   1.626 -0.6461  2.1888 -0.9897
 3453SOL    HW221822   0.319   4.014   1.562  3.4235 -1.5017 -1.1874
 3454SOL     OW21823   2.515   0.175   6.954 -0.4070  0.0690 -0.2346
 3454SOL    HW121824   2.579   0.166   7.024  0.7046  0.2516 -1.2215
 3454SOL    HW221825   2.516   0.270   6.946 -0.7709  0.1443  0.5904
 3455SOL     OW21826   2.601   4.320   9.118  0.0483 -0.2523 -0.3571
 3455SOL    HW121827   2.629   4.314   9.027  0.2436 -0.4362 -0.2851
 3455SOL    HW221828   2.577   4.229   9.137 -1.7384  0.4769  0.8017
 3456SOL     OW21829   1.493   0.360  11.134 -0.5597  0.2456  0.0200
 3456SOL    HW121830   1.562   0.341  11.071 -0.1946  0.4222  0.3697
 3456SOL    HW221831   1.450   0.433  11.090  2.0519  2.3393  0.9612
 3457SOL     OW21832   2.502   0.927   8.221  0.1333 -0.1044 -0.3271
 3457SOL    HW121833   2.575   0.884   8.176  2.1011  1.8076  1.0698
 3457SOL    HW221834   2.444   0.852   8.236  0.3083 -0.1544  0.1031
 3458SOL     OW21835   1.471   1.185   1.762 -0.7038 -0.0690  0.1746
 3458SOL    HW121836   1.535   1.115   1.750  0.5182  0.8735  1.1162
 3458SOL    HW221837   1.504   1.221   1.845  0.9173  0.3375 -0.6409
 3459SOL     OW21838   2.165   4.277   2.483  1.0941  0.3501  0.6076
 3459SOL    HW121839   2.113   4.237   2.552 -0.3077  2.6809  0.9030
 3459SOL    HW221840   2.166   4.202   2.423  0.5949  0.2459  0.7330
 3460SOL     OW21841   3.663   3.254   7.134 -0.3368  0.1423  0.2871
 3460SOL    HW121842   3.692   3.163   7.124 -2.6472 -0.5425 -0.4026
 3460SOL    HW221843   3.749   3.295   7.128 -0.7825  1.1347  0.8042
 3461SOL     OW21844   3.073   1.743   5.516  0.1933  0.7879  0.6186
 3461SOL    HW121845   3.163   1.716   5.501 -0.3083 -0.4948 -0.1545
 3461SOL    HW221846   3.047   1.778   5.430  1.2997 -4.5368 -1.8716
 3462SOL     OW21847   4.678   3.967   2.546  0.0451  0.3143 -0.4772
 3462SOL    HW121848   4.584   3.956   2.562  0.3669  0.0410  1.2511
 3462SOL    HW221849   4.687   4.006   2.459  0.5050  0.0797 -0.5337
 3463SOL     OW21850   4.295   2.140  16.263 -0.0702 -0.5655  0.4541
 3463SOL    HW121851   4.270   2.089  16.185  2.4275 -0.6280 -0.2980
 3463SOL    HW221852   4.386   2.113  16.261  0.0863  0.0643 -1.0963
 3464SOL     OW21853   0.206   3.341   4.609 -0.0447 -0.5140  0.3331
 3464SOL    HW121854   0.111   3.358   4.610  0.3410  1.9263 -2.4531
 3464SOL    HW221855   0.227   3.407   4.675 -0.2742  1.8520 -1.9461
 3465SOL     OW21856   0.510   4.589   4.602  0.2395 -0.1843 -0.0625
 3465SOL    HW121857   0.558   4.610   4.522 -1.4824 -0.6249 -1.2375
 3465SOL    HW221858   0.533   4.665   4.655 -1.3584 -0.6355  1.2675
 3466SOL     OW21859   1.516   2.313   5.544  0.1185 -0.7427 -0.2319
 3466SOL    HW121860   1.480   2.360   5.619  0.9706  0.0636 -0.3238
 3466SOL    HW221861   1.593   2.363   5.518 -0.8108  1.8001  1.9933
 3467SOL     OW21862   4.688   0.018   8.934 -0.4999 -0.1664  0.1910
 3467SOL    HW121863   0.053   4.699   8.925  0.4643  2.1582 -1.0113
 3467SOL    HW221864   4.703   0.109   8.909 -2.0844 -0.4768 -1.8987
 3468SOL     OW21865   3.980   3.719   8.998 -0.4183  0.2605 -0.0743
 3468SOL    HW121866   3.921   3.677   9.060  0.2429 -1.6356 -0.7592
 3468SOL    HW221867   3.923   3.726   8.922  0.3685 -0.7419 -0.7617
 3469SOL     OW21868   1.435   1.362  12.980  0.1529 -0.0044 -0.2393
 3469SOL    HW121869   1.351   1.319  12.963 -0.0896  0.1478  0.5354
 3469SOL    HW221870   1.454   1.332  13.069  1.1615 -1.9657 -1.1057
 3470SOL     OW21871   2.541   2.159  10.441  0.5722 -0.6649 -0.4078
 3470SOL    HW121872   2.489   2.157  10.521 -0.7294 -0.7803 -1.2476
 3470SOL    HW221873   2.565   2.251  10.430  0.7411 -0.2640  3.2927
 3471SOL     OW21874   4.397   3.839   9.713 -0.0056  0.6576 -0.3388
 3471SOL    HW121875   4.332   3.868   9.649  0.1665  0.4270 -0.6164
 3471SOL    HW221876   4.474   3.816   9.661  1.7416  0.6943  2.2640
 3472SOL     OW21877   4.410   2.017   5.746 -0.0255 -0.0484  0.2085
 3472SOL    HW121878   4.482   1.955   5.760 -0.4318 -0.6786 -0.4681
 3472SOL    HW221879   4.450   2.101   5.770 -0.1305  0.1432 -0.2975
 3473SOL     OW21880   0.106   1.118   3.250  0.5627  0.2614 -0.8154
 3473SOL    HW121881   0.135   1.192   3.303 -0.9298 -0.3541  0.8528
 3473SOL    HW221882   0.108   1.051   3.318  1.8092 -0.1716 -1.2690
 3474SOL     OW21883   0.700   3.673  15.147  0.4205 -0.3109  0.4611
 3474SOL    HW121884   0.773   3.730  15.173  1.4685 -0.4444 -2.0976
 3474SOL    HW221885   0.752   3.603  15.107 -0.9959 -0.8878 -0.3848
 3475SOL     OW21886   2.984   0.598  16.151  0.0617  0.0061  0.0417
 3475SOL    HW121887   2.955   0.603  16.243 -0.6737  2.3540 -0.3263
 3475SOL    HW221888   2.913   0.544  16.116 -0.7943  0.5305  0.9308
 3476SOL     OW21889   4.268   1.011   6.388  0.5129 -0.4203  0.2523
 3476SOL    HW121890   4.252   1.015   6.482  0.4259 -1.0769  0.2605
 3476SOL    HW221891   4.233   0.923   6.377  0.5260 -0.3689 -0.2253
 3477SOL     OW21892   0.304   1.084   3.885  0.2033  0.0920  0.3078
 3477SOL    HW121893   0.310   1.146   3.958  1.6090  0.1673  0.1132
 3477SOL    HW221894   0.284   1.007   3.938  0.8923 -0.6542 -0.5263
 3478SOL     OW21895   4.123   4.706   5.529  0.1846 -0.1823 -0.2247
 3478SOL    HW121896   4.039   4.707   5.484 -0.1804 -2.3423  0.3879
 3478SOL    HW221897   4.164   0.070   5.519  0.8031 -0.3640  0.6456
 3479SOL     OW21898   1.211   3.625   8.363 -0.4141 -0.0719 -0.0897
 3479SOL    HW121899   1.144   3.557   8.359 -1.6788  0.9735  2.6393
 3479SOL    HW221900   1.269   3.616   8.288  1.1185 -3.2343  1.4817
 3480SOL     OW21901   3.394   3.937   6.597  0.0014 -0.2077  0.0449
 3480SOL    HW121902   3.441   3.856   6.579 -0.5561 -0.6264  0.4733
 3480SOL    HW221903   3.468   3.993   6.620 -1.2605  1.4526  0.1025
 3481SOL     OW21904   2.757   2.430   4.016  0.8978  0.0654  0.6695
 3481SOL    HW121905   2.688   2.363   4.022 -0.2570  1.3116  1.1343
 3481SOL    HW221906   2.729   2.479   3.939 -1.1695 -0.6647  0.9452
 3482SOL     OW21907   0.874   4.624  12.436 -0.1060  0.9637  0.0687
 3482SOL    HW121908   0.840   4.707  12.404 -0.6713  0.6911 -0.0534
 3482SOL    HW221909   0.818   4.558  12.395  1.3461 -0.6121  0.6203
 3483SOL     OW21910   2.357   4.155   2.771 -0.0584 -0.1191 -0.1374
 3483SOL    HW121911   2.417   4.181   2.701 -0.6314  1.5711  0.0135
 3483SOL    HW221912   2.295   4.099   2.724 -0.1428 -0.4048  0.3089
 3484SOL     OW21913   0.806   4.059   0.081  0.5907 -0.3450 -0.3921
 3484SOL    HW121914   0.876   4.085   0.140  0.5358 -0.1417 -0.4169
 3484SOL    HW221915   0.739   4.123   0.106  1.7086  1.4501 -2.0175
 3485SOL     OW21916   2.549   2.975   8.648  0.1957  0.7241  0.0031
 3485SOL    HW121917   2.643   2.981   8.662  0.0367  1.4775  0.7807
 3485SOL    HW221918   2.542   2.896   8.595  1.5768  2.2745 -2.5230
 3486SOL     OW21919   4.110   1.020   3.676 -0.4500  0.3078  0.5106
 3486SOL    HW121920   4.190   0.988   3.717 -1.9897 -0.7917  2.6457
 3486SOL    HW221921   4.137   1.112   3.684 -0.3849  0.0145  3.5827
 3487SOL     OW21922   0.562   1.638  14.831 -0.7688  0.2734 -0.5017
 3487SOL    HW121923   0.559   1.607  14.922  0.3829  1.9314  0.1078
 3487SOL    HW221924   0.483   1.691  14.830 -0.6837  0.4281  0.3668
 3488SOL     OW21925   0.729   2.831   3.841 -1.1148 -0.5821  0.0679
 3488SOL    HW121926   0.812   2.782   3.836 -2.1856 -2.3744 -0.0446
 3488SOL    HW221927   0.677   2.756   3.870  0.2128 -1.3213  0.5451
 3489SOL     OW21928   2.999   4.241   4.513  0.3280 -1.0225 -0.4913
 3489SOL    HW121929   3.028   4.317   4.564 -0.4852 -1.1044  0.0828
 3489SOL    HW221930   3.004   4.171   4.578 -2.0294 -1.5524 -0.8963
 3490SOL     OW21931   3.607   3.753   5.828 -0.5331 -0.1233 -0.4302
 3490SOL    HW121932   3.640   3.705   5.904 -2.2457 -0.9192 -0.1894
 3490SOL    HW221933   3.514   3.759   5.849 -0.4152 -3.0233  0.9019
 3491SOL     OW21934   2.090   0.754   0.691 -0.4110 -0.3116  0.4433
 3491SOL    HW121935   2.071   0.810   0.616  1.1993  0.2029  0.4226
 3491SOL    HW221936   2.067   0.825   0.751  2.6220 -0.5680  1.9200
 3492SOL     OW21937   2.094   3.791  13.633 -0.2446  0.0060  0.5118
 3492SOL    HW121938   2.136   3.833  13.708 -1.5658 -0.5586  1.5751
 3492SOL    HW221939   2.049   3.865  13.591  1.6908  1.0260  0.2308
 3493SOL     OW21940   3.123   2.288   7.884 -0.1537 -0.2809  0.2046
 3493SOL    HW121941   3.028   2.294   7.888 -0.0685  0.8260  0.8731
 3493SOL    HW221942   3.139   2.204   7.841 -3.5605 -1.3683  1.0971
 3494SOL     OW21943   0.549   1.756   7.245 -0.4991  0.4805  0.1568
 3494SOL    HW121944   0.491   1.708   7.186  2.3345 -2.3358 -0.2930
 3494SOL    HW221945   0.635   1.746   7.204 -0.1027  1.7303  0.6704
 3495SOL     OW21946   2.872   2.202  11.427 -0.6445 -0.2716 -0.3620
 3495SOL    HW121947   2.865   2.264  11.355 -2.5999 -0.6918 -0.5326
 3495SOL    HW221948   2.811   2.237  11.492  0.1536 -1.3872  0.9878
 3496SOL     OW21949   0.581   2.535   4.717  0.1999  0.2093 -0.2509
 3496SOL    HW121950   0.659   2.590   4.717 -0.3160  0.9465 -0.8620
 3496SOL    HW221951   0.533   2.579   4.787  0.8560 -0.2692  0.5049
 3497SOL     OW21952   2.745   0.666  14.987 -0.0495 -0.5930 -0.0828
 3497SOL    HW121953   2.689   0.680  15.064 -1.0873 -1.1530 -0.7304
 3497SOL    HW221954   2.818   0.623  15.031  0.0082  1.4890  1.8778
 3498SOL     OW21955   4.125   3.737   9.644  0.1720 -0.0083  0.1080
 3498SOL    HW121956   4.089   3.783   9.720  0.3996  0.3419  0.0052
 3498SOL    HW221957   4.167   3.807   9.593  0.1336 -0.7597 -0.9654
 3499SOL     OW21958   2.592   4.231   5.039 -0.4004  0.2155 -0.0481
 3499SOL    HW121959   2.574   4.286   5.115  1.2666  2.1191 -1.0513
 3499SOL    HW221960   2.530   4.158   5.040 -0.5228  0.3268  0.5336
 3500SOL     OW21961   1.261   1.375  15.351  0.1025 -0.2334  0.0342
 3500SOL    HW121962   1.197   1.321  15.304  0.6839 -0.6378 -0.2934
 3500SOL    HW221963   1.208   1.384  15.430 -1.0431  1.6022 -0.9319
 3501SOL     OW21964   1.973   1.830  10.300  0.1264  0.8459 -0.3273
 3501SOL    HW121965   2.033   1.887  10.348  0.3269  1.0341 -0.8033
 3501SOL    HW221966   1.910   1.883  10.251 -1.0495 -0.2860 -0.0312
 3502SOL     OW21967   0.358   2.327   9.053 -0.0137 -0.9523 -0.6604
 3502SOL    HW121968   0.316   2.389   9.112  2.1192 -1.6500  1.6048
 3502SOL    HW221969   0.410   2.279   9.117 -0.6441 -1.0349 -0.2177
 3503SOL     OW21970   2.851   4.496   3.600  0.5048 -0.2879 -0.4089
 3503SOL    HW121971   2.837   4.554   3.525 -1.3487  0.1133  0.2637
 3503SOL    HW221972   2.940   4.522   3.625  0.0712  1.2745 -0.4961
 3504SOL     OW21973   0.494   2.846  16.430 -0.3163  0.1899  0.9378
 3504SOL    HW121974   0.467   2.764  16.471 -0.5578 -1.1413 -1.8595
 3504SOL    HW221975   0.418   2.866  16.375  1.2778  0.6530 -1.0957
 3505SOL     OW21976   1.775   4.083   3.436  0.3498 -0.3368 -0.1528
 3505SOL    HW121977   1.743   4.075   3.346  3.6038 -0.3304 -1.3001
 3505SOL    HW221978   1.754   3.995   3.466 -2.4749  0.7666  1.1333
 3506SOL     OW21979   0.163   3.293   7.734 -0.0827 -0.6034 -0.0718
 3506SOL    HW121980   0.090   3.246   7.775 -0.4190  0.8622  1.0131
 3506SOL    HW221981   0.230   3.230   7.761  0.1110 -0.0396  0.7370
 3507SOL     OW21982   3.365   4.511   2.121  0.1549  0.2927 -0.1822
 3507SOL    HW121983   3.412   4.428   2.115  1.9568  1.2196  1.1631
 3507SOL    HW221984   3.384   4.538   2.211  1.0783 -0.1290 -0.2485
 3508SOL     OW21985   2.604   1.802   9.241  0.1774 -0.0675 -0.0634
 3508SOL    HW121986   2.580   1.712   9.218  1.0345 -0.2704 -0.1351
 3508SOL    HW221987   2.611   1.800   9.336  0.6149  0.5677 -0.0826
 3509SOL     OW21988   0.110   1.205  16.399  0.0352 -0.6010 -0.0513
 3509SOL    HW121989   0.087   1.294  16.370 -0.4591 -0.0936  1.8639
 3509SOL    HW221990   0.146   1.224  16.486 -0.8438  0.8594  0.0099
 3510SOL     OW21991   3.177   0.954  10.656 -0.5808 -0.4624  0.5274
 3510SOL    HW121992   3.181   1.034  10.709  1.3623  0.0759 -0.4119
 3510SOL    HW221993   3.247   0.971  10.593 -1.2687  0.6560  0.0653
 3511SOL     OW21994   1.933   3.772   6.180  0.0101 -0.1401  0.0973
 3511SOL    HW121995   1.929   3.677   6.184  1.1273 -0.2496 -1.8391
 3511SOL    HW221996   1.846   3.801   6.210 -0.4903  0.1978 -1.6978
 3512SOL     OW21997   2.717   4.324   3.016 -0.3528 -0.3040 -0.1266
 3512SOL    HW121998   2.682   4.253   2.961  0.0243 -1.8699  1.6695
 3512SOL    HW221999   2.758   4.269   3.083  0.1079  1.6976  1.2197
 3513SOL     OW22000   2.444   0.946   6.295 -0.3293 -0.1189 -0.0776
 3513SOL    HW122001   2.536   0.920   6.299 -0.0077  0.6564 -2.6763
 3513SOL    HW222002   2.470   1.037   6.308 -0.6841 -0.0357  0.0429
 3514SOL     OW22003   3.133   3.819   2.423  0.3607  0.5801 -0.0936
 3514SOL    HW122004   3.098   3.732   2.441 -0.9763  0.7858 -1.6894
 3514SOL    HW222005   3.217   3.797   2.464 -0.5675  0.9528  1.9990
 3515SOL     OW22006   0.412   3.431  15.821  0.0007 -0.2106 -0.0964
 3515SOL    HW122007   0.419   3.350  15.872  1.1053 -0.2606 -0.3261
 3515SOL    HW222008   0.484   3.476  15.865  1.5513 -0.1913 -2.6334
 3516SOL     OW22009   0.690   2.229  14.387  0.0976  0.3369  0.2515
 3516SOL    HW122010   0.763   2.167  14.381 -1.8947 -1.8740 -1.2869
 3516SOL    HW222011   0.655   2.214  14.475 -1.6168  1.4862 -0.2362
 3517SOL     OW22012   4.640   1.953   4.522 -0.0463  0.8803 -0.8729
 3517SOL    HW122013   4.690   1.971   4.442  1.0337  0.6016 -0.2583
 3517SOL    HW222014   4.715   1.933   4.577 -1.2896 -2.7422 -0.4970
 3518SOL     OW22015   1.826   2.731  10.135  0.2200  0.4127  0.1555
 3518SOL    HW122016   1.863   2.689  10.212  0.9129  1.7985  0.5793
 3518SOL    HW222017   1.886   2.707  10.064 -1.7124 -1.1558 -0.9502
 3519SOL     OW22018   1.868   4.446   8.840 -0.2342  0.4801 -0.1341
 3519SOL    HW122019   1.903   4.367   8.882  0.9251  0.8386 -0.4295
 3519SOL    HW222020   1.815   4.403   8.773 -1.1044  0.4046  0.5984
 3520SOL     OW22021   3.449   3.318   1.912 -0.3688 -0.4121  0.3785
 3520SOL    HW122022   3.506   3.325   1.835  2.3597 -0.9044  2.3296
 3520SOL    HW222023   3.427   3.225   1.909 -0.3338 -0.4107  0.0306
 3521SOL     OW22024   0.641   0.865   6.129  0.1635 -0.2132  0.2767
 3521SOL    HW122025   0.732   0.844   6.108  0.7155  1.3543  1.1444
 3521SOL    HW222026   0.599   0.883   6.044 -1.6848 -4.1722  0.3499
 3522SOL     OW22027   4.618   4.535   4.699  0.2586  0.4389  0.3116
 3522SOL    HW122028   4.655   4.550   4.786  1.4423 -0.3819 -0.0517
 3522SOL    HW222029   4.582   4.623   4.684  0.3164  0.3102 -0.5598
 3523SOL     OW22030   3.677   1.566   6.031 -1.0064  0.1642 -0.5042
 3523SOL    HW122031   3.706   1.500   5.968 -0.8493 -1.2217  1.0389
 3523SOL    HW222032   3.698   1.647   5.985 -2.5659  1.2190  0.6413
 3524SOL     OW22033   1.659   4.249  12.535 -0.1773 -0.3723 -0.5443
 3524SOL    HW122034   1.749   4.248  12.567 -0.6966 -1.1937  0.8634
 3524SOL    HW222035   1.617   4.325  12.575  0.2697  0.4612 -1.6635
 3525SOL     OW22036   3.501   1.566  13.312 -0.1259  0.2299 -0.4691
 3525SOL    HW122037   3.574   1.505  13.318 -0.5996 -0.1380  1.5048
 3525SOL    HW222038   3.481   1.558  13.405 -1.6356 -2.9541 -1.0673
 3526SOL     OW22039   3.355   3.842   1.496 -0.1650 -0.6765  0.1622
 3526SOL    HW122040   3.266   3.876   1.501  0.0612 -0.2177  1.0235
 3526SOL    HW222041   3.386   3.855   1.585  0.3541  0.8703 -0.2371
 3527SOL     OW22042   0.831   3.357   4.871 -0.1320 -0.0756 -0.0726
 3527SOL    HW122043   0.771   3.405   4.814 -0.2555  0.3144  0.3901
 3527SOL    HW222044   0.904   3.349   4.809  0.4333 -0.4308  0.6442
 3528SOL     OW22045   2.737   2.216   2.516 -0.0215 -0.1569 -0.3882
 3528SOL    HW122046   2.677   2.290   2.520 -2.8507 -2.6224  2.9372
 3528SOL    HW222047   2.693   2.159   2.453 -0.3998  0.9167 -1.0872
 3529SOL     OW22048   0.151   2.960  17.026  0.1910  0.6076 -0.3549
 3529SOL    HW122049   0.212   2.963  16.952 -0.5214  0.9470 -0.9420
 3529SOL    HW222050   0.200   2.919  17.096 -2.4857 -2.3639 -0.2200
 3530SOL     OW22051   2.384   0.695   5.691 -0.2016 -0.2595  0.3697
 3530SOL    HW122052   2.351   0.690   5.601 -0.1353  2.7130  0.1859
 3530SOL    HW222053   2.466   0.647   5.692 -0.9720 -1.5580  2.4537
 3531SOL     OW22054   2.527   0.446   4.485  0.5460  0.5212 -0.4783
 3531SOL    HW122055   2.585   0.371   4.498 -0.6673 -0.2406  0.6212
 3531SOL    HW222056   2.511   0.456   4.579  0.0536  0.1870 -0.5288
 3532SOL     OW22057   2.237   2.498   8.345 -0.0635 -0.0962  0.1823
 3532SOL    HW122058   2.161   2.490   8.287  1.1355 -0.6527 -1.3140
 3532SOL    HW222059   2.302   2.478   8.278  0.6443  0.1026  0.8100
 3533SOL     OW22060   0.438   0.360   6.043  0.3216 -0.5153  0.0562
 3533SOL    HW122061   0.451   0.276   5.998  0.8907  0.8915 -2.3412
 3533SOL    HW222062   0.530   0.380   6.060  0.0531  1.1107 -0.4609
 3534SOL     OW22063   3.854   1.379   7.118  0.5148 -0.2610  0.4601
 3534SOL    HW122064   3.948   1.383   7.100  0.2916 -2.0955 -1.1264
 3534SOL    HW222065   3.821   1.403   7.032 -0.4727 -3.1627  0.0420
 3535SOL     OW22066   2.301   1.512   3.794 -0.3148  0.0169 -0.4111
 3535SOL    HW122067   2.325   1.432   3.841  0.3503  0.0738 -0.6525
 3535SOL    HW222068   2.344   1.508   3.708 -1.4227  0.2799 -0.9762
 3536SOL     OW22069   4.367   4.462  13.834 -0.3712 -0.2108  0.4001
 3536SOL    HW122070   4.437   4.398  13.820 -0.6583 -0.6183  0.8363
 3536SOL    HW222071   4.327   4.456  13.748  0.8674  0.7260 -0.2515
 3537SOL     OW22072   1.921   3.577   5.653 -0.0794 -0.1309 -0.1612
 3537SOL    HW122073   2.015   3.570   5.668 -0.1852  0.1046  0.5773
 3537SOL    HW222074   1.928   3.611   5.564 -0.2406 -0.1965 -0.2004
 3538SOL     OW22075   1.288   3.568  12.303  0.3832 -0.4589  0.1381
 3538SOL    HW122076   1.356   3.501  12.298 -0.1963 -1.0384  0.0228
 3538SOL    HW222077   1.299   3.628  12.230  2.5649 -3.7975 -2.3035
 3539SOL     OW22078   1.859   3.380  10.009 -0.2944  0.4290  0.0464
 3539SOL    HW122079   1.886   3.379   9.917  1.5463  2.6498  0.5515
 3539SOL    HW222080   1.849   3.473  10.032  0.2015  0.2574  0.9467
 3540SOL     OW22081   2.536   3.096  14.664  0.1832  0.1059 -0.0291
 3540SOL    HW122082   2.595   3.031  14.702 -0.2866 -1.3920 -1.8767
 3540SOL    HW222083   2.469   3.050  14.614 -0.8884  0.3806  1.1426
 3541SOL     OW22084   3.913   3.143   4.369 -0.0414 -0.3166  0.4380
 3541SOL    HW122085   3.994   3.138   4.320  0.4384  4.1308  0.7457
 3541SOL    HW222086   3.915   3.225   4.418 -0.3489 -0.9543  1.5246
 3542SOL     OW22087   3.714   1.977  10.795  0.1795  0.3162  0.0008
 3542SOL    HW122088   3.730   1.887  10.767 -0.7406 -0.5650  2.2794
 3542SOL    HW222089   3.787   2.004  10.852 -0.2277  2.4064 -0.4725
 3543SOL     OW22090   4.497   0.312   9.549  0.0787  0.0950 -0.1058
 3543SOL    HW122091   4.548   0.330   9.470  2.8436  1.1369  1.9074
 3543SOL    HW222092   4.410   0.332   9.516 -0.2021  1.2170  1.3055
 3544SOL     OW22093   0.583   0.929   4.136  0.2250 -0.2496 -0.0916
 3544SOL    HW122094   0.654   0.883   4.093 -1.2226 -3.2544  0.7726
 3544SOL    HW222095   0.601   0.901   4.226 -0.3140  0.0949  0.1291
 3545SOL     OW22096   3.588   0.422   6.271  0.3802  0.4001 -0.2578
 3545SOL    HW122097   3.609   0.407   6.363  0.4223 -4.2270 -1.0282
 3545SOL    HW222098   3.671   0.411   6.225 -0.4697  1.6619 -2.1233
 3546SOL     OW22099   2.040   3.580  13.896  0.0850 -0.4307  0.0816
 3546SOL    HW122100   2.108   3.576  13.828 -1.0991  1.1403 -1.1849
 3546SOL    HW222101   2.028   3.486  13.913  2.8304 -1.0345 -1.1890
 3547SOL     OW22102   2.409   3.790   6.818 -0.1904 -0.4181 -0.3098
 3547SOL    HW122103   2.323   3.765   6.851  0.7014 -2.0052  0.8544
 3547SOL    HW222104   2.407   3.756   6.729 -1.8414 -0.5127 -0.2399
 3548SOL     OW22105   2.098   3.593   2.091  1.1105 -0.1417 -0.0734
 3548SOL    HW122106   2.109   3.588   2.186 -1.7032  1.2672  0.3221
 3548SOL    HW222107   2.149   3.520   2.055  1.2562  0.7448 -1.6866
 3549SOL     OW22108   3.096   0.039   6.728  0.5255  0.3082 -0.3750
 3549SOL    HW122109   3.105   0.126   6.689 -1.7937 -1.2766 -4.4949
 3549SOL    HW222110   3.142   0.067   6.807  0.0790 -1.4619  0.5150
 3550SOL     OW22111   2.825   1.099  12.290  0.6096  0.4848  0.7638
 3550SOL    HW122112   2.753   1.148  12.330 -0.2804 -1.7139  1.8363
 3550SOL    HW222113   2.889   1.087  12.360  0.1112 -4.3278  0.4305
 3551SOL     OW22114   1.254   4.698  13.165  0.0578 -0.3180  0.0599
 3551SOL    HW122115   1.184   0.030  13.203  1.8521  0.6507  1.9878
 3551SOL    HW222116   1.244   4.721  13.073 -1.7536  0.7558  0.5312
 3552SOL     OW22117   1.899   3.045   3.622  0.5412  0.4878  0.0361
 3552SOL    HW122118   1.985   3.009   3.640  0.0953 -0.6963 -0.2131
 3552SOL    HW222119   1.876   3.027   3.531 -1.8524 -1.8274  1.0968
 3553SOL     OW22120   2.147   0.551   2.186 -0.3581  0.8072 -0.4482
 3553SOL    HW122121   2.166   0.526   2.096 -2.6820 -2.4661 -0.0432
 3553SOL    HW222122   2.141   0.646   2.177  0.3773  0.7712 -1.3088
 3554SOL     OW22123   2.439   3.152  13.704  0.2653  0.6528 -0.3465
 3554SOL    HW122124   2.389   3.210  13.646 -2.2696 -1.9694 -0.7520
 3554SOL    HW222125   2.521   3.198  13.726 -0.0721  0.6743  0.8513
 3555SOL     OW22126   2.307   1.685   0.150 -0.0713  0.0083  0.2736
 3555SOL    HW122127   2.333   1.777   0.141 -3.0653  0.9318  1.1049
 3555SOL    HW222128   2.280   1.661   0.062  1.1256  0.5170 -0.2451
 3556SOL     OW22129   4.169   4.078   2.402  0.6313 -0.2564 -0.4688
 3556SOL    HW122130   4.079   4.110   2.403  1.8516  3.1988 -1.6892
 3556SOL    HW222131   4.224   4.156   2.396 -0.5861  0.5892 -0.6681
 3557SOL     OW22132   1.881   3.603   3.938 -0.0096 -0.1414 -0.0991
 3557SOL    HW122133   1.844   3.529   3.986  1.1196 -0.1706  0.7479
 3557SOL    HW222134   1.908   3.567   3.854  0.4734  2.6414 -1.1316
 3558SOL     OW22135   3.349   1.330  15.825 -0.0657  0.0231 -0.3315
 3558SOL    HW122136   3.279   1.362  15.883 -1.1925 -1.1150 -1.0552
 3558SOL    HW222137   3.413   1.401  15.827 -1.2558  1.1399 -1.7698
 3559SOL     OW22138   2.402   1.210   7.289 -0.1546 -0.5815  0.3930
 3559SOL    HW122139   2.430   1.251   7.207 -1.6842 -1.4146 -0.5284
 3559SOL    HW222140   2.407   1.288   7.344 -1.7655 -0.9961  1.1331
 3560SOL     OW22141   4.007   3.324   1.198  0.1335 -0.3237 -0.0307
 3560SOL    HW122142   3.982   3.416   1.189 -0.8283 -0.5539  0.3196
 3560SOL    HW222143   4.098   3.321   1.166  0.5202 -0.3011  1.0477
 3561SOL     OW22144   3.468   2.077   7.229  0.5959  0.2685  0.0281
 3561SOL    HW122145   3.444   2.156   7.277  0.2088 -0.3886  0.9160
 3561SOL    HW222146   3.438   2.097   7.141 -2.1380 -3.2100  0.1807
 3562SOL     OW22147   4.550   2.879   4.862  0.7111 -0.8502 -0.3012
 3562SOL    HW122148   4.628   2.910   4.908 -0.9430  1.4954  0.8852
 3562SOL    HW222149   4.594   2.822   4.798 -0.9634 -0.3079 -1.9525
 3563SOL     OW22150   1.688   3.468   8.971 -0.5917  0.3652  0.5688
 3563SOL    HW122151   1.610   3.436   8.927 -1.0114 -0.7985  2.1583
 3563SOL    HW222152   1.670   3.426   9.055 -1.7453 -1.3605 -0.5272
 3564SOL     OW22153   1.884   0.552   0.780  0.2882 -0.1669 -0.0891
 3564SOL    HW122154   1.893   0.563   0.875  1.1132 -1.0142 -0.0653
 3564SOL    HW222155   1.953   0.608   0.745 -0.4290  0.3244 -0.7212
 3565SOL     OW22156   4.598   0.426   3.551  0.7419  0.1794  0.5949
 3565SOL    HW122157   4.556   0.484   3.487  1.5678 -0.5221 -0.5902
 3565SOL    HW222158   4.612   0.346   3.501 -1.1564  1.3702 -1.8753
 3566SOL     OW22159   3.191   1.377   3.348  0.3503 -0.3935 -0.2630
 3566SOL    HW122160   3.136   1.400   3.424  2.2029  2.0458  0.3185
 3566SOL    HW222161   3.174   1.454   3.295  0.3095 -0.5070 -0.4137
 3567SOL     OW22162   3.626   1.978  17.322 -0.5077 -0.0835 -0.1789
 3567SOL    HW122163   3.633   2.064  17.281 -0.9336  1.6563  3.4043
 3567SOL    HW222164   3.569   1.933  17.260 -0.4998 -2.0219  1.1967
 3568SOL     OW22165   3.928   3.900   5.929 -0.5294  0.2826  0.0743
 3568SOL    HW122166   3.844   3.899   5.974 -0.6423  1.1470 -0.1087
 3568SOL    HW222167   3.977   3.875   6.008 -1.8400 -1.2662  0.3879
 3569SOL     OW22168   0.289   2.709   7.121 -0.1306  0.1087  0.2485
 3569SOL    HW122169   0.336   2.769   7.063 -3.0991  1.4782 -0.7132
 3569SOL    HW222170   0.204   2.699   7.080  1.2672 -3.7035 -1.7083
 3570SOL     OW22171   0.695   0.853   9.224 -0.3672  0.5350  0.0673
 3570SOL    HW122172   0.713   0.923   9.287  0.9192  2.8043 -2.8543
 3570SOL    HW222173   0.685   0.915   9.152 -0.1025  0.7507  0.2201
 3571SOL     OW22174   2.079   0.349   3.938  0.0797  0.0911 -0.0889
 3571SOL    HW122175   2.018   0.337   4.011 -1.0897 -0.0224 -1.0956
 3571SOL    HW222176   2.045   0.291   3.870  2.4898  0.0548 -1.2743
 3572SOL     OW22177   1.095   3.889   9.776 -0.2463 -0.2075 -0.2789
 3572SOL    HW122178   1.029   3.956   9.792 -2.4597 -2.2180 -1.0975
 3572SOL    HW222179   1.176   3.937   9.758 -0.1595  0.7666  2.8329
 3573SOL     OW22180   1.006   2.246   1.809 -0.1896 -0.2361 -0.4306
 3573SOL    HW122181   0.962   2.257   1.893  0.2575 -1.7369  0.0080
 3573SOL    HW222182   1.007   2.334   1.771 -3.9419 -0.9397 -2.0695
 3574SOL     OW22183   3.522   3.288   2.686  0.1371  0.2487  0.1504
 3574SOL    HW122184   3.598   3.240   2.718  0.1938  0.7449  0.7540
 3574SOL    HW222185   3.556   3.377   2.696 -3.1381  1.6360 -1.1164
 3575SOL     OW22186   2.303   4.354   5.069  0.4442  0.3549 -0.2540
 3575SOL    HW122187   2.395   4.349   5.043  0.5272  0.7493 -0.0285
 3575SOL    HW222188   2.299   4.448   5.085  1.1858  0.5064 -0.9119
 3576SOL     OW22189   0.734   1.125   0.567 -0.2140 -0.5858 -0.5679
 3576SOL    HW122190   0.711   1.214   0.539  1.6921  0.0624 -0.0302
 3576SOL    HW222191   0.738   1.081   0.482  0.0670  0.4644 -1.0963
 3577SOL     OW22192   0.609   0.757   3.736 -0.1037 -0.7386  0.0939
 3577SOL    HW122193   0.597   0.845   3.771 -2.8071 -0.5603 -1.2834
 3577SOL    HW222194   0.526   0.769   3.690  0.5791  2.5174 -0.3326
 3578SOL     OW22195   0.301   2.925   3.335  0.6425 -0.3179 -0.0676
 3578SOL    HW122196   0.306   2.830   3.345  0.4066 -0.2018  1.1587
 3578SOL    HW222197   0.388   2.947   3.300  1.2876 -4.6818 -1.1700
 3579SOL     OW22198   0.722   2.048   3.544  0.3797  0.0530 -0.6056
 3579SOL    HW122199   0.677   2.040   3.460 -0.4506  1.3285 -0.2752
 3579SOL    HW222200   0.814   2.043   3.517  0.3424 -2.4594 -0.2621
 3580SOL     OW22201   0.243   0.622   8.900 -0.1660  0.0287 -0.3059
 3580SOL    HW122202   0.308   0.551   8.906 -0.5787 -0.3057  0.1986
 3580SOL    HW222203   0.179   0.603   8.968  2.2868  0.6151  2.1662
 3581SOL     OW22204   0.229   4.103   7.126  0.2101  0.2188 -0.4228
 3581SOL    HW122205   0.157   4.042   7.112  1.2561 -1.0991 -0.0693
 3581SOL    HW222206   0.229   4.131   7.217 -0.2230  0.6768 -0.5619
 3582SOL     OW22207   1.336   3.259   1.048  0.1018 -0.9966  0.2333
 3582SOL    HW122208   1.279   3.332   1.071  1.2030 -0.2776  0.6387
 3582SOL    HW222209   1.341   3.212   1.131 -0.3812  1.3465  1.6017
 3583SOL     OW22210   3.363   0.231   7.456  0.0228 -0.3871 -0.6873
 3583SOL    HW122211   3.414   0.310   7.475  0.0913 -0.5345 -0.2752
 3583SOL    HW222212   3.403   0.175   7.522  3.3877  1.7942 -0.8352
 3584SOL     OW22213   1.216   4.523   2.418  0.3446 -0.4084 -0.4891
 3584SOL    HW122214   1.154   4.450   2.423 -0.0096 -0.0852 -0.1492
 3584SOL    HW222215   1.206   4.557   2.506  0.1137 -2.5217  0.2997
 3585SOL     OW22216   2.504   2.540  15.233  0.3908 -0.3798 -0.1362
 3585SOL    HW122217   2.494   2.633  15.211 -0.1403 -0.1372  1.1789
 3585SOL    HW222218   2.545   2.533  15.319 -1.8507 -1.5255  0.8471
 3586SOL     OW22219   4.669   4.531   8.286 -0.2972  0.0358  0.1499
 3586SOL    HW122220   4.649   4.442   8.315  1.5942 -0.3562  0.2575
 3586SOL    HW222221   4.586   4.566   8.256  0.4264  0.4332 -1.3850
 3587SOL     OW22222   2.301   2.030   5.471  0.2220  0.1059 -0.4094
 3587SOL    HW122223   2.236   2.098   5.489  0.0288 -0.4177  0.8947
 3587SOL    HW222224   2.382   2.078   5.452  1.1213 -0.8529  0.9908
 3588SOL     OW22225   1.727   2.010  14.610  0.7738 -0.3330  0.1474
 3588SOL    HW122226   1.745   2.044  14.522  1.5724 -1.1447 -0.0103
 3588SOL    HW222227   1.734   2.093  14.657  2.2764  0.4577 -1.4745
 3589SOL     OW22228   0.714   2.315  11.878 -0.1646  0.4311  0.1687
 3589SOL    HW122229   0.704   2.404  11.914  0.4179  0.5316  0.0728
 3589SOL    HW222230   0.674   2.264  11.948  1.8524 -1.2382  0.0972
 3590SOL     OW22231   4.058   1.080   9.276  0.2419 -0.3746  0.0223
 3590SOL    HW122232   3.976   1.111   9.238  1.8776 -0.4758 -3.5876
 3590SOL    HW222233   4.090   1.028   9.202  2.9614 -0.0223  0.9596
 3591SOL     OW22234   0.068   1.104   7.911 -0.1121 -0.3737  0.1129
 3591SOL    HW122235   0.077   1.033   7.974  0.9435  1.5173  2.0926
 3591SOL    HW222236   0.064   1.183   7.966 -0.4669 -0.5300  0.3161
 3592SOL     OW22237   0.334   1.519   5.556  0.0765  0.1071  0.5718
 3592SOL    HW122238   0.256   1.505   5.610 -0.0377  0.4881  0.5058
 3592SOL    HW222239   0.331   1.455   5.485 -1.2361  1.9567 -1.0128
 3593SOL     OW22240   1.559   0.480  17.293  0.3708  0.3131  0.6062
 3593SOL    HW122241   1.616   0.486  17.215 -1.5769 -1.7453 -0.9787
 3593SOL    HW222242   1.479   0.524  17.264 -0.8982 -1.0987  1.9772
 3594SOL     OW22243   2.009   0.454  10.375 -0.2195 -0.1269  0.2006
 3594SOL    HW122244   1.995   0.383  10.312  1.1535 -0.4297  0.2342
 3594SOL    HW222245   1.947   0.432  10.445 -1.9524  0.1295 -1.2537
 3595SOL     OW22246   0.842   2.798   7.328  0.7094  0.0488 -0.2324
 3595SOL    HW122247   0.889   2.879   7.310 -1.2807  1.2720  0.1941
 3595SOL    HW222248   0.873   2.779   7.417 -2.6221 -1.1844  0.6686
 3596SOL     OW22249   2.470   3.328  14.810  0.3616 -0.5063 -0.1244
 3596SOL    HW122250   2.484   3.240  14.775  0.2115  0.2059 -1.9764
 3596SOL    HW222251   2.513   3.324  14.896  0.0181  2.0725  0.1717
 3597SOL     OW22252   3.861   3.834  10.836  0.0337  0.2150 -0.2447
 3597SOL    HW122253   3.814   3.917  10.833  0.9665  0.7071 -1.5591
 3597SOL    HW222254   3.790   3.782  10.873  1.3420 -1.1928  0.2645
 3598SOL     OW22255   3.357   2.878   3.236  0.0357  0.2218 -0.0237
 3598SOL    HW122256   3.401   2.866   3.320  0.5477 -0.0907 -0.3339
 3598SOL    HW222257   3.265   2.868   3.259  0.3688  1.3561  1.8151
 3599SOL     OW22258   3.959   4.646   0.650  0.5050  0.0954  0.0315
 3599SOL    HW122259   3.888   4.667   0.590 -0.8570 -0.1640  1.5333
 3599SOL    HW222260   3.959   0.008   0.697 -0.1217 -0.7420  1.5360
 3600SOL     OW22261   3.540   1.272   6.040 -0.5046  0.3555  0.1329
 3600SOL    HW122262   3.548   1.320   5.958 -0.1418 -0.2029 -0.1597
 3600SOL    HW222263   3.474   1.327   6.082  1.9063  2.8991  0.5477
 3601SOL     OW22264   1.890   2.544  12.761  0.4974 -0.4486  0.6022
 3601SOL    HW122265   1.901   2.545  12.665 -1.0872  0.7968  0.4354
 3601SOL    HW222266   1.919   2.455  12.781 -0.3712 -1.1538 -1.1858
 3602SOL     OW22267   1.665   3.888   2.932  0.2750  0.2429  0.2175
 3602SOL    HW122268   1.580   3.901   2.890 -0.2636 -2.0510  0.6101
 3602SOL    HW222269   1.686   3.797   2.913 -1.8271  0.2402 -2.0739
 3603SOL     OW22270   4.135   2.062   0.353 -0.2068 -0.4322  0.3643
 3603SOL    HW122271   4.083   2.121   0.297 -0.5467 -1.3691 -0.3158
 3603SOL    HW222272   4.057   2.026   0.395  0.1837 -0.2295  1.2503
 3604SOL     OW22273   2.644   4.619   5.354 -0.2902  0.1095  0.0764
 3604SOL    HW122274   2.657   4.651   5.443  0.1707 -0.5142  0.2337
 3604SOL    HW222275   2.630   4.697   5.300 -0.3345  0.9603  1.3311
 3605SOL     OW22276   4.373   1.094   5.904  0.1880 -0.0529 -0.5466
 3605SOL    HW122277   4.463   1.126   5.912  0.6855 -1.9720  1.4859
 3605SOL    HW222278   4.338   1.097   5.992 -1.2607  0.9485 -1.1589
 3606SOL     OW22279   1.518   3.420  17.536  0.0299  0.2454  0.1075
 3606SOL    HW122280   1.572   3.427  17.615  1.2972 -0.3887 -0.7148
 3606SOL    HW222281   1.575   3.466  17.475 -0.3902  0.6581  0.0235
 3607SOL     OW22282   0.780   3.225  11.784  0.4660  0.2880  0.2332
 3607SOL    HW122283   0.787   3.190  11.695 -0.3687  0.6454  0.0248
 3607SOL    HW222284   0.764   3.318  11.767 -2.4758  0.0458  1.7156
 3608SOL     OW22285   4.065   2.758  15.068  0.1152 -0.3779 -0.0352
 3608SOL    HW122286   3.984   2.780  15.114 -0.0228  2.0326 -1.4162
 3608SOL    HW222287   4.031   2.691  15.010  0.5899 -0.6481 -0.0035
 3609SOL     OW22288   4.558   1.133   7.768  0.2938 -0.7855  0.0924
 3609SOL    HW122289   4.600   1.215   7.742  1.4449 -1.2960  0.3012
 3609SOL    HW222290   4.626   1.104   7.829  0.4966 -1.7577 -0.5931
 3610SOL     OW22291   1.646   3.394   4.411  0.4485  0.9826  0.0377
 3610SOL    HW122292   1.588   3.464   4.440 -0.5263 -0.5455  1.7672
 3610SOL    HW222293   1.593   3.319   4.436  0.5992  0.1694 -2.0331
 3611SOL     OW22294   2.823   2.309   7.239  0.0770 -0.3956  0.6370
 3611SOL    HW122295   2.895   2.284   7.297  0.3727  1.7086  1.1664
 3611SOL    HW222296   2.836   2.244   7.170  0.5462 -0.3926  0.7225
 3612SOL     OW22297   1.249   4.364   8.590  0.1353  0.5069  0.6981
 3612SOL    HW122298   1.182   4.320   8.537  0.9450  0.2556 -0.1252
 3612SOL    HW222299   1.195   4.433   8.628 -0.7677  0.2108 -0.0500
 3613SOL     OW22300   2.327   3.255   9.256 -0.1580  0.2007  0.4896
 3613SOL    HW122301   2.243   3.210   9.245  0.4153 -0.5946 -0.7245
 3613SOL    HW222302   2.367   3.219   9.177  1.5959 -1.2083  2.0187
 3614SOL     OW22303   0.880   1.039   7.550  0.4042 -0.4081  0.1381
 3614SOL    HW122304   0.846   0.953   7.575  1.2039 -0.4192  1.1739
 3614SOL    HW222305   0.805   1.096   7.568  0.1163 -0.6177 -0.3715
 3615SOL     OW22306   4.696   0.973   0.341 -0.3689  0.4519  0.3748
 3615SOL    HW122307   0.042   1.032   0.307  0.7526 -1.2183 -0.3201
 3615SOL    HW222308   4.705   0.889   0.297 -1.2653  0.3491  0.3875
 3616SOL     OW22309   2.368   0.515   2.368  0.0361  0.0130 -0.8288
 3616SOL    HW122310   2.369   0.423   2.392 -0.5549 -0.3988 -2.4026
 3616SOL    HW222311   2.279   0.524   2.333 -0.5119  1.1154  0.8169
 3617SOL     OW22312   2.829   1.992   3.699  0.0769 -0.3477 -0.3971
 3617SOL    HW122313   2.779   1.987   3.617  1.6214 -2.1339 -1.2187
 3617SOL    HW222314   2.774   1.936   3.753  1.6747 -1.6507 -0.1162
 3618SOL     OW22315   3.898   4.347   9.697  0.4032 -0.4033 -0.1030
 3618SOL    HW122316   3.837   4.401   9.646  1.1141 -0.2102 -0.7419
 3618SOL    HW222317   3.980   4.356   9.648  1.0224  0.0110  1.0271
 3619SOL     OW22318   4.636   0.108   4.342 -0.1566 -0.3088  0.0276
 3619SOL    HW122319   4.646   0.096   4.248 -0.5498  0.8707 -0.1687
 3619SOL    HW222320   4.694   0.038   4.372 -0.3516 -0.6090 -0.3074
 3620SOL     OW22321   0.987   1.187   0.711 -0.4189 -0.2617 -0.5952
 3620SOL    HW122322   0.910   1.160   0.662  0.5479 -0.2056 -2.1576
 3620SOL    HW222323   0.998   1.280   0.692 -0.8163  0.1544  1.2375
 3621SOL     OW22324   0.477   3.607   8.545  0.5810  0.6046 -0.4564
 3621SOL    HW122325   0.551   3.590   8.603  1.1482  0.6472 -1.1648
 3621SOL    HW222326   0.422   3.534   8.572  0.7374  0.6115 -0.1218
 3622SOL     OW22327   2.757   2.489  11.995  0.3206 -0.1443  0.5754
 3622SOL    HW122328   2.665   2.495  11.970  0.1168 -1.1197  1.0661
 3622SOL    HW222329   2.787   2.578  11.976 -0.0435 -0.4005 -1.2027
 3623SOL     OW22330   1.353   0.917   6.949  0.2241  0.1395 -0.3340
 3623SOL    HW122331   1.264   0.950   6.934 -0.0198  1.0967  3.1759
 3623SOL    HW222332   1.369   0.916   7.044  0.4888  1.2977 -0.3674
 3624SOL     OW22333   4.272   3.086   2.816  0.6983 -0.6653  0.0953
 3624SOL    HW122334   4.209   3.039   2.760 -1.3344  2.5102 -0.2734
 3624SOL    HW222335   4.250   3.053   2.903 -0.2741 -1.6255 -0.5129
 3625SOL     OW22336   2.225   3.339  14.008 -0.1672 -0.1326  0.1533
 3625SOL    HW122337   2.138   3.338  14.049  0.6125 -2.9581  1.7788
 3625SOL    HW222338   2.190   3.380  13.929 -1.3075  0.2195  0.8350
 3626SOL     OW22339   4.550   1.907   1.243  0.9308  0.0294 -0.1645
 3626SOL    HW122340   4.460   1.896   1.214  0.8519 -4.2087  1.7343
 3626SOL    HW222341   4.594   1.840   1.190  4.1336  2.0879 -0.1170
 3627SOL     OW22342   4.402   0.812   5.452  0.2571  0.3264  0.5990
 3627SOL    HW122343   4.394   0.835   5.359  1.6012 -0.5897  0.2516
 3627SOL    HW222344   4.327   0.863   5.481  0.4463  1.0444 -0.1639
 3628SOL     OW22345   0.754   0.924   6.845  0.8535  0.4809 -0.4969
 3628SOL    HW122346   0.704   0.852   6.807 -0.4084  0.0510  1.9675
 3628SOL    HW222347   0.800   0.901   6.925  1.8646  0.1297 -1.1736
 3629SOL     OW22348   3.744   1.065  16.407  0.2901  0.5583  0.1400
 3629SOL    HW122349   3.667   1.120  16.418 -0.4292 -0.5089  0.4219
 3629SOL    HW222350   3.765   1.072  16.314 -0.3833  0.6963 -0.0047
 3630SOL     OW22351   3.825   4.526   6.400 -0.5582 -0.4760 -0.3471
 3630SOL    HW122352   3.905   4.573   6.375 -0.7312 -0.5836 -1.1024
 3630SOL    HW222353   3.753   4.580   6.366 -0.1094  0.5265  0.2958
 3631SOL     OW22354   0.814   2.410   8.690 -0.2839 -0.2411 -0.3850
 3631SOL    HW122355   0.872   2.406   8.766  1.0093  1.7214 -1.2810
 3631SOL    HW222356   0.734   2.377   8.731  0.8759 -2.4171  0.1204
 3632SOL     OW22357   3.221   1.690  14.355 -0.6812  0.3525 -0.0647
 3632SOL    HW122358   3.305   1.668  14.315 -1.6274 -0.9115 -1.3667
 3632SOL    HW222359   3.168   1.617  14.324  0.7041 -0.7811  0.1969
 3633SOL     OW22360   2.065   2.160  16.403 -0.0315  0.6123  0.3436
 3633SOL    HW122361   1.987   2.169  16.458 -0.6324  3.3765 -0.9820
 3633SOL    HW222362   2.122   2.229  16.437 -0.0027  2.4958 -3.5764
 3634SOL     OW22363   0.294   4.076   6.030 -0.8211  0.0994  0.1986
 3634SOL    HW122364   0.359   4.087   6.099 -0.8400  0.2562  0.1909
 3634SOL    HW222365   0.249   3.998   6.063  1.7132 -1.6953 -0.5280
 3635SOL     OW22366   2.911   3.877   4.068  0.3261  0.7617  0.4345
 3635SOL    HW122367   2.924   3.791   4.106  3.6059  0.4101 -1.4429
 3635SOL    HW222368   2.919   3.928   4.149 -2.5546  3.9755 -1.2779
 3636SOL     OW22369   2.480   0.561   1.409 -0.1000  0.0225  0.7707
 3636SOL    HW122370   2.522   0.622   1.469  2.6851 -1.3909  0.2531
 3636SOL    HW222371   2.409   0.522   1.460 -1.1757  0.5216 -0.3311
 3637SOL     OW22372   3.942   1.657   4.670 -0.0775  0.3429  0.4795
 3637SOL    HW122373   3.852   1.689   4.673 -0.4278 -0.7573  2.5685
 3637SOL    HW222374   3.919   1.564   4.657 -0.9874  0.4185  1.4465
 3638SOL     OW22375   0.027   4.239   2.767  0.3962 -0.2827 -0.6372
 3638SOL    HW122376   0.057   4.186   2.840 -0.9085 -2.5069 -1.7118
 3638SOL    HW222377   0.101   4.246   2.707  0.7642  0.2676 -0.1162
 3639SOL     OW22378   0.526   1.041   2.705 -0.4840  0.2854 -0.3044
 3639SOL    HW122379   0.548   1.037   2.612 -4.0144  1.0862 -1.1497
 3639SOL    HW222380   0.462   0.970   2.704 -0.8658  0.6280  0.8249
 3640SOL     OW22381   0.794   3.591   7.796 -0.0371  0.2276  0.0832
 3640SOL    HW122382   0.852   3.637   7.735 -1.5470 -0.1053 -1.5846
 3640SOL    HW222383   0.834   3.507   7.819 -0.8898 -0.4618 -0.9727
 3641SOL     OW22384   2.979   4.018   4.684 -0.3969 -0.0681 -0.1438
 3641SOL    HW122385   2.983   4.015   4.779  0.3112 -2.9622 -0.2537
 3641SOL    HW222386   2.926   3.942   4.659 -0.6335  0.0038  0.1485
 3642SOL     OW22387   2.578   2.212   7.890  0.3006  0.5424 -0.9053
 3642SOL    HW122388   2.520   2.160   7.834  0.4285  0.4799 -0.9786
 3642SOL    HW222389   2.512   2.267   7.932 -0.9307 -1.7401  0.1326
 3643SOL     OW22390   3.151   0.519   8.917 -0.2089 -0.7286  0.4229
 3643SOL    HW122391   3.170   0.428   8.941  1.4047 -0.0962  1.4530
 3643SOL    HW222392   3.066   0.538   8.958  0.3579 -0.4562  1.4654
 3644SOL     OW22393   3.497   2.783   4.349 -0.1685  0.2226 -0.2897
 3644SOL    HW122394   3.401   2.781   4.345 -0.2229  0.1519  1.0216
 3644SOL    HW222395   3.495   2.874   4.319 -0.2481  0.3529  0.1103
 3645SOL     OW22396   1.964   2.148  12.894 -0.3761  0.5351  0.0472
 3645SOL    HW122397   1.996   2.141  12.984 -0.7465  0.7669  0.1968
 3645SOL    HW222398   2.038   2.170  12.838  2.4079  0.0548  3.5521
 3646SOL     OW22399   3.903   2.713   9.731 -0.4152  0.4825  0.0655
 3646SOL    HW122400   3.873   2.659   9.804 -1.8103  0.0750 -0.8041
 3646SOL    HW222401   3.961   2.651   9.686 -0.5025 -1.2805  2.3747
 3647SOL     OW22402   1.564   3.280   3.415 -0.2165  0.1445  0.0683
 3647SOL    HW122403   1.610   3.203   3.383 -0.0636  1.2713 -2.3897
 3647SOL    HW222404   1.543   3.255   3.505  4.4641 -0.4241  0.9965
 3648SOL     OW22405   1.333   3.860   8.806 -0.1652 -0.3465 -0.0981
 3648SOL    HW122406   1.311   3.952   8.797  2.2395  0.0730 -1.6657
 3648SOL    HW222407   1.364   3.846   8.717  0.9232  2.0422 -0.0902
 3649SOL     OW22408   0.108   3.782   1.093  1.0198 -0.1699 -0.9319
 3649SOL    HW122409   0.039   3.836   1.055  0.6221  0.6379  0.9140
 3649SOL    HW222410   0.182   3.833   1.060  0.3171 -0.1669 -2.5016
 3650SOL     OW22411   1.638   3.698   2.121  0.0303 -0.3693  0.2775
 3650SOL    HW122412   1.565   3.726   2.065  2.4022 -0.3876 -2.8481
 3650SOL    HW222413   1.703   3.686   2.052 -0.6012  2.4785 -0.8485
 3651SOL     OW22414   0.189   2.523  12.661  0.7175 -0.4128  0.3715
 3651SOL    HW122415   0.199   2.597  12.721  0.5004  0.1642 -0.3064
 3651SOL    HW222416   0.113   2.547  12.608  0.2320 -0.8687  0.8616
 3652SOL     OW22417   4.405   4.260   6.242  0.0276  1.0478  0.0013
 3652SOL    HW122418   4.421   4.275   6.336 -0.7622 -0.4407  0.3713
 3652SOL    HW222419   4.315   4.229   6.235  0.8628 -1.2502 -0.5730
 3653SOL     OW22420   1.027   1.936  15.286 -0.1444  0.2239 -0.2976
 3653SOL    HW122421   1.119   1.939  15.315 -0.2962 -1.9169  0.3858
 3653SOL    HW222422   0.989   1.890  15.360 -1.3954 -1.0772 -1.7574
 3654SOL     OW22423   1.905   2.902   1.735  0.1199  0.0403 -0.1239
 3654SOL    HW122424   1.911   2.885   1.829 -1.3180  0.6053  0.0887
 3654SOL    HW222425   1.994   2.928   1.713  0.1119  0.5303  0.4045
 3655SOL     OW22426   1.260   4.261   3.898 -0.1861 -0.6686 -0.2896
 3655SOL    HW122427   1.233   4.326   3.963 -0.8860 -1.1062 -0.1476
 3655SOL    HW222428   1.355   4.274   3.899 -0.4223  1.0139  0.2056
 3656SOL     OW22429   1.456   2.139   7.284  0.3448  0.0713 -0.3998
 3656SOL    HW122430   1.485   2.182   7.364 -0.7674 -1.0013  0.5725
 3656SOL    HW222431   1.364   2.124   7.306  0.6388 -1.7143 -0.3378
 3657SOL     OW22432   4.165   0.693   2.327 -0.2556  0.2714 -0.0419
 3657SOL    HW122433   4.206   0.713   2.243 -0.7019  2.0493  0.1809
 3657SOL    HW222434   4.101   0.762   2.311 -1.8361 -0.8113  1.6567
 3658SOL     OW22435   2.097   0.944  14.111 -0.1672  0.4402  0.0756
 3658SOL    HW122436   2.191   0.954  14.101  0.1463 -3.1589 -0.6324
 3658SOL    HW222437   2.069   0.978  14.026  0.8844  1.7324  0.2562
 3659SOL     OW22438   3.126   0.206   6.025 -0.2037  0.2730  0.0473
 3659SOL    HW122439   3.068   0.205   6.102  1.7342  2.1341  1.5406
 3659SOL    HW222440   3.208   0.195   6.074  0.6961  3.5428 -0.7406
 3660SOL     OW22441   1.940   1.201   2.158 -0.4583 -0.4565 -0.4492
 3660SOL    HW122442   1.877   1.271   2.174  0.6553  0.2172  0.9594
 3660SOL    HW222443   1.897   1.134   2.104 -0.8120  0.1951 -0.9739
 3661SOL     OW22444   2.311   3.271   6.738  0.1564  0.8852  0.7142
 3661SOL    HW122445   2.358   3.318   6.807  1.9527  0.4075 -0.1793
 3661SOL    HW222446   2.227   3.314   6.724  0.4173  0.9942 -0.4890
 3662SOL     OW22447   3.886   0.968   8.816  0.3135  0.1345 -0.2483
 3662SOL    HW122448   3.802   0.986   8.857 -0.1446 -0.1301 -1.0671
 3662SOL    HW222449   3.939   1.017   8.879 -1.3453  0.6506  0.7481
 3663SOL     OW22450   2.540   4.707   1.956 -0.5606  0.0494  0.0229
 3663SOL    HW122451   2.504   4.633   1.908  1.0913 -0.9528  0.3284
 3663SOL    HW222452   2.622   4.715   1.907 -2.4277 -0.0179 -3.0460
 3664SOL     OW22453   3.102   1.138   7.891 -0.1932 -0.8614  0.0876
 3664SOL    HW122454   3.064   1.187   7.963  0.6893 -1.0702  0.6973
 3664SOL    HW222455   3.195   1.158   7.885 -0.3534 -0.3802 -0.7149
 3665SOL     OW22456   0.493   1.783  12.637 -0.8852  0.3135  0.1841
 3665SOL    HW122457   0.521   1.770  12.547 -1.9104  1.7460 -0.3358
 3665SOL    HW222458   0.414   1.836  12.635 -1.2096 -0.1979 -0.4465
 3666SOL     OW22459   1.094   4.253  13.558  0.3404  0.2451  0.2011
 3666SOL    HW122460   1.089   4.206  13.641  0.2970  2.5564  1.5238
 3666SOL    HW222461   1.152   4.328  13.574  1.2881 -0.4530  0.0770
 3667SOL     OW22462   2.227   2.742   3.096 -0.0989 -0.1597 -0.9280
 3667SOL    HW122463   2.310   2.752   3.050  0.1594 -2.0964 -0.9024
 3667SOL    HW222464   2.183   2.685   3.033 -1.2624 -0.9736  0.6204
 3668SOL     OW22465   2.492   2.588   2.701 -0.0286 -0.4727 -0.3913
 3668SOL    HW122466   2.498   2.672   2.655  1.1861 -0.9930 -1.1940
 3668SOL    HW222467   2.465   2.533   2.627 -1.2556  1.1161 -1.1272
 3669SOL     OW22468   2.250   0.032   3.647  0.4716 -0.6891 -0.4110
 3669SOL    HW122469   2.164   0.039   3.606  1.2866  1.0436 -1.7977
 3669SOL    HW222470   2.290   4.681   3.600  1.0687  0.5284 -1.7927
 3670SOL     OW22471   4.285   0.000  11.058 -0.4975  0.5742 -0.0460
 3670SOL    HW122472   4.350   4.667  11.102  0.8462  1.4185 -0.9685
 3670SOL    HW222473   4.326   0.087  11.064 -3.1813  1.7267  1.3123
 3671SOL     OW22474   4.113   2.954   3.488 -0.1807  0.7419  0.5059
 3671SOL    HW122475   4.114   2.896   3.412  1.4839 -1.4883  2.2133
 3671SOL    HW222476   4.028   2.926   3.522 -0.2541  0.5785  0.1868
 3672SOL     OW22477   1.162   0.279   2.407 -0.1704  0.3241 -0.0084
 3672SOL    HW122478   1.196   0.366   2.430  0.2973  0.0432  0.3671
 3672SOL    HW222479   1.206   0.261   2.323  1.7750  2.8338  0.4515
 3673SOL     OW22480   2.464   0.674   7.276  0.0503 -0.0754 -0.8141
 3673SOL    HW122481   2.439   0.675   7.184 -0.3824 -0.3134 -0.6960
 3673SOL    HW222482   2.558   0.653   7.276 -0.2768 -1.5002 -0.6283
 3674SOL     OW22483   2.875   4.152   8.573  0.0590  0.5578  0.1690
 3674SOL    HW122484   2.894   4.090   8.643 -2.3728  0.2973  0.5830
 3674SOL    HW222485   2.904   4.233   8.615 -1.4950  2.3906 -2.2737
 3675SOL     OW22486   2.863   0.559  16.396 -0.2830 -0.0808  0.2139
 3675SOL    HW122487   2.769   0.545  16.382 -0.3339 -2.4289  2.8595
 3675SOL    HW222488   2.876   0.529  16.486 -1.0363  0.7622  0.6131
 3676SOL     OW22489   4.112   0.130   4.565  0.1956  0.3905  0.4009
 3676SOL    HW122490   4.102   0.224   4.584  2.7927  0.4296  1.4832
 3676SOL    HW222491   4.076   0.124   4.476  1.4525  0.5801 -0.1134
 3677SOL     OW22492   4.251   2.058   1.876  0.5806 -0.3767 -0.5469
 3677SOL    HW122493   4.191   2.132   1.862  1.3599  0.5151  0.8302
 3677SOL    HW222494   4.297   2.053   1.792 -0.2788  3.3557 -1.2298
 3678SOL     OW22495   2.192   4.186  11.079 -0.0854 -0.7879 -0.0370
 3678SOL    HW122496   2.262   4.129  11.109 -2.0597 -2.6320  0.9969
 3678SOL    HW222497   2.232   4.215  10.997  1.5405  1.3075  1.4775
 3679SOL     OW22498   4.328   0.982   3.830 -0.1523 -0.3862  0.2184
 3679SOL    HW122499   4.398   1.010   3.772  0.1009 -0.4250  0.5050
 3679SOL    HW222500   4.348   0.892   3.855  0.0109 -0.6611 -0.9170
 3680SOL     OW22501   4.415   3.803  13.229 -0.1926  0.1623 -0.5988
 3680SOL    HW122502   4.468   3.749  13.287  1.7095  0.5801 -1.9315
 3680SOL    HW222503   4.454   3.890  13.234  1.3591 -0.5299 -0.5601
 3681SOL     OW22504   0.405   0.650   6.292  0.0366  0.0621 -0.3218
 3681SOL    HW122505   0.428   0.739   6.319  0.3045  0.3293 -1.4112
 3681SOL    HW222506   0.311   0.652   6.307 -0.4197  0.5374 -3.2406
 3682SOL     OW22507   3.403   1.908   7.446  0.0458  0.0276  0.3871
 3682SOL    HW122508   3.439   1.941   7.363 -3.7066  3.6185  0.1986
 3682SOL    HW222509   3.368   1.824   7.416  0.7488  0.1283 -0.7356
 3683SOL     OW22510   3.638   1.447   4.188  0.4620 -0.0204 -0.2707
 3683SOL    HW122511   3.648   1.486   4.101  0.5805 -0.4081 -0.4362
 3683SOL    HW222512   3.662   1.521   4.243 -2.8945  1.4243 -0.7608
 3684SOL     OW22513   3.968   4.333   7.841 -0.2705  0.2442 -0.5703
 3684SOL    HW122514   4.010   4.283   7.772 -1.5870  1.6443 -2.3887
 3684SOL    HW222515   3.949   4.268   7.909 -0.6555  1.0812  0.1236
 3685SOL     OW22516   4.212   2.886   8.624  0.1525 -0.4889 -0.5425
 3685SOL    HW122517   4.133   2.876   8.676  0.4396 -1.1207 -0.2211
 3685SOL    HW222518   4.229   2.978   8.642  3.3086 -1.3490  0.9343
 3686SOL     OW22519   2.708   2.869   4.448 -0.7611 -0.0989  0.0176
 3686SOL    HW122520   2.729   2.962   4.458  0.8456 -0.4331 -0.1344
 3686SOL    HW222521   2.756   2.830   4.521 -0.5081 -1.9755 -1.1400
 3687SOL     OW22522   4.182   1.092   2.529 -0.2298 -0.4148  0.2745
 3687SOL    HW122523   4.136   1.028   2.474  0.5570 -0.1994 -0.6374
 3687SOL    HW222524   4.272   1.077   2.500 -0.0149  0.1336  0.6443
 3688SOL     OW22525   2.128   1.096   7.985 -0.2055  0.2731 -0.2225
 3688SOL    HW122526   2.106   1.007   8.014  0.1013  0.7342  1.4115
 3688SOL    HW222527   2.193   1.059   7.926  0.3140  1.6854 -0.5370
 3689SOL     OW22528   0.546   3.417   6.252 -0.9247  0.2419 -0.3522
 3689SOL    HW122529   0.485   3.355   6.291 -1.3591  1.5815  1.0918
 3689SOL    HW222530   0.631   3.405   6.294 -0.9077 -3.1963 -1.4082
 3690SOL     OW22531   4.224   3.969   3.982 -0.5722 -0.0677 -0.8061
 3690SOL    HW122532   4.239   4.060   3.957  1.0307 -0.4842 -1.4090
 3690SOL    HW222533   4.311   3.931   3.973 -0.5643 -0.6052  1.5716
 3691SOL     OW22534   2.045   3.724  14.530 -0.3823  0.1386 -0.4499
 3691SOL    HW122535   1.953   3.704  14.543 -0.2805  0.8061  1.2482
 3691SOL    HW222536   2.072   3.759  14.615 -0.3829 -1.6826  0.2972
 3692SOL     OW22537   1.055   3.592   6.666  0.1213 -0.4066 -0.2339
 3692SOL    HW122538   0.977   3.580   6.719  0.9941  0.2478  1.2255
 3692SOL    HW222539   1.033   3.678   6.629  1.1671 -0.4181 -0.8723
 3693SOL     OW22540   2.608   3.424   5.447 -0.0308  0.1308 -0.1762
 3693SOL    HW122541   2.558   3.352   5.410 -1.5184  0.9337  0.2648
 3693SOL    HW222542   2.655   3.462   5.373  2.1035 -0.3143  0.9400
 3694SOL     OW22543   1.560   1.263   3.054  0.2647  0.3279 -0.4260
 3694SOL    HW122544   1.622   1.278   3.125  1.1097 -0.8998 -0.9165
 3694SOL    HW222545   1.619   1.245   2.981  0.7706 -1.6218  0.4751
 3695SOL     OW22546   2.487   1.821   6.012  0.2938 -0.4444  0.1372
 3695SOL    HW122547   2.406   1.842   6.059  0.3550  0.4160 -0.1438
 3695SOL    HW222548   2.441   1.799   5.931  0.1852 -0.6830  0.2650
 3696SOL     OW22549   3.559   1.087  12.141 -0.3222  0.3535  0.1271
 3696SOL    HW122550   3.592   1.162  12.191 -4.5499  1.6989  0.8584
 3696SOL    HW222551   3.489   1.052  12.197 -1.4005 -0.3307 -1.6503
 3697SOL     OW22552   3.154   2.117  16.703  0.0144 -0.2980  0.1853
 3697SOL    HW122553   3.111   2.032  16.698 -1.2033  0.2259  1.7481
 3697SOL    HW222554   3.095   2.169  16.649  0.8287  1.2867  0.8044
 3698SOL     OW22555   0.906   1.724   2.884  0.7997  0.1155  0.6566
 3698SOL    HW122556   0.864   1.716   2.798  0.8510 -2.0081  0.8487
 3698SOL    HW222557   0.883   1.637   2.916  0.6976  0.0881  0.5115
 3699SOL     OW22558   0.049   1.880  10.066 -0.2099  0.3134  0.4825
 3699SOL    HW122559   0.115   1.846  10.006 -0.5766 -0.6138  0.6114
 3699SOL    HW222560   0.042   1.801  10.118 -0.2806  0.4708  0.7091
 3700SOL     OW22561   2.374   0.064  17.541  0.2924 -0.2144 -0.1899
 3700SOL    HW122562   2.341   4.705  17.499 -1.1861  0.4417 -0.2670
 3700SOL    HW222563   2.294   0.114  17.526  2.9317  3.1518 -3.0265
 3701SOL     OW22564   1.999   2.674   9.339 -0.4933  0.0619 -0.4533
 3701SOL    HW122565   2.089   2.642   9.341 -0.9455 -1.2520 -0.9872
 3701SOL    HW222566   1.942   2.601   9.314  0.7295 -1.6469  1.7706
 3702SOL     OW22567   0.500   1.620   4.942 -0.4680  0.3208  0.1745
 3702SOL    HW122568   0.572   1.664   4.988 -0.5202  0.6676 -0.0671
 3702SOL    HW222569   0.455   1.574   5.012  1.5388  0.1328  1.3142
 3703SOL     OW22570   3.334   1.670   7.332  0.2943 -0.1497 -0.1373
 3703SOL    HW122571   3.415   1.625   7.356 -0.2839  0.5648  3.0815
 3703SOL    HW222572   3.286   1.608   7.277 -0.5407  2.9753 -2.9635
 3704SOL     OW22573   2.205   2.302  14.195 -0.4918  0.1459 -0.3054
 3704SOL    HW122574   2.164   2.301  14.281 -1.1952  0.1745 -0.6444
 3704SOL    HW222575   2.181   2.211  14.179 -2.9469  0.7665 -0.1476
 3705SOL     OW22576   1.085   2.550   4.723  0.1650 -0.0453 -0.2728
 3705SOL    HW122577   1.006   2.590   4.760  0.2202  0.6895 -0.9389
 3705SOL    HW222578   1.154   2.596   4.771 -0.9545  2.0473 -0.6495
 3706SOL     OW22579   0.999   3.213   6.898 -0.7764  0.0499 -0.2050
 3706SOL    HW122580   1.027   3.145   6.958  0.1653  1.2625  0.7277
 3706SOL    HW222581   1.033   3.295   6.935  1.0610  0.7189 -3.3188
 3707SOL     OW22582   4.224   2.937   3.856  0.5323 -0.0327 -0.1826
 3707SOL    HW122583   4.151   2.885   3.825 -0.7177  1.4115  0.3143
 3707SOL    HW222584   4.233   2.899   3.943  0.4494  0.0748 -0.1271
 3708SOL     OW22585   1.684   4.596   7.925  0.6173  0.2185 -0.8508
 3708SOL    HW122586   1.730   4.561   8.001 -1.4899  1.0721  0.8201
 3708SOL    HW222587   1.703   4.533   7.855  3.0811 -0.6159  0.5643
 3709SOL     OW22588   0.948   1.368   2.676  0.2906 -0.0716  0.1299
 3709SOL    HW122589   0.910   1.293   2.724 -1.0162  0.4668 -0.0465
 3709SOL    HW222590   1.013   1.401   2.737 -2.4485  0.8409  2.5912
 3710SOL     OW22591   2.553   1.407  13.883 -0.0145  0.0414  0.0488
 3710SOL    HW122592   2.578   1.388  13.973 -2.0239  0.7125  0.7528
 3710SOL    HW222593   2.509   1.325  13.858 -2.1351  0.5428  2.1542
 3711SOL     OW22594   2.922   2.481  10.077 -0.3306 -0.6422  0.2767
 3711SOL    HW122595   2.895   2.572  10.086 -0.0675 -0.4996 -0.4049
 3711SOL    HW222596   2.858   2.449  10.141 -1.1342  1.4201  0.4984
 3712SOL     OW22597   0.247   4.464   4.546  0.5599 -0.1587 -0.1167
 3712SOL    HW122598   0.229   4.407   4.621 -0.6094 -0.2340 -0.4547
 3712SOL    HW222599   0.313   4.524   4.581  0.7975 -1.0448  0.9290
 3713SOL     OW22600   0.536   1.324   4.786 -0.2864  0.0472 -0.1936
 3713SOL    HW122601   0.600   1.393   4.808 -0.4048 -0.2634  1.1542
 3713SOL    HW222602   0.450   1.363   4.768 -1.2539 -1.7922  0.5230
 3714SOL     OW22603   1.744   3.048  15.158 -0.5691  0.2519  0.6692
 3714SOL    HW122604   1.720   2.996  15.235 -0.7151  0.0317  0.4780
 3714SOL    HW222605   1.830   3.016  15.131 -1.4139 -0.4817 -1.2052
 3715SOL     OW22606   2.156   3.388   7.329  0.0082  0.4046 -0.2667
 3715SOL    HW122607   2.181   3.296   7.330 -0.7815  0.2022  0.4828
 3715SOL    HW222608   2.133   3.399   7.237 -0.3010  2.2225  0.0220
 3716SOL     OW22609   0.667   0.574   5.693 -0.3657  0.5792 -0.4174
 3716SOL    HW122610   0.575   0.598   5.685 -1.4835 -3.1275  1.3698
 3716SOL    HW222611   0.711   0.639   5.748 -1.3716  0.7567  0.1642
 3717SOL     OW22612   2.832   2.293   7.937  0.0351 -0.1939  0.0907
 3717SOL    HW122613   2.753   2.245   7.912  0.4891 -1.4164  1.0226
 3717SOL    HW222614   2.859   2.258   8.021 -0.0428  2.4750  1.2303
 3718SOL     OW22615   4.464   2.727   7.407 -0.2003  0.2200  0.1635
 3718SOL    HW122616   4.375   2.707   7.437 -0.0215 -2.9155 -1.3351
 3718SOL    HW222617   4.523   2.665   7.449  0.6179 -1.2012 -3.0608
 3719SOL     OW22618   0.049   2.313   7.070  0.1334 -0.1290  0.0628
 3719SOL    HW122619   4.714   2.362   7.130 -0.1364 -0.1165 -0.2071
 3719SOL    HW222620   0.052   2.374   6.996  0.8000  0.9397  0.9622
 3720SOL     OW22621   1.978   1.756  16.018  0.2777  0.3897  0.7553
 3720SOL    HW122622   2.071   1.744  16.002  0.4499  1.4974  0.9356
 3720SOL    HW222623   1.963   1.844  16.050 -0.7792  0.0560  1.1877
 3721SOL     OW22624   1.100   1.787   5.414  0.6183 -0.5982 -0.3851
 3721SOL    HW122625   1.060   1.701   5.421  1.1866 -0.7258  1.3284
 3721SOL    HW222626   1.037   1.832   5.470 -0.9623 -3.4056  0.0623
 3722SOL     OW22627   3.106   3.414   5.899  0.4040 -0.4675  0.3690
 3722SOL    HW122628   3.187   3.406   5.948  0.2460  0.4976  0.7917
 3722SOL    HW222629   3.047   3.388   5.969 -0.8577 -0.8782 -0.8341
 3723SOL     OW22630   4.426   4.122   4.140  0.0671  0.5220 -0.3486
 3723SOL    HW122631   4.476   4.048   4.104 -2.2633 -1.8803  1.3849
 3723SOL    HW222632   4.380   4.075   4.209  0.5823 -0.8893 -0.9582
 3724SOL     OW22633   3.985   4.153  10.103  0.2837  0.4559  0.3404
 3724SOL    HW122634   4.039   4.210  10.157 -0.1605  1.3188 -0.1264
 3724SOL    HW222635   3.993   4.207  10.024 -2.6212 -0.2440 -0.4495
 3725SOL     OW22636   1.745   1.926  16.381 -0.1126  0.0146  0.6490
 3725SOL    HW122637   1.756   1.965  16.294  3.6170 -2.7409 -0.1323
 3725SOL    HW222638   1.672   1.982  16.409 -0.6215 -0.4817  0.3336
 3726SOL     OW22639   1.865   3.082   5.118  0.1567  0.1218  0.0417
 3726SOL    HW122640   1.936   3.025   5.089  1.4247  1.6973  0.0395
 3726SOL    HW222641   1.914   3.160   5.144  0.1381 -0.5687  2.1310
 3727SOL     OW22642   0.170   2.752  10.933  0.3899  0.2912  0.1925
 3727SOL    HW122643   0.191   2.708  10.851  0.8568  0.0966  0.4155
 3727SOL    HW222644   0.173   2.672  10.987  0.8344  1.0335  1.2676
 3728SOL     OW22645   2.643   0.021  11.643 -0.5310  0.3972  0.3761
 3728SOL    HW122646   2.735   0.023  11.616  0.6643  2.0928  4.6259
 3728SOL    HW222647   2.634   4.647  11.643 -0.6191  0.4290  2.8232
 3729SOL     OW22648   2.451   0.357   0.121  0.3297 -0.2161 -0.0230
 3729SOL    HW122649   2.505   0.431   0.148  3.5605 -1.8953 -1.8556
 3729SOL    HW222650   2.372   0.384   0.168 -0.6448 -0.5260 -1.4656
 3730SOL     OW22651   3.641   1.454   3.444  0.0805  0.2030  0.0520
 3730SOL    HW122652   3.595   1.400   3.509  0.7713  1.0400  1.2267
 3730SOL    HW222653   3.674   1.382   3.390  1.1556  0.3200  0.5538
 3731SOL     OW22654   2.232   0.370   4.780  0.8163  0.0923  0.2662
 3731SOL    HW122655   2.251   0.278   4.759  0.5530 -0.0869  0.8114
 3731SOL    HW222656   2.157   0.366   4.841 -0.5975  1.6794 -1.3668
 3732SOL     OW22657   0.299   4.162   7.395  0.0585 -0.5615  0.6559
 3732SOL    HW122658   0.251   4.156   7.478  0.0018 -1.0578  0.5863
 3732SOL    HW222659   0.316   4.256   7.397 -1.1981 -0.3259  0.2189
 3733SOL     OW22660   3.556   4.245   7.858  0.3748 -0.1090  0.3772
 3733SOL    HW122661   3.464   4.265   7.875 -0.0997 -0.8248 -1.3240
 3733SOL    HW222662   3.603   4.313   7.907  0.6260 -0.3151  0.4209
 3734SOL     OW22663   3.469   3.181  16.898  0.3032  0.4007 -0.1999
 3734SOL    HW122664   3.463   3.264  16.945 -1.5109 -0.1447  0.5059
 3734SOL    HW222665   3.408   3.195  16.826  1.4220  1.4170 -0.9549
 3735SOL     OW22666   4.196   1.362   0.956  0.1838  0.3026  0.1554
 3735SOL    HW122667   4.241   1.424   0.898 -1.4389  0.8688 -0.5006
 3735SOL    HW222668   4.267   1.325   1.008  0.7235 -0.3707 -1.0596
 3736SOL     OW22669   0.889   1.200   6.145 -0.2201 -0.0262 -0.4233
 3736SOL    HW122670   0.814   1.213   6.204  0.7537 -1.0742  1.0601
 3736SOL    HW222671   0.923   1.116   6.177  0.7476  1.1202  1.5625
 3737SOL     OW22672   1.258   1.192  14.592 -0.0606  0.1756  0.1287
 3737SOL    HW122673   1.299   1.173  14.676  1.4169  2.8928  0.0346
 3737SOL    HW222674   1.310   1.271  14.576 -3.3321  1.6322 -3.3324
 3738SOL     OW22675   1.135   2.523  17.293  0.2394  0.2165 -0.2039
 3738SOL    HW122676   1.084   2.446  17.267  1.6522 -0.4636 -0.9295
 3738SOL    HW222677   1.205   2.510  17.229  1.1254  0.8681  0.6314
 3739SOL     OW22678   0.943   4.087   5.948  0.2554  0.6481 -0.7066
 3739SOL    HW122679   1.004   4.120   5.882  0.3016  1.7251 -0.1259
 3739SOL    HW222680   0.894   4.168   5.960 -1.6828 -0.9769  2.3526
 3740SOL     OW22681   2.967   0.122   4.855  0.2838  0.0967  0.0221
 3740SOL    HW122682   3.028   0.159   4.791  0.0716  0.6091  0.1135
 3740SOL    HW222683   2.942   0.204   4.898 -0.2343  0.7432 -1.5056
 3741SOL     OW22684   0.665   1.513   3.403 -0.1309 -0.2915  0.5353
 3741SOL    HW122685   0.604   1.492   3.474  0.4013 -1.8974  0.5204
 3741SOL    HW222686   0.634   1.443   3.346  0.6055 -1.0433  1.0614
 3742SOL     OW22687   0.725   1.680   6.624 -0.1662  0.3557  0.4659
 3742SOL    HW122688   0.670   1.606   6.599 -0.5804  1.1499 -1.0107
 3742SOL    HW222689   0.800   1.630   6.656 -0.2286 -0.3350 -0.4605
 3743SOL     OW22690   4.396   0.839   5.184  0.0419 -0.4190  0.7341
 3743SOL    HW122691   4.475   0.822   5.132  0.3300  0.8124  0.7852
 3743SOL    HW222692   4.355   0.914   5.142  1.5279 -0.1624 -0.2558
 3744SOL     OW22693   4.131   1.477  10.625 -0.2097 -0.4280  0.2669
 3744SOL    HW122694   4.117   1.446  10.715  0.3989  1.1990  0.9121
 3744SOL    HW222695   4.101   1.402  10.574  1.7948 -0.8670 -0.2978
 3745SOL     OW22696   4.551   1.749   2.202  0.0458 -0.0885  0.0395
 3745SOL    HW122697   4.610   1.678   2.177 -1.2238 -0.8527 -0.8577
 3745SOL    HW222698   4.545   1.781   2.112  1.6858 -0.0906 -0.0590
 3746SOL     OW22699   3.767   2.763  17.378  0.3875 -0.2777  0.4887
 3746SOL    HW122700   3.797   2.811  17.301  0.0235  0.9086  1.0970
 3746SOL    HW222701   3.837   2.774  17.443  1.0178 -2.7766  0.2333
 3747SOL     OW22702   2.149   3.844   4.195  0.1975  0.8176 -0.0738
 3747SOL    HW122703   2.215   3.912   4.211 -1.4850  2.3775  0.3033
 3747SOL    HW222704   2.071   3.896   4.178 -0.8643 -1.1816 -1.2735
 3748SOL     OW22705   0.696   0.145   1.543 -0.3738  0.0923 -0.2666
 3748SOL    HW122706   0.621   0.153   1.485 -0.0541 -1.0145 -0.8481
 3748SOL    HW222707   0.757   0.150   1.469 -0.8233 -3.1659 -0.8896
 3749SOL     OW22708   1.272   3.643  11.713  0.0102  0.2999 -0.1993
 3749SOL    HW122709   1.203   3.576  11.711  0.8492 -0.5776  0.1739
 3749SOL    HW222710   1.229   3.727  11.701  1.4820  1.0464 -0.2505
 3750SOL     OW22711   2.056   2.959   6.334 -0.0144  0.2944 -0.0750
 3750SOL    HW122712   2.113   3.005   6.395  1.0274  0.3415 -1.0942
 3750SOL    HW222713   2.102   2.970   6.251  2.2489  0.6914  1.2533
 3751SOL     OW22714   1.902   2.437  17.537  0.4381  0.4686 -0.1742
 3751SOL    HW122715   1.807   2.442  17.551  0.3985 -0.7408 -0.0179
 3751SOL    HW222716   1.927   2.528  17.518  0.6378  0.1679 -1.3900
 3752SOL     OW22717   1.245   0.793   0.838 -0.3808  0.2702 -0.2127
 3752SOL    HW122718   1.254   0.737   0.915 -3.3787  0.3892  0.2145
 3752SOL    HW222719   1.227   0.726   0.773 -2.1003 -0.4388  0.9975
 3753SOL     OW22720   2.345   2.957   5.139  0.0216  0.0030 -0.0374
 3753SOL    HW122721   2.385   2.904   5.208 -2.0121 -1.5196 -0.0430
 3753SOL    HW222722   2.403   2.916   5.074  0.6231 -3.2179  2.5447
 3754SOL     OW22723   2.009   0.498   5.406 -0.4796 -0.2351  0.6720
 3754SOL    HW122724   1.964   0.464   5.484 -0.7443  1.3151  1.1925
 3754SOL    HW222725   2.085   0.440   5.403 -0.9792 -0.8748  0.4020
 3755SOL     OW22726   0.244   0.230  13.629 -0.3547 -0.4773 -0.3902
 3755SOL    HW122727   0.168   0.203  13.681  0.0598 -0.8816  0.0115
 3755SOL    HW222728   0.233   0.323  13.646 -0.1120 -0.7553  1.2657
 3756SOL     OW22729   0.415   0.772  10.740  0.2368  0.0691 -0.0999
 3756SOL    HW122730   0.320   0.777  10.751  0.2258  0.1176 -0.2170
 3756SOL    HW222731   0.447   0.820  10.817 -2.3975 -0.5323  1.3745
 3757SOL     OW22732   1.087   2.358   2.860 -0.0183 -0.0050  0.0459
 3757SOL    HW122733   1.003   2.404   2.862 -1.0899 -2.1086  2.6643
 3757SOL    HW222734   1.125   2.383   2.776  0.1746 -0.2490  0.0607
 3758SOL     OW22735   4.449   2.185   4.381  0.0374  0.9001  0.3286
 3758SOL    HW122736   4.523   2.177   4.442  1.2427 -0.5766 -1.2997
 3758SOL    HW222737   4.416   2.275   4.381 -0.3475  0.7580 -0.4889
 3759SOL     OW22738   2.699   1.307   7.697  0.0819  0.2195 -0.0759
 3759SOL    HW122739   2.685   1.348   7.612  0.1927 -0.7064 -0.5373
 3759SOL    HW222740   2.783   1.265   7.680  0.0613  0.0284  0.2861
 3760SOL     OW22741   1.870   3.412  12.234 -0.2928  0.2300 -0.4928
 3760SOL    HW122742   1.907   3.476  12.173 -2.2609 -0.4767 -2.4314
 3760SOL    HW222743   1.811   3.471  12.279  0.6685 -0.2845  1.4187
 3761SOL     OW22744   1.158   1.471   3.646 -0.2751  0.3906  0.5884
 3761SOL    HW122745   1.103   1.543   3.614 -0.1209  1.3427  2.4204
 3761SOL    HW222746   1.234   1.487   3.591  0.0229 -0.1499  0.8466
 3762SOL     OW22747   0.324   2.268   8.786 -0.8837  0.4638  0.2663
 3762SOL    HW122748   0.229   2.284   8.792 -0.9677  0.3014 -0.6097
 3762SOL    HW222749   0.356   2.278   8.876 -3.2072  1.2664  1.0183
 3763SOL     OW22750   0.287   2.515   9.259 -0.6154 -0.2232  0.1546
 3763SOL    HW122751   0.292   2.591   9.201  0.7276  1.1537  2.0374
 3763SOL    HW222752   0.195   2.515   9.283 -0.7381  0.0244 -0.3124
 3764SOL     OW22753   1.932   3.573   6.875 -0.2425 -0.9026  0.2662
 3764SOL    HW122754   1.863   3.613   6.823  0.4137  0.6405  0.5880
 3764SOL    HW222755   1.896   3.558   6.962  1.4421 -0.2503  1.0702
 3765SOL     OW22756   3.044   1.434   5.885 -0.3842 -0.1743  0.2475
 3765SOL    HW122757   3.100   1.396   5.817 -1.2831 -0.0626 -0.5639
 3765SOL    HW222758   2.991   1.488   5.826  1.8050  0.6888 -0.9357
 3766SOL     OW22759   3.132   1.219  11.082 -0.7019  0.1795 -0.4121
 3766SOL    HW122760   3.224   1.228  11.110 -0.9925  1.2829  0.2186
 3766SOL    HW222761   3.100   1.158  11.149  1.4214 -1.8112 -1.2118
 3767SOL     OW22762   2.747   3.052  11.000  0.5303 -0.3037 -0.1611
 3767SOL    HW122763   2.748   3.072  11.094 -2.0826  0.0637 -0.2322
 3767SOL    HW222764   2.661   3.086  10.979  1.4479  2.3148  0.3309
 3768SOL     OW22765   4.089   1.125  16.809 -0.4394 -0.1530 -0.6739
 3768SOL    HW122766   4.012   1.089  16.855  0.3040  0.2598  0.8743
 3768SOL    HW222767   4.069   1.098  16.719  0.3322  4.2407 -2.1289
 3769SOL     OW22768   3.725   3.636   2.874  0.1887 -0.3596  0.0601
 3769SOL    HW122769   3.783   3.590   2.814 -1.2704 -2.8214  0.5610
 3769SOL    HW222770   3.665   3.675   2.811  0.7460  0.5222  0.0665
 3770SOL     OW22771   3.102   1.472  10.500 -0.4706 -0.2874  0.2866
 3770SOL    HW122772   3.187   1.517  10.498 -0.9385  0.3701 -3.9762
 3770SOL    HW222773   3.084   1.461  10.594  0.2557 -0.9490  0.3498
 3771SOL     OW22774   3.172   4.590  13.437 -0.3690  0.3124 -0.3759
 3771SOL    HW122775   3.190   4.680  13.464 -0.5712  0.4389 -0.6593
 3771SOL    HW222776   3.251   4.546  13.467 -1.1051 -1.3102 -0.8187
 3772SOL     OW22777   4.222   1.399  15.511  0.7187  0.7025 -0.9390
 3772SOL    HW122778   4.314   1.425  15.517  0.3615  1.5838  0.6712
 3772SOL    HW222779   4.226   1.316  15.559 -1.7192  0.9668 -0.2829
 3773SOL     OW22780   2.557   3.098   8.312  0.2589 -0.0808  0.5351
 3773SOL    HW122781   2.588   3.154   8.383  0.4035  1.3134 -0.6277
 3773SOL    HW222782   2.636   3.047   8.295 -0.0568 -0.0320 -1.1319
 3774SOL     OW22783   0.636   1.248   5.833 -0.1812 -0.6236 -0.3237
 3774SOL    HW122784   0.619   1.306   5.759  1.2800  1.3679  0.9008
 3774SOL    HW222785   0.725   1.269   5.861 -0.4170 -0.0338 -0.0080
 3775SOL     OW22786   0.076   2.033  12.243  0.1036 -0.0268  0.0030
 3775SOL    HW122787   0.097   2.060  12.332  4.0938 -2.0954 -0.3162
 3775SOL    HW222788   0.100   2.113  12.196  2.5346 -0.5746  0.3175
 3776SOL     OW22789   0.314   1.020   7.186  0.1858  0.4006 -0.0330
 3776SOL    HW122790   0.258   1.074   7.241  0.1360 -0.2351  0.5350
 3776SOL    HW222791   0.256   0.945   7.176  1.1024  0.0457 -2.7272
 3777SOL     OW22792   3.855   2.306   2.865 -0.0689  0.4140 -0.1749
 3777SOL    HW122793   3.763   2.282   2.851  0.0986  0.0586 -0.6464
 3777SOL    HW222794   3.890   2.221   2.893 -0.4349  0.1159 -0.6147
 3778SOL     OW22795   1.909   2.568   3.815 -0.4387  0.9504 -0.0244
 3778SOL    HW122796   1.827   2.611   3.838 -1.2195 -0.6905  0.2863
 3778SOL    HW222797   1.971   2.638   3.834  1.4673 -0.1604 -2.0188
 3779SOL     OW22798   2.736   4.240   2.359  0.6862  0.0844 -0.7594
 3779SOL    HW122799   2.640   4.234   2.357  0.6481 -0.1227  1.5523
 3779SOL    HW222800   2.760   4.156   2.321 -0.1716 -0.3437 -0.3468
 3780SOL     OW22801   1.133   3.041   3.147  0.6602 -0.5536 -0.6368
 3780SOL    HW122802   1.074   3.003   3.081  1.1993 -1.3087 -0.6890
 3780SOL    HW222803   1.160   3.117   3.095  0.8005 -1.1024 -1.3703
 3781SOL     OW22804   4.085   2.549   6.199  0.2595 -0.1283 -0.0539
 3781SOL    HW122805   4.104   2.463   6.236 -0.2475 -1.4063 -2.7220
 3781SOL    HW222806   4.170   2.593   6.202 -0.3033  1.0066 -0.7273
 3782SOL     OW22807   0.544   1.107  13.511  0.2105 -0.5981 -0.4225
 3782SOL    HW122808   0.629   1.069  13.532 -0.7362  0.0577  4.4441
 3782SOL    HW222809   0.555   1.196  13.545  0.3428 -1.6258  2.2022
 3783SOL     OW22810   1.220   3.949   3.061  0.0988  0.1102  0.3404
 3783SOL    HW122811   1.145   3.944   3.120  1.4086 -1.9511  1.8316
 3783SOL    HW222812   1.255   3.861   3.075 -0.2987 -0.7406 -4.2253
 3784SOL     OW22813   4.561   3.819  12.033 -0.9048 -0.1635  0.5854
 3784SOL    HW122814   4.633   3.843  12.091 -0.0414 -1.3858  0.0401
 3784SOL    HW222815   4.497   3.879  12.071  0.2424  0.8637  0.8905
 3785SOL     OW22816   0.928   2.993  17.425 -0.3146 -0.2057 -0.3326
 3785SOL    HW122817   0.956   3.037  17.505  0.4007 -0.3820 -0.4848
 3785SOL    HW222818   0.947   2.901  17.444 -0.5074 -0.1502  0.1168
 3786SOL     OW22819   0.864   4.155   9.737 -0.4744  0.1685 -0.2496
 3786SOL    HW122820   0.858   4.063   9.763  1.4503  0.5942  1.7429
 3786SOL    HW222821   0.772   4.157   9.710 -0.4461  2.2916 -0.1763
 3787SOL     OW22822   2.498   0.289   5.936 -0.3665 -0.0459  0.1664
 3787SOL    HW122823   2.533   0.378   5.943  0.1025 -0.3435  1.5843
 3787SOL    HW222824   2.568   0.247   5.886  0.0188 -1.0024  1.5131
 3788SOL     OW22825   4.235   2.911   7.838  0.0295 -0.1288 -0.5060
 3788SOL    HW122826   4.161   2.859   7.869  0.1046 -1.3148 -2.3342
 3788SOL    HW222827   4.186   2.972   7.783 -0.1756  0.4752  0.3456
 3789SOL     OW22828   2.781   2.115   8.449 -0.7893 -0.9750 -0.2123
 3789SOL    HW122829   2.826   2.050   8.395 -0.0143 -1.0142  0.4747
 3789SOL    HW222830   2.726   2.058   8.503 -0.8865 -0.3053  0.4036
 3790SOL     OW22831   3.817   1.838   7.594 -0.6920 -0.4828  0.5356
 3790SOL    HW122832   3.848   1.754   7.562 -0.1599 -0.7664  1.7875
 3790SOL    HW222833   3.905   1.867   7.617  0.1124 -1.5057 -1.3035
 3791SOL     OW22834   1.425   1.645   6.589 -0.0925 -0.0593 -0.0073
 3791SOL    HW122835   1.488   1.693   6.535 -0.2261 -1.3637 -1.3270
 3791SOL    HW222836   1.343   1.662   6.542 -0.7074  0.1361  1.1514
 3792SOL     OW22837   1.604   0.757   8.270 -0.0701  0.0180  0.3446
 3792SOL    HW122838   1.532   0.697   8.250  1.6970 -2.1245  0.4470
 3792SOL    HW222839   1.604   0.814   8.193  1.2369 -0.0262  0.3160
 3793SOL     OW22840   1.307   1.974   5.372  0.2187 -0.0137 -0.2360
 3793SOL    HW122841   1.353   1.889   5.377 -0.6197 -0.4900 -0.7500
 3793SOL    HW222842   1.221   1.933   5.376 -0.7497  2.2321  1.8742
 3794SOL     OW22843   0.946   0.830   7.040  0.3507 -0.3693  0.2374
 3794SOL    HW122844   0.932   0.892   7.112  1.0643 -0.9163  0.8396
 3794SOL    HW222845   1.011   0.885   6.996 -1.0642  1.8873  0.9604
 3795SOL     OW22846   1.332   2.499  10.328 -0.1174 -0.0715  0.5289
 3795SOL    HW122847   1.307   2.448  10.251  0.5009  0.2787  0.0927
 3795SOL    HW222848   1.418   2.467  10.357 -0.3046  1.6796  3.0452
 3796SOL     OW22849   4.401   2.303   6.964 -0.0955 -0.1579  0.8972
 3796SOL    HW122850   4.436   2.296   6.875  0.4517 -0.1837  1.1138
 3796SOL    HW222851   4.337   2.233   6.971 -1.0847  0.6841  0.2866
 3797SOL     OW22852   4.577   0.762   4.968  0.0430  0.2649  0.1779
 3797SOL    HW122853   4.522   0.822   4.918 -0.6118 -0.8327 -0.4129
 3797SOL    HW222854   4.667   0.793   4.955 -0.8582  2.7881 -0.0040
 3798SOL     OW22855   4.214   4.191  11.233 -0.1817  0.4473  0.4574
 3798SOL    HW122856   4.177   4.109  11.266  0.2424 -0.8204 -2.2485
 3798SOL    HW222857   4.300   4.168  11.197 -0.3343  0.2242  0.2346
 3799SOL     OW22858   1.540   4.517  11.750  0.1984  0.2533  0.4070
 3799SOL    HW122859   1.451   4.531  11.718 -0.0516  1.9196  1.8386
 3799SOL    HW222860   1.550   4.565  11.832  3.7491  1.1051 -0.5101
 3800SOL     OW22861   3.999   3.373   5.809 -0.1298 -0.4154  0.0427
 3800SOL    HW122862   4.055   3.430   5.860 -2.0057  1.7766 -0.3499
 3800SOL    HW222863   3.919   3.405   5.851  0.5595  0.7389  0.4395
 3801SOL     OW22864   4.247   1.344  11.108 -0.0935  0.4035  0.1483
 3801SOL    HW122865   4.331   1.299  11.112 -0.3142 -0.2521 -2.2423
 3801SOL    HW222866   4.225   1.342  11.015 -0.5402 -0.0616  0.2580
 3802SOL     OW22867   0.117   2.683   0.626 -0.3410  0.2807 -0.0315
 3802SOL    HW122868   0.055   2.641   0.686  0.3705 -2.1096 -0.9970
 3802SOL    HW222869   0.068   2.757   0.592  0.8502  0.8594 -0.5038
 3803SOL     OW22870   2.572   3.740  12.714 -0.3411 -0.2075  0.0847
 3803SOL    HW122871   2.652   3.738  12.768 -0.3043 -0.2391  0.0287
 3803SOL    HW222872   2.501   3.749  12.778 -1.7882 -0.2236 -1.5403
 3804SOL     OW22873   2.970   1.801   7.349 -0.2281 -0.0450  0.1133
 3804SOL    HW122874   3.054   1.798   7.303  0.8246  0.5274  2.0036
 3804SOL    HW222875   2.913   1.842   7.284  0.1834 -0.2567 -0.3822
 3805SOL     OW22876   0.542   4.417  10.449 -0.6694  0.1171 -0.0943
 3805SOL    HW122877   0.620   4.392  10.497 -1.4899  0.1288  1.2472
 3805SOL    HW222878   0.485   4.342  10.468 -0.4653  0.1073  0.4587
 3806SOL     OW22879   4.396   4.576   8.234  0.1575 -0.5735 -0.1322
 3806SOL    HW122880   4.347   4.599   8.155  0.9765 -0.4020 -0.5852
 3806SOL    HW222881   4.347   4.625   8.301  1.5795 -1.8561  1.8520
 3807SOL     OW22882   0.342   0.891  10.461  0.2410 -0.6875  0.0857
 3807SOL    HW122883   0.248   0.898  10.475  0.4429 -0.9388  1.5116
 3807SOL    HW222884   0.357   0.904  10.367 -1.0984  1.5570  0.1799
 3808SOL     OW22885   4.225   1.367   8.486 -0.2926  0.2301  0.0175
 3808SOL    HW122886   4.182   1.442   8.444 -2.4084 -0.2785  1.2640
 3808SOL    HW222887   4.161   1.351   8.556  0.5857 -0.7172  0.6027
 3809SOL     OW22888   1.569   1.091  13.587 -0.3885  0.2158  0.5022
 3809SOL    HW122889   1.519   1.136  13.519  1.5163  1.4980 -0.0546
 3809SOL    HW222890   1.509   1.022  13.616 -1.6040  0.5250 -1.2687
 3810SOL     OW22891   1.138   2.094   6.611 -0.4211 -0.1061 -0.2432
 3810SOL    HW122892   1.148   2.188   6.597  1.5873 -0.4443 -1.0726
 3810SOL    HW222893   1.067   2.080   6.547  0.7143  2.8866 -2.1765
 3811SOL     OW22894   3.375   4.606  14.171 -0.3029 -0.0401  0.2359
 3811SOL    HW122895   3.411   4.590  14.084 -1.5815  1.0666 -0.5092
 3811SOL    HW222896   3.302   4.545  14.167 -1.2452  1.1164 -0.1169
 3812SOL     OW22897   2.597   3.908  16.401 -0.1089  1.2746 -0.6576
 3812SOL    HW122898   2.612   3.893  16.495 -0.4790  1.4091 -0.5735
 3812SOL    HW222899   2.512   3.953  16.402 -0.7152  0.0163  3.3285
 3813SOL     OW22900   4.344   3.404   5.722 -0.1516 -0.2467  0.3822
 3813SOL    HW122901   4.264   3.454   5.735 -0.5649 -0.8565  0.1913
 3813SOL    HW222902   4.381   3.447   5.644  1.0604 -1.4391  0.2950
 3814SOL     OW22903   0.247   3.871   4.790  0.5265  0.5034 -0.3488
 3814SOL    HW122904   0.228   3.831   4.705 -1.6176 -0.1207  0.4400
 3814SOL    HW222905   0.342   3.855   4.787  0.2752 -0.8240 -1.3913
 3815SOL     OW22906   4.480   4.039  15.941 -0.7760  0.2824 -0.2057
 3815SOL    HW122907   4.508   4.113  15.995  1.2767 -0.8253  0.2738
 3815SOL    HW222908   4.570   4.021  15.911 -0.9579 -1.0523  0.0685
 3816SOL     OW22909   2.498   2.229   6.435 -0.2637  0.0447 -0.2229
 3816SOL    HW122910   2.574   2.193   6.389 -1.8245 -2.2135 -1.0340
 3816SOL    HW222911   2.493   2.317   6.400 -1.1084  0.8752  2.0033
 3817SOL     OW22912   0.092   2.801   4.445  0.4285 -0.1062  0.4038
 3817SOL    HW122913   0.168   2.839   4.401  0.5437 -1.1379 -0.2946
 3817SOL    HW222914   0.073   2.727   4.387 -1.2619 -0.1334  0.9983
 3818SOL     OW22915   4.094   0.449  12.326 -0.6773 -0.3487  0.3150
 3818SOL    HW122916   4.087   0.544  12.318 -0.6149 -0.2468  1.4048
 3818SOL    HW222917   4.002   0.428  12.312 -0.6642 -0.2187  0.0486
 3819SOL     OW22918   4.676   3.514   2.161 -0.0870 -0.5685  0.0406
 3819SOL    HW122919   0.000   3.500   2.078 -1.6107 -0.4558 -0.8123
 3819SOL    HW222920   4.637   3.427   2.148  1.3394 -0.8881 -2.1144
 3820SOL     OW22921   4.076   0.631  11.264  0.0859 -0.3724  0.1178
 3820SOL    HW122922   4.107   0.717  11.291 -0.8963 -0.4875  1.6731
 3820SOL    HW222923   4.147   0.571  11.288  0.9690 -0.1444 -1.9756
 3821SOL     OW22924   2.611   2.320   6.774  0.0166  0.5481 -0.0044
 3821SOL    HW122925   2.700   2.307   6.741  0.0860 -0.7232  0.7017
 3821SOL    HW222926   2.560   2.258   6.722  1.9984  0.6778 -2.1125
 3822SOL     OW22927   3.440   2.726   1.466  0.0956 -1.1424  0.6415
 3822SOL    HW122928   3.487   2.680   1.397 -1.2801  0.1201 -1.1532
 3822SOL    HW222929   3.508   2.727   1.533  1.9663 -2.1026 -1.2571
 3823SOL     OW22930   2.518   2.869   5.332 -0.3122 -0.2356  0.1500
 3823SOL    HW122931   2.510   2.774   5.322  2.4691 -0.3573 -0.9606
 3823SOL    HW222932   2.587   2.896   5.270 -0.6424 -0.5642 -0.3567
 3824SOL     OW22933   1.254   0.576   7.961  0.3169  0.0191  0.2816
 3824SOL    HW122934   1.293   0.527   7.888 -0.1694 -0.9743  0.6774
 3824SOL    HW222935   1.233   0.661   7.923  0.4069 -0.0247  0.1348
 3825SOL     OW22936   0.427   1.938   6.571  0.1995  0.3295 -0.2571
 3825SOL    HW122937   0.518   1.916   6.550 -0.5423 -2.0113 -1.0002
 3825SOL    HW222938   0.415   2.025   6.532  0.3565  1.1650  1.5917
 3826SOL     OW22939   1.360   4.388   9.496 -0.3245 -0.1141  0.1595
 3826SOL    HW122940   1.361   4.314   9.435  0.7969 -0.4623  0.5921
 3826SOL    HW222941   1.284   4.362   9.548 -0.9068 -0.7090 -0.9710
 3827SOL     OW22942   0.278   0.901   2.025  0.7341 -0.0818 -1.0126
 3827SOL    HW122943   0.226   0.863   1.954  0.6753 -1.7849 -0.0376
 3827SOL    HW222944   0.273   0.825   2.082 -0.0420  1.1311  0.5384
 3828SOL     OW22945   2.014   2.676   9.936 -0.1834  0.0738 -0.0684
 3828SOL    HW122946   1.973   2.630   9.864  5.0711 -2.3856 -1.4848
 3828SOL    HW222947   2.050   2.603   9.987 -1.3898  0.1466  0.8923
 3829SOL     OW22948   2.790   1.140   3.477 -0.3772 -0.2756  0.3091
 3829SOL    HW122949   2.725   1.211   3.480 -1.7055 -1.3866 -2.4627
 3829SOL    HW222950   2.853   1.166   3.544 -0.1046 -2.3056  0.8183
 3830SOL     OW22951   4.462   2.471   6.171 -0.0620  0.4958 -0.0366
 3830SOL    HW122952   4.431   2.380   6.167 -1.4681  1.0327 -1.5830
 3830SOL    HW222953   4.544   2.454   6.125  0.4679  1.2906  0.6273
 3831SOL     OW22954   0.724   4.537  11.628  0.1281  0.3137  0.4290
 3831SOL    HW122955   0.673   4.499  11.556 -1.6054  2.0592  0.7322
 3831SOL    HW222956   0.809   4.547  11.586 -0.1204  0.7008  0.0191
 3832SOL     OW22957   0.742   1.982   3.872  0.0950  0.4545  0.3601
 3832SOL    HW122958   0.712   2.066   3.839  2.4542  1.5965  1.0638
 3832SOL    HW222959   0.834   1.987   3.844  0.2675  0.7698  0.9828
 3833SOL     OW22960   1.080   2.234   7.680 -0.3183  0.1254  0.3885
 3833SOL    HW122961   1.051   2.193   7.761  1.1971 -0.8355  0.4399
 3833SOL    HW222962   1.005   2.292   7.662 -0.2613  0.1642  0.2711
 3834SOL     OW22963   1.550   3.141   7.968  0.2379 -0.4173  0.6613
 3834SOL    HW122964   1.644   3.125   7.974  0.3527 -0.7561 -2.1422
 3834SOL    HW222965   1.530   3.122   8.060 -0.9533  1.7482  0.8535
 3835SOL     OW22966   4.093   2.394   9.915  0.1947  0.1513 -0.3481
 3835SOL    HW122967   4.041   2.393   9.835 -0.9713 -1.9396  0.4438
 3835SOL    HW222968   4.071   2.307   9.947  1.0841 -0.4222 -1.2983
 3836SOL     OW22969   4.368   3.728   4.637  0.3507 -0.3470 -0.1245
 3836SOL    HW122970   4.450   3.718   4.685 -0.2075 -1.5879  0.5881
 3836SOL    HW222971   4.405   3.701   4.553 -0.7482  0.1102 -0.7455
 3837SOL     OW22972   0.533   4.229  14.657 -0.1953 -0.1691 -0.6692
 3837SOL    HW122973   0.479   4.160  14.618  1.3318 -0.5811 -2.0748
 3837SOL    HW222974   0.539   4.303  14.596  1.0457  0.6922  0.4921
 3838SOL     OW22975   1.478   3.322   3.105  0.1799 -0.3896 -0.3927
 3838SOL    HW122976   1.463   3.261   3.177  1.2153 -0.5866 -0.3457
 3838SOL    HW222977   1.451   3.258   3.039  0.1467  0.7786 -1.5007
 3839SOL     OW22978   1.003   4.314   5.449  0.0645 -0.1874 -0.2974
 3839SOL    HW122979   0.921   4.297   5.401 -0.8912 -0.0205  1.2797
 3839SOL    HW222980   0.973   4.361   5.527 -1.1026  0.2316 -0.9912
 3840SOL     OW22981   1.527   4.299   8.158 -0.3402 -0.5067  0.0186
 3840SOL    HW122982   1.455   4.356   8.184  0.6530  0.3564  0.8821
 3840SOL    HW222983   1.549   4.244   8.234 -3.0082 -2.0542 -0.3135
 3841SOL     OW22984   0.072   4.177  16.145 -0.6536  0.2314 -0.2794
 3841SOL    HW122985   4.709   4.219  16.126 -1.1612 -0.3817  0.6288
 3841SOL    HW222986   0.039   4.123  16.217  1.7175 -0.3664  0.3512
 3842SOL     OW22987   2.366   1.654   1.563 -0.0524  0.0400 -0.1335
 3842SOL    HW122988   2.286   1.673   1.612  0.0785 -0.4365  0.2663
 3842SOL    HW222989   2.425   1.638   1.636  0.8539 -0.3871 -0.9664
 3843SOL     OW22990   0.235   4.408   4.283  0.1150  0.6198 -0.1091
 3843SOL    HW122991   0.232   4.421   4.378 -2.1899  1.1187 -0.2641
 3843SOL    HW222992   0.278   4.325   4.263 -1.0943  0.3026 -1.3250
 3844SOL     OW22993   3.229   0.349   4.027 -0.7764 -0.0137 -0.5955
 3844SOL    HW122994   3.213   0.332   3.934 -1.2034  0.0235 -0.5282
 3844SOL    HW222995   3.180   0.430   4.035 -0.2525  0.3315 -0.8895
 3845SOL     OW22996   0.046   3.420   9.052  0.4875  0.2202  0.5728
 3845SOL    HW122997   4.687   3.400   9.101 -0.0255 -3.8630 -1.8866
 3845SOL    HW222998   0.125   3.390   9.097  1.0179 -0.3463 -0.7388
 3846SOL     OW22999   2.549   3.313   7.701 -0.0527  0.4969  0.0644
 3846SOL    HW123000   2.551   3.240   7.762  0.3277 -1.1985 -1.9911
 3846SOL    HW223001   2.621   3.288   7.643  0.6195  0.9301  0.7228
 3847SOL     OW23002   3.183   2.891   3.616 -0.2735 -0.1354  0.4884
 3847SOL    HW123003   3.273   2.867   3.636  0.3419  0.6662 -1.2751
 3847SOL    HW223004   3.144   2.831   3.679  1.2461 -3.2721 -1.5769
 3848SOL     OW23005   0.903   1.371   3.058  0.1972  0.1345 -0.4198
 3848SOL    HW123006   0.837   1.436   3.034 -0.5063 -0.9158 -1.3288
 3848SOL    HW223007   0.963   1.373   2.984 -0.6961  0.5707 -1.1350
 3849SOL     OW23008   4.675   2.573   5.615 -0.1002 -0.2351 -0.2277
 3849SOL    HW123009   4.607   2.628   5.653 -0.3164 -0.1695 -0.7107
 3849SOL    HW223010   0.019   2.635   5.583  0.5092 -1.1130 -0.7069
 3850SOL     OW23011   2.053   3.868   3.221 -0.5335  0.2813  0.1086
 3850SOL    HW123012   2.025   3.891   3.132  1.6238 -1.2438 -0.9655
 3850SOL    HW223013   2.048   3.960   3.246  1.3747  0.3828  0.1429
 3851SOL     OW23014   3.068   4.590  12.713 -0.1846 -0.6694  0.5015
 3851SOL    HW123015   3.153   4.633  12.707 -1.0236  0.7196 -1.4740
 3851SOL    HW223016   3.031   4.610  12.627  2.1345  1.2639 -0.0549
 3852SOL     OW23017   4.513   4.035   8.655 -0.2832 -1.0308  0.0397
 3852SOL    HW123018   4.457   4.042   8.578  2.2036  1.2701 -1.5713
 3852SOL    HW223019   4.494   3.944   8.677  2.0642 -1.1984  1.3154
 3853SOL     OW23020   4.324   4.555   5.637  0.4457 -0.5991 -0.7556
 3853SOL    HW123021   4.292   4.552   5.727 -1.0879  1.2760 -1.2405
 3853SOL    HW223022   4.246   4.588   5.592 -0.3858 -0.7791  0.5379
 3854SOL     OW23023   3.045   4.318   8.346  0.1235 -0.4253 -0.6022
 3854SOL    HW123024   3.024   4.341   8.436  1.0921  0.3297 -0.5740
 3854SOL    HW223025   3.013   4.393   8.296  0.3563  0.3796  0.4509
 3855SOL     OW23026   0.681   0.880   3.315 -0.2386 -0.5163 -0.1323
 3855SOL    HW123027   0.637   0.796   3.302  0.5212 -1.0420  0.7145
 3855SOL    HW223028   0.737   0.856   3.389 -1.1909  0.4210  0.8906
 3856SOL     OW23029   3.181   1.656   6.602  0.1705 -0.6434  0.2153
 3856SOL    HW123030   3.203   1.681   6.512  1.6112  1.6771  1.1876
 3856SOL    HW223031   3.090   1.683   6.610 -0.7525 -4.0350  1.0188
 3857SOL     OW23032   1.008   1.393   4.344 -0.2124  0.3898 -0.2244
 3857SOL    HW123033   0.975   1.387   4.434 -0.8691 -2.5943 -0.6479
 3857SOL    HW223034   1.035   1.303   4.326 -0.1132  0.0984  1.3430
 3858SOL     OW23035   0.227   1.142   5.777  0.2887 -0.2398 -0.3790
 3858SOL    HW123036   0.189   1.227   5.752 -0.4915 -0.1097  1.2300
 3858SOL    HW223037   0.153   1.084   5.757 -0.1875  0.0177  0.6019
 3859SOL     OW23038   1.289   4.102  14.897 -0.4213 -0.2669  0.3285
 3859SOL    HW123039   1.358   4.084  14.960 -1.3716 -0.2901  1.3556
 3859SOL    HW223040   1.292   4.196  14.910  1.8630 -0.1313 -1.0808
 3860SOL     OW23041   3.127   1.397   6.417  0.1312  0.1663  0.1660
 3860SOL    HW123042   3.110   1.372   6.326  1.2273  1.7022 -0.4681
 3860SOL    HW223043   3.138   1.492   6.410 -1.3599  0.6200  4.0452
 3861SOL     OW23044   4.430   3.687   6.619 -0.1133 -0.4216  0.2050
 3861SOL    HW123045   4.395   3.654   6.537 -1.5990 -0.6402  0.9324
 3861SOL    HW223046   4.491   3.755   6.588  1.7994 -1.2937  2.0171
 3862SOL     OW23047   3.018   2.561   6.938  0.4036 -0.0448  0.6208
 3862SOL    HW123048   2.945   2.546   6.998  0.2097  0.1260  0.4264
 3862SOL    HW223049   3.069   2.483   6.960 -0.3840 -0.8110 -0.3274
 3863SOL     OW23050   1.562   2.471  13.964 -0.7513 -0.1495  0.2298
 3863SOL    HW123051   1.521   2.522  14.034  0.3132  0.9898  0.0297
 3863SOL    HW223052   1.638   2.428  14.002 -0.7730  0.5113  1.0369
 3864SOL     OW23053   4.514   3.885   3.530  0.1346 -0.3649  0.4486
 3864SOL    HW123054   4.571   3.956   3.501 -2.0753  1.6226  0.9684
 3864SOL    HW223055   4.439   3.934   3.565 -0.1699  0.6398 -1.6521
 3865SOL     OW23056   0.842   4.212   0.663 -0.0074  0.0295  0.3369
 3865SOL    HW123057   0.924   4.163   0.663  0.8659  1.4661  0.3455
 3865SOL    HW223058   0.865   4.287   0.608  1.0353 -1.7337 -1.6392
 3866SOL     OW23059   0.173   1.915  10.563  0.4681 -0.5343 -0.1695
 3866SOL    HW123060   0.133   1.987  10.514 -1.3834 -1.6723 -0.3268
 3866SOL    HW223061   0.111   1.842  10.565 -1.1060  0.8530  0.9193
 3867SOL     OW23062   1.373   2.540   4.148  0.4485 -0.5202 -0.3059
 3867SOL    HW123063   1.413   2.494   4.222  0.9355 -3.3184 -2.2831
 3867SOL    HW223064   1.280   2.530   4.166  0.3062 -0.7182 -1.1225
 3868SOL     OW23065   4.190   4.416   6.437 -0.3226 -0.7634 -0.2879
 3868SOL    HW123066   4.278   4.395   6.468 -1.3150 -0.4882  2.7889
 3868SOL    HW223067   4.205   4.482   6.370 -1.6005 -0.6225 -0.4490
 3869SOL     OW23068   0.449   4.102   2.737  0.1953 -0.0644 -0.6547
 3869SOL    HW123069   0.386   4.173   2.751  0.1422 -0.1020 -0.7049
 3869SOL    HW223070   0.429   4.064   2.652  2.2107  0.0121 -1.1724
 3870SOL     OW23071   0.074   0.813  14.162  0.4902 -0.1747 -0.5392
 3870SOL    HW123072   0.128   0.891  14.175  0.8304 -1.0240  3.3333
 3870SOL    HW223073   0.111   0.747  14.221  1.4344 -0.1608 -1.1197
 3871SOL     OW23074   0.451   2.051  11.201  0.1378  0.4016 -0.3335
 3871SOL    HW123075   0.535   2.068  11.245 -0.7681 -0.5088  1.7514
 3871SOL    HW223076   0.400   2.113  11.252  0.1635 -1.5229  2.0601
 3872SOL     OW23077   4.103   4.281  11.561 -0.1166 -0.0987 -0.1963
 3872SOL    HW123078   4.030   4.219  11.559  0.2644 -0.5515 -0.2962
 3872SOL    HW223079   4.177   4.219  11.563  2.3957  2.9051 -0.3566
 3873SOL     OW23080   0.359   2.844   6.839 -0.1963  0.1060 -0.4760
 3873SOL    HW123081   0.439   2.880   6.877  0.3023 -1.8190  0.2915
 3873SOL    HW223082   0.292   2.910   6.859  0.6187  0.6666  0.3807
 3874SOL     OW23083   3.489   3.113  14.138 -0.3503  0.2697 -0.4284
 3874SOL    HW123084   3.572   3.066  14.130 -0.6135  0.0592 -1.9295
 3874SOL    HW223085   3.509   3.173  14.211  1.3769 -0.3644 -0.3687
 3875SOL     OW23086   0.078   2.280  13.170  0.5448 -0.2794  0.0903
 3875SOL    HW123087   0.072   2.188  13.197 -0.3806 -0.0090  0.8009
 3875SOL    HW223088   0.094   2.279  13.076  0.0202  0.6193 -0.0026
 3876SOL     OW23089   3.664   3.985   6.067 -0.1412 -0.7464 -0.2516
 3876SOL    HW123090   3.604   4.047   6.024  0.7467 -0.8408 -1.6313
 3876SOL    HW223091   3.602   3.914   6.079 -2.0612  1.3719  2.3745
 3877SOL     OW23092   4.405   1.434   4.561 -0.3767 -0.0607 -0.2540
 3877SOL    HW123093   4.492   1.440   4.523 -0.9227 -0.4449 -1.5937
 3877SOL    HW223094   4.362   1.516   4.536 -1.0752  0.1071  1.4916
 3878SOL     OW23095   0.303   1.560   1.900  0.1808  0.4847 -0.0813
 3878SOL    HW123096   0.297   1.470   1.867  1.1136 -0.7066  2.8925
 3878SOL    HW223097   0.367   1.596   1.839 -0.9601 -0.5641 -1.8803
 3879SOL     OW23098   3.009   1.045   1.188  0.2316  0.4813 -0.0987
 3879SOL    HW123099   3.019   0.952   1.207  1.8421  0.5523 -0.6414
 3879SOL    HW223100   2.983   1.075   1.275 -1.0831 -0.0595 -0.3129
 3880SOL     OW23101   2.501   0.955   5.508  0.0568 -0.1992 -0.3097
 3880SOL    HW123102   2.433   0.896   5.538 -0.8912  0.8354 -0.4405
 3880SOL    HW223103   2.587   0.915   5.526 -0.2762 -0.2823  1.1137
 3881SOL     OW23104   3.225   3.131   4.939  0.2845  0.2533  0.1275
 3881SOL    HW123105   3.198   3.065   4.875  1.8456 -0.1127 -0.1440
 3881SOL    HW223106   3.295   3.174   4.889  0.8120 -1.0932 -0.2717
 3882SOL     OW23107   3.150   0.451  12.587 -0.4987  0.8824  0.0201
 3882SOL    HW123108   3.073   0.471  12.534 -1.4970 -0.0223  1.1130
 3882SOL    HW223109   3.113   0.461  12.675 -0.6447  0.8156 -0.0336
 3883SOL     OW23110   3.442   4.055   0.407 -0.2764  0.7915 -0.5334
 3883SOL    HW123111   3.389   4.096   0.475 -0.6285 -0.7068  0.0960
 3883SOL    HW223112   3.377   4.045   0.338 -0.0717  2.3671 -0.9680
 3884SOL     OW23113   3.677   3.380   3.786 -0.4518 -0.1367 -0.2373
 3884SOL    HW123114   3.629   3.309   3.745 -0.0485 -1.7801  2.1544
 3884SOL    HW223115   3.613   3.451   3.784 -0.4976 -0.2045 -1.0389
 3885SOL     OW23116   0.115   0.889  10.910 -0.3374 -0.0970  0.3315
 3885SOL    HW123117   0.125   0.811  10.856 -1.1864 -1.6966  2.5343
 3885SOL    HW223118   0.134   0.954  10.841 -2.7311 -1.1507 -1.3402
 3886SOL     OW23119   4.222   3.897   8.177 -0.1697  0.0356 -0.3291
 3886SOL    HW123120   4.190   3.986   8.163 -0.4524  0.0445  0.4041
 3886SOL    HW223121   4.143   3.851   8.149  0.0899 -0.6262  0.0481
 3887SOL     OW23122   0.549   1.153   9.143 -0.2817  0.1387 -0.5409
 3887SOL    HW123123   0.610   1.137   9.070 -1.1020  1.9959 -1.6404
 3887SOL    HW223124   0.510   1.238   9.123  1.2245  0.9921  0.2140
 3888SOL     OW23125   3.898   4.340  17.524  0.0058 -0.1012  0.4308
 3888SOL    HW123126   3.927   4.405  17.588  2.3424  0.5962 -1.3484
 3888SOL    HW223127   3.806   4.364  17.517  0.3292  0.7931 -0.8203
 3889SOL     OW23128   4.205   4.498  16.781 -0.3943 -0.3383  0.2055
 3889SOL    HW123129   4.218   4.469  16.691  0.1856  0.1294  0.1431
 3889SOL    HW223130   4.204   4.593  16.776 -0.8169 -0.4055 -0.9933
 3890SOL     OW23131   4.191   1.098   4.781  0.4570 -0.3835 -0.0334
 3890SOL    HW123132   4.248   1.061   4.714 -0.0946 -1.3326  0.0236
 3890SOL    HW223133   4.193   1.190   4.756 -1.3034 -0.7096 -1.3654
 3891SOL     OW23134   4.317   1.424   6.109 -0.6221  0.1643  0.2012
 3891SOL    HW123135   4.400   1.416   6.156 -0.5280 -0.5292 -0.0795
 3891SOL    HW223136   4.345   1.391   6.023 -1.1189  0.9972 -0.2834
 3892SOL     OW23137   2.579   0.364   0.930  0.3159 -0.7210  0.1902
 3892SOL    HW123138   2.632   0.428   0.884 -1.2652  0.4692  0.0068
 3892SOL    HW223139   2.568   0.407   1.014  0.4743 -0.5057  0.0990
 3893SOL     OW23140   0.328   1.392   1.084 -1.0496 -0.2724  0.2077
 3893SOL    HW123141   0.275   1.460   1.041 -0.5093 -0.4728 -0.7864
 3893SOL    HW223142   0.409   1.442   1.096 -0.5381 -0.6034 -1.8947
 3894SOL     OW23143   1.535   3.530  11.709 -0.7167 -0.8582  0.1358
 3894SOL    HW123144   1.452   3.571  11.685  0.7400  0.8539 -1.9812
 3894SOL    HW223145   1.531   3.521  11.805 -0.5470 -2.6302 -0.0190
 3895SOL     OW23146   3.775   0.391   7.518 -0.1233 -0.1657  0.1133
 3895SOL    HW123147   3.833   0.442   7.575 -1.8311  3.6077 -1.5329
 3895SOL    HW223148   3.695   0.443   7.518 -0.7416 -1.1313  0.0605
 3896SOL     OW23149   3.999   1.367   4.176 -0.0072  0.0915 -0.5409
 3896SOL    HW123150   3.949   1.405   4.104  2.6551  2.8835 -0.8782
 3896SOL    HW223151   3.957   1.281   4.188  0.1225  0.0425 -0.4337
 3897SOL     OW23152   1.968   2.323   0.882 -0.1871  0.4723 -0.1296
 3897SOL    HW123153   1.928   2.409   0.879  1.4538  1.1235 -3.7909
 3897SOL    HW223154   1.886   2.281   0.907  1.3187 -2.4913 -0.1959
 3898SOL     OW23155   1.814   4.380   7.842  0.1169  0.0818  0.1277
 3898SOL    HW123156   1.792   4.289   7.865  2.1639 -0.4040  0.1682
 3898SOL    HW223157   1.876   4.371   7.770  1.0006 -0.9636  1.0022
 3899SOL     OW23158   3.088   1.121   6.432 -0.4465  0.1800  0.0965
 3899SOL    HW123159   3.103   1.110   6.526 -1.1816 -2.2306 -0.0816
 3899SOL    HW223160   3.083   1.217   6.425  0.4365  0.3172  1.3897
 3900SOL     OW23161   1.761   3.335   5.619  0.2780  0.2752  0.1113
 3900SOL    HW123162   1.787   3.323   5.528  0.2276 -1.4773  0.3283
 3900SOL    HW223163   1.795   3.420   5.649 -1.0272  1.5771 -2.0356
 3901SOL     OW23164   1.846   1.128   7.404 -0.4141  0.5365  0.9642
 3901SOL    HW123165   1.753   1.136   7.427 -0.2380  0.2775  1.7653
 3901SOL    HW223166   1.851   1.149   7.311  0.9585 -2.5774  0.3381
 3902SOL     OW23167   2.290   1.132  15.883  0.0639 -0.6608  0.3959
 3902SOL    HW123168   2.225   1.200  15.899  2.2922  1.9699 -1.7751
 3902SOL    HW223169   2.270   1.066  15.949  0.3032 -1.5038 -0.3721
 3903SOL     OW23170   4.001   4.600   8.189 -0.3378  1.1692 -0.4995
 3903SOL    HW123171   3.956   4.516   8.196 -1.5565  1.6700 -2.1769
 3903SOL    HW223172   3.925   4.659   8.181  0.2420  2.0477  0.3722
 3904SOL     OW23173   1.403   0.961  16.839 -0.3517  0.2921 -0.0705
 3904SOL    HW123174   1.404   0.876  16.883 -1.7665  0.2231 -0.1705
 3904SOL    HW223175   1.487   0.948  16.796 -0.1775 -0.4715  0.5031
 3905SOL     OW23176   0.322   2.361  13.339 -0.2660  0.1933 -0.2083
 3905SOL    HW123177   0.354   2.276  13.308 -2.1281  0.3465 -2.6046
 3905SOL    HW223178   0.232   2.358  13.304 -1.5468 -1.3536  3.2118
 3906SOL     OW23179   2.088   4.568  14.087  0.3662 -0.0129  0.3296
 3906SOL    HW123180   2.161   4.511  14.066  1.1279  0.8951  0.4905
 3906SOL    HW223181   2.121   4.622  14.159  0.7638  0.1706  0.0121
 3907SOL     OW23182   0.580   2.499   8.893  0.2774  0.4343  0.3067
 3907SOL    HW123183   0.624   2.446   8.960  0.5957  0.4087  0.0783
 3907SOL    HW223184   0.557   2.577   8.944  1.1270  1.1263 -0.3652
 3908SOL     OW23185   0.759   2.597   1.194 -0.0995 -0.0418 -0.0042
 3908SOL    HW123186   0.836   2.550   1.162  0.0336  0.3941 -0.3352
 3908SOL    HW223187   0.701   2.559   1.128  1.3707  1.1118 -1.9537
 3909SOL     OW23188   1.763   4.567   4.474 -0.3748 -0.2101 -0.1696
 3909SOL    HW123189   1.766   4.471   4.467 -0.9439 -0.1053 -1.7701
 3909SOL    HW223190   1.739   4.577   4.382  0.6501 -0.6038 -0.4857
 3910SOL     OW23191   0.372   0.253   3.120 -0.3239 -0.0641 -0.3121
 3910SOL    HW123192   0.392   0.163   3.145  1.9094  1.2347  2.6462
 3910SOL    HW223193   0.403   0.258   3.030 -1.0431  1.9555 -0.4612
 3911SOL     OW23194   0.932   3.279   5.319 -0.0384 -0.4730 -0.3186
 3911SOL    HW123195   0.957   3.305   5.408  1.9971 -0.0769 -0.9999
 3911SOL    HW223196   0.929   3.184   5.327  0.5225 -0.5495 -1.0301
 3912SOL     OW23197   2.803   3.047   8.666  0.0492  0.5811  0.2794
 3912SOL    HW123198   2.866   3.088   8.606 -0.6260  2.1192  0.6382
 3912SOL    HW223199   2.765   3.108   8.728 -1.0170 -0.1963  0.3902
 3913SOL     OW23200   2.086   1.583   6.821  0.1246 -0.2548  0.3438
 3913SOL    HW123201   2.152   1.554   6.884  0.1638 -0.8394  0.0290
 3913SOL    HW223202   2.026   1.509   6.826 -0.0594 -0.0905  0.5626
 3914SOL     OW23203   3.463   0.668   5.082  0.0224  0.8185 -0.1478
 3914SOL    HW123204   3.475   0.695   4.991 -0.0745 -0.1906 -0.4603
 3914SOL    HW223205   3.370   0.648   5.085  0.2074 -0.4194 -2.6034
 3915SOL     OW23206   3.672   3.226  13.113  0.5158  0.6450  0.4815
 3915SOL    HW123207   3.631   3.312  13.119 -1.0071 -0.2506  2.6818
 3915SOL    HW223208   3.633   3.190  13.033  0.6392 -1.8459  1.5433
 3916SOL     OW23209   2.067   0.410   7.998  0.1578  0.0749 -0.1009
 3916SOL    HW123210   2.018   0.344   8.046 -1.9827  1.2684 -0.6182
 3916SOL    HW223211   1.995   0.470   7.976 -0.7010 -0.7688  0.4073
 3917SOL     OW23212   1.016   3.694   6.023 -0.3059  0.5058 -0.9027
 3917SOL    HW123213   1.087   3.753   5.999 -0.4394  0.2642 -1.9003
 3917SOL    HW223214   1.039   3.688   6.116 -1.9179 -1.7393 -0.6566
 3918SOL     OW23215   3.917   4.150  15.165  0.6756  0.1887 -0.4102
 3918SOL    HW123216   3.890   4.135  15.255 -0.7310 -0.4599 -0.9279
 3918SOL    HW223217   3.891   4.075  15.112  0.6540 -0.6852  0.8486
 3919SOL     OW23218   0.317   1.055   3.475  0.2175 -0.4927 -0.3508
 3919SOL    HW123219   0.368   1.104   3.539  1.4798 -1.8404 -0.3256
 3919SOL    HW223220   0.334   1.112   3.400 -0.6128 -0.5771 -0.6044
 3920SOL     OW23221   1.326   3.991   5.526  1.1937 -0.4679 -0.1796
 3920SOL    HW123222   1.371   3.941   5.458 -0.9992 -2.3981 -0.2309
 3920SOL    HW223223   1.385   4.067   5.522  3.1063 -2.0310 -1.2792
 3921SOL     OW23224   3.684   1.723   4.599 -0.2152  0.0205 -0.2766
 3921SOL    HW123225   3.682   1.678   4.515  0.4094 -1.3888  0.4679
 3921SOL    HW223226   3.629   1.801   4.590  0.8271  1.0593  2.1426
 3922SOL     OW23227   2.586   4.276   5.804 -0.2988  0.3144 -0.2740
 3922SOL    HW123228   2.541   4.327   5.871 -2.0573 -0.7545 -0.6372
 3922SOL    HW223229   2.576   4.191   5.848 -1.4947  0.3059 -0.5639
 3923SOL     OW23230   1.331   4.184   7.213 -0.2323 -0.6543 -0.1102
 3923SOL    HW123231   1.377   4.110   7.173  1.6910  1.2460 -1.4208
 3923SOL    HW223232   1.300   4.218   7.130 -0.9257  0.2497  0.5228
 3924SOL     OW23233   0.569   1.215   3.383 -0.1397  0.3951 -0.7843
 3924SOL    HW123234   0.516   1.184   3.310 -2.2542  0.7309  0.6108
 3924SOL    HW223235   0.621   1.135   3.398  2.4363  1.7594 -2.4020
 3925SOL     OW23236   3.745   1.729   8.212  0.1996  0.7231  0.2056
 3925SOL    HW123237   3.831   1.750   8.248 -0.1641  2.8077 -0.1392
 3925SOL    HW223238   3.695   1.709   8.291 -0.1315 -0.4214 -0.2931
 3926SOL     OW23239   2.581   2.793   6.100  0.2719  0.3319 -0.3522
 3926SOL    HW123240   2.642   2.786   6.173 -0.1495 -0.5222 -0.0906
 3926SOL    HW223241   2.500   2.761   6.139  0.7054  0.0310  0.2930
 3927SOL     OW23242   4.666   2.024   8.400  0.3628 -0.1747 -0.2832
 3927SOL    HW123243   4.636   1.967   8.470  2.9342 -0.0225  0.9279
 3927SOL    HW223244   4.687   2.105   8.447  0.6909  0.4038 -1.4186
 3928SOL     OW23245   4.344   0.422  13.554  0.1829 -0.1638  0.1480
 3928SOL    HW123246   4.274   0.485  13.574 -0.2919 -0.5976 -0.1392
 3928SOL    HW223247   4.364   0.439  13.463  2.8336 -0.0311  0.7701
 3929SOL     OW23248   4.303   2.164  13.599 -0.0343 -0.2474 -0.0654
 3929SOL    HW123249   4.362   2.104  13.646  0.7550  1.4270  1.0920
 3929SOL    HW223250   4.225   2.112  13.582 -0.4963  0.0916  1.0615
 3930SOL     OW23251   1.181   2.290   3.142  0.2180 -0.2893 -0.0813
 3930SOL    HW123252   1.147   2.371   3.179  1.5616  0.4891 -0.5281
 3930SOL    HW223253   1.152   2.292   3.051 -1.4429  1.9389  0.4853
 3931SOL     OW23254   1.441   0.639   6.354  0.6445  0.0246  0.6361
 3931SOL    HW123255   1.475   0.572   6.295  1.2680  0.9153 -0.0041
 3931SOL    HW223256   1.497   0.636   6.432 -0.5465 -2.0161  1.4265
 3932SOL     OW23257   2.455   3.253   4.364  0.4906 -0.3134  0.3090
 3932SOL    HW123258   2.443   3.228   4.456 -1.7289 -1.0480 -0.1847
 3932SOL    HW223259   2.461   3.168   4.320 -2.0694 -0.6452  0.6204
 3933SOL     OW23260   3.729   3.283   4.685  0.4469 -0.0734 -0.4298
 3933SOL    HW123261   3.706   3.374   4.669  2.4449  0.5934  0.5036
 3933SOL    HW223262   3.823   3.279   4.667  0.5087 -2.1471  0.3968
 3934SOL     OW23263   4.592   3.913  11.472 -0.4720  0.4262 -0.4235
 3934SOL    HW123264   4.559   3.850  11.408 -0.2575 -2.0492  1.9201
 3934SOL    HW223265   4.630   3.854  11.536  0.4414 -0.3446 -1.6787
 3935SOL     OW23266   4.143   0.402   8.534 -0.3192  0.3228  0.0542
 3935SOL    HW123267   4.215   0.441   8.583 -0.1046  0.2599 -0.2082
 3935SOL    HW223268   4.158   0.308   8.538  0.8524  0.4462 -1.3906
 3936SOL     OW23269   3.287   2.767  14.797  0.1755  0.3452 -0.3207
 3936SOL    HW123270   3.323   2.774  14.708  2.5935  1.9800  0.7585
 3936SOL    HW223271   3.219   2.700  14.801 -2.6451  3.3289  1.5283
 3937SOL     OW23272   1.487   0.459  10.861 -0.0615  0.4858 -0.1470
 3937SOL    HW123273   1.536   0.538  10.881 -0.9707  0.1833  3.3921
 3937SOL    HW223274   1.402   0.499  10.845 -1.1189 -1.5229  0.4017
 3938SOL     OW23275   2.193   2.761  12.163 -0.5139  0.3327 -0.5260
 3938SOL    HW123276   2.119   2.821  12.172 -0.5458  0.0250  1.2536
 3938SOL    HW223277   2.176   2.708  12.241  0.6695  1.3291  0.4065
 3939SOL     OW23278   1.697   1.174   8.285 -0.4477  0.6995 -0.1275
 3939SOL    HW123279   1.756   1.129   8.224 -0.2319  0.0276  0.5752
 3939SOL    HW223280   1.713   1.107   8.352 -3.3332 -2.9687 -3.1391
 3940SOL     OW23281   1.841   0.847   5.308 -0.1931  0.3925  0.3337
 3940SOL    HW123282   1.902   0.903   5.356 -1.0395  1.4631  0.1570
 3940SOL    HW223283   1.815   0.911   5.242 -2.2679  0.8567  1.5904
 3941SOL     OW23284   3.667   0.148  14.577 -0.1599  0.3906  0.1070
 3941SOL    HW123285   3.689   0.058  14.553  0.8252  0.8274 -0.6172
 3941SOL    HW223286   3.749   0.194  14.558 -0.1630  1.0365  1.7046
 3942SOL     OW23287   4.091   1.886   9.435 -0.0750 -0.3068  0.7285
 3942SOL    HW123288   4.001   1.896   9.466 -0.1618  0.3636  0.2621
 3942SOL    HW223289   4.104   1.964   9.381 -0.8012 -0.0853  0.8647
 3943SOL     OW23290   1.374   2.781   4.994  0.1497 -0.2220  0.6369
 3943SOL    HW123291   1.405   2.871   4.988 -0.1116 -0.1546  0.3103
 3943SOL    HW223292   1.350   2.759   4.904 -0.3001  2.2802  0.1435
 3944SOL     OW23293   4.144   2.453   8.738 -0.2977 -0.3606 -0.1813
 3944SOL    HW123294   4.101   2.471   8.822  0.8471 -0.2642  0.3941
 3944SOL    HW223295   4.234   2.456   8.772 -1.1391  1.0820  1.9335
 3945SOL     OW23296   0.683   2.248   3.724 -0.2974 -0.0307 -0.1224
 3945SOL    HW123297   0.667   2.180   3.658  0.1923 -1.8879  1.7012
 3945SOL    HW223298   0.599   2.284   3.752  0.1889 -0.7781  2.2820
 3946SOL     OW23299   4.678   3.449   8.798 -0.0144 -0.3300 -0.2227
 3946SOL    HW123300   4.656   3.356   8.787  0.7619 -0.7100  1.4429
 3946SOL    HW223301   0.016   3.445   8.873  0.0853 -3.2092 -0.4447
 3947SOL     OW23302   0.288   0.407   6.526  0.0320  0.1329 -0.5038
 3947SOL    HW123303   0.244   0.336   6.572 -1.2282 -1.1525 -3.6639
 3947SOL    HW223304   0.366   0.419   6.580 -1.9233  0.1565  2.3033
 3948SOL     OW23305   3.608   1.375   5.800 -0.4187 -0.1866 -0.0739
 3948SOL    HW123306   3.590   1.336   5.714 -0.9004  1.1252 -0.5771
 3948SOL    HW223307   3.701   1.361   5.816 -0.2205 -0.3974 -1.4458
 3949SOL     OW23308   2.771   3.943   3.599  0.1363  0.0391  0.7045
 3949SOL    HW123309   2.679   3.947   3.573  0.1806  1.2204  0.7274
 3949SOL    HW223310   2.793   4.030   3.566  3.0917 -0.8971  0.2509
 3950SOL     OW23311   0.584   0.592   2.337  0.6504 -0.1609 -0.2699
 3950SOL    HW123312   0.623   0.510   2.369 -0.2060 -0.8509 -0.9688
 3950SOL    HW223313   0.620   0.592   2.248 -0.5934  3.5882 -0.7855
 3951SOL     OW23314   2.698   2.675   8.918  0.0861 -0.3281 -0.0739
 3951SOL    HW123315   2.761   2.735   8.878 -0.7633  1.2911  0.9782
 3951SOL    HW223316   2.653   2.736   8.978  0.1011 -2.3978  2.0471
 3952SOL     OW23317   3.639   0.895  16.616  0.1733 -0.5332 -0.1666
 3952SOL    HW123318   3.581   0.848  16.556 -1.7750  0.6573  0.7945
 3952SOL    HW223319   3.673   0.968  16.564 -0.9457  0.6050  0.7237
 3953SOL     OW23320   3.099   3.610  15.605  0.3298  0.0738  0.3425
 3953SOL    HW123321   3.073   3.649  15.689  1.5616  1.9255 -0.1205
 3953SOL    HW223322   3.104   3.516  15.623  0.6134 -0.1170 -0.7285
 3954SOL     OW23323   2.166   3.458   8.992  0.1505  0.0573  0.4441
 3954SOL    HW123324   2.085   3.459   8.940  1.2920 -0.4290 -1.3337
 3954SOL    HW223325   2.240   3.422   8.943  1.2070  0.9462  1.3692
 3955SOL     OW23326   2.386   4.478   9.574 -0.0321  0.5644  0.1423
 3955SOL    HW123327   2.362   4.421   9.646 -0.5501 -0.7131 -1.0497
 3955SOL    HW223328   2.312   4.538   9.579 -1.6021 -1.5251  1.6163
 3956SOL     OW23329   2.681   4.586  15.115  0.6984 -0.1630 -0.6632
 3956SOL    HW123330   2.749   4.605  15.181 -1.6458  0.5519  1.5558
 3956SOL    HW223331   2.659   4.673  15.081 -0.9089 -0.9744 -1.6717
 3957SOL     OW23332   2.042   3.600  12.130  0.4361 -0.0633  0.1990
 3957SOL    HW123333   2.130   3.565  12.138  1.5044  2.4878 -0.3846
 3957SOL    HW223334   2.032   3.645  12.215  0.4835 -0.3662  0.3636
 3958SOL     OW23335   3.713   1.693   6.715 -0.7448 -0.3200 -0.4078
 3958SOL    HW123336   3.765   1.763   6.674 -0.6706 -0.6778 -0.9273
 3958SOL    HW223337   3.631   1.696   6.666 -0.8402  1.4479 -0.1549
 3959SOL     OW23338   1.797   1.269  13.642 -0.0641  0.6900 -0.9739
 3959SOL    HW123339   1.740   1.345  13.658 -0.9744  0.4438 -3.0964
 3959SOL    HW223340   1.729   1.206  13.619  0.4241 -1.1827  2.6532
 3960SOL     OW23341   0.042   1.214  15.405 -0.0939  0.4548 -0.8741
 3960SOL    HW123342   0.112   1.195  15.467  1.0526 -0.2112 -2.3820
 3960SOL    HW223343   0.072   1.300  15.376  2.3952 -0.6421 -1.5495
 3961SOL     OW23344   1.851   3.536   0.334  0.3098 -0.7085 -0.0921
 3961SOL    HW123345   1.854   3.546   0.429  1.2740  1.6752 -0.3541
 3961SOL    HW223346   1.942   3.525   0.305  0.5957  1.5101 -0.0674
 3962SOL     OW23347   0.940   1.284  13.677  0.9004  0.4416  0.2194
 3962SOL    HW123348   1.032   1.282  13.704  1.0772  0.8345 -0.3648
 3962SOL    HW223349   0.940   1.206  13.620  1.5466  1.4598 -1.1617
 3963SOL     OW23350   3.624   4.677   1.748 -0.0638 -0.1795  0.3750
 3963SOL    HW123351   3.658   0.034   1.791 -0.6975  1.4250 -2.0420
 3963SOL    HW223352   3.556   4.711   1.690 -0.8178  1.5888  2.3045
 3964SOL     OW23353   4.330   2.503  16.180 -0.4833 -0.3569  0.7353
 3964SOL    HW123354   4.348   2.453  16.101  1.6035  0.9120  0.4095
 3964SOL    HW223355   4.316   2.593  16.150  1.5427 -0.3226 -0.1273
 3965SOL     OW23356   1.199   3.393   6.542  0.2426 -0.7805  0.1450
 3965SOL    HW123357   1.265   3.399   6.612  1.5223  1.0361 -1.2215
 3965SOL    HW223358   1.144   3.462   6.579  0.2518 -0.6008 -0.1759
 3966SOL     OW23359   1.347   2.175   3.339 -0.9381  0.4277 -0.0554
 3966SOL    HW123360   1.282   2.202   3.274 -0.1509  0.4782 -0.8210
 3966SOL    HW223361   1.365   2.087   3.307 -1.2027 -0.6501  2.7312
 3967SOL     OW23362   2.724   3.282   6.103  0.7279 -0.0916 -0.1019
 3967SOL    HW123363   2.670   3.220   6.152 -0.6634  0.5444 -0.8111
 3967SOL    HW223364   2.771   3.223   6.045  1.5044  0.2905  0.1466
 3968SOL     OW23365   4.131   3.340   9.610  0.2533 -0.1239 -0.0667
 3968SOL    HW123366   4.116   3.250   9.638  2.4675 -0.4567  0.0200
 3968SOL    HW223367   4.084   3.372   9.686  0.7146 -0.9897  0.5877
 3969SOL     OW23368   0.142   4.592   8.073 -0.3467  0.3931 -0.2514
 3969SOL    HW123369   0.081   4.553   8.136  1.0088  0.6035  1.2101
 3969SOL    HW223370   0.133   4.529   8.002 -0.5098  1.4548 -1.1590
 3970SOL     OW23371   2.374   0.121   7.386  0.5773  0.1335  0.0537
 3970SOL    HW123372   2.449   0.119   7.445  0.8789  1.1859 -0.2977
 3970SOL    HW223373   2.305   0.093   7.446 -1.7720  0.7016 -2.3652
 3971SOL     OW23374   2.613   0.477   4.148 -0.4189 -0.6668 -0.4111
 3971SOL    HW123375   2.594   0.522   4.066 -0.2151 -0.0247 -0.1061
 3971SOL    HW223376   2.564   0.395   4.139 -1.6470  0.0199  0.0543
 3972SOL     OW23377   1.311   2.714   6.337  0.2732 -0.2877  0.3875
 3972SOL    HW123378   1.317   2.664   6.256  2.1560  0.0910  0.3100
 3972SOL    HW223379   1.402   2.710   6.365 -0.0441  0.6973  1.5663
 3973SOL     OW23380   3.121   3.683   2.981  0.0343  0.3617 -0.0252
 3973SOL    HW123381   3.051   3.729   3.028 -1.0037 -0.5274 -0.7000
 3973SOL    HW223382   3.077   3.605   2.947  0.4656  0.0041  0.2408
 3974SOL     OW23383   3.489   2.069   9.761  0.2346  0.2340 -0.8761
 3974SOL    HW123384   3.395   2.054   9.769  0.1390  0.9557 -0.5977
 3974SOL    HW223385   3.491   2.131   9.834  0.3993 -0.2978 -0.4301
 3975SOL     OW23386   2.544   1.206   6.525  0.0060 -0.0571  0.2100
 3975SOL    HW123387   2.623   1.221   6.577 -0.7057  2.1013  0.6842
 3975SOL    HW223388   2.577   1.221   6.436  1.0413  0.2683  0.6625
 3976SOL     OW23389   4.233   2.170  10.289  0.0008 -0.0094  0.6587
 3976SOL    HW123390   4.164   2.205  10.233  1.3118 -0.0427 -0.9694
 3976SOL    HW223391   4.296   2.202  10.226 -1.5872  0.6822 -0.5844
 3977SOL     OW23392   4.091   4.495   4.929 -0.4397  0.4679  0.2218
 3977SOL    HW123393   4.173   4.452   4.908  0.2118  2.2285 -0.8503
 3977SOL    HW223394   4.106   4.583   4.893  2.1137 -0.2454 -0.4511
 3978SOL     OW23395   3.734   2.556   9.906  0.1700  0.0388  0.1971
 3978SOL    HW123396   3.704   2.612   9.977  0.9141  1.8849 -0.9352
 3978SOL    HW223397   3.785   2.500   9.965  0.9769 -0.2211 -0.7390
 3979SOL     OW23398   2.734   3.670  10.791  0.9819  0.4267  0.8554
 3979SOL    HW123399   2.794   3.648  10.719 -0.2116  0.8712 -0.2832
 3979SOL    HW223400   2.796   3.732  10.829 -0.7499  2.2061  0.7860
 3980SOL     OW23401   0.684   4.467   6.329  0.0298 -0.7852 -0.2258
 3980SOL    HW123402   0.688   4.535   6.396 -0.1250 -0.1622 -0.8539
 3980SOL    HW223403   0.611   4.499   6.275  0.3730  0.2195 -0.0811
 3981SOL     OW23404   0.316   3.230  10.248  0.1796 -0.2977 -0.0967
 3981SOL    HW123405   0.294   3.294  10.181 -3.0401 -0.4679  0.7941
 3981SOL    HW223406   0.232   3.234  10.294  0.2092 -0.5113 -0.0238
 3982SOL     OW23407   4.436   2.797   1.893  0.4184 -0.2608  0.2718
 3982SOL    HW123408   4.344   2.787   1.868  0.0217  3.0932  0.3241
 3982SOL    HW223409   4.453   2.725   1.954  0.3583  0.3002  0.9445
 3983SOL     OW23410   1.075   0.056  11.236 -0.2301  0.3183 -0.0343
 3983SOL    HW123411   1.145   0.055  11.170 -0.0372  0.1284  0.1759
 3983SOL    HW223412   1.121   0.080  11.316  1.8699 -2.0458 -0.5374
 3984SOL     OW23413   1.862   0.013   8.299  0.0538  0.5524  0.2321
 3984SOL    HW123414   1.893   4.661   8.246 -2.1064 -0.4541  0.3868
 3984SOL    HW223415   1.770   4.712   8.313  0.7559 -1.1200  2.1838
 3985SOL     OW23416   0.334   4.335  14.348 -0.3305  0.1799 -0.2338
 3985SOL    HW123417   0.429   4.348  14.351 -0.2898 -0.1994  0.1447
 3985SOL    HW223418   0.317   4.259  14.404 -0.7208  0.7682  0.4492
 3986SOL     OW23419   3.774   1.073  16.138 -0.1879  0.2069  0.3007
 3986SOL    HW123420   3.830   1.035  16.069  0.5717  1.5889  0.1551
 3986SOL    HW223421   3.703   1.089  16.076 -0.2195 -2.5436 -0.4178
 3987SOL     OW23422   0.012   3.690   8.690  0.4014 -0.4507 -0.2103
 3987SOL    HW123423   4.720   3.744   8.767 -1.6109 -0.0763 -0.8222
 3987SOL    HW223424   4.701   3.608   8.729  1.7491 -0.4330  0.9350
 3988SOL     OW23425   2.787   2.970  13.600  0.1270  0.2772 -0.6619
 3988SOL    HW123426   2.757   2.879  13.594  1.3717 -0.3679  2.6994
 3988SOL    HW223427   2.873   2.958  13.642 -0.5013  1.0749  0.8492
 3989SOL     OW23428   2.392   2.426   7.168  0.2157 -0.2208  0.0930
 3989SOL    HW123429   2.376   2.345   7.120  2.4162 -1.6091  1.6881
 3989SOL    HW223430   2.432   2.481   7.100 -2.0553  1.3368  0.0086
 3990SOL     OW23431   4.391   3.979   2.956  0.0130 -0.0480  0.4025
 3990SOL    HW123432   4.318   4.039   2.973  0.9875  0.5246  2.5621
 3990SOL    HW223433   4.456   4.005   3.022 -0.4123  1.5651  0.1858
 3991SOL     OW23434   2.195   0.377  10.571 -0.1517  0.0135 -0.3035
 3991SOL    HW123435   2.162   0.355  10.483 -0.1038  0.4537 -0.4328
 3991SOL    HW223436   2.172   0.470  10.576 -2.4473 -0.6252  1.0471
 3992SOL     OW23437   3.268   3.138   8.869 -0.5224 -0.0189 -0.4033
 3992SOL    HW123438   3.186   3.187   8.876 -0.0381  0.8624 -0.9210
 3992SOL    HW223439   3.256   3.082   8.946 -0.8566  0.5935 -0.0065
 3993SOL     OW23440   2.637   3.323  10.969 -0.3679  0.2086  0.1714
 3993SOL    HW123441   2.654   3.357  10.881  1.2837 -1.8087 -0.3068
 3993SOL    HW223442   2.718   3.352  11.011 -0.0744 -0.7338  0.2607
 3994SOL     OW23443   2.811   1.726  10.112  0.0838  0.3928 -0.4650
 3994SOL    HW123444   2.780   1.658  10.052  2.2601 -2.0746  1.2238
 3994SOL    HW223445   2.868   1.763  10.045  0.7028 -1.9739 -1.2155
 3995SOL     OW23446   2.664   4.173   3.837  0.1834  0.9147  0.2368
 3995SOL    HW123447   2.664   4.131   3.751 -0.1202  0.4314  0.4792
 3995SOL    HW223448   2.752   4.155   3.871 -0.2358 -1.3088  0.0762
 3996SOL     OW23449   2.078   0.626   8.914  0.4631  0.0164  0.3081
 3996SOL    HW123450   2.013   0.656   8.977 -1.1349 -4.0917  0.6044
 3996SOL    HW223451   2.151   0.647   8.973 -0.1327  1.4657  0.5133
 3997SOL     OW23452   4.664   1.508   2.836  0.1190  0.1363 -0.4530
 3997SOL    HW123453   4.693   1.420   2.813  0.0132  0.1921 -0.8013
 3997SOL    HW223454   0.009   1.548   2.781 -0.4915  0.4803 -0.9384
 3998SOL     OW23455   4.012   3.315   2.503  0.2185 -0.5026 -0.3121
 3998SOL    HW123456   3.981   3.315   2.412 -1.4800  0.0255  0.2667
 3998SOL    HW223457   3.984   3.231   2.537 -1.5019  1.4456  3.0268
 3999SOL     OW23458   0.529   4.489   5.108 -0.2919 -0.3226 -0.3407
 3999SOL    HW123459   0.501   4.575   5.075  1.3632 -0.0930 -1.1409
 3999SOL    HW223460   0.579   4.459   5.032 -0.3322 -1.6901  0.1748
 4000SOL     OW23461   0.964   2.880   2.185  0.2827 -0.2993  0.3240
 4000SOL    HW123462   1.008   2.913   2.106 -1.4159 -1.4652 -1.1241
 4000SOL    HW223463   0.966   2.789   2.156 -2.4171 -0.5928  1.0484
 4001SOL     OW23464   2.985   3.093  16.678  0.4770 -0.0594  0.0596
 4001SOL    HW123465   3.030   3.162  16.727 -0.6400  0.2606  0.6356
 4001SOL    HW223466   3.047   3.093  16.605  0.2865 -1.2071 -0.1044
 4002SOL     OW23467   0.380   3.066   7.145  0.2905  0.1347 -0.1836
 4002SOL    HW123468   0.328   3.095   7.069 -0.3966 -0.1107  0.1873
 4002SOL    HW223469   0.317   3.029   7.207 -1.0686  0.4363 -1.3638
 4003SOL     OW23470   0.669   4.467  12.355  0.3212  0.3393 -0.1906
 4003SOL    HW123471   0.634   4.415  12.283  1.1350  0.6317 -0.7931
 4003SOL    HW223472   0.586   4.514  12.364  0.4617  0.8192 -1.3714
 4004SOL     OW23473   2.281   2.403   3.015  0.2139 -0.6300  0.0450
 4004SOL    HW123474   2.235   2.466   2.960  0.9857 -2.1779 -2.3814
 4004SOL    HW223475   2.364   2.450   3.026 -0.9170  1.4938 -0.3775
 4005SOL     OW23476   3.582   2.193   2.318  0.0001 -0.3918  0.2002
 4005SOL    HW123477   3.491   2.174   2.295 -0.4066  1.4308  0.3302
 4005SOL    HW223478   3.584   2.176   2.412 -1.4470  0.1258  0.3198
 4006SOL     OW23479   1.476   4.177   5.004 -0.1036 -0.1579 -0.1193
 4006SOL    HW123480   1.466   4.250   4.943 -1.7371 -0.5440 -0.3120
 4006SOL    HW223481   1.460   4.228   5.084 -0.6321 -3.2150  1.7236
 4007SOL     OW23482   0.165   1.035   8.986 -0.0217 -0.2278 -0.2131
 4007SOL    HW123483   0.226   1.034   8.912  2.9724 -0.8725  2.2519
 4007SOL    HW223484   0.223   1.018   9.061  2.1743  0.9700 -1.6416
 4008SOL     OW23485   0.986   2.543   0.105  0.0581  0.0127 -0.0554
 4008SOL    HW123486   0.933   2.464   0.095  0.2773 -0.0752 -0.5096
 4008SOL    HW223487   1.000   2.553   0.200  1.7418 -1.3102 -0.1718
 4009SOL     OW23488   3.059   2.563   9.532  0.2922 -0.5004  0.5821
 4009SOL    HW123489   3.092   2.636   9.479  0.0569 -1.8702 -1.4279
 4009SOL    HW223490   2.966   2.562   9.507  0.4467 -1.9918  0.0683
 4010SOL     OW23491   0.036   4.564   7.236 -0.3482 -0.2382  0.2961
 4010SOL    HW123492   0.097   4.581   7.165  0.0380  0.5791  0.8292
 4010SOL    HW223493   0.038   4.469   7.242 -0.5875 -0.3669 -1.6684
 4011SOL     OW23494   4.478   3.384  16.818 -0.7115  0.6334  0.1832
 4011SOL    HW123495   4.502   3.436  16.894  1.4883 -0.6287  0.3449
 4011SOL    HW223496   4.484   3.293  16.847 -1.9393  0.7649  0.8651
 4012SOL     OW23497   1.113   0.787   4.483  0.5225  0.5263  0.3737
 4012SOL    HW123498   1.102   0.877   4.515 -1.4156 -0.0374  1.2667
 4012SOL    HW223499   1.064   0.779   4.401  0.5119 -1.1158  0.5395
 4013SOL     OW23500   1.500   3.843  15.769 -0.2731 -0.1332  0.7397
 4013SOL    HW123501   1.421   3.877  15.812 -1.9814 -2.2053 -0.7802
 4013SOL    HW223502   1.518   3.911  15.704 -3.4023 -1.2671 -1.2826
 4014SOL     OW23503   3.837   0.707   4.740  0.0983 -0.3401  0.2682
 4014SOL    HW123504   3.795   0.710   4.654  0.3116  0.7206  0.1994
 4014SOL    HW223505   3.807   0.785   4.787  0.5202  0.0226 -0.0652
 4015SOL     OW23506   0.040   4.125  11.432  0.2243 -0.3320  0.5057
 4015SOL    HW123507   4.716   4.160  11.510  0.8470  1.9148 -0.1240
 4015SOL    HW223508   4.716   4.041  11.427 -2.3241  1.0285  0.4251
 4016SOL     OW23509   3.246   0.926   7.329 -0.3003  0.2844 -0.0112
 4016SOL    HW123510   3.337   0.915   7.302  0.0089 -2.7700  2.2259
 4016SOL    HW223511   3.221   0.992   7.265  1.4019 -0.0936 -1.0657
 4017SOL     OW23512   1.309   4.054   9.701  0.2612 -0.3076  0.9194
 4017SOL    HW123513   1.334   4.135   9.744  0.8617  0.4814 -0.9056
 4017SOL    HW223514   1.269   4.084   9.619  0.8142  1.2342  1.2198
 4018SOL     OW23515   3.888   4.030  13.103  0.3515  0.7483 -0.4262
 4018SOL    HW123516   3.973   3.986  13.106 -0.5793 -1.0068  0.0105
 4018SOL    HW223517   3.885   4.081  13.184  1.5875 -2.8909  1.8978
 4019SOL     OW23518   3.045   0.711   4.529  0.1230  0.0070 -0.3297
 4019SOL    HW123519   3.033   0.670   4.615  0.0017 -0.1929 -0.4424
 4019SOL    HW223520   3.047   0.803   4.555 -2.1931  0.1686 -0.7989
 4020SOL     OW23521   1.103   1.234  10.246  0.2005 -0.1924  0.6628
 4020SOL    HW123522   1.094   1.203  10.155 -0.0323 -0.6202  0.8300
 4020SOL    HW223523   1.013   1.236  10.280  0.2313  2.9580  0.5326
 4021SOL     OW23524   1.415   0.060   4.420 -0.0837 -0.2207 -0.0434
 4021SOL    HW123525   1.339   0.025   4.465 -1.5872 -0.5886 -2.9093
 4021SOL    HW223526   1.453   4.701   4.384  1.3931  0.7296 -0.6171
 4022SOL     OW23527   1.415   0.848   7.224  0.5471 -0.0129 -0.0816
 4022SOL    HW123528   1.486   0.829   7.285 -0.1535 -0.9306  0.4513
 4022SOL    HW223529   1.403   0.764   7.181  1.4097  0.7284 -1.7586
 4023SOL     OW23530   0.201   3.375   4.231  0.2139  0.5394  0.3755
 4023SOL    HW123531   0.273   3.313   4.243 -0.9029 -0.6002  1.2128
 4023SOL    HW223532   0.135   3.336   4.288 -0.9605  1.6223 -0.2408
 4024SOL     OW23533   1.567   1.789   5.341 -0.1610 -0.7602 -0.3644
 4024SOL    HW123534   1.557   1.752   5.253  1.5539  0.4546 -1.0727
 4024SOL    HW223535   1.657   1.820   5.338 -0.4749 -0.0995 -3.1969
 4025SOL     OW23536   1.183   1.797   2.791  0.3682  0.0051 -0.1702
 4025SOL    HW123537   1.116   1.808   2.857  0.3855 -0.5262 -0.0617
 4025SOL    HW223538   1.242   1.733   2.830 -0.2621 -1.6830 -1.9661
 4026SOL     OW23539   1.514   1.212   0.358  0.2806  0.5631 -0.3240
 4026SOL    HW123540   1.480   1.147   0.297  0.2745  0.4003 -0.1441
 4026SOL    HW223541   1.538   1.150   0.427  2.2438  2.3874  0.6295
 4027SOL     OW23542   4.530   4.251  16.094 -0.4581 -0.0612  0.5567
 4027SOL    HW123543   4.439   4.245  16.123 -0.7895  0.8193 -0.2744
 4027SOL    HW223544   4.534   4.332  16.043  1.5188 -0.2967  0.3748
 4028SOL     OW23545   3.939   1.970   0.890  0.1481  0.2194  0.1026
 4028SOL    HW123546   3.940   1.881   0.855 -0.0251  0.6713 -1.0391
 4028SOL    HW223547   3.957   1.958   0.983  2.3529  1.3136 -0.1751
 4029SOL     OW23548   3.679   0.857   6.664 -0.8372 -0.2152 -0.4060
 4029SOL    HW123549   3.659   0.839   6.572  1.2179 -0.6058 -0.7728
 4029SOL    HW223550   3.686   0.769   6.700 -1.0013  0.4609  1.2616
 4030SOL     OW23551   0.242   4.451   0.202 -0.1893  0.4745 -0.4782
 4030SOL    HW123552   0.288   4.532   0.182  1.2898 -0.3834 -0.5246
 4030SOL    HW223553   0.275   4.437   0.291 -1.1825  1.0562 -0.0220
 4031SOL     OW23554   2.208   0.533   3.144 -0.4783 -0.1232  0.2375
 4031SOL    HW123555   2.193   0.608   3.202 -1.6453 -1.3428  1.4911
 4031SOL    HW223556   2.290   0.568   3.108 -1.8671  1.7841 -1.0857
 4032SOL     OW23557   1.087   0.784   9.876  0.0169 -0.0610 -0.9705
 4032SOL    HW123558   1.150   0.752   9.941 -1.2674 -0.3489  0.1129
 4032SOL    HW223559   1.054   0.703   9.837 -0.0267  0.7166 -2.5754
 4033SOL     OW23560   1.777   2.417   6.429  0.3028 -0.0763 -0.2699
 4033SOL    HW123561   1.837   2.345   6.412 -0.1970 -0.5759  0.0808
 4033SOL    HW223562   1.702   2.373   6.470 -1.4608  2.9189 -0.2297
 4034SOL     OW23563   0.433   2.541   2.301 -0.0905  0.1706 -0.0529
 4034SOL    HW123564   0.522   2.552   2.265 -0.4592  0.4392 -0.8824
 4034SOL    HW223565   0.394   2.628   2.298  1.5040  0.9548  1.7298
 4035SOL     OW23566   1.638   0.610  17.523  0.2756 -0.1157  0.1073
 4035SOL    HW123567   1.554   0.653  17.542  0.9542  1.9199 -1.5137
 4035SOL    HW223568   1.610   0.556  17.450  1.2102 -2.9568  1.8570
 4036SOL     OW23569   3.717   3.444   8.533  0.7048 -0.2849 -0.0388
 4036SOL    HW123570   3.733   3.354   8.563  0.8391 -0.1665  0.2375
 4036SOL    HW223571   3.786   3.498   8.570  1.0964  0.4833 -1.8890
 4037SOL     OW23572   0.135   2.682   5.949  0.1612 -0.4044 -0.3096
 4037SOL    HW123573   0.048   2.710   5.977  0.4677  2.7362 -2.3818
 4037SOL    HW223574   0.190   2.752   5.983 -0.8241 -0.0246  0.5031
 4038SOL     OW23575   4.253   2.002  16.514  0.4148  0.2179  0.1548
 4038SOL    HW123576   4.284   2.027  16.427  0.1714 -0.2879 -0.0789
 4038SOL    HW223577   4.336   2.005  16.561  0.7431 -1.6478 -0.3067
 4039SOL     OW23578   4.200   3.669   8.871 -0.4390  0.2401 -0.4026
 4039SOL    HW123579   4.214   3.589   8.922  0.7581  0.3458 -0.5619
 4039SOL    HW223580   4.130   3.700   8.929  1.3851 -0.0523  1.9396
 4040SOL     OW23581   0.577   4.177   2.962 -0.0931 -0.0409  0.3128
 4040SOL    HW123582   0.545   4.156   2.874  0.1000  1.2008 -0.0474
 4040SOL    HW223583   0.670   4.190   2.940  0.0430 -1.7444 -0.1883
 4041SOL     OW23584   4.005   3.201   8.378 -0.0210  0.0636 -0.1407
 4041SOL    HW123585   4.051   3.229   8.298  2.0169 -0.3828  0.8699
 4041SOL    HW223586   3.984   3.284   8.419  0.5796  1.6886 -3.1382
 4042SOL     OW23587   2.112   1.988   1.374  0.0731 -0.0617  0.4156
 4042SOL    HW123588   2.164   2.068   1.383 -1.9907  1.3974 -0.7946
 4042SOL    HW223589   2.035   2.017   1.422  1.2768  2.0707  1.0676
 4043SOL     OW23590   1.177   3.069  16.412 -0.4251 -0.2058 -0.0583
 4043SOL    HW123591   1.213   3.156  16.393  0.3521 -0.7246 -0.9449
 4043SOL    HW223592   1.196   3.058  16.505 -2.5578  1.0390  0.5362
 4044SOL     OW23593   3.039   1.720   9.891 -0.2481 -0.3105  0.1041
 4044SOL    HW123594   3.086   1.644   9.925  1.9762  1.5305  1.1740
 4044SOL    HW223595   3.109   1.784   9.902 -1.8572  1.3932  0.3915
 4045SOL     OW23596   1.104   3.094   0.572  0.7557  0.6485 -0.0894
 4045SOL    HW123597   1.099   3.154   0.497 -1.5945 -0.2339 -0.6636
 4045SOL    HW223598   1.179   3.127   0.621 -0.7628  0.4680  2.3751
 4046SOL     OW23599   2.275   1.815  13.056  0.8943  0.8430 -0.0415
 4046SOL    HW123600   2.277   1.868  13.135  0.8467  0.5526  0.1536
 4046SOL    HW223601   2.217   1.866  13.000 -0.8748 -0.9084  0.1769
 4047SOL     OW23602   2.685   2.866   8.372 -0.1311 -0.0847  0.1808
 4047SOL    HW123603   2.630   2.823   8.306 -1.7223 -0.8756  1.9998
 4047SOL    HW223604   2.657   2.821   8.452  0.5748 -1.3330 -0.2722
 4048SOL     OW23605   2.835   4.667   6.018  0.7113 -0.6090 -0.5942
 4048SOL    HW123606   2.883   4.594   6.056 -1.4782 -1.1320  1.1528
 4048SOL    HW223607   2.810   4.626   5.936  1.4083  1.5714 -1.9049
 4049SOL     OW23608   2.039   3.601   4.261 -1.3453 -0.0778  0.9465
 4049SOL    HW123609   2.079   3.688   4.255 -0.1892 -0.6007  1.0168
 4049SOL    HW223610   2.119   3.551   4.246  0.4124  2.6457  1.1986
 4050SOL     OW23611   3.380   2.581   7.582 -0.6930 -0.2749 -0.0231
 4050SOL    HW123612   3.338   2.665   7.598  0.2404  0.7074 -2.7101
 4050SOL    HW223613   3.375   2.572   7.487  1.0888  2.4483 -0.3577
 4051SOL     OW23614   1.340   0.981   4.220 -0.6630  0.3064  0.0703
 4051SOL    HW123615   1.407   1.025   4.168 -1.8145 -0.3287 -1.9675
 4051SOL    HW223616   1.349   0.890   4.191 -0.8009  0.0971  0.6847
 4052SOL     OW23617   3.193   2.457   8.543  0.2524 -0.9838 -0.2477
 4052SOL    HW123618   3.099   2.476   8.541  0.2919 -0.9579 -2.7229
 4052SOL    HW223619   3.211   2.395   8.614  1.1510 -0.8203 -0.3324
 4053SOL     OW23620   2.295   0.293   9.477 -0.0155  0.1554 -0.3212
 4053SOL    HW123621   2.358   0.247   9.422  1.0516  0.9274  0.2354
 4053SOL    HW223622   2.212   0.279   9.433  0.2744  2.2978 -1.5496
 4054SOL     OW23623   3.827   3.044  13.220 -0.1147 -0.1662 -0.1044
 4054SOL    HW123624   3.767   3.104  13.176 -0.0437 -1.7737 -2.4155
 4054SOL    HW223625   3.913   3.075  13.193  0.5571  0.8444  3.2387
 4055SOL     OW23626   3.434   2.453   6.338  0.2785  0.9086  0.3537
 4055SOL    HW123627   3.513   2.453   6.391 -0.9571 -0.0899  2.2067
 4055SOL    HW223628   3.394   2.372   6.373 -0.0771  0.9637  0.0800
 4056SOL     OW23629   4.270   2.985   7.461 -0.3556 -0.9665 -0.0291
 4056SOL    HW123630   4.202   3.031   7.511  1.0275  0.3740  0.5868
 4056SOL    HW223631   4.230   2.901   7.438 -0.9636 -1.1279  1.6043
 4057SOL     OW23632   4.227   3.491   3.542 -0.2028 -0.7208  0.3137
 4057SOL    HW123633   4.211   3.473   3.449  1.5993  1.1197 -0.3602
 4057SOL    HW223634   4.320   3.510   3.533 -0.3253  0.0042  0.6224
 4058SOL     OW23635   4.189   3.542   1.296  0.2936 -0.3678  0.7575
 4058SOL    HW123636   4.256   3.609   1.283 -2.5192  2.3263  0.3679
 4058SOL    HW223637   4.240   3.462   1.279  0.6706 -0.4248  2.1639
 4059SOL     OW23638   0.831   4.360   3.866 -0.3617 -0.0968  0.3001
 4059SOL    HW123639   0.859   4.287   3.811  0.0158  0.7272 -0.6012
 4059SOL    HW223640   0.815   4.315   3.949  1.4673  0.3375  0.8783
 4060SOL     OW23641   2.451   1.551   3.547 -0.6804  0.9453 -0.1034
 4060SOL    HW123642   2.407   1.578   3.467  0.8533 -0.3965 -1.4055
 4060SOL    HW223643   2.531   1.603   3.538  0.1481 -0.3854 -0.3049
 4061SOL     OW23644   3.245   3.705   8.241 -0.3824 -0.6030 -0.6068
 4061SOL    HW123645   3.273   3.690   8.151  1.3919  0.0281 -0.1718
 4061SOL    HW223646   3.218   3.797   8.237 -0.0869 -0.5506 -1.3890
 4062SOL     OW23647   1.243   2.492  13.121 -0.1722  0.6663  0.3841
 4062SOL    HW123648   1.193   2.468  13.043 -0.7536  1.5960  0.4664
 4062SOL    HW223649   1.280   2.405  13.136  0.8667  1.1363  0.5614
 4063SOL     OW23650   1.613   1.605   2.976 -0.0220 -0.1649 -0.0360
 4063SOL    HW123651   1.694   1.572   2.938  0.5145 -0.3257  1.2757
 4063SOL    HW223652   1.614   1.692   2.935 -2.1777  0.1897  0.6460
 4064SOL     OW23653   4.049   1.327   8.050  0.0962 -0.2975  0.2423
 4064SOL    HW123654   4.126   1.290   8.093 -1.4272 -1.6532  1.8099
 4064SOL    HW223655   4.001   1.374   8.119  1.4770  0.3023  0.7894
 4065SOL     OW23656   1.937   2.017  16.087 -0.1804  0.4061  0.4161
 4065SOL    HW123657   1.891   2.082  16.139 -1.3170 -0.7594  0.8523
 4065SOL    HW223658   1.937   2.054  15.998 -2.4163 -1.2455 -0.2589
 4066SOL     OW23659   4.381   0.164   6.104  0.1337 -0.1429  0.4232
 4066SOL    HW123660   4.299   0.137   6.063  0.1959  0.3735 -0.0401
 4066SOL    HW223661   4.358   0.249   6.144  1.7524  0.1320  0.7818
 4067SOL     OW23662   3.090   4.153   8.112  0.3160  0.3551 -0.1497
 4067SOL    HW123663   3.076   4.192   8.198  0.1902 -3.3552  1.5240
 4067SOL    HW223664   3.010   4.179   8.066  0.8063  0.0958 -1.1700
 4068SOL     OW23665   0.136   3.043   7.287  0.9198  0.1631 -0.2627
 4068SOL    HW123666   0.159   2.989   7.363 -3.3198  0.8025  1.4433
 4068SOL    HW223667   0.132   3.130   7.326  0.5049 -0.2741  0.6560
 4069SOL     OW23668   4.071   0.589   4.846 -0.2183  0.2561 -0.3617
 4069SOL    HW123669   4.079   0.592   4.942 -0.3131  0.2454 -0.3533
 4069SOL    HW223670   3.991   0.642   4.842  0.3199  1.3106  2.3880
 4070SOL     OW23671   1.794   1.097  10.825 -0.4025 -0.1173  0.0356
 4070SOL    HW123672   1.749   1.084  10.742 -0.7812 -0.6704  0.3251
 4070SOL    HW223673   1.853   1.168  10.801 -2.0912  1.8222  1.6776
 4071SOL     OW23674   1.603   4.642  10.077 -0.3706 -0.6216 -0.4954
 4071SOL    HW123675   1.592   4.547  10.077 -0.7482 -0.5818 -0.7340
 4071SOL    HW223676   1.604   4.660   9.983  0.6873  1.2864 -0.1128
 4072SOL     OW23677   1.073   3.410  14.978  1.0051  0.0057 -0.2690
 4072SOL    HW123678   1.094   3.331  14.929  1.4262  0.7081 -1.2021
 4072SOL    HW223679   1.042   3.458  14.901 -1.2514 -1.4912 -0.2849
 4073SOL     OW23680   1.362   2.653   4.744 -0.0050 -0.4121 -0.0507
 4073SOL    HW123681   1.418   2.576   4.757  0.5572 -0.3070 -1.8955
 4073SOL    HW223682   1.350   2.654   4.649  0.4184 -0.2168 -0.1002
 4074SOL     OW23683   3.987   0.138  15.845  0.0136  0.8256 -0.3814
 4074SOL    HW123684   4.062   0.085  15.820  1.1732  1.1706  2.3361
 4074SOL    HW223685   3.965   0.168  15.757 -2.0394 -1.8037 -0.7409
 4075SOL     OW23686   0.560   3.446   2.865 -0.9046  0.2272  0.9625
 4075SOL    HW123687   0.579   3.461   2.957 -3.9792 -0.0999  1.6457
 4075SOL    HW223688   0.465   3.450   2.870 -0.9832 -2.0244  1.0905
 4076SOL     OW23689   1.384   2.325   8.751  0.1011 -0.0511  0.1548
 4076SOL    HW123690   1.297   2.352   8.721 -0.8761 -3.0402  0.3441
 4076SOL    HW223691   1.429   2.406   8.725 -3.1516  0.8008 -2.9171
 4077SOL     OW23692   1.342   3.619   6.351  0.0168  0.3362 -0.1146
 4077SOL    HW123693   1.269   3.563   6.377 -0.2223  0.5698 -0.2818
 4077SOL    HW223694   1.414   3.560   6.374 -0.0550  0.4646  0.4376
 4078SOL     OW23695   2.364   0.557   9.403 -0.6330  0.2006  0.3810
 4078SOL    HW123696   2.394   0.473   9.436  2.5242  1.7550  1.4769
 4078SOL    HW223697   2.270   0.551   9.424 -0.1833 -0.9498  2.0772
 4079SOL     OW23698   2.636   0.706  12.092 -0.0595 -0.0950  0.2445
 4079SOL    HW123699   2.617   0.761  12.168  0.2336  0.6043 -0.1920
 4079SOL    HW223700   2.581   0.628  12.101 -0.1983 -0.0365 -0.0770
 4080SOL     OW23701   0.073   2.493   3.790  0.0405  0.1765 -0.2247
 4080SOL    HW123702   0.021   2.531   3.719  1.8599 -1.2333 -2.3288
 4080SOL    HW223703   0.158   2.537   3.780 -0.3624  0.8285 -0.8002
 4081SOL     OW23704   4.065   4.576   2.347 -0.0170  0.1821  0.6596
 4081SOL    HW123705   3.970   4.587   2.342  0.1917  0.5040 -2.6226
 4081SOL    HW223706   4.086   4.668   2.362 -0.8716  0.0020  2.9575
 4082SOL     OW23707   2.943   1.192  12.878 -0.3883  0.1604 -0.0581
 4082SOL    HW123708   3.020   1.165  12.929  0.4788  0.1915 -1.3339
 4082SOL    HW223709   2.936   1.120  12.815  0.8945  0.0629 -0.1059
 4083SOL     OW23710   3.420   1.286   7.568  0.3556  0.1706 -0.0070
 4083SOL    HW123711   3.485   1.229   7.528  0.5859  2.3500 -2.6974
 4083SOL    HW223712   3.483   1.342   7.614 -0.0492  0.6232 -0.0088
 4084SOL     OW23713   3.615   3.072   3.057 -0.3718 -0.1662  0.1980
 4084SOL    HW123714   3.677   3.091   3.128  0.0208 -0.0563 -0.1795
 4084SOL    HW223715   3.567   3.154   3.050  0.6900  0.2840 -1.7635
 4085SOL     OW23716   3.834   0.142   0.789 -0.2191 -0.3210 -0.1133
 4085SOL    HW123717   3.769   0.095   0.737  0.1918 -0.1446 -0.7913
 4085SOL    HW223718   3.819   0.108   0.877  0.1090 -1.4001 -0.4730
 4086SOL     OW23719   2.380   0.038  10.086  0.1526 -0.6064  0.6328
 4086SOL    HW123720   2.414   4.711  10.011 -3.4565 -0.0948 -1.3478
 4086SOL    HW223721   2.290   0.024  10.056  0.4822 -1.7018  0.1877
 4087SOL     OW23722   3.388   1.767  12.214 -0.0047  0.2720  0.1688
 4087SOL    HW123723   3.315   1.715  12.249  0.4081  0.3118  1.0998
 4087SOL    HW223724   3.385   1.845  12.270 -3.1897  0.1254  0.2043
 4088SOL     OW23725   4.416   3.918   4.981  0.5625  0.2235  0.1160
 4088SOL    HW123726   4.459   3.951   5.060  2.1165  0.1966 -0.7188
 4088SOL    HW223727   4.447   3.977   4.912  0.6358 -1.0287 -0.9163
 4089SOL     OW23728   1.923   1.861  13.193  0.0024  0.0494  0.7387
 4089SOL    HW123729   1.981   1.807  13.247  0.1070 -0.0114  0.5692
 4089SOL    HW223730   1.839   1.816  13.201  0.4833 -1.0582 -0.3852
 4090SOL     OW23731   2.458   4.220   7.912 -0.2806  0.0011  0.2164
 4090SOL    HW123732   2.528   4.186   7.967  0.5870  1.6369  0.1413
 4090SOL    HW223733   2.486   4.310   7.892  0.5519 -0.3487 -0.1925
 4091SOL     OW23734   2.262   3.772   2.475  0.3451 -0.0521  0.5008
 4091SOL    HW123735   2.179   3.768   2.429 -0.3257  2.0980  1.5360
 4091SOL    HW223736   2.312   3.823   2.411  0.1910  2.3087  2.2525
 4092SOL     OW23737   1.189   0.527   8.915  0.1302  0.0221 -0.4499
 4092SOL    HW123738   1.100   0.493   8.923 -1.2496  4.3731  2.4347
 4092SOL    HW223739   1.243   0.453   8.945 -0.7580 -0.4121  0.0652
 4093SOL     OW23740   1.415   3.459  10.710  0.0577 -0.2359  0.1625
 4093SOL    HW123741   1.476   3.530  10.730  0.0621 -0.1960  0.0123
 4093SOL    HW223742   1.355   3.500  10.648  0.7378  0.5892  0.0471
 4094SOL     OW23743   1.529   2.875   2.953  0.3697  0.0593 -0.3672
 4094SOL    HW123744   1.572   2.833   3.028  1.0126 -1.2369 -1.4730
 4094SOL    HW223745   1.491   2.806   2.900 -1.1691 -0.3722  1.2884
 4095SOL     OW23746   2.807   2.583   7.884  0.0358  0.5350  0.1510
 4095SOL    HW123747   2.786   2.501   7.929  1.8107 -0.7795 -1.4187
 4095SOL    HW223748   2.786   2.642   7.956  0.3764 -1.1684  1.6403
 4096SOL     OW23749   4.386   3.141  15.607  0.6327  0.0614  0.0298
 4096SOL    HW123750   4.412   3.128  15.698 -0.7661 -1.7228  0.1789
 4096SOL    HW223751   4.342   3.225  15.619  1.2468  0.7038 -2.1087
 4097SOL     OW23752   1.930   2.658   4.189  0.3147  0.0802  0.3484
 4097SOL    HW123753   1.890   2.741   4.163 -1.1525 -0.7505 -0.0644
 4097SOL    HW223754   2.016   2.687   4.218  0.3527 -0.9961  1.3428
 4098SOL     OW23755   1.122   1.188   7.555 -0.2675 -0.1169 -0.2081
 4098SOL    HW123756   1.185   1.143   7.499  0.3436  0.7579 -0.2219
 4098SOL    HW223757   1.037   1.144   7.549  0.2779 -1.6037  2.7345
 4099SOL     OW23758   2.526   3.190   5.783  0.2612 -0.3706 -0.4567
 4099SOL    HW123759   2.559   3.244   5.855  0.5940 -0.1065 -0.8083
 4099SOL    HW223760   2.500   3.109   5.828  0.7348 -1.5959 -2.3755
 4100SOL     OW23761   4.704   4.158   3.106  0.4370 -0.5786 -0.1938
 4100SOL    HW123762   0.066   4.191   3.139  0.2470 -1.0947  0.7977
 4100SOL    HW223763   4.674   4.244   3.078  1.4378 -0.8380 -2.0851
 4101SOL     OW23764   1.232   2.528   5.924 -0.7034  0.2018  0.3808
 4101SOL    HW123765   1.307   2.537   5.983 -0.9724  0.3140  0.7017
 4101SOL    HW223766   1.228   2.618   5.893 -0.1619  0.7526  1.8900
 4102SOL     OW23767   4.347   4.024  15.710  0.0660 -0.1529  0.1681
 4102SOL    HW123768   4.264   4.010  15.755  0.4621  1.5732  1.4330
 4102SOL    HW223769   4.396   4.049  15.789  0.2934  1.4168 -0.4597
 4103SOL     OW23770   1.319   1.769   7.912  0.2055  0.1679 -0.4642
 4103SOL    HW123771   1.381   1.827   7.869 -0.7070  1.5410  0.0589
 4103SOL    HW223772   1.366   1.727   7.984 -1.3104  0.8448  0.9234
 4104SOL     OW23773   3.206   0.106  15.044  0.1907 -0.0827 -0.4707
 4104SOL    HW123774   3.297   0.131  15.036 -0.2203  1.9180  1.0990
 4104SOL    HW223775   3.189   0.120  15.137 -0.1648  0.7725 -0.6705
 4105SOL     OW23776   0.610   4.090   0.300  0.2288  0.0795  0.0563
 4105SOL    HW123777   0.639   4.060   0.385  0.1168 -0.2979 -0.0382
 4105SOL    HW223778   0.615   4.015   0.241 -2.0074 -0.0014 -0.0441
 4106SOL     OW23779   4.209   3.424   5.333  0.0376  0.2862 -0.0095
 4106SOL    HW123780   4.286   3.408   5.279  0.9400 -0.8123  1.6139
 4106SOL    HW223781   4.222   3.502   5.388 -1.7802  2.5065 -2.7401
 4107SOL     OW23782   1.578   4.091   8.627  0.8909 -0.4748 -0.0216
 4107SOL    HW123783   1.538   4.145   8.695 -2.4367 -1.3691 -1.2565
 4107SOL    HW223784   1.667   4.078   8.660 -0.6647 -2.7012  3.3767
 4108SOL     OW23785   3.963   1.197   2.688 -0.3761 -0.7708  0.4078
 4108SOL    HW123786   3.915   1.267   2.643 -0.9145 -1.5181 -0.1811
 4108SOL    HW223787   4.040   1.171   2.638  0.5843 -0.4095  1.6921
 4109SOL     OW23788   0.381   3.774  13.415  0.3251 -0.4501 -0.4219
 4109SOL    HW123789   0.425   3.706  13.363 -0.6676 -1.2075 -0.2740
 4109SOL    HW223790   0.290   3.745  13.402  0.4732 -0.2392 -1.9253
 4110SOL     OW23791   2.764   0.971   5.274 -0.0622  0.2417 -0.1774
 4110SOL    HW123792   2.787   1.000   5.362 -0.1477 -1.4541  0.3852
 4110SOL    HW223793   2.834   1.007   5.219 -3.0560  2.0635 -2.8271
 4111SOL     OW23794   4.213   1.970   8.388  0.5211  0.0230  0.4032
 4111SOL    HW123795   4.206   2.048   8.334  0.1564 -0.0937  0.2817
 4111SOL    HW223796   4.220   1.999   8.479 -0.3230  1.5231 -0.0238
 4112SOL     OW23797   1.715   0.803   4.227 -0.3147 -0.2452  0.0104
 4112SOL    HW123798   1.669   0.743   4.285  0.1501  0.2550  0.9025
 4112SOL    HW223799   1.790   0.832   4.279 -1.3306 -1.7932  2.3415
 4113SOL     OW23800   4.100   3.792   1.754  0.0781  0.1296  0.2507
 4113SOL    HW123801   4.124   3.880   1.782 -1.9338  1.4666 -2.2731
 4113SOL    HW223802   4.187   3.753   1.751 -0.6171 -1.3604 -0.5848
 4114SOL     OW23803   2.398   2.955   9.571  0.1009  0.0314  0.5613
 4114SOL    HW123804   2.429   3.045   9.564 -0.2415  0.1578  0.6531
 4114SOL    HW223805   2.414   2.935   9.478 -2.2368 -1.2205  0.4005
 4115SOL     OW23806   4.365   1.618   3.112 -0.1524  0.2018  0.4013
 4115SOL    HW123807   4.357   1.523   3.102 -0.7766  0.2077  0.8245
 4115SOL    HW223808   4.277   1.649   3.089  0.9082  1.6580 -1.6494
 4116SOL     OW23809   2.970   0.097   0.003  0.1409  0.0654  0.3840
 4116SOL    HW123810   2.966   0.147  17.608 -1.3233 -0.8420 -0.1029
 4116SOL    HW223811   3.001   0.164   0.063 -3.4588  2.2794 -0.2297
 4117SOL     OW23812   0.681   2.930  14.441 -0.1218  0.5167 -0.3222
 4117SOL    HW123813   0.590   2.934  14.470 -0.2700 -4.4410 -0.1322
 4117SOL    HW223814   0.726   2.885  14.513  2.1699 -0.6637 -2.4805
 4118SOL     OW23815   1.973   4.291  16.000  0.1530 -0.2976 -0.0940
 4118SOL    HW123816   1.878   4.287  16.010  0.0796  0.1487 -0.6097
 4118SOL    HW223817   1.989   4.197  16.006  0.6191 -0.1767  0.5979
 4119SOL     OW23818   4.568   0.785   7.151  0.5465  0.1238  0.5499
 4119SOL    HW123819   4.592   0.862   7.099 -2.6011 -0.4799 -1.7429
 4119SOL    HW223820   4.551   0.817   7.240  0.0902  1.5974 -0.0646
 4120SOL     OW23821   3.134   0.408   8.423 -0.4964 -0.6363  0.2718
 4120SOL    HW123822   3.225   0.435   8.416 -1.3200  1.2601 -3.0427
 4120SOL    HW223823   3.105   0.417   8.332 -0.8028 -0.8332  0.3505
 4121SOL     OW23824   0.507   3.768   6.691  0.3011 -0.1622 -0.3634
 4121SOL    HW123825   0.422   3.757   6.734 -0.3223 -0.0026 -1.5649
 4121SOL    HW223826   0.534   3.840   6.749  0.7987 -1.6276  1.2280
 4122SOL     OW23827   2.219   3.786  16.277 -0.0898  0.2216 -0.1440
 4122SOL    HW123828   2.236   3.857  16.215  1.0539  0.7038  0.7146
 4122SOL    HW223829   2.301   3.737  16.270 -0.7712 -0.8219 -0.6539
 4123SOL     OW23830   3.950   2.453   1.997 -0.0901  0.1906 -0.0044
 4123SOL    HW123831   3.972   2.422   2.084  0.1092 -0.1729 -0.1838
 4123SOL    HW223832   3.864   2.492   2.011 -0.0768  0.4433 -0.6079
 4124SOL     OW23833   2.232   1.242   5.568  0.4120 -0.8023  0.1254
 4124SOL    HW123834   2.229   1.288   5.484  1.1318 -0.5115  0.2649
 4124SOL    HW223835   2.204   1.310   5.628 -1.5530 -0.8856 -0.6939
 4125SOL     OW23836   0.543   3.072   6.132 -0.0308 -0.3670 -0.0328
 4125SOL    HW123837   0.637   3.084   6.148 -0.1564  0.0429  0.3984
 4125SOL    HW223838   0.550   3.023   6.050  0.7448  0.1108 -0.2540
 4126SOL     OW23839   4.125   4.457   3.493  0.2977 -0.0641 -0.0536
 4126SOL    HW123840   4.172   4.448   3.410  1.2994  1.6020  0.3254
 4126SOL    HW223841   4.153   4.539   3.534 -0.7836  0.1653  0.2324
 4127SOL     OW23842   0.049   0.172   3.470  0.0463 -0.1152 -0.1992
 4127SOL    HW123843   4.713   0.117   3.523 -0.0100  0.2958  0.1682
 4127SOL    HW223844   0.112   0.201   3.536 -1.0467 -1.0716  1.2575
 4128SOL     OW23845   4.505   4.653   2.206 -0.3999 -0.2786 -0.0308
 4128SOL    HW123846   4.570   4.590   2.236 -0.1096 -0.6963 -1.5132
 4128SOL    HW223847   4.440   4.642   2.275  1.6966  0.3168  2.0386
 4129SOL     OW23848   2.094   3.127   9.310  0.1391  0.3318 -0.2206
 4129SOL    HW123849   2.131   3.053   9.262 -1.4605 -0.8793  0.4244
 4129SOL    HW223850   2.001   3.110   9.293 -0.3968  1.4732  1.5665
 4130SOL     OW23851   0.927   3.787   3.491 -0.0078  0.0330  0.1018
 4130SOL    HW123852   0.982   3.758   3.564 -1.0634 -1.8003  0.1696
 4130SOL    HW223853   0.880   3.704   3.485 -1.3055  0.7909 -0.5032
 4131SOL     OW23854   1.646   2.760   7.848 -0.0329  0.3276  0.0114
 4131SOL    HW123855   1.585   2.811   7.794  0.2264  0.7250  0.0943
 4131SOL    HW223856   1.644   2.669   7.818  2.1886 -0.6037  2.7564
 4132SOL     OW23857   3.047   2.440   5.433  0.5194  0.2919  0.3320
 4132SOL    HW123858   2.964   2.488   5.439  0.4718  0.3660 -0.9410
 4132SOL    HW223859   3.054   2.391   5.515  2.0066  0.4944  0.3198
 4133SOL     OW23860   4.018   0.158   8.728 -0.1446  0.4688 -0.1001
 4133SOL    HW123861   4.068   0.160   8.646 -1.7602  1.4829 -1.0560
 4133SOL    HW223862   4.084   0.171   8.797 -0.5106  0.2596  0.2936
 4134SOL     OW23863   3.904   1.116   9.530  0.1229  0.2102  0.2595
 4134SOL    HW123864   3.922   1.088   9.441  0.8743  1.0546  0.1447
 4134SOL    HW223865   3.947   1.201   9.525  0.4071  0.0319 -0.3083
 4135SOL     OW23866   2.992   1.865   4.496  0.8402 -0.0351  0.6909
 4135SOL    HW123867   3.008   1.861   4.591  0.7583 -0.0620  0.7035
 4135SOL    HW223868   3.013   1.952   4.461  0.4374  1.2206  3.5584
 4136SOL     OW23869   2.252   2.168  11.982 -0.0287  0.0709  0.0538
 4136SOL    HW123870   2.309   2.152  11.906  1.5236  0.4870  1.1248
 4136SOL    HW223871   2.209   2.251  11.962 -0.5672  0.2681  2.0624
 4137SOL     OW23872   1.348   0.673   1.758 -0.3845  0.1917  0.4702
 4137SOL    HW123873   1.394   0.592   1.778 -0.0687  0.1086 -0.6051
 4137SOL    HW223874   1.261   0.640   1.778 -0.0939 -1.0672 -0.3297
 4138SOL     OW23875   3.597   2.456  10.233  0.0673 -0.0413  0.2709
 4138SOL    HW123876   3.585   2.543  10.196  0.1472 -0.7345 -1.3852
 4138SOL    HW223877   3.677   2.426  10.190 -0.0893  0.7292 -0.5573
 4139SOL     OW23878   3.341   3.451  13.597 -0.5119  0.9985  0.2198
 4139SOL    HW123879   3.387   3.421  13.676  0.6721 -0.3350 -0.9747
 4139SOL    HW223880   3.365   3.388  13.529  0.8033  1.7060  0.0222
 4140SOL     OW23881   0.792   2.197  12.228  0.2229  0.6892  0.0216
 4140SOL    HW123882   0.734   2.210  12.153  1.9596  1.3717 -1.2041
 4140SOL    HW223883   0.730   2.158  12.290  0.4705 -1.7701 -1.2689
 4141SOL     OW23884   3.359   1.981  12.396  0.0348  0.1620  0.1827
 4141SOL    HW123885   3.282   1.957  12.447  0.0043  1.9569  1.0001
 4141SOL    HW223886   3.418   1.982  12.471  0.1647 -0.9694  0.0874
 4142SOL     OW23887   0.483   2.668   2.976  0.0081  1.1085  0.1971
 4142SOL    HW123888   0.538   2.697   3.049  1.0004 -0.1803 -0.0564
 4142SOL    HW223889   0.401   2.645   3.020  1.9968  2.1042  4.4621
 4143SOL     OW23890   2.512   3.836   3.882 -0.2284  0.2249  0.5029
 4143SOL    HW123891   2.468   3.774   3.823 -0.7169  1.6567 -0.6203
 4143SOL    HW223892   2.602   3.822   3.854 -1.1776 -2.5261 -1.2571
 4144SOL     OW23893   0.291   3.776  15.339  0.0491 -0.1889 -0.0374
 4144SOL    HW123894   0.320   3.828  15.264 -1.6645  2.2798  1.0231
 4144SOL    HW223895   0.343   3.696  15.330  0.4053 -0.0874  1.1741
 4145SOL     OW23896   3.685   2.313   4.443 -0.1452  0.1870 -0.0596
 4145SOL    HW123897   3.752   2.245   4.435 -1.5545 -1.0706 -1.1434
 4145SOL    HW223898   3.705   2.375   4.373 -1.6320  0.8687  0.1378
 4146SOL     OW23899   3.074   2.888  10.639  0.8697  0.1176 -0.2519
 4146SOL    HW123900   3.070   2.977  10.604  0.1500 -0.3011 -1.2626
 4146SOL    HW223901   2.993   2.854  10.600  1.4853 -0.8098 -0.7298
 4147SOL     OW23902   1.878   0.626   1.098  0.0922 -0.2017  0.3502
 4147SOL    HW123903   1.788   0.624   1.066 -0.4622 -0.1633  1.8872
 4147SOL    HW223904   1.875   0.550   1.156  1.5044 -1.6852 -1.5118
 4148SOL     OW23905   4.125   4.207   8.218  0.1615 -0.3026 -0.0938
 4148SOL    HW123906   4.061   4.274   8.195 -0.5969 -1.4104 -1.2038
 4148SOL    HW223907   4.207   4.253   8.198 -0.2129 -0.4887 -2.0712
 4149SOL     OW23908   0.796   1.964   4.165 -0.6894  0.5000  0.0981
 4149SOL    HW123909   0.887   1.936   4.182  0.1410  2.5301 -1.0323
 4149SOL    HW223910   0.784   1.945   4.072  1.4492  1.0526 -0.2959
 4150SOL     OW23911   3.433   1.147   9.117  0.2241  0.3316 -0.0940
 4150SOL    HW123912   3.357   1.092   9.099  0.3263  0.8098 -1.9524
 4150SOL    HW223913   3.403   1.202   9.189 -1.1883  0.1591 -0.5644
 4151SOL     OW23914   2.886   2.334   8.717 -0.0564  0.0557 -0.3223
 4151SOL    HW123915   2.908   2.242   8.734 -2.1006 -0.9574 -3.1348
 4151SOL    HW223916   2.897   2.370   8.804 -0.7785 -0.2218 -0.1152
 4152SOL     OW23917   1.802   1.792   4.651  0.6593 -0.4294 -1.2617
 4152SOL    HW123918   1.855   1.778   4.729 -2.6478  1.2230  1.2537
 4152SOL    HW223919   1.843   1.733   4.588 -0.4008 -3.2747  0.7106
 4153SOL     OW23920   0.570   0.824  16.932 -0.0799 -0.8618  0.1441
 4153SOL    HW123921   0.657   0.820  16.892  0.4548 -0.6156  1.2908
 4153SOL    HW223922   0.501   0.847  16.869  0.0100 -0.4017  0.2134
 4154SOL     OW23923   1.982   1.826  12.914  0.2809  0.3158  0.8151
 4154SOL    HW123924   1.975   1.845  13.008 -0.4992  2.3648  0.3309
 4154SOL    HW223925   1.924   1.752  12.897  1.4818 -0.6412  0.9147
 4155SOL     OW23926   3.533   0.378   8.860  0.3083  0.2638 -0.0843
 4155SOL    HW123927   3.473   0.413   8.794 -2.7173 -2.3095  1.2853
 4155SOL    HW223928   3.616   0.364   8.814 -0.3413 -0.3398 -1.0534
 4156SOL     OW23929   4.321   3.958   4.335 -0.3313  0.3532 -0.1770
 4156SOL    HW123930   4.354   3.868   4.335 -0.3060  0.3614  0.1146
 4156SOL    HW223931   4.258   3.941   4.406  0.4048  0.9698  0.6367
 4157SOL     OW23932   0.341   4.153   5.762 -0.2786 -0.5631  0.1193
 4157SOL    HW123933   0.317   4.139   5.854  0.0983 -0.5156  0.2223
 4157SOL    HW223934   0.258   4.193   5.736  0.4302 -0.0657 -1.3678
 4158SOL     OW23935   4.049   4.120  17.504 -0.1066 -0.0751 -0.1891
 4158SOL    HW123936   4.083   4.147  17.589 -0.7877 -0.5822  0.2478
 4158SOL    HW223937   4.003   4.201  17.481 -0.7828 -0.9213 -1.8858
 4159SOL     OW23938   3.710   4.719  16.787 -0.6034  0.0613  0.5601
 4159SOL    HW123939   3.754   4.674  16.859 -2.4864  1.0421  2.3134
 4159SOL    HW223940   3.627   0.021  16.828 -1.5822 -1.0449 -0.7935
 4160SOL     OW23941   1.969   0.927   5.853 -0.8071  0.1712 -0.5383
 4160SOL    HW123942   1.908   1.000   5.839 -0.1626  0.8769  0.2644
 4160SOL    HW223943   2.035   0.943   5.786  0.1711  1.1981  0.6615
 4161SOL     OW23944   0.931   2.056   4.484  0.4874 -0.6658 -0.0564
 4161SOL    HW123945   0.922   1.965   4.458  0.8774 -1.3802  2.2391
 4161SOL    HW223946   1.020   2.066   4.451  0.7460  0.5504  0.9893
 4162SOL     OW23947   3.267   3.345   9.495 -0.1694  0.4700  0.4570
 4162SOL    HW123948   3.347   3.306   9.530 -0.4113  0.1143  0.6162
 4162SOL    HW223949   3.204   3.298   9.550 -2.7104  2.4692 -0.7626
 4163SOL     OW23950   3.422   4.701   3.220  0.1068  0.6511  0.2486
 4163SOL    HW123951   3.501   4.688   3.272 -1.4456  0.3825  2.5524
 4163SOL    HW223952   3.409   0.074   3.229  0.7373  0.9046 -1.5806
 4164SOL     OW23953   1.534   4.546   2.991 -0.4619  0.5683 -0.8465
 4164SOL    HW123954   1.601   4.510   2.933  0.1994 -1.4838  1.2229
 4164SOL    HW223955   1.512   4.626   2.943 -2.4633 -0.4367 -1.6162
 4165SOL     OW23956   0.930   3.957  15.280  0.0472  0.3035 -0.4776
 4165SOL    HW123957   0.937   3.877  15.228  0.7200  0.2762 -0.3453
 4165SOL    HW223958   0.864   3.935  15.346  1.3612 -2.1978  0.0142
 4166SOL     OW23959   1.760   2.830   5.155 -0.0769  0.3843  0.4688
 4166SOL    HW123960   1.778   2.865   5.067 -2.2942 -0.4446 -0.3314
 4166SOL    HW223961   1.745   2.909   5.207  3.7708  0.9177  0.7287
 4167SOL     OW23962   0.441   2.638   7.963  0.2086  0.2109 -0.1861
 4167SOL    HW123963   0.348   2.618   7.975  0.4393 -0.0381  1.1941
 4167SOL    HW223964   0.463   2.687   8.042  0.2346  1.7985 -1.1876
 4168SOL     OW23965   4.110   0.895   6.063 -0.0191 -0.0867 -0.8388
 4168SOL    HW123966   4.139   0.960   6.126 -1.3419 -0.3652  0.0471
 4168SOL    HW223967   4.192   0.849   6.044 -0.6770 -0.5422 -2.6573
 4169SOL     OW23968   4.178   0.506   6.590  0.5798  0.1933  0.0173
 4169SOL    HW123969   4.127   0.482   6.667 -0.3178  0.8125 -0.3710
 4169SOL    HW223970   4.267   0.479   6.612  0.2992 -0.5317  0.2643
 4170SOL     OW23971   3.313   3.401   5.098 -0.0806  0.0636 -0.5612
 4170SOL    HW123972   3.360   3.414   5.015 -0.2637  0.8102 -0.5531
 4170SOL    HW223973   3.258   3.324   5.082  0.4267 -0.3785 -0.1230
 4171SOL     OW23974   1.796   1.467   2.686 -0.0071  0.3358 -0.1069
 4171SOL    HW123975   1.814   1.548   2.733  1.6906  0.1209 -0.4026
 4171SOL    HW223976   1.729   1.495   2.624  0.2994 -1.3942 -1.1975
 4172SOL     OW23977   3.933   4.599   3.770 -0.2902  0.5651 -0.0466
 4172SOL    HW123978   3.906   4.596   3.678 -1.1602 -0.3628  0.2371
 4172SOL    HW223979   4.021   4.628   3.747 -0.5290  0.6612 -0.8462
 4173SOL     OW23980   0.420   4.027   3.151 -0.1568 -0.3033  0.0136
 4173SOL    HW123981   0.460   3.943   3.129 -1.2885 -0.7961 -0.1476
 4173SOL    HW223982   0.451   4.076   3.075 -0.4962  0.9661  0.6983
 4174SOL     OW23983   3.147   3.420   7.626 -0.0442  0.4582 -0.7997
 4174SOL    HW123984   3.204   3.400   7.551 -0.7591 -0.5860 -1.0677
 4174SOL    HW223985   3.069   3.371   7.601 -0.6939  1.1778 -0.1753
 4175SOL     OW23986   0.198   0.989   7.717  0.4853  0.2068 -0.1213
 4175SOL    HW123987   0.120   0.979   7.662 -0.9303  2.9875  1.3861
 4175SOL    HW223988   0.166   1.051   7.783  2.2792 -1.4137  2.2803
 4176SOL     OW23989   2.909   3.986   9.090 -0.0419  0.3571 -0.0247
 4176SOL    HW123990   2.871   4.038   9.161 -1.1240 -1.4737  0.7343
 4176SOL    HW223991   2.897   3.898   9.126 -0.3522  0.7190  0.7438
 4177SOL     OW23992   1.635   0.537   2.430  0.3442  0.1068 -0.1766
 4177SOL    HW123993   1.681   0.621   2.436 -0.9663  0.9281 -1.9589
 4177SOL    HW223994   1.696   0.496   2.368  0.8036  1.3109 -0.5264
 4178SOL     OW23995   3.539   0.347  12.412  0.0310 -0.6879  0.4082
 4178SOL    HW123996   3.578   0.430  12.384  0.4492 -1.2117 -0.5522
 4178SOL    HW223997   3.453   0.346  12.370  0.8373  1.2784 -1.2903
 4179SOL     OW23998   1.833   4.224  17.624 -0.0256  0.2214 -0.5489
 4179SOL    HW123999   1.894   4.297  17.633  1.9277 -1.5557  0.6345
 4179SOL    HW224000   1.772   4.261  17.560  0.2943  0.5636 -0.6560
 4180SOL     OW24001   3.632   4.303   8.116 -0.2788 -0.2074 -0.1128
 4180SOL    HW124002   3.608   4.301   8.209 -1.1216  1.8712 -0.2746
 4180SOL    HW224003   3.581   4.229   8.083  0.5707 -0.9316  0.1913
 4181SOL     OW24004   0.133   1.986   7.305 -0.5807  0.3449 -0.5133
 4181SOL    HW124005   0.076   1.960   7.377 -0.1152  2.5287  0.6587
 4181SOL    HW224006   0.142   1.903   7.258  1.1716 -0.2544  0.9347
 4182SOL     OW24007   1.180   0.084   8.418  0.0831 -0.2947 -0.1274
 4182SOL    HW124008   1.255   0.046   8.371 -0.3526 -1.5557  0.1999
 4182SOL    HW224009   1.210   0.091   8.508  1.1719 -0.0903 -0.5039
 4183SOL     OW24010   0.889   4.173  15.122 -0.1361 -0.0994 -0.4091
 4183SOL    HW124011   0.896   4.092  15.173  2.2769  1.2107  1.2920
 4183SOL    HW224012   0.906   4.241  15.187  0.0421 -0.0253 -0.5354
 4184SOL     OW24013   0.008   2.935  11.891 -0.1371 -0.0167 -0.3587
 4184SOL    HW124014   0.068   2.869  11.857  2.0970  1.8241  0.0095
 4184SOL    HW224015   0.050   2.986  11.960  1.6194 -1.3275 -0.4774
 4185SOL     OW24016   3.972   4.228   3.144  0.1569  0.2050  0.7023
 4185SOL    HW124017   4.038   4.186   3.088 -1.4648 -1.5510  0.1297
 4185SOL    HW224018   4.029   4.299   3.175 -1.3197  2.0021 -0.6753
 4186SOL     OW24019   0.564   2.927   4.125  0.2016  0.1706 -0.0005
 4186SOL    HW124020   0.570   2.862   4.055 -0.6988  1.4911 -1.2940
 4186SOL    HW224021   0.656   2.951   4.136  0.2288  0.3779 -0.6353
 4187SOL     OW24022   3.807   1.019  14.141  0.2312 -0.0919 -0.2145
 4187SOL    HW124023   3.729   0.971  14.172  1.2956 -2.0071 -0.5383
 4187SOL    HW224024   3.866   0.946  14.123 -1.7814 -2.7266  3.7213
 4188SOL     OW24025   4.574   3.242   5.343  0.2898  0.2538  0.4024
 4188SOL    HW124026   4.669   3.228   5.347  0.3873  0.6137 -0.7192
 4188SOL    HW224027   4.546   3.186   5.416 -1.1124  1.7991  1.0554
 4189SOL     OW24028   0.885   1.406   3.836 -0.0023  0.6380  0.3833
 4189SOL    HW124029   0.955   1.381   3.897  0.8654  2.6639  0.2198
 4189SOL    HW224030   0.907   1.362   3.754 -1.9829  0.2128  0.0841
 4190SOL     OW24031   3.190   1.914   8.115 -0.3132  0.2993  0.3840
 4190SOL    HW124032   3.189   2.010   8.117  1.8860  0.2545  2.7665
 4190SOL    HW224033   3.282   1.901   8.138 -0.5099 -0.3004  0.8214
 4191SOL     OW24034   4.059   3.023   7.661 -0.2859  0.0240 -0.2841
 4191SOL    HW124035   4.021   3.103   7.697  1.0420 -0.5395  2.3916
 4191SOL    HW224036   3.988   2.980   7.614 -0.0994  0.1615 -0.6920
 4192SOL     OW24037   0.481   4.111   5.378  0.0661  0.2982 -0.3696
 4192SOL    HW124038   0.503   4.018   5.372  0.6575  0.6263 -3.8283
 4192SOL    HW224039   0.493   4.128   5.284  2.4929  0.7748  0.0193
 4193SOL     OW24040   1.579   2.745   2.647  0.5117 -0.1725  0.2707
 4193SOL    HW124041   1.601   2.829   2.606  1.3801  0.4708  2.0387
 4193SOL    HW224042   1.637   2.682   2.604 -0.3734 -0.8810  0.1160
 4194SOL     OW24043   0.236   4.134  13.645  0.1943 -0.2208  0.3176
 4194SOL    HW124044   0.284   4.105  13.567 -0.4120  0.4411 -0.3103
 4194SOL    HW224045   0.272   4.222  13.655  0.2972 -0.1852 -0.3630
 4195SOL     OW24046   3.040   0.090   7.457  0.7813  1.0618 -0.0288
 4195SOL    HW124047   3.094   0.013   7.476 -1.0687 -0.5431 -1.2393
 4195SOL    HW224048   2.964   0.038   7.429  2.1111 -0.3799 -0.9274
 4196SOL     OW24049   2.854   1.661   5.133 -0.4245 -0.2153  0.2426
 4196SOL    HW124050   2.834   1.698   5.047  0.0853 -0.6780 -0.0710
 4196SOL    HW224051   2.771   1.657   5.181 -0.6592 -0.4952 -0.1921
 4197SOL     OW24052   2.267   0.475  15.315 -0.3570 -0.0275  0.6371
 4197SOL    HW124053   2.219   0.479  15.232 -0.9482 -2.2414  0.8691
 4197SOL    HW224054   2.301   0.386  15.308  0.4938  0.1409  2.5800
 4198SOL     OW24055   0.166   4.172   8.713 -0.4080  0.2956 -0.7441
 4198SOL    HW124056   0.164   4.098   8.652 -1.8117  1.3013 -1.9429
 4198SOL    HW224057   0.236   4.148   8.773  0.0700  0.0347 -1.4043
 4199SOL     OW24058   3.659   3.950   5.671 -0.4955 -0.0599 -0.0732
 4199SOL    HW124059   3.710   4.011   5.724 -0.5768 -0.1103  0.0614
 4199SOL    HW224060   3.635   3.884   5.736  1.8011 -1.3428 -0.5251
 4200SOL     OW24061   2.643   1.337   0.819  0.1907  0.2829  0.3545
 4200SOL    HW124062   2.702   1.397   0.774  0.7053 -0.7459 -0.3264
 4200SOL    HW224063   2.559   1.383   0.823 -1.6383 -2.8538 -1.9242
 4201SOL     OW24064   0.258   4.688   6.605  0.6160 -0.4941 -0.1478
 4201SOL    HW124065   0.186   0.024   6.629  0.5514 -0.1378 -1.2252
 4201SOL    HW224066   0.319   0.031   6.569 -0.1657 -0.4650 -1.4098
 4202SOL     OW24067   4.508   2.262   8.118 -0.3067  0.5148  0.3143
 4202SOL    HW124068   4.470   2.309   8.044 -1.9413 -0.4302  0.5426
 4202SOL    HW224069   4.448   2.195   8.152  0.8021 -1.2704 -1.2353
 4203SOL     OW24070   1.656   4.297  17.440  0.2606 -0.3720 -0.4405
 4203SOL    HW124071   1.620   4.386  17.440 -0.2141 -0.5585  0.4941
 4203SOL    HW224072   1.665   4.271  17.348  0.8978 -1.1730 -0.1446
 4204SOL     OW24073   0.255   3.336  14.160  0.2054  0.0852  0.9875
 4204SOL    HW124074   0.248   3.342  14.256 -0.4174  0.1439  0.9428
 4204SOL    HW224075   0.211   3.251  14.161  2.1143 -0.9161 -1.7236
 4205SOL     OW24076   3.742   4.191   5.766 -0.1499  0.1227 -0.0668
 4205SOL    HW124077   3.787   4.259   5.716  2.9472 -1.6020  0.3734
 4205SOL    HW224078   3.779   4.199   5.854 -0.0089  1.1946 -0.2261
 4206SOL     OW24079   2.600   0.549  11.791 -0.1017  0.0668 -0.2411
 4206SOL    HW124080   2.541   0.540  11.866  1.0841 -2.0563  0.4679
 4206SOL    HW224081   2.596   0.461  11.753 -1.5500 -0.3099  0.8088
 4207SOL     OW24082   1.944   1.160   2.432 -0.0939 -0.2621  0.5282
 4207SOL    HW124083   1.854   1.132   2.451  0.0376  0.2938  2.0169
 4207SOL    HW224084   1.947   1.184   2.340  1.9602 -0.0805  0.6343
 4208SOL     OW24085   2.229   1.993  15.873  0.6717  0.4725 -0.5231
 4208SOL    HW124086   2.213   2.081  15.909  0.5266  0.5544 -0.7869
 4208SOL    HW224087   2.174   1.998  15.794 -0.6652 -1.6332  0.2840
 4209SOL     OW24088   1.006   4.610  10.554  0.0018  0.0666  0.3276
 4209SOL    HW124089   0.982   4.523  10.521  1.3747 -0.4022  0.5711
 4209SOL    HW224090   1.078   4.633  10.495  0.8082 -0.8828  0.9385
 4210SOL     OW24091   1.114   3.537   7.834 -0.4649  0.4484 -0.3336
 4210SOL    HW124092   1.051   3.592   7.881 -0.2836 -0.0316  0.4736
 4210SOL    HW224093   1.061   3.461   7.808 -0.7128 -0.1682  2.0037
 4211SOL     OW24094   0.128   0.869   4.948  0.7151  0.0779 -0.3594
 4211SOL    HW124095   0.188   0.807   4.906 -0.5013 -2.2696  1.3687
 4211SOL    HW224096   0.130   0.843   5.040  3.3832  1.0354 -0.1452
 4212SOL     OW24097   0.195   1.722   4.271 -0.7042 -0.3138 -0.2098
 4212SOL    HW124098   0.194   1.636   4.229 -0.6836 -1.0719  1.3297
 4212SOL    HW224099   0.254   1.704   4.344  0.6143 -1.6067 -1.6141
 4213SOL     OW24100   0.834   3.619  11.725  0.3896 -0.5313  1.4756
 4213SOL    HW124101   0.791   3.582  11.648  0.4417  0.1933  1.1034
 4213SOL    HW224102   0.918   3.575  11.711  1.1090  1.6027 -1.0356
 4214SOL     OW24103   2.325   0.809   2.365  0.2357  0.3665  0.1748
 4214SOL    HW124104   2.269   0.883   2.391  0.4193  0.7413 -0.5045
 4214SOL    HW224105   2.288   0.793   2.278 -1.4559 -0.5088  1.0371
 4215SOL     OW24106   0.176   4.277   2.377  0.0561 -0.3591 -0.2135
 4215SOL    HW124107   0.162   4.185   2.352 -0.1021  0.0824 -1.7101
 4215SOL    HW224108   0.262   4.295   2.339  0.3473  1.8264  1.4884
 4216SOL     OW24109   0.798   2.298   6.005  0.4755 -0.0308 -0.7663
 4216SOL    HW124110   0.886   2.336   6.011  0.4013 -0.1008  0.8097
 4216SOL    HW224111   0.771   2.333   5.920 -0.8203  2.5578  0.7038
 4217SOL     OW24112   4.588   2.592   1.520 -0.0295  0.6068 -0.0839
 4217SOL    HW124113   4.646   2.562   1.450 -1.2388 -1.4291 -0.2104
 4217SOL    HW224114   4.558   2.507   1.550 -2.7614  0.5265 -3.1354
 4218SOL     OW24115   0.628   0.763  10.354 -0.0801  0.1275  0.2864
 4218SOL    HW124116   0.570   0.825  10.310 -0.2482  0.1226  0.4967
 4218SOL    HW224117   0.706   0.785  10.304 -0.3472  2.2743  0.8307
 4219SOL     OW24118   2.535   2.458   6.288  0.2774  0.4101 -0.5296
 4219SOL    HW124119   2.513   2.452   6.195  0.6582 -1.1221 -0.5315
 4219SOL    HW224120   2.566   2.548   6.290  2.0710 -0.2396  1.6535
 4220SOL     OW24121   1.561   3.802  15.327  0.0593 -0.1807  0.0048
 4220SOL    HW124122   1.549   3.849  15.410  1.1342 -2.3556  1.3854
 4220SOL    HW224123   1.637   3.851  15.297 -0.5478  2.0518  2.0075
 4221SOL     OW24124   0.764   1.117   2.484  0.7094 -0.3015 -0.3550
 4221SOL    HW124125   0.753   1.024   2.467  0.7774 -0.1349 -1.2609
 4221SOL    HW224126   0.822   1.142   2.412  1.3408  0.3302  0.3670
 4222SOL     OW24127   3.743   3.748   3.125  0.5333  0.3341 -0.1536
 4222SOL    HW124128   3.719   3.665   3.084  1.2876  0.4144 -0.7708
 4222SOL    HW224129   3.652   3.776   3.116  0.8529  0.8939 -1.7423
 4223SOL     OW24130   0.990   2.728  17.440  0.0846 -0.1799 -0.0648
 4223SOL    HW124131   0.938   2.694  17.367 -4.4443  0.0942  3.0118
 4223SOL    HW224132   1.068   2.674  17.434  0.6506  0.4895  1.2469
 4224SOL     OW24133   1.829   1.937   3.909  0.0650  0.3756 -0.0807
 4224SOL    HW124134   1.894   1.926   3.979  0.4239 -0.7588 -0.5967
 4224SOL    HW224135   1.747   1.907   3.947 -0.3836  0.5629 -0.8962
 4225SOL     OW24136   3.627   1.619  12.204  0.9245 -0.0252 -0.1927
 4225SOL    HW124137   3.574   1.668  12.142 -1.5702  0.1465  2.0991
 4225SOL    HW224138   3.686   1.566  12.149 -0.3802  0.7242 -2.3141
 4226SOL     OW24139   0.879   3.012   8.274 -0.0786 -0.1334 -0.5501
 4226SOL    HW124140   0.962   2.994   8.229  1.0883 -0.9634  1.9592
 4226SOL    HW224141   0.893   2.991   8.366 -1.2220 -1.2957 -0.6350
 4227SOL     OW24142   3.427   4.444   7.629  0.3838  0.4057  0.0445
 4227SOL    HW124143   3.471   4.361   7.648 -0.3339 -0.0561 -0.3016
 4227SOL    HW224144   3.440   4.483   7.715 -2.7743 -1.1877  1.2104
 4228SOL     OW24145   4.101   4.252   4.261  0.8225  0.5383  0.5645
 4228SOL    HW124146   4.145   4.293   4.336  0.5180  0.4369  0.7987
 4228SOL    HW224147   4.086   4.168   4.305 -0.3739  1.1157  1.2866
 4229SOL     OW24148   0.265   3.031   4.408 -0.5808 -0.8108 -0.4126
 4229SOL    HW124149   0.344   3.032   4.461 -1.5660 -0.2265  1.0288
 4229SOL    HW224150   0.291   3.096   4.342 -1.1117  0.1281  0.3077
 4230SOL     OW24151   2.237   0.265  13.180  0.1295 -0.3938 -0.2637
 4230SOL    HW124152   2.222   0.176  13.214 -1.7780 -0.7697 -2.1599
 4230SOL    HW224153   2.333   0.269  13.171 -0.0873  3.4079 -0.8967
 4231SOL     OW24154   2.979   3.051   2.424 -0.0226 -0.1457  0.1560
 4231SOL    HW124155   3.047   2.987   2.443 -0.3736 -0.4420  0.4260
 4231SOL    HW224156   2.989   3.107   2.501  1.4709  0.7155 -0.6743
 4232SOL     OW24157   0.431   2.703   1.817  0.3143  0.0401  0.2443
 4232SOL    HW124158   0.402   2.662   1.736 -0.3179  0.0286  0.4744
 4232SOL    HW224159   0.376   2.780   1.826  1.2034  0.8490 -1.4007
 4233SOL     OW24160   0.568   4.325   4.466  0.2803  0.1162 -0.1083
 4233SOL    HW124161   0.575   4.360   4.377  1.8082  0.1381  0.0203
 4233SOL    HW224162   0.562   4.407   4.515  2.0625  0.5787 -0.6600
 4234SOL     OW24163   3.526   0.284  10.482 -0.0478  0.3053  0.0578
 4234SOL    HW124164   3.505   0.268  10.574  0.5560  0.4228  0.2171
 4234SOL    HW224165   3.446   0.255  10.438 -1.4297  0.9679  2.1646
 4235SOL     OW24166   4.292   1.980  11.814 -0.5707  0.2717 -0.0917
 4235SOL    HW124167   4.257   2.046  11.874 -1.0431 -1.2404  1.3027
 4235SOL    HW224168   4.385   2.006  11.809 -0.1692 -0.6092  2.9241
 4236SOL     OW24169   1.136   0.867   2.081 -0.2866  0.0464  0.3583
 4236SOL    HW124170   1.144   0.799   2.015  0.3272  0.0432  0.4381
 4236SOL    HW224171   1.209   0.927   2.065 -0.4999  0.0457 -0.5995
 4237SOL     OW24172   1.871   0.611   3.158  0.2417  0.5206  0.2494
 4237SOL    HW124173   1.905   0.600   3.246  1.1433  1.1861 -0.0158
 4237SOL    HW224174   1.855   0.706   3.154 -0.5936  0.3369 -0.6813
 4238SOL     OW24175   2.128   2.097   6.209  0.4831  0.2864  0.8307
 4238SOL    HW124176   2.033   2.106   6.199  0.0819  0.7879  4.7995
 4238SOL    HW224177   2.150   2.151   6.134 -0.8917 -1.1947 -0.6354
 4239SOL     OW24178   1.273   1.252   7.936 -0.3147  0.4513 -0.2891
 4239SOL    HW124179   1.354   1.204   7.954 -0.9918 -0.5522  0.0861
 4239SOL    HW224180   1.302   1.337   7.969  1.0729 -0.4517  0.8000
 4240SOL     OW24181   0.176   3.661   7.204  0.4816 -0.4505 -0.0956
 4240SOL    HW124182   0.145   3.592   7.263 -1.4893  1.0869  0.6983
 4240SOL    HW224183   0.221   3.708   7.274 -0.2625  0.5030 -0.2529
 4241SOL     OW24184   3.379   0.680   4.794 -0.0069 -0.0157  0.6611
 4241SOL    HW124185   3.292   0.713   4.818 -2.6240 -2.5338 -5.2678
 4241SOL    HW224186   3.401   0.748   4.730 -2.3316 -0.5272 -0.7282
 4242SOL     OW24187   4.453   0.844   0.409 -0.3245  0.3891 -0.0116
 4242SOL    HW124188   4.394   0.918   0.396  2.6398  3.1491  2.1437
 4242SOL    HW224189   4.536   0.884   0.381 -1.1165 -1.4770 -4.8827
 4243SOL     OW24190   3.055   1.553  14.727  0.3782 -0.1726  0.0328
 4243SOL    HW124191   3.148   1.576  14.720  0.8013 -1.7836  0.2387
 4243SOL    HW224192   3.051   1.457  14.731 -0.9755  0.0017  2.7849
 4244SOL     OW24193   4.244   3.130   5.092 -0.4614  0.2610  0.3669
 4244SOL    HW124194   4.291   3.211   5.110 -2.0262  0.5657  3.2460
 4244SOL    HW224195   4.242   3.097   5.182 -1.1683 -3.1539 -0.8959
 4245SOL     OW24196   3.477   2.450   5.733 -0.2168 -0.1221  0.0429
 4245SOL    HW124197   3.425   2.490   5.803 -2.3759 -0.4070 -1.3646
 4245SOL    HW224198   3.480   2.359   5.764  0.0530  0.4827  1.7815
 4246SOL     OW24199   1.473   3.790   6.918 -0.8672  0.0929 -0.0756
 4246SOL    HW124200   1.422   3.778   6.839 -2.2353 -0.9504  0.9631
 4246SOL    HW224201   1.458   3.703   6.955 -2.3573  1.1964  1.9330
 4247SOL     OW24202   0.825   0.999  14.500 -0.0366 -0.0024 -0.3982
 4247SOL    HW124203   0.746   1.037  14.462  0.5263  1.3739 -0.1874
 4247SOL    HW224204   0.800   0.910  14.476 -0.4585 -0.1535  0.6173
 4248SOL     OW24205   3.909   3.130   5.032  0.4508 -0.3375 -0.5220
 4248SOL    HW124206   3.973   3.200   5.036 -1.0124  1.0420 -1.3447
 4248SOL    HW224207   3.882   3.146   5.123  0.1750 -0.5653 -0.5631
 4249SOL     OW24208   4.233   1.202  15.691 -0.1789 -0.6811 -0.1268
 4249SOL    HW124209   4.235   1.214  15.786 -0.7397 -3.1982  0.2047
 4249SOL    HW224210   4.325   1.177  15.676 -0.0638 -0.7074  0.6208
 4250SOL     OW24211   1.045   3.375   5.096  0.0876  0.3278  0.6303
 4250SOL    HW124212   0.971   3.383   5.035  0.2593  0.1622  0.3984
 4250SOL    HW224213   1.003   3.341   5.174  0.4810 -0.5133  0.4756
 4251SOL     OW24214   2.494   0.193   4.105 -0.4392  0.3471  0.5555
 4251SOL    HW124215   2.506   0.161   4.016 -0.0906 -1.3809  1.2244
 4251SOL    HW224216   2.398   0.196   4.110 -0.6135  0.7717 -3.3042
 4252SOL     OW24217   3.982   2.432   6.853  0.6405 -0.0429 -0.3070
 4252SOL    HW124218   4.013   2.521   6.870  0.0609  0.7921 -3.6078
 4252SOL    HW224219   4.034   2.381   6.915  1.6865  0.8859 -0.4065
 4253SOL     OW24220   0.138   2.845   7.641 -0.4930  0.2380  0.1399
 4253SOL    HW124221   0.088   2.767   7.668 -2.3071 -0.1069 -4.2993
 4253SOL    HW224222   0.138   2.839   7.546  0.4549  0.6075  0.1115
 4254SOL     OW24223   3.438   1.656  12.615 -0.2401  0.2193 -0.2186
 4254SOL    HW124224   3.487   1.607  12.549 -2.5549 -1.1492 -0.9021
 4254SOL    HW224225   3.502   1.637  12.684  0.5845 -0.0225 -1.0387
 4255SOL     OW24226   3.317   1.806   9.681  0.0081  0.4519 -0.0186
 4255SOL    HW124227   3.275   1.892   9.688  0.3113  0.4978  1.1501
 4255SOL    HW224228   3.392   1.809   9.739  0.5603  1.2130 -0.7740
 4256SOL     OW24229   3.907   0.155   2.969 -0.2997 -0.2907  0.3618
 4256SOL    HW124230   3.976   0.141   2.905 -1.0308 -3.5747  0.2771
 4256SOL    HW224231   3.830   0.138   2.915  0.4694  0.4345 -0.9620
 4257SOL     OW24232   0.831   1.150   2.747 -0.1938  0.1412  0.4452
 4257SOL    HW124233   0.742   1.119   2.765 -0.3396 -0.6568 -1.6823
 4257SOL    HW224234   0.817   1.176   2.656 -0.5908  0.7370  0.6842
 4258SOL     OW24235   0.017   2.711  13.970 -0.7692 -0.1706 -0.5865
 4258SOL    HW124236   0.036   2.799  14.004  0.0818 -0.9204  0.8848
 4258SOL    HW224237   0.093   2.692  13.915 -0.8211 -0.0599 -0.6962
 4259SOL     OW24238   1.797   3.594   7.592 -0.0563  0.5909  0.5992
 4259SOL    HW124239   1.737   3.555   7.529 -1.9407  1.0025  2.1354
 4259SOL    HW224240   1.856   3.643   7.535  0.1897 -0.4387 -0.0422
 4260SOL     OW24241   1.763   1.035   5.170  1.0805 -0.3893 -0.1520
 4260SOL    HW124242   1.718   1.116   5.145  2.4113  1.0240  2.0599
 4260SOL    HW224243   1.781   0.997   5.084 -0.7240 -0.8462 -0.3334
 4261SOL     OW24244   3.014   3.262   2.658  0.1636  0.5170 -0.4133
 4261SOL    HW124245   3.108   3.282   2.650  1.0255 -3.1582  0.4881
 4261SOL    HW224246   3.015   3.203   2.733 -1.1428  0.8155 -0.1657
 4262SOL     OW24247   0.142   0.671   6.559 -0.5459  0.4895 -0.0619
 4262SOL    HW124248   0.111   0.690   6.471 -0.0973 -2.6385 -0.9210
 4262SOL    HW224249   0.127   0.576   6.564  1.0294  0.2728  0.6061
 4263SOL     OW24250   1.378   2.654   2.840 -0.3121 -0.0884  0.5136
 4263SOL    HW124251   1.284   2.668   2.829  0.0381  0.7865 -1.3835
 4263SOL    HW224252   1.395   2.577   2.786 -2.7163 -0.7064  0.6562
 4264SOL     OW24253   2.566   3.802   7.305 -0.2698 -0.1089 -0.0538
 4264SOL    HW124254   2.615   3.841   7.378  0.2793  1.2667 -1.1687
 4264SOL    HW224255   2.550   3.714   7.341 -0.4685 -0.0235  0.0704
 4265SOL     OW24256   2.265   4.099   3.036 -0.8405 -0.0172 -0.1778
 4265SOL    HW124257   2.277   4.019   2.986  0.3797 -2.8644  4.7019
 4265SOL    HW224258   2.305   4.164   2.978  4.5918 -1.9661  1.3709
 4266SOL     OW24259   2.193   4.084   5.702  0.7870  0.0822  0.0918
 4266SOL    HW124260   2.242   4.023   5.757 -0.7524  0.5412  1.9770
 4266SOL    HW224261   2.263   4.109   5.642 -0.2017 -1.4598 -1.6968
 4267SOL     OW24262   1.554   0.819   3.802 -0.3390  0.4385 -0.5104
 4267SOL    HW124263   1.602   0.822   3.719  0.3426 -0.2196 -0.1347
 4267SOL    HW224264   1.483   0.878   3.777 -1.4794 -0.9084 -0.5112
 4268SOL     OW24265   3.413   2.502   3.378  0.6034  0.2977  0.3705
 4268SOL    HW124266   3.434   2.594   3.393 -0.0055  0.3655  0.7910
 4268SOL    HW224267   3.483   2.481   3.316 -0.2412  1.4097 -0.9580
 4269SOL     OW24268   0.188   4.278   1.766  0.4282  0.1206 -0.4853
 4269SOL    HW124269   0.253   4.325   1.819  0.0643 -0.2697  0.3116
 4269SOL    HW224270   0.190   4.190   1.804 -1.6024 -0.0323 -0.7480
 4270SOL     OW24271   3.313   1.058   4.119  0.5683 -0.4117 -0.0785
 4270SOL    HW124272   3.392   1.089   4.163 -0.0393 -1.4490  1.7793
 4270SOL    HW224273   3.250   1.071   4.190  0.4063  2.1634 -0.7028
 4271SOL     OW24274   2.018   4.307  13.169 -0.0662  0.1379  0.1799
 4271SOL    HW124275   2.031   4.333  13.260 -2.8842  0.7051  0.4421
 4271SOL    HW224276   1.925   4.282  13.170 -0.3575  1.2108  0.3841
 4272SOL     OW24277   2.232   0.050   0.761 -0.4864 -0.1002 -0.1803
 4272SOL    HW124278   2.301   0.001   0.806  0.1809  1.8280  0.9016
 4272SOL    HW224279   2.153   0.030   0.811 -0.5764 -0.6835 -0.5620
 4273SOL     OW24280   1.707   4.602  14.453  0.3680 -0.7328 -0.0116
 4273SOL    HW124281   1.650   4.679  14.460 -1.2337 -1.7511 -1.7659
 4273SOL    HW224282   1.772   4.627  14.519 -1.2867  1.4158  0.8281
 4274SOL     OW24283   2.874   1.175   3.226 -0.4342  0.1428 -0.2350
 4274SOL    HW124284   2.842   1.152   3.313 -1.5637 -2.6116 -1.3700
 4274SOL    HW224285   2.968   1.185   3.239 -0.5270 -0.1887  0.6654
 4275SOL     OW24286   0.561   0.885  11.212  0.7439 -0.0641  0.3046
 4275SOL    HW124287   0.521   0.901  11.127 -0.2854  2.5123  1.2771
 4275SOL    HW224288   0.600   0.971  11.229 -2.2194  1.4835 -0.6879
 4276SOL     OW24289   2.429   1.083   6.957 -0.0356  0.1401  0.1047
 4276SOL    HW124290   2.511   1.092   7.006  1.5803  0.4245 -2.6533
 4276SOL    HW224291   2.380   1.044   7.029 -1.3027  0.0820 -0.8015
 4277SOL     OW24292   1.063   3.846   1.830  0.1830  0.1818  0.1623
 4277SOL    HW124293   1.033   3.920   1.777 -3.9470 -0.4663  1.5944
 4277SOL    HW224294   1.024   3.859   1.916  4.1340  2.4252  1.5771
 4278SOL     OW24295   4.256   2.912   4.890  0.6913  0.1877 -0.5993
 4278SOL    HW124296   4.255   3.008   4.888  0.2128  0.2024  0.1188
 4278SOL    HW224297   4.338   2.902   4.843  0.6577  0.6335 -0.7547
 4279SOL     OW24298   0.585   2.119  12.032 -0.2563 -0.1458  0.2098
 4279SOL    HW124299   0.638   2.048  11.996  1.9283  2.1849 -1.1762
 4279SOL    HW224300   0.496   2.092  12.007 -0.3030  2.7950 -2.7510
 4280SOL     OW24301   2.157   2.021  11.417 -0.0481 -0.5660  0.6509
 4280SOL    HW124302   2.096   1.954  11.450  1.6773 -2.0424  0.8263
 4280SOL    HW224303   2.230   1.994  11.473  1.0031  1.0483  0.0437
 4281SOL     OW24304   2.811   2.564   2.678 -0.9181 -0.2721 -0.0936
 4281SOL    HW124305   2.728   2.600   2.645 -0.6176 -1.0490 -1.6998
 4281SOL    HW224306   2.847   2.544   2.592 -4.3772  2.3837 -2.1650
 4282SOL     OW24307   4.107   2.188   4.772 -0.4401 -0.1257  0.0463
 4282SOL    HW124308   4.071   2.101   4.790 -2.2894  0.4659 -0.7146
 4282SOL    HW224309   4.105   2.191   4.677 -1.9894 -1.8653  0.0119
 4283SOL     OW24310   4.126   2.876  17.210 -0.4583  0.2921  0.1878
 4283SOL    HW124311   4.030   2.878  17.203 -0.5870  0.7270  2.0306
 4283SOL    HW224312   4.151   2.918  17.127 -1.7781  0.8047  0.0428
 4284SOL     OW24313   3.571   0.510   5.287  0.1184 -0.2034 -0.2800
 4284SOL    HW124314   3.652   0.482   5.243 -0.3429 -0.7615 -0.7698
 4284SOL    HW224315   3.532   0.559   5.214 -0.5468 -0.2787  0.0249
 4285SOL     OW24316   2.309   0.501   3.848  0.1841 -0.3875 -0.4037
 4285SOL    HW124317   2.249   0.430   3.869 -1.6299  1.3027  0.1365
 4285SOL    HW224318   2.257   0.580   3.865  0.1781 -0.2299 -1.1359
 4286SOL     OW24319   2.656   4.263   6.611  0.5666 -0.3336 -0.1256
 4286SOL    HW124320   2.752   4.258   6.608  0.5078 -1.4824  0.1556
 4286SOL    HW224321   2.627   4.173   6.622  0.1043 -0.0583  0.9260
 4287SOL     OW24322   1.961   4.453   4.880 -0.5071 -0.2235 -0.1345
 4287SOL    HW124323   1.992   4.511   4.810 -1.4185  0.9221  0.4090
 4287SOL    HW224324   1.915   4.515   4.936  0.1199  1.5568 -1.5959
 4288SOL     OW24325   3.105   2.893   2.110  0.2081 -0.4104  0.3050
 4288SOL    HW124326   3.179   2.844   2.146  0.4646 -0.6294 -0.5198
 4288SOL    HW224327   3.028   2.842   2.134  1.1362 -1.8258  0.3125
 4289SOL     OW24328   2.474   1.529   0.300  0.4244  0.3594  0.3955
 4289SOL    HW124329   2.422   1.550   0.223  0.2080 -3.8555 -0.6023
 4289SOL    HW224330   2.544   1.594   0.291 -0.5810  0.8097 -3.8919
 4290SOL     OW24331   0.027   0.465  12.323 -0.5296 -0.0780  0.3216
 4290SOL    HW124332   0.054   0.446  12.413 -0.0797  1.6678  0.5582
 4290SOL    HW224333   4.676   0.527  12.328  0.5281  1.0321  1.8338
 4291SOL     OW24334   3.330   1.767   2.856 -0.5348 -0.4546 -0.1309
 4291SOL    HW124335   3.319   1.769   2.761 -0.0555  3.2795 -0.1243
 4291SOL    HW224336   3.241   1.759   2.889  0.1666  1.9629  2.3911
 4292SOL     OW24337   1.483   4.515  10.486 -0.0514 -0.0430 -0.4977
 4292SOL    HW124338   1.512   4.521  10.577  0.1398 -0.7670 -0.5127
 4292SOL    HW224339   1.458   4.606  10.471 -1.0076 -0.0766  0.9075
 4293SOL     OW24340   3.188   1.250   2.694  0.2732  0.4675 -0.2198
 4293SOL    HW124341   3.221   1.165   2.664 -0.7207  0.6213 -1.7301
 4293SOL    HW224342   3.253   1.316   2.669  0.2463  0.4207 -0.4102
 4294SOL     OW24343   0.497   0.898   7.567 -0.0906  0.3230  0.3113
 4294SOL    HW124344   0.442   0.903   7.488  0.3990 -2.5889 -0.2319
 4294SOL    HW224345   0.483   0.991   7.582  2.1083  0.4622  1.5287
 4295SOL     OW24346   1.653   3.351  17.156 -0.0678 -0.0446  0.5355
 4295SOL    HW124347   1.662   3.385  17.245 -0.7073  0.3841  0.4326
 4295SOL    HW224348   1.568   3.388  17.135  1.1344  2.5549  0.2743
 4296SOL     OW24349   2.734   2.408  16.496  0.1123  0.2175  0.1527
 4296SOL    HW124350   2.692   2.426  16.580  0.2964 -2.1856  0.7638
 4296SOL    HW224351   2.796   2.342  16.528  0.1660  0.2665  0.1484
 4297SOL     OW24352   3.686   0.260   3.182  0.6616  0.1668  0.1316
 4297SOL    HW124353   3.773   0.231   3.156  1.2698 -0.1422  2.4988
 4297SOL    HW224354   3.635   0.180   3.191 -1.7168  1.8805  1.8366
 4298SOL     OW24355   4.614   1.204   4.862  0.3810  0.1071  0.2286
 4298SOL    HW124356   4.648   1.264   4.795 -0.8136 -0.3796 -0.8055
 4298SOL    HW224357   4.556   1.261   4.912 -2.3346 -1.4099 -1.2501
 4299SOL     OW24358   3.881   2.743   5.679 -0.2356 -0.1512  0.6650
 4299SOL    HW124359   3.806   2.693   5.649  0.9518 -1.1316 -0.7053
 4299SOL    HW224360   3.948   2.712   5.616  0.9110 -1.8021  2.7054
 4300SOL     OW24361   1.407   4.655   7.645 -0.1221 -0.4109  0.6391
 4300SOL    HW124362   1.472   4.715   7.682 -0.9816 -0.2484  1.8608
 4300SOL    HW224363   1.439   4.662   7.555 -1.5136 -0.8348  0.1129
 4301SOL     OW24364   4.303   0.792   8.812  0.3526  0.3840  0.3297
 4301SOL    HW124365   4.380   0.750   8.850 -0.7202 -0.7840  1.2201
 4301SOL    HW224366   4.233   0.727   8.807  1.1690 -0.4670 -0.0347
 4302SOL     OW24367   3.307   0.747   2.809 -0.0656 -0.3733  0.0593
 4302SOL    HW124368   3.390   0.764   2.853 -0.1537  1.6755 -0.5885
 4302SOL    HW224369   3.344   0.722   2.724 -2.3686  1.7977 -1.5815
 4303SOL     OW24370   2.744   3.014   7.993  0.0067 -0.6806 -0.2094
 4303SOL    HW124371   2.749   2.935   8.047 -0.2599  0.9336  2.1368
 4303SOL    HW224372   2.809   2.998   7.925 -0.2464  0.7456 -0.7799
 4304SOL     OW24373   2.156   1.832   5.290 -0.0388  0.2584  0.5964
 4304SOL    HW124374   2.225   1.777   5.253 -2.1268 -2.1752  0.3386
 4304SOL    HW224375   2.200   1.905   5.335 -0.6159  0.7806  0.3066
 4305SOL     OW24376   4.142   0.022   4.815  0.7113  0.0684 -0.4017
 4305SOL    HW124377   4.080   0.072   4.867 -2.8760 -1.9513 -2.7268
 4305SOL    HW224378   4.122   0.063   4.731  4.1118  1.7361 -0.3994
 4306SOL     OW24379   3.543   2.471   3.964 -0.6566 -0.1531 -0.3416
 4306SOL    HW124380   3.590   2.394   3.993  3.4831  2.0900 -1.1159
 4306SOL    HW224381   3.598   2.502   3.892 -2.2350 -0.4646 -1.6831
 4307SOL     OW24382   3.719   1.594  14.232  0.0069 -0.2895  0.0227
 4307SOL    HW124383   3.646   1.655  14.224 -0.0779 -0.2958  0.7526
 4307SOL    HW224384   3.707   1.547  14.315  0.2564 -2.7279 -1.3075
 4308SOL     OW24385   1.015   3.093  17.181 -0.5343 -0.3726  0.0492
 4308SOL    HW124386   1.102   3.131  17.193 -0.5060 -0.4668  0.1361
 4308SOL    HW224387   1.001   3.046  17.263 -1.2967 -1.5856 -0.7651
 4309SOL     OW24388   4.263   0.987   2.198  0.1121 -0.0859 -0.3648
 4309SOL    HW124389   4.180   0.991   2.246  0.4505 -1.4901  0.3367
 4309SOL    HW224390   4.303   1.072   2.213  1.5520 -0.7106 -0.6213
 4310SOL     OW24391   3.190   0.640   7.588  0.6781 -0.2130 -0.5164
 4310SOL    HW124392   3.226   0.720   7.551 -0.0741  1.5005  2.4291
 4310SOL    HW224393   3.262   0.577   7.588 -0.1654 -1.1788 -0.1505
 4311SOL     OW24394   4.528   1.689   5.879 -0.0330 -0.0166 -0.3449
 4311SOL    HW124395   4.495   1.620   5.937  0.6801  0.7043  0.9171
 4311SOL    HW224396   4.511   1.646   5.795 -0.8773  1.7914 -1.0849
 4312SOL     OW24397   4.210   1.269   3.690  0.2919  0.4112 -0.7453
 4312SOL    HW124398   4.236   1.325   3.616 -0.0899 -0.2651 -1.3924
 4312SOL    HW224399   4.294   1.263   3.736 -0.5655 -0.5740  0.6651
 4313SOL     OW24400   2.523   3.084   7.853 -0.1768 -0.2205  0.0043
 4313SOL    HW124401   2.509   3.007   7.798 -0.4276 -1.2892  1.5865
 4313SOL    HW224402   2.587   3.056   7.919 -1.3564 -0.3173  1.1042
 4314SOL     OW24403   2.148   2.403  12.813  0.1146  0.1861  0.1721
 4314SOL    HW124404   2.134   2.498  12.810 -1.3701  0.0499  2.8159
 4314SOL    HW224405   2.172   2.393  12.905 -0.8458  0.1060  0.4162
 4315SOL     OW24406   2.434   0.662   3.075 -0.3948 -0.2508 -0.4589
 4315SOL    HW124407   2.401   0.750   3.056  0.0607 -0.0689 -0.4136
 4315SOL    HW224408   2.529   0.675   3.076 -0.5484  0.9729 -1.5843
 4316SOL     OW24409   1.068   2.244   9.695 -1.1527  0.2411 -0.8726
 4316SOL    HW124410   1.144   2.222   9.641  0.6446  2.1280  0.8858
 4316SOL    HW224411   1.000   2.226   9.630 -1.3663  0.2678 -0.6555
 4317SOL     OW24412   2.884   3.854   3.039 -0.4631  0.2338 -0.2666
 4317SOL    HW124413   2.805   3.858   2.986 -0.2051 -3.6000 -0.9657
 4317SOL    HW224414   2.862   3.891   3.124 -0.2989  0.1444 -0.1837
 4318SOL     OW24415   0.118   4.445  17.131  0.1734 -0.2222 -0.4040
 4318SOL    HW124416   0.042   4.452  17.073 -0.1185  1.5567  0.2015
 4318SOL    HW224417   0.084   4.416  17.215  0.3923 -0.2178 -0.3137
 4319SOL     OW24418   3.762   2.077   5.949 -0.0873  0.0684  0.2896
 4319SOL    HW124419   3.798   2.088   5.861  0.4799  1.9558  0.7521
 4319SOL    HW224420   3.823   2.126   6.004  0.7168  0.4132 -0.8976
 4320SOL     OW24421   0.504   1.761   6.286 -0.2048 -0.2263 -0.7627
 4320SOL    HW124422   0.514   1.764   6.191 -0.1301  0.3831 -0.7361
 4320SOL    HW224423   0.575   1.701   6.307 -1.0289 -0.7521  0.5287
 4321SOL     OW24424   2.131   3.909   7.973  0.0213 -0.5528 -0.0391
 4321SOL    HW124425   2.158   3.894   7.883  3.7011  1.9945  0.6432
 4321SOL    HW224426   2.143   3.819   8.005  3.5723  0.2617  0.9000
 4322SOL     OW24427   0.508   4.659   5.352  0.0097  0.3481  0.1314
 4322SOL    HW124428   0.510   4.696   5.263  3.5334  0.1043  0.0976
 4322SOL    HW224429   0.551   4.576   5.331 -1.1231  0.1021 -1.2431
 4323SOL     OW24430   2.116   1.356   2.038  0.8245 -0.2496 -0.4969
 4323SOL    HW124431   2.081   1.278   2.081  1.7262 -0.6961 -0.5654
 4323SOL    HW224432   2.097   1.326   1.949 -3.0521 -1.5800  0.7536
 4324SOL     OW24433   2.142   4.008  15.634  0.3333  0.4175 -0.2573
 4324SOL    HW124434   2.099   3.923  15.619  3.2185 -1.0158 -0.4634
 4324SOL    HW224435   2.205   4.003  15.562  1.2629 -0.2176  0.5990
 4325SOL     OW24436   3.281   2.713   8.456  0.5444  0.4292 -0.6411
 4325SOL    HW124437   3.236   2.778   8.510 -0.6101 -1.8833  1.2155
 4325SOL    HW224438   3.254   2.634   8.503 -0.4690  0.8838 -0.4606
 4326SOL     OW24439   1.587   3.506   8.081  0.1186  0.1210  0.2129
 4326SOL    HW124440   1.612   3.533   7.992  4.0884 -0.0200  1.2705
 4326SOL    HW224441   1.491   3.501   8.078  0.2509 -1.9325 -0.7051
 4327SOL     OW24442   2.361   3.880   8.554  0.1225  0.2534 -0.0730
 4327SOL    HW124443   2.300   3.898   8.483 -0.1967 -1.3387 -0.2078
 4327SOL    HW224444   2.439   3.931   8.532 -0.0899  0.1081 -1.1768
 4328SOL     OW24445   2.307   3.496   2.342  0.1772 -0.1883 -0.1544
 4328SOL    HW124446   2.253   3.419   2.360  1.6099 -1.1527  0.0394
 4328SOL    HW224447   2.314   3.492   2.247 -0.2354 -1.8092 -0.1101
 4329SOL     OW24448   4.040   3.853   3.175 -0.4903 -0.3646 -0.2146
 4329SOL    HW124449   4.021   3.764   3.204 -1.5797 -0.2169 -0.4569
 4329SOL    HW224450   3.954   3.894   3.184 -0.5103 -0.7393  1.3584
 4330SOL     OW24451   0.298   3.510   6.060  0.5933 -1.1122 -0.4366
 4330SOL    HW124452   0.275   3.568   6.132  0.3150 -0.9930 -0.6198
 4330SOL    HW224453   0.222   3.509   6.002  1.8280 -1.4494 -2.0752
 4331SOL     OW24454   2.451   4.465   1.285  0.4126  0.3470 -0.2415
 4331SOL    HW124455   2.480   4.506   1.204 -1.3730 -0.8776 -1.4896
 4331SOL    HW224456   2.537   4.435   1.315  0.5229  1.2676  0.3563
 4332SOL     OW24457   0.629   3.189   2.844 -0.0315 -0.1441  0.3280
 4332SOL    HW124458   0.609   3.282   2.830  1.0591 -0.2384 -1.8592
 4332SOL    HW224459   0.545   3.161   2.880  0.1963 -2.2656 -0.8232
 4333SOL     OW24460   3.841   4.696   5.965 -0.2531  0.0388 -0.4961
 4333SOL    HW124461   3.829   0.038   5.894  0.6232 -1.4339 -1.9347
 4333SOL    HW224462   3.831   0.027   6.045  0.7456  1.5589 -1.3431
 4334SOL     OW24463   1.672   3.552  12.351 -0.1659  0.0919 -0.0504
 4334SOL    HW124464   1.700   3.642  12.333  3.1797 -0.5251  1.9734
 4334SOL    HW224465   1.577   3.551  12.357 -0.0480 -0.7229  1.6529
 4335SOL     OW24466   4.705   3.498  14.397  0.3089 -0.4828 -0.2010
 4335SOL    HW124467   0.059   3.557  14.389 -0.1372 -0.0594 -1.1522
 4335SOL    HW224468   0.023   3.411  14.404  0.3490 -0.5817 -1.8732
 4336SOL     OW24469   3.679   1.258   7.305 -0.2143 -0.0558 -0.3213
 4336SOL    HW124470   3.727   1.284   7.226 -1.9678  1.4018 -0.9172
 4336SOL    HW224471   3.592   1.244   7.268  1.1092  0.3038 -3.6073
 4337SOL     OW24472   0.201   0.101   4.544  0.2797 -0.5131 -0.1473
 4337SOL    HW124473   0.215   0.024   4.488  0.6126 -1.6711  1.5458
 4337SOL    HW224474   0.221   0.064   4.629 -1.8502  0.2999  0.6948
 4338SOL     OW24475   2.217   3.921   4.507 -0.8507 -0.3365  0.2852
 4338SOL    HW124476   2.276   3.993   4.485  0.0932 -0.8851  1.0630
 4338SOL    HW224477   2.170   3.910   4.424  0.1517  2.0882 -0.5944
 4339SOL     OW24478   0.978   3.991   0.869  0.1856  0.4253  0.2847
 4339SOL    HW124479   0.968   4.056   0.939  0.9473  0.3621  0.4564
 4339SOL    HW224480   1.024   4.037   0.798 -0.3336  0.2614 -0.1554
 4340SOL     OW24481   1.047   0.414  14.017  0.0601  0.0829  0.5593
 4340SOL    HW124482   1.000   0.336  13.988 -1.2589  1.2650 -0.4278
 4340SOL    HW224483   1.053   0.473  13.942  1.9152 -2.8575 -1.5931
 4341SOL     OW24484   2.580   1.500   4.173  0.2348  0.0320 -0.0231
 4341SOL    HW124485   2.562   1.441   4.099  0.4648 -1.2875  0.9741
 4341SOL    HW224486   2.670   1.521   4.147  0.2363  3.5946  2.9608
 4342SOL     OW24487   3.112   0.249   7.005  0.0845  0.1640 -0.0748
 4342SOL    HW124488   3.019   0.248   7.025 -0.1453 -1.7523 -1.2394
 4342SOL    HW224489   3.139   0.193   7.078 -1.2707 -0.8310 -0.3250
 4343SOL     OW24490   4.707   3.259   4.400  0.4904 -0.0126  0.0294
 4343SOL    HW124491   4.685   3.325   4.467  1.0581 -0.5549  0.7467
 4343SOL    HW224492   4.708   3.174   4.443  0.4164  0.0337  0.1236
 4344SOL     OW24493   3.657   0.074   9.035 -0.2506  0.0129  0.4709
 4344SOL    HW124494   3.640   0.000   8.976  0.0606  1.9641 -2.0619
 4344SOL    HW224495   3.633   0.150   8.983  1.4713  1.6206  2.0382
 4345SOL     OW24496   3.761   0.570   6.738  0.1675 -0.0235  0.5159
 4345SOL    HW124497   3.843   0.585   6.785 -0.7053  0.5669  1.8556
 4345SOL    HW224498   3.706   0.597   6.811  0.8274  1.4387  0.4637
 4346SOL     OW24499   0.460   3.512  12.939 -0.2187  0.0623 -0.1250
 4346SOL    HW124500   0.442   3.565  13.017  2.5869 -2.6814  2.3950
 4346SOL    HW224501   0.457   3.581  12.873 -3.4359  0.2618  0.2346
 4347SOL     OW24502   2.194   4.009   4.913  0.1661  0.0328 -0.4287
 4347SOL    HW124503   2.197   4.101   4.885  0.7016  0.2294  0.2829
 4347SOL    HW224504   2.106   4.000   4.951  0.7003 -1.8749  0.3536
 4348SOL     OW24505   3.077   0.058  13.829  0.1702 -0.2688 -0.4031
 4348SOL    HW124506   3.042   4.692  13.811 -1.3532  0.9418 -3.3475
 4348SOL    HW224507   3.120   0.083  13.747 -0.6673 -0.2400 -0.8307
 4349SOL     OW24508   4.130   2.085   2.256  0.0878  0.2356 -0.6499
 4349SOL    HW124509   4.160   2.016   2.197  0.7306 -0.7150  0.7984
 4349SOL    HW224510   4.098   2.148   2.191  0.4700  0.5234 -0.5611
 4350SOL     OW24511   2.224   4.015   3.513 -0.5096 -0.2195  0.5989
 4350SOL    HW124512   2.151   3.968   3.554 -1.2484  0.2100 -0.2221
 4350SOL    HW224513   2.177   4.084   3.466  2.2750  1.4131  0.2719
 4351SOL     OW24514   3.324   0.563  16.517  0.1996 -0.1462  0.1624
 4351SOL    HW124515   3.314   0.468  16.514  1.9705 -0.3922  1.8486
 4351SOL    HW224516   3.282   0.586  16.435  0.6967 -0.3791 -0.1591
 4352SOL     OW24517   0.854   4.505   3.609 -0.6852  0.1557 -0.0022
 4352SOL    HW124518   0.924   4.512   3.545 -3.2423  1.5109 -2.6734
 4352SOL    HW224519   0.878   4.443   3.677 -0.8061  0.9178  0.7376
 4353SOL     OW24520   1.129   3.452   3.151  0.0413  0.1058  0.1040
 4353SOL    HW124521   1.117   3.415   3.238 -0.7450 -0.5337 -0.2782
 4353SOL    HW224522   1.152   3.374   3.101 -0.6037 -0.8366  1.2798
 4354SOL     OW24523   3.329   0.755   0.281  0.0286 -0.8198 -0.0257
 4354SOL    HW124524   3.424   0.770   0.280 -0.0757 -0.0264  1.8128
 4354SOL    HW224525   3.283   0.835   0.256 -0.7688 -1.0257  0.7823
 4355SOL     OW24526   4.007   1.054   8.605  0.0611  0.0758  0.0433
 4355SOL    HW124527   3.931   1.113   8.606  0.6816  0.9020 -1.3163
 4355SOL    HW224528   3.978   1.019   8.689  0.3905  1.2123  0.6362
 4356SOL     OW24529   1.104   1.626   4.236  0.0697  0.2207 -0.3410
 4356SOL    HW124530   1.198   1.635   4.250 -0.0904  2.7931 -0.8721
 4356SOL    HW224531   1.096   1.534   4.262 -1.4052  0.3717 -0.2621
 4357SOL     OW24532   3.698   1.805  11.774  0.2103  0.5434  0.4612
 4357SOL    HW124533   3.655   1.788  11.857 -0.9321  1.0646 -0.0259
 4357SOL    HW224534   3.639   1.871  11.738  1.3530  0.5722 -1.3755
 4358SOL     OW24535   1.136   2.359   7.291  0.1751 -0.6200  0.2568
 4358SOL    HW124536   1.152   2.274   7.332  0.4138 -0.5571  0.2927
 4358SOL    HW224537   1.199   2.416   7.336 -2.0746  2.2978 -0.2773
 4359SOL     OW24538   4.050   3.718   4.290  0.1420  0.2612 -0.6556
 4359SOL    HW124539   4.032   3.627   4.267  1.8171  0.0525 -1.0812
 4359SOL    HW224540   3.993   3.754   4.222 -0.5350 -0.9391 -0.7139
 4360SOL     OW24541   4.042   1.655   5.825  0.3797 -0.5075  0.1391
 4360SOL    HW124542   4.107   1.715   5.860  0.9014 -0.5571 -0.7481
 4360SOL    HW224543   3.989   1.629   5.900  0.6675 -1.3478  0.0580
 4361SOL     OW24544   4.625   0.929   6.023  0.0969 -0.4806 -0.1129
 4361SOL    HW124545   4.721   0.932   6.019  0.0748  1.5796  0.6158
 4361SOL    HW224546   4.610   0.988   6.097  2.7947  1.6043 -1.2246
 4362SOL     OW24547   1.204   1.377   3.349  0.0630  0.2082 -0.0281
 4362SOL    HW124548   1.119   1.373   3.393  0.1761 -0.3783  0.1369
 4362SOL    HW224549   1.232   1.286   3.343  3.1181  1.0939  0.8272
 4363SOL     OW24550   1.161   4.212   5.014 -0.8562  0.0779 -0.1694
 4363SOL    HW124551   1.188   4.304   5.003 -0.5991 -0.3153 -2.8188
 4363SOL    HW224552   1.163   4.205   5.110  3.3053 -1.8208 -0.4201
 4364SOL     OW24553   2.413   2.045   4.561 -0.7121 -0.1327 -0.2587
 4364SOL    HW124554   2.376   2.119   4.609 -3.0702 -0.5339 -1.4610
 4364SOL    HW224555   2.494   2.088   4.537  0.3488 -1.5361  0.7696
 4365SOL     OW24556   3.872   4.321   3.480  0.5733  0.0665 -0.2396
 4365SOL    HW124557   3.961   4.355   3.488  1.0434 -1.2779  0.2633
 4365SOL    HW224558   3.852   4.305   3.572 -2.2515  1.2146 -0.6569
 4366SOL     OW24559   0.596   3.834  15.906  0.0470  0.3975  0.2881
 4366SOL    HW124560   0.625   3.913  15.859  0.0332 -0.1288 -0.6042
 4366SOL    HW224561   0.501   3.846  15.905  0.3663  2.8785  0.1546
 4367SOL     OW24562   0.872   0.171   8.396 -0.6027 -0.1404 -0.0276
 4367SOL    HW124563   0.881   0.255   8.352 -1.3111  1.3662  2.7038
 4367SOL    HW224564   0.962   0.169   8.427 -0.6592  0.2908  0.1561
 4368SOL     OW24565   3.959   2.884   4.243  0.0068 -0.0448 -0.2485
 4368SOL    HW124566   4.008   2.956   4.283  1.2230 -0.0113 -1.7893
 4368SOL    HW224567   4.035   2.828   4.253  0.9795  1.4941  1.0194
 4369SOL     OW24568   2.102   2.034   3.741 -0.2361  0.1815  0.3548
 4369SOL    HW124569   2.136   1.967   3.800 -0.9044  0.0777  0.6174
 4369SOL    HW224570   2.036   2.080   3.792 -0.2755 -1.7004  1.9915
 4370SOL     OW24571   4.296   2.596  13.819 -0.4801 -0.3983  0.1559
 4370SOL    HW124572   4.346   2.528  13.864  0.7004  0.1961 -0.2660
 4370SOL    HW224573   4.227   2.548  13.774 -2.4136  0.9214  1.6883
 4371SOL     OW24574   1.064   3.188  14.026 -0.3442  0.2782  0.0990
 4371SOL    HW124575   0.976   3.212  13.997 -0.0545 -1.4763 -2.1951
 4371SOL    HW224576   1.101   3.145  13.949 -0.1001  0.9018 -0.1308
 4372SOL     OW24577   1.232   1.364   5.977 -0.0428 -0.7711  0.4317
 4372SOL    HW124578   1.304   1.402   6.027 -0.0240  0.0052 -0.1937
 4372SOL    HW224579   1.230   1.272   6.004  0.3356 -1.4305 -1.8476
 4373SOL     OW24580   0.596   4.293  12.180  0.1311  0.3890 -0.3973
 4373SOL    HW124581   0.631   4.205  12.196  0.4516  0.4067 -1.0414
 4373SOL    HW224582   0.512   4.259  12.148  1.5661 -4.4206  0.8006
 4374SOL     OW24583   3.326   1.377   5.504  0.3141  0.3589 -0.4520
 4374SOL    HW124584   3.313   1.399   5.412  2.4753  0.7128 -0.6728
 4374SOL    HW224585   3.416   1.343   5.509  0.3780  0.4574 -1.0319
 4375SOL     OW24586   3.338   3.446   6.046  0.2621 -0.2999 -0.3912
 4375SOL    HW124587   3.317   3.367   6.096  3.2785 -1.6349 -1.1879
 4375SOL    HW224588   3.389   3.495   6.110  1.6981 -1.4165 -0.6632
 4376SOL     OW24589   1.461   4.291   8.777 -0.0318  0.0797 -0.4597
 4376SOL    HW124590   1.375   4.250   8.767 -0.4079  0.7087  0.2326
 4376SOL    HW224591   1.455   4.361   8.713  1.0334  1.2104  0.6850
 4377SOL     OW24592   2.279   0.897  12.513  0.0239  0.7017 -0.4154
 4377SOL    HW124593   2.186   0.901  12.538  0.5186 -1.1857  1.7315
 4377SOL    HW224594   2.311   0.972  12.562  0.9747 -2.3352  3.6768
 4378SOL     OW24595   3.652   1.829  11.490  0.8591  0.6515 -0.1110
 4378SOL    HW124596   3.640   1.879  11.409 -0.4778 -1.5588 -1.2611
 4378SOL    HW224597   3.605   1.883  11.554 -0.9909 -1.1856  0.0674
 4379SOL     OW24598   4.201   2.418  13.514 -0.0136  0.1205  0.3026
 4379SOL    HW124599   4.146   2.494  13.492  1.0310  1.4495  2.2751
 4379SOL    HW224600   4.177   2.404  13.606 -1.3626 -1.6604 -0.3237
 4380SOL     OW24601   0.721   1.391   2.056 -0.2791  0.0630  0.0918
 4380SOL    HW124602   0.712   1.313   2.002 -0.1451  0.0814  0.0424
 4380SOL    HW224603   0.754   1.456   1.994 -0.8053 -0.3060 -0.5696
 4381SOL     OW24604   4.150   0.525   8.270 -0.0082  0.1094 -0.9163
 4381SOL    HW124605   4.199   0.512   8.351 -0.9273  1.4319 -0.1445
 4381SOL    HW224606   4.086   0.580   8.315 -0.0580 -0.1798 -0.6314
 4382SOL     OW24607   4.656   3.347  16.275 -0.1110  0.2956 -0.5136
 4382SOL    HW124608   4.592   3.414  16.249 -1.2427  0.1980  1.9998
 4382SOL    HW224609   4.710   3.359  16.197 -2.1277 -1.0128 -2.1514
 4383SOL     OW24610   1.246   1.174   5.243  0.1396 -1.1612 -0.1784
 4383SOL    HW124611   1.259   1.214   5.329 -0.3212 -2.7998  0.6473
 4383SOL    HW224612   1.151   1.171   5.242  0.0889  0.8638 -1.4922
 4384SOL     OW24613   1.185   3.527   9.603  0.4844  0.2864 -0.1600
 4384SOL    HW124614   1.249   3.471   9.560 -0.6443 -0.0372 -1.4131
 4384SOL    HW224615   1.236   3.605   9.578  1.5789  0.2851  2.0382
 4385SOL     OW24616   4.112   4.119   5.549 -0.4045 -0.1422  0.2723
 4385SOL    HW124617   4.190   4.172   5.532 -1.2614  1.2239  0.6131
 4385SOL    HW224618   4.083   4.120   5.458  0.5515 -1.0761 -0.0497
 4386SOL     OW24619   3.363   1.568   8.636 -0.3761 -0.1917  0.1626
 4386SOL    HW124620   3.353   1.476   8.659 -0.2332 -0.5797 -1.3470
 4386SOL    HW224621   3.284   1.607   8.674 -0.3975 -0.3220  0.2517
 4387SOL     OW24622   4.157   2.095   5.992  0.1409 -0.0649 -0.3556
 4387SOL    HW124623   4.143   2.138   5.907 -0.8176  0.0090 -0.1516
 4387SOL    HW224624   4.097   2.140   6.052  1.5815  0.1573  0.9127
 4388SOL     OW24625   3.093   2.281  16.422 -0.1616 -0.6713  0.3823
 4388SOL    HW124626   3.178   2.237  16.414 -0.3022 -0.8011 -0.4039
 4388SOL    HW224627   3.032   2.208  16.410 -1.2021  0.3973 -0.7937
 4389SOL     OW24628   1.152   1.484   4.659  0.1002 -1.4397  0.2267
 4389SOL    HW124629   1.174   1.503   4.750 -1.3010 -1.6228  0.6071
 4389SOL    HW224630   1.224   1.427   4.631  1.1134  0.9491 -1.9509
 4390SOL     OW24631   0.300   1.945  14.093  0.3225 -0.0664  1.0093
 4390SOL    HW124632   0.297   1.874  14.157  0.3812  0.4988  1.6415
 4390SOL    HW224633   0.351   2.013  14.138 -0.7360 -0.0146  2.1255
 4391SOL     OW24634   1.163   0.480   8.459 -0.3668 -0.3726 -0.4462
 4391SOL    HW124635   1.093   0.438   8.510  1.2127 -2.1529  0.2337
 4391SOL    HW224636   1.240   0.459   8.512 -0.9139 -1.0202  0.1026
 4392SOL     OW24637   0.632   3.601   5.784  0.1660  0.8226  0.4391
 4392SOL    HW124638   0.606   3.532   5.845 -0.2221  1.1913  0.6962
 4392SOL    HW224639   0.723   3.574   5.773  0.0299  0.5659 -0.0640
 4393SOL     OW24640   0.036   2.566   8.836 -0.1007 -0.3900 -0.0327
 4393SOL    HW124641   0.035   2.472   8.854  2.9074 -0.4764 -0.1934
 4393SOL    HW224642   0.079   2.567   8.751  0.6357  0.7049  0.3503
 4394SOL     OW24643   4.487   3.964   5.685  0.4964  0.2646  0.4360
 4394SOL    HW124644   4.445   4.043   5.651 -3.1326 -1.9552 -0.2595
 4394SOL    HW224645   4.577   3.963   5.654  0.1376  0.9428 -0.6557
 4395SOL     OW24646   1.308   2.831  13.752  0.4784  0.5142  0.0317
 4395SOL    HW124647   1.242   2.796  13.812  0.9489 -0.7667 -0.1854
 4395SOL    HW224648   1.361   2.880  13.814 -1.3233  1.1608  1.0752
 4396SOL     OW24649   0.142   3.498   8.246  0.0413 -0.4184  0.1969
 4396SOL    HW124650   0.108   3.446   8.173  0.4631 -1.8397  1.0219
 4396SOL    HW224651   0.087   3.478   8.321 -0.9631 -0.7369 -0.6340
 4397SOL     OW24652   1.705   0.623   2.826 -0.2060 -0.2979 -0.1913
 4397SOL    HW124653   1.757   0.660   2.754 -1.6546 -1.4909 -1.8538
 4397SOL    HW224654   1.625   0.673   2.807  0.2016  0.8131  1.0911
 4398SOL     OW24655   0.428   1.430   5.997 -0.5216  0.1852  0.6672
 4398SOL    HW124656   0.449   1.337   6.002  3.4613  0.9684 -2.4481
 4398SOL    HW224657   0.332   1.427   5.999 -0.5117 -0.4933 -0.2072
 4399SOL     OW24658   2.708   1.189  13.666 -0.5000 -0.2679  0.2942
 4399SOL    HW124659   2.638   1.132  13.698 -0.5742  0.2178  1.0119
 4399SOL    HW224660   2.661   1.243  13.603  1.3046  0.6986 -0.2455
 4400SOL     OW24661   1.674   0.331  15.023 -0.6319 -0.2725 -0.1515
 4400SOL    HW124662   1.589   0.287  15.014 -1.1750  0.6162  0.6653
 4400SOL    HW224663   1.666   0.399  15.089  0.9313 -1.3947  1.1798
 4401SOL     OW24664   2.401   4.636   8.899 -0.4401  0.4802 -0.3323
 4401SOL    HW124665   2.477   4.584   8.872 -1.0149 -1.0367  0.9349
 4401SOL    HW224666   2.343   4.624   8.824 -1.6100  0.1705  0.6207
 4402SOL     OW24667   3.138   4.332   2.736 -0.3864 -0.0660 -0.5402
 4402SOL    HW124668   3.098   4.247   2.756 -0.6659  0.2416  0.2050
 4402SOL    HW224669   3.092   4.388   2.799  0.2453 -0.9018  0.6797
 4403SOL     OW24670   3.425   4.312  13.338  0.6395 -0.4224 -0.0823
 4403SOL    HW124671   3.465   4.255  13.273  0.3555 -1.3132  0.5065
 4403SOL    HW224672   3.503   4.345  13.382  0.7779 -0.9744  0.0998
 4404SOL     OW24673   0.780   1.909   1.403 -0.3469  0.4936  0.1579
 4404SOL    HW124674   0.720   1.980   1.422 -0.2211  0.6236  0.0734
 4404SOL    HW224675   0.800   1.875   1.490  2.3388 -0.0636 -0.6780
 4405SOL     OW24676   1.608   0.145   5.973  0.1271  0.0489 -0.4712
 4405SOL    HW124677   1.542   0.117   6.037  0.5059  1.4555  0.5320
 4405SOL    HW224678   1.571   0.120   5.888 -2.2581 -0.6217  0.7430
 4406SOL     OW24679   0.798   3.137  11.533  0.4444  0.6773 -0.0220
 4406SOL    HW124680   0.749   3.153  11.452  0.8263 -1.1023 -0.6053
 4406SOL    HW224681   0.773   3.046  11.553 -0.9230  0.7161 -1.5807
 4407SOL     OW24682   3.161   0.702   9.139 -0.2342  0.0126  0.2184
 4407SOL    HW124683   3.198   0.638   9.078 -0.0501  0.0032  0.3393
 4407SOL    HW224684   3.221   0.700   9.214 -0.9587  1.3413  0.8194
 4408SOL     OW24685   0.437   1.169   7.517 -0.2758  0.2273 -0.1688
 4408SOL    HW124686   0.377   1.170   7.443 -1.9893  0.1504  1.2057
 4408SOL    HW224687   0.381   1.230   7.567  0.6773 -0.7621  2.1099
 4409SOL     OW24688   3.493   3.643   1.920  0.3583  0.4143  0.4562
 4409SOL    HW124689   3.468   3.557   1.885  0.8164  1.3476 -2.1747
 4409SOL    HW224690   3.523   3.688   1.841  0.8656 -0.7702 -0.0412
 4410SOL     OW24691   1.696   3.816   4.142 -0.7272 -0.3601  0.1640
 4410SOL    HW124692   1.737   3.767   4.070 -0.2027 -1.1965  1.0248
 4410SOL    HW224693   1.614   3.843   4.102  0.4978  1.9616 -0.8079
 4411SOL     OW24694   2.236   1.454   1.269  0.3191  0.0055 -0.2636
 4411SOL    HW124695   2.150   1.447   1.310  1.1360 -1.7753  1.1831
 4411SOL    HW224696   2.285   1.422   1.345  0.7405  3.4566  0.8712
 4412SOL     OW24697   0.143   2.624   8.557 -0.8329 -0.2846 -0.1468
 4412SOL    HW124698   0.114   2.542   8.517 -1.7820  0.6696 -1.4257
 4412SOL    HW224699   0.167   2.664   8.473  1.8817  0.8173  1.1846
 4413SOL     OW24700   3.032   0.896   5.522  0.3155  0.3930 -0.2425
 4413SOL    HW124701   3.058   0.925   5.434  0.4564 -1.0103 -0.6552
 4413SOL    HW224702   3.065   0.807   5.531 -1.1838 -0.2847 -1.5601
 4414SOL     OW24703   1.583   0.980   3.262 -0.1225 -0.2249  0.8612
 4414SOL    HW124704   1.500   0.947   3.297 -0.7036  1.2309  0.8570
 4414SOL    HW224705   1.637   0.906   3.235  0.0487  1.3445 -3.0461
 4415SOL     OW24706   1.949   0.786   9.361 -0.1932  0.0029  0.2664
 4415SOL    HW124707   1.892   0.819   9.430 -0.5569 -0.4278  0.1674
 4415SOL    HW224708   2.009   0.858   9.338 -0.6710  0.6494  1.0414
 4416SOL     OW24709   2.057   1.756   1.243  0.0264  0.4188  0.0577
 4416SOL    HW124710   1.980   1.711   1.278 -0.7892  1.4719 -0.3739
 4416SOL    HW224711   2.042   1.842   1.282 -1.2219  0.1069  0.2855
 4417SOL     OW24712   2.588   3.289   8.499 -0.1405  0.2053  0.5321
 4417SOL    HW124713   2.648   3.341   8.445 -0.9428  1.3720  0.7570
 4417SOL    HW224714   2.589   3.339   8.580  0.8132  2.2526 -0.7454
 4418SOL     OW24715   3.593   0.473   3.476  0.3794 -0.0531  0.4436
 4418SOL    HW124716   3.541   0.486   3.397  0.6583 -1.1606  0.0845
 4418SOL    HW224717   3.667   0.531   3.457  1.8197 -1.8019  0.7310
 4419SOL     OW24718   1.698   1.433  12.953  0.4252  0.0637 -0.1773
 4419SOL    HW124719   1.702   1.515  12.905 -0.8310  0.5335  0.5193
 4419SOL    HW224720   1.606   1.410  12.970  0.7063  0.9829  2.6589
 4420SOL     OW24721   0.419   1.036   0.682 -0.3659  0.3501 -0.7655
 4420SOL    HW124722   0.336   1.085   0.688 -1.1901 -0.9520 -1.4080
 4420SOL    HW224723   0.456   1.088   0.610 -0.2423  1.0462 -0.2048
 4421SOL     OW24724   1.460   4.225   5.513  0.2424  0.2323  0.3849
 4421SOL    HW124725   1.383   4.267   5.550  1.5641  1.5246  1.7004
 4421SOL    HW224726   1.515   4.304   5.511  1.5721 -0.6976  0.0755
 4422SOL     OW24727   2.341   1.074   2.806 -0.3608 -0.1197 -0.1165
 4422SOL    HW124728   2.261   1.125   2.793  0.9092  1.5441 -1.3173
 4422SOL    HW224729   2.406   1.131   2.846  0.1840 -1.3147  0.7278
 4423SOL     OW24730   1.018   4.258   8.487  0.5838 -0.4389  0.2433
 4423SOL    HW124731   0.946   4.320   8.480  0.7160 -0.1755  1.2698
 4423SOL    HW224732   0.982   4.179   8.527 -0.5276  0.5663  1.2238
 4424SOL     OW24733   1.871   0.623  15.161 -0.1496 -0.4892 -0.3120
 4424SOL    HW124734   1.859   0.693  15.224  0.1933 -1.4356  0.8007
 4424SOL    HW224735   1.815   0.555  15.199 -0.3258 -1.4012 -2.1943
 4425SOL     OW24736   4.611   0.027   7.370  0.3051  0.1045 -0.7234
 4425SOL    HW124737   4.643   4.695   7.297  2.1467 -0.0660  0.2170
 4425SOL    HW224738   4.549   0.091   7.335 -3.2910 -1.9611  1.9764
 4426SOL     OW24739   1.892   1.447   7.564 -0.0132  0.2179 -0.2696
 4426SOL    HW124740   1.911   1.397   7.643  1.7202 -0.3193 -1.0294
 4426SOL    HW224741   1.978   1.452   7.523  1.1042 -0.7911  1.9669
 4427SOL     OW24742   2.120   2.825   5.687 -0.1127 -0.4811 -0.1708
 4427SOL    HW124743   2.140   2.733   5.673 -0.3101 -0.9619  2.5821
 4427SOL    HW224744   2.041   2.818   5.633 -0.9697  1.0829  0.8563
 4428SOL     OW24745   4.126   2.654  10.003 -0.1661  0.1369 -0.2110
 4428SOL    HW124746   4.062   2.649  10.075  1.0962 -0.2886  0.8792
 4428SOL    HW224747   4.121   2.563   9.976 -0.7987 -0.2115  1.0845
 4429SOL     OW24748   0.201   0.147   5.045 -0.1346  0.1482 -0.3810
 4429SOL    HW124749   0.167   0.232   5.072 -1.6939 -0.5077 -0.2659
 4429SOL    HW224750   0.125   0.089   5.036  0.4063 -0.4341 -1.2019
 4430SOL     OW24751   3.503   2.878  17.628  0.1349  0.5607  0.0303
 4430SOL    HW124752   3.553   2.951  17.592  0.6131  0.6743  0.9025
 4430SOL    HW224753   3.423   2.925  17.652 -1.2032  0.8882 -5.2599
 4431SOL     OW24754   0.242   0.312  11.252 -0.0653 -0.4242  0.0520
 4431SOL    HW124755   0.216   0.285  11.340  1.1448  0.1737  0.6056
 4431SOL    HW224756   0.238   0.404  11.275  0.1703 -0.3432 -0.2247
 4432SOL     OW24757   1.059   1.438   9.387 -0.7624  0.2938 -0.1942
 4432SOL    HW124758   1.049   1.429   9.292  0.8152  1.1299 -0.4364
 4432SOL    HW224759   1.069   1.347   9.414  0.0949  0.0552 -1.3096
 4433SOL     OW24760   0.393   1.395   3.514 -0.0582 -0.2359  0.1560
 4433SOL    HW124761   0.457   1.329   3.484 -0.5588  0.0190 -1.4679
 4433SOL    HW224762   0.324   1.379   3.450 -0.2195  2.7265 -0.3829
 4434SOL     OW24763   1.484   3.267   5.609  0.1073 -0.3119 -0.4243
 4434SOL    HW124764   1.480   3.265   5.704  2.6539 -1.5008 -0.3432
 4434SOL    HW224765   1.575   3.298   5.602  0.0775 -0.8853 -3.4150
 4435SOL     OW24766   1.900   3.271  17.116 -0.1163  0.1146  0.3328
 4435SOL    HW124767   1.806   3.290  17.117 -0.1578 -0.1016  1.6346
 4435SOL    HW224768   1.930   3.350  17.160  2.3128  0.2874 -1.6421
 4436SOL     OW24769   2.300   3.024   6.149 -0.0257  0.0096 -0.2405
 4436SOL    HW124770   2.259   2.961   6.090 -0.0299  0.5275 -0.7795
 4436SOL    HW224771   2.347   2.962   6.206  0.3505 -0.5668 -1.1731
 4437SOL     OW24772   1.674   1.661  13.150  0.1226 -0.4390  0.0285
 4437SOL    HW124773   1.649   1.670  13.058  0.0344 -2.8166 -0.1738
 4437SOL    HW224774   1.588   1.687  13.182 -0.1254 -1.2006 -0.0220
 4438SOL     OW24775   1.968   1.741   8.690  0.1063 -0.0814 -0.6758
 4438SOL    HW124776   2.022   1.783   8.757 -0.6536  0.6081 -0.5093
 4438SOL    HW224777   2.024   1.663   8.688  1.8115  1.1044  0.2372
 4439SOL     OW24778   2.756   1.817   6.283 -0.4716 -0.1477  0.1207
 4439SOL    HW124779   2.686   1.752   6.282 -1.8014  1.2092  3.6038
 4439SOL    HW224780   2.747   1.837   6.377  0.1520 -1.0704  0.3799
 4440SOL     OW24781   1.043   4.660   6.717 -0.0743  0.5534  0.1209
 4440SOL    HW124782   0.999   4.578   6.738  1.0964  0.0098  0.4059
 4440SOL    HW224783   1.040   4.706   6.801  2.5412 -0.0750  0.5537
 4441SOL     OW24784   1.859   3.437   4.774 -0.2578 -0.3592 -0.5962
 4441SOL    HW124785   1.947   3.423   4.808 -1.9603 -1.2220  3.4162
 4441SOL    HW224786   1.871   3.403   4.685  0.2639 -0.7362 -0.3835
 4442SOL     OW24787   0.325   4.485  10.208 -0.3481  0.1410 -0.6097
 4442SOL    HW124788   0.393   4.522  10.263  1.6150 -1.6457 -1.8150
 4442SOL    HW224789   0.248   4.508  10.259 -1.6932 -0.4874 -2.3426
 4443SOL     OW24790   0.801   4.719   8.176  0.1539 -0.0988 -0.4966
 4443SOL    HW124791   0.833   0.053   8.247 -0.5904  1.1147 -1.1084
 4443SOL    HW224792   0.874   4.695   8.119  1.9344  1.7549  1.0112
 4444SOL     OW24793   1.534   1.702  12.653 -0.3501 -0.1232 -0.1161
 4444SOL    HW124794   1.447   1.663  12.663 -0.0961 -0.4635  0.7907
 4444SOL    HW224795   1.540   1.731  12.562 -0.3992  0.6458  0.1281
 4445SOL     OW24796   1.690   4.533   6.094 -0.5064  0.4217 -0.0675
 4445SOL    HW124797   1.674   4.465   6.159 -0.8944  1.6785  1.1434
 4445SOL    HW224798   1.634   4.606   6.120 -0.9505  0.1573 -0.2735
 4446SOL     OW24799   2.133   2.321  12.562 -0.3066 -0.7437 -0.5827
 4446SOL    HW124800   2.134   2.356  12.652 -2.2196  1.8296 -1.5467
 4446SOL    HW224801   2.061   2.371  12.525 -0.1867  1.1316  1.7004
 4447SOL     OW24802   1.468   3.698   1.186 -0.2310  0.1669  0.3108
 4447SOL    HW124803   1.515   3.761   1.131 -1.3310  0.0160 -0.7899
 4447SOL    HW224804   1.507   3.717   1.271  0.5325  0.5000 -0.1150
 4448SOL     OW24805   0.305   4.439   7.411 -0.1219  0.6973  0.4191
 4448SOL    HW124806   0.323   4.440   7.317 -0.4146 -0.6029  0.3351
 4448SOL    HW224807   0.374   4.496   7.444 -0.8599  1.0469  1.3430
 4449SOL     OW24808   2.681   1.875   3.925 -0.3157 -0.7354  0.1606
 4449SOL    HW124809   2.598   1.853   3.967  0.0050  0.4818  1.4342
 4449SOL    HW224810   2.711   1.790   3.893 -0.2181 -0.5864 -0.1497
 4450SOL     OW24811   0.987   2.962  15.603 -0.0123 -0.5141 -0.6685
 4450SOL    HW124812   1.066   3.009  15.576  0.3940 -0.0123  1.4173
 4450SOL    HW224813   0.933   3.027  15.648 -0.5565 -0.5885 -1.2118
 4451SOL     OW24814   2.750   3.332   9.064  0.3768 -0.0316 -0.5612
 4451SOL    HW124815   2.713   3.392   9.130  0.0427 -1.9826  1.0291
 4451SOL    HW224816   2.841   3.329   9.095  0.2809 -2.1783 -0.5170
 4452SOL     OW24817   1.747   2.911   4.871 -0.0653  0.2732 -0.2076
 4452SOL    HW124818   1.705   2.980   4.819  0.7863 -0.3202 -1.6847
 4452SOL    HW224819   1.712   2.839   4.819  0.1238 -0.2916  0.4421
 4453SOL     OW24820   2.228   0.398  14.466 -0.0568  0.1991  0.0451
 4453SOL    HW124821   2.279   0.479  14.459  1.3503 -0.7217 -0.2939
 4453SOL    HW224822   2.189   0.390  14.553  0.8679 -3.0829  0.1770
 4454SOL     OW24823   0.477   0.843   0.487  0.1221  0.4284 -0.5694
 4454SOL    HW124824   0.476   0.911   0.555  1.3399 -0.8219  0.6974
 4454SOL    HW224825   0.525   0.892   0.420  1.9453 -0.6427 -0.0474
 4455SOL     OW24826   1.884   3.920  14.752 -0.6436  0.8018 -0.8193
 4455SOL    HW124827   1.959   3.863  14.769 -1.7015 -0.1354  0.7085
 4455SOL    HW224828   1.889   3.945  14.660 -2.1100 -0.0185 -1.1173
 4456SOL     OW24829   0.317   0.081   7.604  0.2690  0.2619 -0.1615
 4456SOL    HW124830   0.253   0.100   7.536  1.0902  2.2033 -0.3991
 4456SOL    HW224831   0.397   0.123   7.573  2.6080 -2.0997  2.6322
 4457SOL     OW24832   4.202   4.624   6.802  0.4213 -0.5489  0.3856
 4457SOL    HW124833   4.249   4.638   6.719 -1.3149  0.3719 -0.4325
 4457SOL    HW224834   4.118   4.586   6.778  0.8501 -0.8924 -0.5729
 4458SOL     OW24835   3.607   2.332   9.746 -0.0625  0.1529  0.0994
 4458SOL    HW124836   3.670   2.381   9.800 -0.0451 -0.6110  0.7680
 4458SOL    HW224837   3.533   2.386   9.774 -1.1135  0.4845 -3.2992
 4459SOL     OW24838   3.808   0.656  15.894  0.4070 -0.1160 -0.5220
 4459SOL    HW124839   3.871   0.586  15.910  0.5920  0.2737  0.4540
 4459SOL    HW224840   3.724   0.610  15.903  1.1947 -1.5577 -0.5507
 4460SOL     OW24841   4.568   4.030  13.311  0.1285 -0.1436  0.5287
 4460SOL    HW124842   4.637   4.091  13.285  0.1188 -0.2361  0.2850
 4460SOL    HW224843   4.493   4.077  13.348 -0.4296 -0.0241 -0.7255
 4461SOL     OW24844   2.283   2.932   3.986  0.2028 -0.1780 -0.2132
 4461SOL    HW124845   2.329   2.985   3.920 -0.1631 -2.3621 -2.1859
 4461SOL    HW224846   2.287   2.994   4.060 -0.0884 -1.6723  1.0517
 4462SOL     OW24847   2.455   3.501  10.534 -0.2661 -0.2426  0.0032
 4462SOL    HW124848   2.405   3.528  10.611  0.4106 -0.5183  0.5395
 4462SOL    HW224849   2.387   3.488  10.468 -1.3694  0.4050  0.9941
 4463SOL     OW24850   1.090   1.005   6.867 -0.3915 -0.1067  0.0095
 4463SOL    HW124851   1.087   0.978   6.775  2.1544  2.1090 -0.7065
 4463SOL    HW224852   1.122   1.095   6.869  2.5507 -1.1367 -1.1018
 4464SOL     OW24853   2.725   3.446   9.537  0.2644  0.2698 -0.2484
 4464SOL    HW124854   2.678   3.465   9.619  1.2462 -2.0342  0.8458
 4464SOL    HW224855   2.776   3.527   9.538 -0.7414  0.9035  0.9149
 4465SOL     OW24856   3.467   1.244   7.150 -0.3393 -0.3207 -0.0039
 4465SOL    HW124857   3.373   1.263   7.143 -0.5134 -1.2941 -0.3479
 4465SOL    HW224858   3.493   1.263   7.060  0.9548 -2.6379 -0.1205
 4466SOL     OW24859   2.495   1.349   0.524 -0.1204 -0.5767  0.2997
 4466SOL    HW124860   2.483   1.401   0.444  1.5499 -0.9705 -0.2125
 4466SOL    HW224861   2.448   1.395   0.594  0.1694 -1.0053  0.7733
 4467SOL     OW24862   2.282   0.193   2.616  0.3404  0.2504 -0.1531
 4467SOL    HW124863   2.357   0.229   2.663  0.3512 -0.1552  0.1353
 4467SOL    HW224864   2.317   0.193   2.527 -0.4447 -0.2022 -0.4680
 4468SOL     OW24865   0.965   2.447   1.093  0.2183  0.2898 -0.1977
 4468SOL    HW124866   1.005   2.434   1.179 -1.9689  1.0214  0.9327
 4468SOL    HW224867   0.964   2.356   1.063 -2.4174 -1.2351  4.5197
 4469SOL     OW24868   1.176   1.113   4.970 -0.2704  0.3916 -0.1761
 4469SOL    HW124869   1.154   1.020   4.970 -1.3252  0.6296  0.8095
 4469SOL    HW224870   1.234   1.118   5.046  1.3988 -2.3357 -1.2844
 4470SOL     OW24871   4.608   0.533   7.020 -0.4640 -0.3886  0.9645
 4470SOL    HW124872   4.658   0.571   6.948 -0.3643  1.1900  1.8730
 4470SOL    HW224873   4.581   0.618   7.053 -1.3450 -0.8003  1.3008
 4471SOL     OW24874   2.824   2.924  16.313  0.4259 -0.1809  0.8355
 4471SOL    HW124875   2.876   2.875  16.248 -2.4989 -0.6994 -1.1280
 4471SOL    HW224876   2.812   2.843  16.364 -2.7032 -0.2518  0.0109
 4472SOL     OW24877   2.436   2.738   2.936 -0.1264 -0.5830 -0.4085
 4472SOL    HW124878   2.444   2.684   2.858  0.2077  0.9414 -1.4428
 4472SOL    HW224879   2.527   2.734   2.967  0.9562 -1.9090 -3.7947
 4473SOL     OW24880   1.489   1.862   7.084  0.1027  0.2215 -0.2964
 4473SOL    HW124881   1.513   1.817   7.003 -0.5144 -1.4804  0.4556
 4473SOL    HW224882   1.524   1.796   7.144  0.1925  1.2309  0.7678
 4474SOL     OW24883   3.239   4.673   7.784 -0.3532 -0.5724 -0.3300
 4474SOL    HW124884   3.240   4.650   7.691  2.5508  0.0970 -0.4587
 4474SOL    HW224885   3.153   4.638   7.809  0.1224  1.2997  3.8810
 4475SOL     OW24886   0.120   1.314   6.546  0.1213  0.8468 -0.1719
 4475SOL    HW124887   0.119   1.402   6.509  0.7452  1.9686  2.4770
 4475SOL    HW224888   0.041   1.319   6.600 -0.9714 -1.2105 -1.5637
 4476SOL     OW24889   4.098   4.525  11.399 -0.1077 -0.1222  0.1325
 4476SOL    HW124890   4.069   4.569  11.480 -0.8774  0.1663 -0.3009
 4476SOL    HW224891   4.131   4.438  11.419  2.5478  1.0187  0.7456
 4477SOL     OW24892   3.437   0.464  14.790 -0.0850  0.7692 -0.0950
 4477SOL    HW124893   3.447   0.370  14.808  0.3861  0.6085 -1.1628
 4477SOL    HW224894   3.405   0.459  14.699 -1.7904 -1.4798  0.6215
 4478SOL     OW24895   2.599   1.385   2.434 -0.1392 -0.0286 -0.4514
 4478SOL    HW124896   2.539   1.312   2.421  1.9962 -2.0103  0.9960
 4478SOL    HW224897   2.556   1.440   2.500  0.4974 -0.8654  0.6378
 4479SOL     OW24898   1.781   2.962   5.933  0.1588 -0.0004 -0.3249
 4479SOL    HW124899   1.850   3.019   5.896  1.1286 -0.4945  0.7207
 4479SOL    HW224900   1.774   2.891   5.869 -0.0193 -1.1179  0.9449
 4480SOL     OW24901   3.992   2.544   4.392  0.3868 -0.1857  0.2218
 4480SOL    HW124902   4.046   2.606   4.342 -1.2191 -0.9367 -2.4753
 4480SOL    HW224903   3.907   2.565   4.352  0.3070  1.2394  1.1452
 4481SOL     OW24904   4.349   0.620   8.442  0.3835  0.6723 -0.8258
 4481SOL    HW124905   4.378   0.680   8.373  1.2608 -1.3486 -2.2072
 4481SOL    HW224906   4.341   0.670   8.523 -1.5031 -0.2456 -0.4421
 4482SOL     OW24907   4.199   3.109  13.377  0.1083 -0.6898  0.5249
 4482SOL    HW124908   4.270   3.124  13.440  0.3090 -1.5161  0.4993
 4482SOL    HW224909   4.245   3.126  13.295 -0.3183 -1.0903  0.2071
 4483SOL     OW24910   1.690   3.368   2.937 -0.0816 -0.3667  0.0872
 4483SOL    HW124911   1.626   3.352   3.006  0.3524  1.2859  0.8726
 4483SOL    HW224912   1.675   3.292   2.881  0.9160 -1.1720  0.9117
 4484SOL     OW24913   0.054   2.030   1.303 -0.2845 -0.1890 -0.3808
 4484SOL    HW124914   4.693   1.984   1.285  0.1720 -0.3521 -2.0933
 4484SOL    HW224915   0.095   2.025   1.217 -2.0271 -0.8207 -1.1773
 4485SOL     OW24916   1.846   1.990   7.922  0.6725 -0.1599 -0.2277
 4485SOL    HW124917   1.864   1.964   7.832 -1.1516  3.6270 -1.6722
 4485SOL    HW224918   1.821   1.903   7.953  2.2313 -0.3418  0.5090
 4486SOL     OW24919   4.343   4.651  14.437 -0.6059 -0.2308 -0.0343
 4486SOL    HW124920   4.343   4.596  14.515 -0.5491 -0.3483 -0.1175
 4486SOL    HW224921   4.432   4.684  14.446 -1.0371  0.9435 -0.0937
 4487SOL     OW24922   2.742   0.432   3.207  0.3338 -0.0956 -0.2925
 4487SOL    HW124923   2.702   0.520   3.203  1.8007  0.5323 -1.0563
 4487SOL    HW224924   2.727   0.405   3.298 -3.2728  1.7001 -0.3450
 4488SOL     OW24925   1.951   1.834  17.278  0.1180  0.0779  0.0657
 4488SOL    HW124926   1.991   1.811  17.362  0.2395 -2.1848 -0.6122
 4488SOL    HW224927   2.022   1.831  17.214 -2.5281  0.8688 -2.8676
 4489SOL     OW24928   4.278   0.791   7.463 -0.5461 -0.2178  0.1220
 4489SOL    HW124929   4.369   0.822   7.465 -0.6331  0.1493 -1.5276
 4489SOL    HW224930   4.252   0.809   7.372 -0.0602  1.0245  0.2257
 4490SOL     OW24931   3.583   0.875   6.118 -0.1358 -0.2743  0.5711
 4490SOL    HW124932   3.554   0.939   6.053  0.4967  0.1466  0.7080
 4490SOL    HW224933   3.575   0.790   6.075 -0.3392 -0.4191  0.8935
 4491SOL     OW24934   0.339   3.774   7.427  0.0524 -0.0849  0.4805
 4491SOL    HW124935   0.330   3.830   7.504 -2.7731 -0.2259  0.2479
 4491SOL    HW224936   0.295   3.696   7.462  1.0109 -0.5098  0.7396
 4492SOL     OW24937   1.574   4.367  11.405 -0.3161 -0.0864  0.4326
 4492SOL    HW124938   1.639   4.376  11.475  1.1142  0.8639 -1.0303
 4492SOL    HW224939   1.508   4.433  11.425 -0.2306  1.3040 -3.9212
 4493SOL     OW24940   4.569   0.055   3.625  0.4771 -0.0734  0.3350
 4493SOL    HW124941   4.517   4.699   3.606 -0.0607  0.1222  1.0194
 4493SOL    HW224942   4.534   0.092   3.706 -0.3197  0.6796 -0.3518
 4494SOL     OW24943   1.614   4.430  16.483 -0.0848 -0.1469 -0.2822
 4494SOL    HW124944   1.647   4.515  16.510  1.5337 -1.1528  0.9137
 4494SOL    HW224945   1.523   4.424  16.513  0.6201 -0.9152  1.6797
 4495SOL     OW24946   0.079   4.231   6.205 -0.1196  0.1060  0.7265
 4495SOL    HW124947   0.085   4.291   6.131 -2.5025 -1.5151 -0.7978
 4495SOL    HW224948   0.172   4.217   6.220 -0.2530 -1.1841  0.3986
 4496SOL     OW24949   2.554   1.023  11.637  0.4290  0.1948 -0.1132
 4496SOL    HW124950   2.559   0.937  11.680  2.2821  0.3101 -0.1300
 4496SOL    HW224951   2.624   1.063  11.689  1.2099 -0.5733 -0.5809
 4497SOL     OW24952   3.467   4.645   6.045  0.0129  0.3418  0.2058
 4497SOL    HW124953   3.397   4.667   6.107 -0.2751 -0.7616  0.2697
 4497SOL    HW224954   3.491   0.007   6.004  0.8115  0.9465  1.9039
 4498SOL     OW24955   1.090   4.554   6.479  0.0579 -0.4761 -0.5092
 4498SOL    HW124956   1.014   4.503   6.452 -0.1320 -1.3839  1.7469
 4498SOL    HW224957   1.059   4.606   6.554  1.3978  2.8920 -2.2791
 4499SOL     OW24958   4.200   4.104   9.713  0.2598 -0.0446 -0.3021
 4499SOL    HW124959   4.273   4.046   9.692 -0.9992 -1.3923 -1.0598
 4499SOL    HW224960   4.179   4.129   9.623 -1.3900 -0.1460  0.0425
 4500SOL     OW24961   2.883   0.842   4.894 -0.2055 -0.6726 -0.1886
 4500SOL    HW124962   2.791   0.820   4.877 -0.2152 -0.8695  0.1123
 4500SOL    HW224963   2.893   0.916   4.834 -0.1289 -0.7462 -0.2651
 4501SOL     OW24964   2.576   3.793  16.880  0.1052 -0.3899 -0.1533
 4501SOL    HW124965   2.512   3.727  16.858  0.0026 -0.0749 -0.8009
 4501SOL    HW224966   2.550   3.826  16.966  0.9222 -0.4242  0.1155
 4502SOL     OW24967   1.986   2.165   3.266  0.2135 -0.1021 -0.3099
 4502SOL    HW124968   2.074   2.138   3.295 -0.6708 -0.4701  1.9939
 4502SOL    HW224969   1.996   2.169   3.171  0.5979  1.9395 -0.1827
 4503SOL     OW24970   3.285   2.699  16.426  0.0355  0.3832  0.1595
 4503SOL    HW124971   3.243   2.630  16.374  0.0115  1.4294 -1.1898
 4503SOL    HW224972   3.222   2.771  16.422  0.8295  1.0816  0.2010
 4504SOL     OW24973   0.158   0.681   2.690 -0.5753 -0.2852  0.4412
 4504SOL    HW124974   0.249   0.710   2.685 -0.7574 -0.2623 -2.8673
 4504SOL    HW224975   0.138   0.659   2.599  1.4057  0.1713 -0.1098
 4505SOL     OW24976   0.450   2.950   5.595 -0.3647  0.2274 -0.3893
 4505SOL    HW124977   0.498   3.014   5.543 -0.3568  0.3358 -0.2496
 4505SOL    HW224978   0.467   2.983   5.683 -0.5377 -3.1603  0.9476
 4506SOL     OW24979   1.707   1.285   3.879  0.1869  0.1691  0.4795
 4506SOL    HW124980   1.729   1.272   3.787  1.4116  1.3678  0.5874
 4506SOL    HW224981   1.730   1.378   3.881 -2.5470  0.8203  0.8493
 4507SOL     OW24982   2.751   3.967  12.222  0.9622 -0.0497 -0.6652
 4507SOL    HW124983   2.783   3.880  12.245 -2.5631 -0.5853  2.2584
 4507SOL    HW224984   2.761   3.968  12.127 -1.1724 -1.0837 -0.8978
 4508SOL     OW24985   4.168   3.377   6.540  0.4952  0.6225 -0.4248
 4508SOL    HW124986   4.115   3.344   6.612 -2.6328  3.1521 -1.5740
 4508SOL    HW224987   4.180   3.293   6.496  1.4895 -0.9305  2.8373
 4509SOL     OW24988   0.204   4.035   5.304  0.0534 -0.2782 -1.2733
 4509SOL    HW124989   0.244   3.963   5.352 -2.7217 -0.3132  0.9998
 4509SOL    HW224990   0.274   4.100   5.307  0.0923 -0.2254 -3.2580
 4510SOL     OW24991   4.344   3.716   9.950 -0.4722  0.3942 -0.1782
 4510SOL    HW124992   4.362   3.625   9.928 -2.7943 -0.3427  0.9494
 4510SOL    HW224993   4.365   3.762   9.868  3.4462  0.0213  0.6068
 4511SOL     OW24994   2.949   1.278  16.345 -0.9015  0.5005 -0.3129
 4511SOL    HW124995   2.910   1.214  16.285 -1.6176  1.4368 -0.8660
 4511SOL    HW224996   2.931   1.247  16.433 -0.4278  0.7930 -0.1152
 4512SOL     OW24997   0.450   2.913  11.436 -0.4557  0.1131  0.0235
 4512SOL    HW124998   0.397   2.861  11.496  2.1689 -1.4312  1.0393
 4512SOL    HW224999   0.395   2.992  11.433 -0.4419  0.2246  2.4272
 4513SOL     OW25000   0.214   2.757   7.392  0.0127  0.2598 -0.0534
 4513SOL    HW125001   0.262   2.676   7.405  1.1330  0.8929 -0.2020
 4513SOL    HW225002   0.223   2.771   7.297  0.9154  0.9651  0.1338
 4514SOL     OW25003   0.892   1.800  14.601 -0.3171  0.1033  0.1052
 4514SOL    HW125004   0.801   1.769  14.598  0.3938 -1.9524 -0.7172
 4514SOL    HW225005   0.889   1.874  14.540  3.9809 -0.7630 -1.1409
 4515SOL     OW25006   0.886   4.366   6.443  0.1379  0.4172 -0.7186
 4515SOL    HW125007   0.807   4.394   6.397  0.7524 -1.0122 -2.6507
 4515SOL    HW225008   0.884   4.271   6.432 -0.4477  0.2821  0.6392
 4516SOL     OW25009   1.158   4.711  10.767 -0.4016 -0.3015  0.3331
 4516SOL    HW125010   1.199   4.669  10.843 -0.8368  1.0883  1.3492
 4516SOL    HW225011   1.165   4.650  10.694  1.2576  1.3491 -0.8775
 4517SOL     OW25012   4.171   2.906   7.121 -0.3141  0.3549 -0.0741
 4517SOL    HW125013   4.197   2.981   7.174 -0.8752 -0.2549  1.0598
 4517SOL    HW225014   4.253   2.856   7.113  0.4023  1.7848 -1.6338
 4518SOL     OW25015   0.729   1.022   3.097  0.0112  0.0692  0.0459
 4518SOL    HW125016   0.648   1.008   3.049  1.0256  0.6747 -1.8580
 4518SOL    HW225017   0.710   0.964   3.170  1.4544 -0.0561  0.3318
 4519SOL     OW25018   0.374   1.759   1.695 -0.5000  0.1395 -0.4553
 4519SOL    HW125019   0.286   1.793   1.679  0.3967  1.7896 -1.7593
 4519SOL    HW225020   0.414   1.786   1.613  0.2458  1.4745  0.3495
 4520SOL     OW25021   1.578   3.136   0.114 -0.4894  0.6117  0.1313
 4520SOL    HW125022   1.619   3.223   0.123 -0.8637  0.9660 -1.5613
 4520SOL    HW225023   1.489   3.165   0.095 -1.0473 -0.1617  1.5896
 4521SOL     OW25024   1.869   3.151   2.577 -0.0819 -0.6117 -0.2613
 4521SOL    HW125025   1.787   3.102   2.584 -0.0599 -0.2760  2.6176
 4521SOL    HW225026   1.898   3.128   2.489 -0.6180  1.2784 -0.9282
 4522SOL     OW25027   2.881   2.742  17.543  0.2039 -0.2348  0.1300
 4522SOL    HW125028   2.871   2.676  17.474 -0.5964 -0.6557  0.6610
 4522SOL    HW225029   2.947   2.802  17.507  0.8860 -0.5267  0.8818
 4523SOL     OW25030   2.285   4.263   9.387 -0.1423  0.1665  0.1114
 4523SOL    HW125031   2.306   4.337   9.444 -0.8276  2.1384 -2.1677
 4523SOL    HW225032   2.324   4.195   9.442 -0.6381  1.1741  1.7033
 4524SOL     OW25033   2.464   3.560   3.284 -0.2285 -0.4056  0.0291
 4524SOL    HW125034   2.426   3.629   3.230 -2.3267  1.3302  3.8053
 4524SOL    HW225035   2.387   3.527   3.330 -1.0819  0.6052 -0.6755
 4525SOL     OW25036   0.114   1.052   1.337 -0.1176 -0.2314  0.1857
 4525SOL    HW125037   0.154   1.138   1.348  0.4889 -0.5806  0.6838
 4525SOL    HW225038   0.110   1.057   1.242 -1.8934 -1.0756  0.2091
 4526SOL     OW25039   3.834   0.937   7.763 -0.6615  0.3029  0.3643
 4526SOL    HW125040   3.845   0.906   7.853 -0.1125 -0.0899  0.1635
 4526SOL    HW225041   3.922   0.938   7.724 -1.3583 -1.5933 -1.3017
 4527SOL     OW25042   2.465   3.819   6.119  0.0827  0.1582  0.0550
 4527SOL    HW125043   2.539   3.764   6.143  0.3239  0.4172 -0.0864
 4527SOL    HW225044   2.499   3.904   6.149 -1.6787  0.8884 -0.0523
 4528SOL     OW25045   2.743   1.918   6.037  0.2301  0.4315  0.3831
 4528SOL    HW125046   2.657   1.891   6.003  1.0900 -0.4532 -1.1035
 4528SOL    HW225047   2.752   1.871   6.120  1.5395 -1.8575 -1.0597
 4529SOL     OW25048   0.074   1.564  13.896  0.1395  0.4147 -0.2646
 4529SOL    HW125049   0.071   1.632  13.964  0.2428  1.7769 -1.6170
 4529SOL    HW225050   0.168   1.551  13.881  0.0392  1.1152 -1.5406
 4530SOL     OW25051   1.314   2.682   4.470  0.4319 -0.4497  0.0459
 4530SOL    HW125052   1.228   2.700   4.431  0.3851  2.1425  1.3928
 4530SOL    HW225053   1.368   2.723   4.403 -0.5090  1.7651  0.6504
 4531SOL     OW25054   3.479   0.262  15.298  0.4030 -0.4404  0.0324
 4531SOL    HW125055   3.489   0.350  15.333 -2.1457  0.3988 -1.3662
 4531SOL    HW225056   3.490   0.271  15.203 -0.2788  1.3724  0.1341
 4532SOL     OW25057   0.704   4.586   7.121  0.5453  0.0676  0.2562
 4532SOL    HW125058   0.734   4.520   7.183 -1.9607 -2.0039 -0.7153
 4532SOL    HW225059   0.643   4.630   7.181  0.7171  0.8992 -0.1810
 4533SOL     OW25060   4.449   4.543  15.348 -0.2474  0.0192  0.6504
 4533SOL    HW125061   4.475   4.479  15.281  0.1063  2.3641 -1.4264
 4533SOL    HW225062   4.401   4.609  15.298  0.9444 -1.5060 -2.5309
 4534SOL     OW25063   0.503   1.000  15.199  0.8179  0.1972  0.1465
 4534SOL    HW125064   0.444   1.026  15.270  0.4901 -0.0447 -0.0380
 4534SOL    HW225065   0.588   0.976  15.236  1.3869  0.9072 -0.6957
 4535SOL     OW25066   3.325   4.605   7.151 -0.1094 -0.0749  0.5331
 4535SOL    HW125067   3.351   4.556   7.229 -0.2071 -1.0289 -0.0350
 4535SOL    HW225068   3.300   4.690   7.187  1.9271  2.4207 -3.8866
 4536SOL     OW25069   2.949   1.232   7.604  0.0709  0.1176  0.0234
 4536SOL    HW125070   3.003   1.162   7.567  0.1519  0.6452 -0.8640
 4536SOL    HW225071   3.017   1.267   7.663 -1.2394  0.8038  1.1177
 4537SOL     OW25072   1.925   4.701   2.486 -0.1753  0.0585 -0.4536
 4537SOL    HW125073   1.937   0.075   2.487 -2.6711  0.3275  0.7666
 4537SOL    HW225074   1.883   4.675   2.567 -1.6709  2.8871 -0.3511
 4538SOL     OW25075   2.738   4.320   8.067 -0.0184 -0.1219 -0.2880
 4538SOL    HW125076   2.780   4.273   8.139 -0.3316 -2.4670 -1.6559
 4538SOL    HW225077   2.672   4.365   8.120  0.5056  0.4868 -0.1461
 4539SOL     OW25078   2.163   4.151   2.258  0.1613  0.2914 -0.9143
 4539SOL    HW125079   2.193   4.062   2.276 -0.3698  0.4688  0.8801
 4539SOL    HW225080   2.086   4.134   2.204 -1.9042  0.5930  1.9273
 4540SOL     OW25081   0.468   2.674  13.718 -0.6246  0.6450  0.3510
 4540SOL    HW125082   0.377   2.651  13.737 -0.5998 -0.2641 -0.6299
 4540SOL    HW225083   0.454   2.668  13.624  0.3273  0.5989  0.2102
 4541SOL     OW25084   2.692   3.969   6.956 -0.3981  0.6150  0.1734
 4541SOL    HW125085   2.772   3.919   6.970 -0.0697  1.7581  2.4015
 4541SOL    HW225086   2.682   3.999   7.047 -0.3186 -0.2127  0.4609
 4542SOL     OW25087   3.366   4.581  11.477 -0.1758  0.4325  0.2920
 4542SOL    HW125088   3.368   4.564  11.383  0.3263 -1.6748  0.6746
 4542SOL    HW225089   3.271   4.576  11.491  0.0113  1.4449  1.9024
 4543SOL     OW25090   4.312   4.222   3.903  0.1468 -0.4769 -1.0319
 4543SOL    HW125091   4.353   4.239   3.988 -0.0622 -0.0471 -1.0197
 4543SOL    HW225092   4.237   4.281   3.896 -0.7235 -1.2706  1.4060
 4544SOL     OW25093   2.416   1.023   3.371 -0.3976 -0.2254 -0.0071
 4544SOL    HW125094   2.476   0.949   3.383 -0.5155 -0.2334  0.5652
 4544SOL    HW225095   2.472   1.099   3.356  0.6194 -1.0460 -0.3798
 4545SOL     OW25096   4.276   0.181  10.051 -0.1402 -0.5130 -0.6181
 4545SOL    HW125097   4.197   0.222  10.016  0.5906 -0.1324 -1.8286
 4545SOL    HW225098   4.339   0.218   9.990  0.1754  0.3745  0.2356
 4546SOL     OW25099   1.150   0.209   1.432 -0.3937  0.1725 -0.0799
 4546SOL    HW125100   1.096   0.130   1.423 -3.1196  2.3296 -2.1300
 4546SOL    HW225101   1.230   0.176   1.390 -2.0094 -1.6238 -1.7496
 4547SOL     OW25102   0.212   0.944   6.563  0.4687  0.3489  0.1654
 4547SOL    HW125103   0.215   0.849   6.549  0.6483  0.3663  0.0781
 4547SOL    HW225104   0.202   0.956   6.657  1.5399  1.8235  0.0926
 4548SOL     OW25105   0.829   0.795  11.362  0.0198  0.0462 -0.0822
 4548SOL    HW125106   0.898   0.860  11.356  1.7590 -1.7211  0.7497
 4548SOL    HW225107   0.856   0.760  11.447  3.1926  1.0818 -0.6554
 4549SOL     OW25108   4.016   0.632   7.874 -0.0240 -0.1377 -0.1188
 4549SOL    HW125109   4.101   0.658   7.910  0.8562 -2.1911 -0.7614
 4549SOL    HW225110   4.029   0.640   7.779  0.7254  3.5553  0.2949
 4550SOL     OW25111   0.212   1.917   2.109 -0.1955 -0.0049  0.3074
 4550SOL    HW125112   0.149   1.853   2.076 -0.9522  1.3560 -0.9160
 4550SOL    HW225113   0.229   1.879   2.195  0.9154 -0.2340 -0.0066
 4551SOL     OW25114   3.604   3.808   1.700  0.7684  0.4764 -0.0534
 4551SOL    HW125115   3.664   3.804   1.774 -4.2120 -2.6653  3.8133
 4551SOL    HW225116   3.626   3.737   1.640 -1.0229 -1.1021  1.1660
 4552SOL     OW25117   3.804   2.307   6.725 -0.0401  0.0698  0.5879
 4552SOL    HW125118   3.873   2.366   6.756  0.0984  0.3024 -0.1686
 4552SOL    HW225119   3.740   2.369   6.692  0.7695  0.0911 -0.9513
 4553SOL     OW25120   1.151   0.507   2.583 -0.1277  0.0455 -0.0918
 4553SOL    HW125121   1.234   0.534   2.624 -0.7716  1.6440  0.1486
 4553SOL    HW225122   1.109   0.482   2.665 -0.8952  0.6787 -0.2983
 4554SOL     OW25123   1.065   2.828   6.393 -0.6641 -0.1323  0.3642
 4554SOL    HW125124   1.078   2.885   6.317 -0.3229  0.0592  0.5653
 4554SOL    HW225125   1.154   2.793   6.394 -1.5447 -2.3693 -0.2415
 4555SOL     OW25126   3.003   1.831   5.276  0.2025 -0.4776 -0.5659
 4555SOL    HW125127   3.087   1.845   5.233  0.6953 -0.7873  0.2947
 4555SOL    HW225128   2.949   1.783   5.213  0.4802 -1.3015 -0.1797
 4556SOL     OW25129   2.574   4.365   5.273  0.4063  0.1501  0.1036
 4556SOL    HW125130   2.566   4.324   5.359 -2.0053 -0.9837 -0.6584
 4556SOL    HW225131   2.600   4.453   5.301 -1.2594  0.4226  0.8053
 4557SOL     OW25132   0.005   0.277   7.985 -0.2301  0.1053 -0.3616
 4557SOL    HW125133   0.051   0.279   7.901  0.7755 -0.1520  0.1915
 4557SOL    HW225134   0.020   0.364   8.023 -0.7079 -0.8687  2.0507
 4558SOL     OW25135   0.285   0.619   3.019 -0.2960  0.3856  0.1840
 4558SOL    HW125136   0.378   0.636   3.002  0.1595 -3.3534 -1.1722
 4558SOL    HW225137   0.273   0.536   2.973 -3.1702  0.1363  1.3842
 4559SOL     OW25138   1.882   2.506   2.840  0.5484 -0.0736  0.0891
 4559SOL    HW125139   1.865   2.412   2.832 -0.9931  0.3353 -1.3542
 4559SOL    HW225140   1.793   2.527   2.867  0.3726 -0.1523 -0.4378
 4560SOL     OW25141   2.793   1.427   0.173  0.1495  0.3309  0.2105
 4560SOL    HW125142   2.735   1.351   0.183 -0.6508  1.1226  1.5570
 4560SOL    HW225143   2.787   1.472   0.257 -0.7018  2.8594 -1.2114
 4561SOL     OW25144   0.100   0.154   1.654  0.1209  0.2676 -0.0212
 4561SOL    HW125145   0.174   0.098   1.678 -0.9456 -0.4329  1.6088
 4561SOL    HW225146   0.138   0.213   1.588  1.6173  0.5299  1.0790
 4562SOL     OW25147   3.502   1.993   3.508 -0.0935 -0.6531  0.0253
 4562SOL    HW125148   3.421   1.943   3.509 -0.9619  0.6992 -2.5034
 4562SOL    HW225149   3.470   2.071   3.463 -2.3090 -2.2254 -1.1368
 4563SOL     OW25150   4.005   2.743   6.898  0.2419 -0.3222  0.1952
 4563SOL    HW125151   4.059   2.815   6.931 -0.3706 -0.8423  2.3236
 4563SOL    HW225152   3.918   2.784   6.901  0.4458  0.0949  0.4943
 4564SOL     OW25153   2.313   1.974   1.596  0.1493  0.0486  0.8365
 4564SOL    HW125154   2.385   1.921   1.562 -1.6226 -1.0603 -1.1621
 4564SOL    HW225155   2.235   1.944   1.551 -0.4131  1.4827  0.8467
 4565SOL     OW25156   4.310   4.564   6.219 -0.0133 -0.0260 -0.0786
 4565SOL    HW125157   4.365   4.635   6.254  0.8813 -0.5459 -0.4112
 4565SOL    HW225158   4.364   4.518   6.155 -2.3691  1.7437 -3.3267
 4566SOL     OW25159   2.071   1.574  13.157 -0.3764  0.2969  0.4423
 4566SOL    HW125160   2.041   1.595  13.246 -0.3059 -2.8119  1.2328
 4566SOL    HW225161   2.140   1.639  13.149  0.9772 -0.5291  4.9203
 4567SOL     OW25162   2.769   3.766   6.469 -0.2045  0.1513  0.2257
 4567SOL    HW125163   2.732   3.677   6.467 -0.8733  0.4268  0.1562
 4567SOL    HW225164   2.857   3.738   6.444 -0.5684 -1.1618  0.4022
 4568SOL     OW25165   4.361   1.779   2.506 -0.3796 -0.2487  0.2357
 4568SOL    HW125166   4.402   1.726   2.574 -0.4845  0.1090  0.5826
 4568SOL    HW225167   4.424   1.847   2.482 -0.6180 -0.5981 -1.3561
 4569SOL     OW25168   2.322   3.897   6.376 -0.6034 -0.4310  0.6635
 4569SOL    HW125169   2.305   3.809   6.343  0.8929 -0.4450 -0.0793
 4569SOL    HW225170   2.417   3.898   6.390 -0.4541  1.0032 -0.3962
 4570SOL     OW25171   2.031   4.137   1.409 -0.5063  0.1701 -0.4913
 4570SOL    HW125172   2.102   4.201   1.405 -0.2658 -0.0028  0.7541
 4570SOL    HW225173   1.958   4.198   1.403 -0.7243 -0.1197 -0.7376
 4571SOL     OW25174   3.043   0.299  14.303  0.0330 -0.5076 -0.5010
 4571SOL    HW125175   2.967   0.321  14.248 -0.5976  0.1933  0.6595
 4571SOL    HW225176   3.056   0.214  14.259  0.1744 -0.7727  0.0491
 4572SOL     OW25177   0.643   3.499  10.909 -0.2347 -0.4061 -0.2449
 4572SOL    HW125178   0.683   3.529  10.828 -0.1449  2.2609  0.8010
 4572SOL    HW225179   0.558   3.541  10.897 -1.2819 -2.8786 -1.6216
 4573SOL     OW25180   4.287   3.628   7.960  0.5722 -0.0440  0.5616
 4573SOL    HW125181   4.197   3.611   7.987  0.7005 -0.8170  0.5152
 4573SOL    HW225182   4.296   3.568   7.885  0.7453  0.9749 -0.2323
 4574SOL     OW25183   1.552   0.036   5.636  0.6872 -0.1402 -0.0353
 4574SOL    HW125184   1.477   0.045   5.695  1.1246 -0.3603  0.5595
 4574SOL    HW225185   1.538   0.106   5.572  0.3331 -0.6818 -0.5407
 4575SOL     OW25186   0.810   3.879  16.064  0.2147 -0.4299  0.3752
 4575SOL    HW125187   0.758   3.880  16.144 -2.5463 -0.6511 -1.3967
 4575SOL    HW225188   0.739   3.866  16.001  0.4994 -1.0486  0.1864
 4576SOL     OW25189   3.938   4.139  13.347 -0.4191 -0.0728  0.3147
 4576SOL    HW125190   3.929   4.235  13.349 -1.8359 -0.1812 -1.0411
 4576SOL    HW225191   4.031   4.118  13.354 -0.5530 -0.8572 -0.2387
 4577SOL     OW25192   0.049   1.601   3.458 -0.7182  0.2122  0.0632
 4577SOL    HW125193   0.086   1.650   3.385  1.4729 -0.6870  0.5859
 4577SOL    HW225194   0.089   1.652   3.528 -0.1710  2.0876 -1.6138
 4578SOL     OW25195   0.434   4.055   6.552 -0.3327  0.1130 -0.0129
 4578SOL    HW125196   0.502   4.122   6.551 -1.9173  1.6778 -2.1209
 4578SOL    HW225197   0.493   3.983   6.575 -0.8136 -0.6918 -1.3354
 4579SOL     OW25198   1.171   4.693   5.527  0.7829  0.5799 -0.0084
 4579SOL    HW125199   1.224   4.663   5.602 -0.1888 -0.4514  0.2705
 4579SOL    HW225200   1.178   4.615   5.472 -1.2510  0.4720 -0.1123
 4580SOL     OW25201   1.899   2.984  11.647  0.0128 -0.0261 -0.5080
 4580SOL    HW125202   1.867   2.911  11.594 -1.0897  1.9634 -2.6200
 4580SOL    HW225203   1.991   2.963  11.661 -0.0882  0.2797  0.5788
 4581SOL     OW25204   2.149   2.718  12.757 -0.2336  0.1038  0.8264
 4581SOL    HW125205   2.177   2.754  12.841  1.6474  0.2595  0.1240
 4581SOL    HW225206   2.054   2.707  12.766 -0.4134  2.1172  1.3156
 4582SOL     OW25207   1.293   3.088   2.162  0.4760  0.4996  0.2414
 4582SOL    HW125208   1.218   3.073   2.104 -0.0073 -2.2224  1.5504
 4582SOL    HW225209   1.239   3.123   2.234  0.9046 -0.8313  1.2200
 4583SOL     OW25210   0.596   3.304   8.302 -0.2372 -0.0840  0.0368
 4583SOL    HW125211   0.540   3.250   8.358 -2.0072  0.4209 -1.2574
 4583SOL    HW225212   0.525   3.363   8.279 -0.9418 -0.3608  1.4628
 4584SOL     OW25213   2.810   3.651   9.057  0.0711 -0.0793 -0.3763
 4584SOL    HW125214   2.768   3.616   9.136  1.7644  1.0146  1.0041
 4584SOL    HW225215   2.889   3.597   9.066  0.5133  0.3649 -1.6755
 4585SOL     OW25216   0.503   2.791   2.741 -0.5895 -0.5486  0.1708
 4585SOL    HW125217   0.414   2.804   2.709  0.5283  2.6427 -1.5890
 4585SOL    HW225218   0.490   2.745   2.824  1.3584  2.7006  2.2555
 4586SOL     OW25219   3.475   0.256  13.367 -0.5286 -0.0398  0.6573
 4586SOL    HW125220   3.436   0.273  13.281  0.1810 -0.8417  0.1742
 4586SOL    HW225221   3.466   0.348  13.392  2.8646  1.1109 -2.3906
 4587SOL     OW25222   3.270   1.782  12.840 -0.0436  0.4467 -0.3611
 4587SOL    HW125223   3.174   1.781  12.838  0.0189  1.7602 -3.8402
 4587SOL    HW225224   3.281   1.691  12.813  0.6666 -0.1207  1.8838
 4588SOL     OW25225   0.508   1.200   2.301  0.1237 -0.6656  0.6226
 4588SOL    HW125226   0.602   1.217   2.297  0.0573 -0.3863  0.2104
 4588SOL    HW225227   0.497   1.108   2.326  0.7396 -1.0277 -0.4206
 4589SOL     OW25228   4.646   0.837   8.635 -0.3769  0.0240 -0.1448
 4589SOL    HW125229   4.719   0.779   8.616  1.2396  2.1106 -0.3772
 4589SOL    HW225230   4.660   0.856   8.728  0.8998 -0.4235 -0.2475
 4590SOL     OW25231   2.027   3.857   3.604 -1.0766 -0.2669 -0.4305
 4590SOL    HW125232   2.034   3.851   3.699 -0.6600  0.7000 -0.3996
 4590SOL    HW225233   2.077   3.780   3.577 -0.0934  0.9206 -2.0010
 4591SOL     OW25234   4.595   3.101   9.277 -0.1918 -0.0846 -0.3263
 4591SOL    HW125235   4.550   3.124   9.196  1.4427  0.8778 -0.9561
 4591SOL    HW225236   4.589   3.187   9.317  0.4465 -0.2869  0.2206
 4592SOL     OW25237   2.093   4.469  11.540  0.4041  0.7387  0.8156
 4592SOL    HW125238   2.163   4.525  11.506  1.8541 -0.6397  1.5117
 4592SOL    HW225239   2.041   4.524  11.599  2.3426  0.3069  2.9540
 4593SOL     OW25240   1.357   3.542   0.991 -0.8908  0.4541 -0.2233
 4593SOL    HW125241   1.390   3.600   1.060 -0.4609 -1.2746  1.0296
 4593SOL    HW225242   1.441   3.503   0.967 -1.5616 -0.8457 -0.4573
 4594SOL     OW25243   4.267   4.428  17.038  0.8173  0.3921 -0.0648
 4594SOL    HW125244   4.229   4.461  16.956 -1.7271 -1.0122  0.5616
 4594SOL    HW225245   4.194   4.380  17.076  0.2694  1.5559  0.3541
 4595SOL     OW25246   4.466   1.614  17.518 -0.0734 -0.3602 -0.2965
 4595SOL    HW125247   4.467   1.693  17.465  2.1325 -0.4821 -0.4443
 4595SOL    HW225248   4.407   1.642  17.588 -0.2928 -2.4833  0.3656
 4596SOL     OW25249   0.888   4.149   7.869 -0.0005  0.3824  0.4772
 4596SOL    HW125250   0.821   4.214   7.891 -0.8256  0.1508 -1.3009
 4596SOL    HW225251   0.865   4.135   7.777  0.4111  2.5562  0.0376
 4597SOL     OW25252   0.382   0.388  12.527  0.4464  0.3620 -0.7570
 4597SOL    HW125253   0.427   0.433  12.456  2.1620 -0.0828  0.0469
 4597SOL    HW225254   0.452   0.340  12.571 -0.1830 -0.3097 -0.5062
 4598SOL     OW25255   1.430   0.402   1.246 -0.3459 -0.7135 -0.4277
 4598SOL    HW125256   1.443   0.348   1.324 -3.6766 -1.3644 -0.3274
 4598SOL    HW225257   1.515   0.406   1.202 -0.2136 -1.2715 -0.2316
 4599SOL     OW25258   0.238   1.384   4.625  0.2464  0.1125 -0.3120
 4599SOL    HW125259   0.169   1.335   4.668  0.6686 -1.2293 -1.1688
 4599SOL    HW225260   0.208   1.475   4.618 -0.7566 -0.1400  0.9550
 4600SOL     OW25261   1.162   2.964  12.078  0.3657 -0.6279 -0.5076
 4600SOL    HW125262   1.170   3.053  12.044  0.5643 -0.4563 -0.0089
 4600SOL    HW225263   1.219   2.967  12.154  1.3119 -1.7620 -1.1622
 4601SOL     OW25264   3.413   2.516   8.767 -0.5900 -0.0304 -0.0643
 4601SOL    HW125265   3.429   2.606   8.794 -0.5691 -0.0025 -0.1703
 4601SOL    HW225266   3.334   2.492   8.815  1.1030 -1.5641  1.9602
 4602SOL     OW25267   1.839   4.523   9.874 -0.2667  0.4150  0.0597
 4602SOL    HW125268   1.865   4.477   9.953  0.3346 -2.0304 -1.5491
 4602SOL    HW225269   1.770   4.469   9.835  2.0567 -0.4043 -2.9239
 4603SOL     OW25270   1.014   1.508  14.329  0.2303 -0.0885 -0.2433
 4603SOL    HW125271   0.945   1.563  14.293  2.8150  2.1926 -1.7055
 4603SOL    HW225272   1.093   1.514  14.275  1.4813  1.1301  1.7252
 4604SOL     OW25273   0.544   2.959  13.107 -0.5697  0.1833  0.2713
 4604SOL    HW125274   0.452   2.985  13.098 -0.6925 -0.6439 -0.8926
 4604SOL    HW225275   0.563   3.003  13.190 -0.6817  1.5223 -0.4138
 4605SOL     OW25276   1.224   0.037   5.082  0.1013 -0.3432 -0.3236
 4605SOL    HW125277   1.157   0.094   5.119  1.1370 -1.2626  2.9372
 4605SOL    HW225278   1.278   0.101   5.035  0.1318 -1.8318 -2.2979
 4606SOL     OW25279   2.096   0.303  14.966 -0.2443  0.5389  0.0958
 4606SOL    HW125280   2.126   0.262  15.047  2.4340 -0.0218 -1.1772
 4606SOL    HW225281   2.115   0.392  14.996 -0.0626  1.1556 -1.8195
 4607SOL     OW25282   0.540   4.124   8.290  0.1245  0.1210  0.1886
 4607SOL    HW125283   0.469   4.077   8.246 -0.9874  0.2777  1.8168
 4607SOL    HW225284   0.523   4.089   8.378 -0.9113 -0.7969 -0.3696
 4608SOL     OW25285   0.922   0.302  14.298  0.1054 -0.0100  0.1287
 4608SOL    HW125286   0.831   0.278  14.315  0.0830 -0.4113 -0.5777
 4608SOL    HW225287   0.957   0.302  14.388 -1.8783  0.3004  0.8872
 4609SOL     OW25288   1.039   1.909   7.734 -0.3832 -0.2752 -0.2464
 4609SOL    HW125289   1.021   1.984   7.791 -1.1159 -0.5813 -0.0716
 4609SOL    HW225290   1.040   1.833   7.793 -2.6402  0.0792  0.2542
 4610SOL     OW25291   3.144   1.867   4.026  0.1089 -0.1713 -0.0046
 4610SOL    HW125292   3.074   1.931   4.010  0.2841  0.1033  0.3272
 4610SOL    HW225293   3.204   1.887   3.954  0.1321  0.6422  0.2408
 4611SOL     OW25294   0.071   0.116   5.927  0.6741  1.0843 -0.1238
 4611SOL    HW125295   0.091   0.208   5.942 -0.2616  1.2339  0.2190
 4611SOL    HW225296   0.010   0.095   5.998  1.7634  1.8312  1.0541
 4612SOL     OW25297   0.641   2.620   8.304 -0.0640 -0.4670 -0.5663
 4612SOL    HW125298   0.690   2.631   8.222  0.6667 -2.2804 -0.3737
 4612SOL    HW225299   0.704   2.572   8.357  1.5002  1.0420 -1.0175
 4613SOL     OW25300   3.415   3.499   1.497 -0.4885  0.0953 -0.0606
 4613SOL    HW125301   3.371   3.530   1.576 -3.0434  0.0799 -1.4626
 4613SOL    HW225302   3.503   3.502   1.535 -0.6871 -0.3513  0.4394
 4614SOL     OW25303   2.224   2.771   9.690 -0.1596  0.2693  0.7088
 4614SOL    HW125304   2.133   2.790   9.665  0.2898 -1.1835 -2.0216
 4614SOL    HW225305   2.270   2.841   9.644 -0.9110  0.2579 -0.0655
 4615SOL     OW25306   0.426   4.453   3.374  0.2495 -0.2138  0.6851
 4615SOL    HW125307   0.361   4.384   3.389  0.0373 -0.1459  0.0700
 4615SOL    HW225308   0.501   4.414   3.420  0.1789  0.1649  1.1219
 4616SOL     OW25309   0.703   0.314   5.166 -0.0479 -0.2081 -0.1477
 4616SOL    HW125310   0.663   0.400   5.157 -1.1540 -0.6192  0.8232
 4616SOL    HW225311   0.690   0.310   5.261 -2.2376 -0.0791 -0.4468
 4617SOL     OW25312   1.197   2.006   4.436  0.0891 -0.1953 -0.5108
 4617SOL    HW125313   1.214   1.918   4.469 -0.2811 -0.8680 -2.1077
 4617SOL    HW225314   1.206   2.049   4.521 -2.5243  0.2058 -0.4279
 4618SOL     OW25315   4.320   1.646  11.153  0.3212  0.3719  0.3444
 4618SOL    HW125316   4.290   1.555  11.149 -0.0511  0.5852 -1.4541
 4618SOL    HW225317   4.259   1.685  11.091 -0.3332 -0.9310  0.1507
 4619SOL     OW25318   1.177   1.912  16.803  0.2111  0.3483  0.1177
 4619SOL    HW125319   1.263   1.927  16.762  0.1356 -0.7722 -0.4388
 4619SOL    HW225320   1.124   1.938  16.728 -0.9438 -3.4629 -0.3844
 4620SOL     OW25321   0.967   0.983   7.276 -0.4319 -0.0595 -0.4809
 4620SOL    HW125322   0.920   1.028   7.347  0.9101 -1.8027  1.5068
 4620SOL    HW225323   1.050   1.029   7.265 -0.2212 -0.6452 -1.2499
 4621SOL     OW25324   2.891   4.268  13.793  0.3558 -0.5837 -0.4594
 4621SOL    HW125325   2.835   4.329  13.840  1.8441  1.1342 -0.9178
 4621SOL    HW225326   2.836   4.190  13.791  1.1437 -1.0800 -2.6066
 4622SOL     OW25327   2.364   1.346   9.305  0.0629 -0.2646  0.5235
 4622SOL    HW125328   2.279   1.389   9.297  0.7674  1.0034 -0.1363
 4622SOL    HW225329   2.369   1.283   9.233  3.1416 -0.1681  0.6300
 4623SOL     OW25330   3.509   3.243   9.537  0.5319 -0.7195  0.1666
 4623SOL    HW125331   3.489   3.151   9.552  1.2902 -1.0075 -0.6139
 4623SOL    HW225332   3.598   3.232   9.505  0.4582  1.7349 -0.8769
 4624SOL     OW25333   3.548   2.340   1.427 -0.1012 -0.4398 -0.6322
 4624SOL    HW125334   3.530   2.247   1.413  0.3652 -0.5294 -0.6317
 4624SOL    HW225335   3.461   2.378   1.442  0.2129  0.2219 -0.4876
 4625SOL     OW25336   3.373   4.596   4.181 -0.3186 -0.2877  0.4671
 4625SOL    HW125337   3.290   4.644   4.184 -1.3053 -2.0726  1.2935
 4625SOL    HW225338   3.352   4.542   4.105 -2.7408  0.4853  0.5817
 4626SOL     OW25339   1.848   3.442   4.167 -1.0082  0.2106 -0.2486
 4626SOL    HW125340   1.796   3.429   4.246 -0.4776  1.4768  0.3010
 4626SOL    HW225341   1.904   3.517   4.187 -0.4118  0.2606 -2.0823
 4627SOL     OW25342   0.830   4.243   2.904 -0.0647  0.0283  0.0610
 4627SOL    HW125343   0.817   4.322   2.955 -1.1823 -1.1755  1.6363
 4627SOL    HW225344   0.921   4.223   2.927 -0.3844  0.0446  1.3560
 4628SOL     OW25345   3.056   0.839   2.746  0.0583 -0.0474 -0.3984
 4628SOL    HW125346   3.078   0.927   2.776  1.3001 -1.4924  2.9122
 4628SOL    HW225347   3.141   0.796   2.751 -0.2407 -0.3784  1.6426
 4629SOL     OW25348   1.466   3.217  14.018  0.6947 -0.4643 -0.1709
 4629SOL    HW125349   1.517   3.296  13.997 -1.5362  1.4302  1.5687
 4629SOL    HW225350   1.406   3.249  14.085  0.2599 -1.0342 -0.2911
 4630SOL     OW25351   1.919   3.678   5.104 -0.1639  0.4718  0.0500
 4630SOL    HW125352   1.920   3.773   5.110 -1.0676  0.2669  3.4027
 4630SOL    HW225353   1.957   3.649   5.187 -1.4267  1.0294  0.8323
 4631SOL     OW25354   3.914   3.614   6.645  0.6156  0.1519  0.2096
 4631SOL    HW125355   3.895   3.528   6.682 -1.3223  0.3093 -0.4357
 4631SOL    HW225356   4.009   3.623   6.647  0.5781  0.5872  0.1900
 4632SOL     OW25357   0.970   2.645   3.901  0.9946 -0.2368 -0.5441
 4632SOL    HW125358   0.950   2.553   3.882  0.3727  0.0909 -1.4592
 4632SOL    HW225359   1.028   2.661   3.826  3.1534  0.2625  1.2394
 4633SOL     OW25360   2.824   3.435   3.185  0.5650  0.3250 -0.0861
 4633SOL    HW125361   2.781   3.392   3.259  0.3534  0.9583  0.1546
 4633SOL    HW225362   2.916   3.439   3.212  0.7336 -2.1519 -0.2019
 4634SOL     OW25363   3.174   0.225   4.257 -0.1818  0.0895  0.0310
 4634SOL    HW125364   3.180   0.251   4.165  1.9745 -1.3922 -0.2398
 4634SOL    HW225365   3.148   0.133   4.250 -1.1406  0.1536  2.8159
 4635SOL     OW25366   2.495   3.781   2.296 -0.0700  0.0149  0.1660
 4635SOL    HW125367   2.564   3.821   2.348 -0.2330  2.5860 -1.5749
 4635SOL    HW225368   2.461   3.710   2.350 -0.4448  0.2472  0.2335
 4636SOL     OW25369   4.080   0.386   4.650 -0.3954  0.3639  0.0501
 4636SOL    HW125370   4.079   0.431   4.734 -1.6426 -0.6785  0.5940
 4636SOL    HW225371   4.094   0.468   4.602  1.1735  1.4467  2.3771
 4637SOL     OW25372   0.172   4.705   5.706 -0.2676 -0.3567  0.0881
 4637SOL    HW125373   0.150   0.030   5.787  0.9795  1.9008 -0.8573
 4637SOL    HW225374   0.114   0.024   5.642  0.7462 -0.6942 -1.0325
 4638SOL     OW25375   2.797   1.843  14.607  0.2084 -0.4736  0.0866
 4638SOL    HW125376   2.830   1.892  14.533  3.1997  0.7711  2.2527
 4638SOL    HW225377   2.862   1.773  14.617  0.2506 -0.8034 -2.4026
 4639SOL     OW25378   1.521   0.969  16.508  0.3620  0.5714  0.0418
 4639SOL    HW125379   1.525   0.908  16.435 -1.2202 -0.9092  1.1970
 4639SOL    HW225380   1.581   0.921  16.565 -0.3350 -0.3202  0.0132
 4640SOL     OW25381   1.474   0.044   5.230  0.0132 -0.4094 -0.1325
 4640SOL    HW125382   1.459   0.091   5.312  0.3096 -0.2419 -0.1719
 4640SOL    HW225383   1.387   0.065   5.197  0.5067  2.0126  0.0960
 4641SOL     OW25384   3.861   4.009  12.496  0.1845 -0.2369 -0.5765
 4641SOL    HW125385   3.932   4.016  12.432 -0.2928  1.1358 -0.9634
 4641SOL    HW225386   3.796   4.048  12.437 -0.8350 -0.5287  0.3654
 4642SOL     OW25387   1.222   1.680  12.068  0.4222  0.0820 -0.6547
 4642SOL    HW125388   1.250   1.737  11.997  0.4558 -1.4939 -1.9135
 4642SOL    HW225389   1.131   1.702  12.087  0.7008 -0.9800  1.8948
 4643SOL     OW25390   1.968   3.804  12.872 -0.0308 -0.0507  0.2248
 4643SOL    HW125391   2.026   3.780  12.945  0.3936  0.8187  0.1701
 4643SOL    HW225392   2.037   3.832  12.812 -0.0667  2.5115  1.3615
 4644SOL     OW25393   4.708   0.674   6.814 -0.0779 -0.1417  0.1637
 4644SOL    HW125394   4.702   0.767   6.834 -1.9144 -0.5934  1.7049
 4644SOL    HW225395   0.040   0.670   6.735  1.6851 -1.7956  1.4437
 4645SOL     OW25396   4.696   2.913   6.799  0.0271 -0.0059  0.2277
 4645SOL    HW125397   4.715   2.937   6.890 -1.8849  0.5212  0.4761
 4645SOL    HW225398   4.603   2.894   6.796  0.0279  0.0361 -0.0606
 4646SOL     OW25399   0.648   3.468  11.868  0.4897  0.6637  0.7020
 4646SOL    HW125400   0.722   3.512  11.828 -0.7222  2.5856  0.5869
 4646SOL    HW225401   0.598   3.544  11.896 -1.2440  0.3157 -1.4165
 4647SOL     OW25402   2.214   0.676  11.043  0.1348  0.4520  0.2126
 4647SOL    HW125403   2.199   0.594  11.091 -2.2682  0.1461 -1.0684
 4647SOL    HW225404   2.126   0.703  11.016  0.2194 -0.5740 -1.0925
 4648SOL     OW25405   1.426   2.863  13.518  0.3336  0.7978  0.0726
 4648SOL    HW125406   1.398   2.845  13.608 -1.9652 -0.2220 -0.8311
 4648SOL    HW225407   1.341   2.888  13.482  0.6274  1.1159 -0.3999
 4649SOL     OW25408   2.709   3.493   6.876 -0.0202  0.2891 -0.1226
 4649SOL    HW125409   2.681   3.568   6.928 -1.8564  0.2903 -1.1324
 4649SOL    HW225410   2.773   3.537   6.820 -0.8547 -0.0119 -1.3218
 4650SOL     OW25411   1.366   0.187   5.436  0.4175  0.1551  0.1675
 4650SOL    HW125412   1.307   0.245   5.388  1.1559  1.0924  0.4078
 4650SOL    HW225413   1.300   0.127   5.473 -0.2972  0.3408 -0.7944
 4651SOL     OW25414   3.708   2.984   5.527  0.4377 -0.4929  0.0600
 4651SOL    HW125415   3.802   2.965   5.531  0.8690  1.7597  0.7759
 4651SOL    HW225416   3.688   3.017   5.615 -2.6160  0.1739 -0.9067
 4652SOL     OW25417   4.673   3.476   4.566 -0.1762 -0.6785 -0.1993
 4652SOL    HW125418   4.698   3.565   4.590 -0.1524 -0.5645 -0.6434
 4652SOL    HW225419   4.603   3.472   4.632  0.2415 -2.5215  0.1517
 4653SOL     OW25420   3.406   1.271  16.149  0.0337 -0.2158  0.3135
 4653SOL    HW125421   3.463   1.215  16.096  0.0185 -0.0834  0.1555
 4653SOL    HW225422   3.369   1.329  16.083 -2.0512 -1.4834  0.3588
 4654SOL     OW25423   0.419   2.593   0.546  0.0448 -0.0838 -0.1542
 4654SOL    HW125424   0.478   2.641   0.489  0.7023 -0.0225  0.5829
 4654SOL    HW225425   0.454   2.632   0.625  1.2309 -0.5774 -0.4412
 4655SOL     OW25426   2.630   2.694   4.803 -0.3395  0.5369 -0.3424
 4655SOL    HW125427   2.563   2.703   4.735 -1.6477  0.6882  0.9926
 4655SOL    HW225428   2.656   2.783   4.827  1.5988 -0.3247  0.7095
 4656SOL     OW25429   0.601   0.513   8.580 -0.4840  0.1538 -0.3816
 4656SOL    HW125430   0.682   0.565   8.576 -0.5713  0.4648  1.7075
 4656SOL    HW225431   0.542   0.570   8.531 -1.7984  0.2232  1.2837
 4657SOL     OW25432   1.200   4.069   4.808  0.3007  0.2012  0.5797
 4657SOL    HW125433   1.181   4.115   4.889 -2.0734 -0.1297  0.2017
 4657SOL    HW225434   1.232   4.137   4.748  1.3665 -0.6506  0.1731
 4658SOL     OW25435   2.221   1.908   3.505 -0.2025  0.3591  0.8166
 4658SOL    HW125436   2.150   1.845   3.488 -0.1981  1.2108 -2.2853
 4658SOL    HW225437   2.188   1.936   3.590 -0.7573  0.3526  0.6083
 4659SOL     OW25438   3.697   0.675  10.653 -0.2881 -0.2069  0.0606
 4659SOL    HW125439   3.779   0.655  10.698  0.7113 -0.2162 -1.7580
 4659SOL    HW225440   3.669   0.741  10.717  0.3607  0.1873 -0.0655
 4660SOL     OW25441   2.927   0.788   6.932  0.2811  0.4892 -0.2519
 4660SOL    HW125442   2.843   0.757   6.966  0.5535 -0.7750 -0.7551
 4660SOL    HW225443   2.992   0.731   6.972 -0.1651  0.4738  0.4518
 4661SOL     OW25444   4.466   3.101   1.513  0.6016  0.3551  0.5830
 4661SOL    HW125445   4.439   3.026   1.461 -0.5901 -0.0896  1.8421
 4661SOL    HW225446   4.549   3.071   1.549  1.1006  0.1377 -0.7545
 4662SOL     OW25447   2.457   3.965  10.951 -0.4294  0.0749  0.2359
 4662SOL    HW125448   2.455   4.056  10.920  0.3121 -0.5582 -1.6596
 4662SOL    HW225449   2.448   3.975  11.046  1.5722 -2.6195  0.7009
 4663SOL     OW25450   3.013   0.418   0.358  0.3843  0.0400 -0.0924
 4663SOL    HW125451   3.103   0.450   0.352  0.6367 -0.5377  0.6048
 4663SOL    HW225452   2.986   0.456   0.442 -1.2314 -2.4217  0.4993
 4664SOL     OW25453   2.428   1.757  17.404 -0.1518  0.9384 -0.1950
 4664SOL    HW125454   2.351   1.744  17.460  0.1857 -0.4458 -0.0763
 4664SOL    HW225455   2.497   1.747  17.469 -1.3519  0.9638  1.0749
 4665SOL     OW25456   2.688   2.243   9.738 -0.2058 -0.0010  0.3673
 4665SOL    HW125457   2.763   2.297   9.765  0.8720  0.5572 -3.7145
 4665SOL    HW225458   2.718   2.224   9.649  2.2096  2.3404  0.6610
 4666SOL     OW25459   1.021   0.915   3.885 -0.1658 -0.2787 -0.1596
 4666SOL    HW125460   1.067   0.996   3.908  2.2981 -1.7143  0.0227
 4666SOL    HW225461   1.058   0.913   3.797 -0.1431 -1.7106 -0.1247
 4667SOL     OW25462   4.631   0.836   7.960  0.1212  0.0989  0.0131
 4667SOL    HW125463   4.713   0.859   8.005 -1.1881  2.8973  0.9208
 4667SOL    HW225464   4.580   0.915   7.978 -0.1555 -0.3920  1.3860
 4668SOL     OW25465   4.195   1.519   8.977 -0.0440 -0.2790  0.0534
 4668SOL    HW125466   4.215   1.553   8.890 -0.8074  1.6529  0.6271
 4668SOL    HW225467   4.108   1.553   8.997  0.1016 -0.0055  0.2276
 4669SOL     OW25468   0.372   4.034   8.834  0.1282 -0.1286 -0.1123
 4669SOL    HW125469   0.393   4.023   8.927  1.2535 -0.9208 -0.4672
 4669SOL    HW225470   0.319   3.956   8.815 -1.9631  1.3071 -0.1188
 4670SOL     OW25471   4.665   2.002   8.883 -0.0223  0.1179 -0.7224
 4670SOL    HW125472   4.674   1.908   8.867  0.7298 -0.0389  0.6372
 4670SOL    HW225473   0.009   2.013   8.952  1.1698  0.5569 -1.9165
 4671SOL     OW25474   2.299   1.927   7.334  0.6336 -0.2864  0.5091
 4671SOL    HW125475   2.358   1.960   7.402  0.0052 -0.3638  1.1010
 4671SOL    HW225476   2.274   1.841   7.368 -2.8281  0.9538  1.0931
 4672SOL     OW25477   0.912   3.071   7.390 -0.7209 -0.1344  0.4457
 4672SOL    HW125478   0.901   3.105   7.478  2.0543  2.0694 -0.0316
 4672SOL    HW225479   0.821   3.061   7.363 -0.1032 -1.5468 -1.1581
 4673SOL     OW25480   1.150   1.321   9.118  0.4917  0.9197 -0.2310
 4673SOL    HW125481   1.127   1.233   9.089 -0.2667  0.7521  0.8739
 4673SOL    HW225482   1.220   1.299   9.179  0.8139 -0.1780 -1.0051
 4674SOL     OW25483   0.490   4.445   3.731 -0.1571 -0.0735  0.5164
 4674SOL    HW125484   0.480   4.362   3.685  1.3723 -0.0043  0.0551
 4674SOL    HW225485   0.422   4.442   3.798 -0.3567 -0.2191  0.3063
 4675SOL     OW25486   2.314   1.542   6.963 -0.4736  0.3940  0.0193
 4675SOL    HW125487   2.352   1.466   7.005  0.8187  0.5567 -0.8589
 4675SOL    HW225488   2.394   1.590   6.944 -0.3588  0.3446  0.3838
 4676SOL     OW25489   1.847   0.785   6.730 -0.2609  0.2141 -0.0749
 4676SOL    HW125490   1.909   0.788   6.657  0.3296  3.4900  0.5417
 4676SOL    HW225491   1.796   0.866   6.726  1.0567  1.0218 -0.5092
 4677SOL     OW25492   4.227   0.115   9.768 -0.4908  0.3897 -0.0737
 4677SOL    HW125493   4.210   0.114   9.674 -0.8343  0.5420 -0.0161
 4677SOL    HW225494   4.168   0.050   9.807  0.2601 -0.2342  0.0245
 4678SOL     OW25495   2.015   1.961   4.111  0.2173 -0.1339 -0.0479
 4678SOL    HW125496   2.068   1.883   4.128  0.5679 -0.0509 -0.7763
 4678SOL    HW225497   2.048   2.020   4.179 -2.5115 -0.6184  1.7282
 4679SOL     OW25498   4.350   3.702  11.764  0.6565  0.6083  0.3320
 4679SOL    HW125499   4.402   3.782  11.757 -0.9868  1.6070 -0.4938
 4679SOL    HW225500   4.295   3.721  11.841 -2.6040 -4.3142 -0.8206
 4680SOL     OW25501   1.053   2.600   2.165 -0.3560 -0.3322  0.0183
 4680SOL    HW125502   1.111   2.629   2.095  0.9172 -0.7568  0.8909
 4680SOL    HW225503   1.116   2.575   2.232  2.0784  2.7139 -1.1388
 4681SOL     OW25504   2.794   0.916   3.168 -0.3661  0.2600 -0.4146
 4681SOL    HW125505   2.857   0.902   3.239  0.0460  0.7807 -0.6760
 4681SOL    HW225506   2.808   1.010   3.157  2.5063  0.0717  1.6260
 4682SOL     OW25507   4.399   1.380   5.458  0.7453 -0.7476  0.3655
 4682SOL    HW125508   4.324   1.415   5.506 -0.6383 -2.6045 -0.4136
 4682SOL    HW225509   4.432   1.463   5.423 -2.6033  0.1833 -0.5764
 4683SOL     OW25510   3.936   2.662   8.037 -0.2727  0.0598 -0.3934
 4683SOL    HW125511   3.928   2.742   7.984 -1.5909 -1.1894 -2.1059
 4683SOL    HW225512   3.869   2.675   8.104 -0.3499  1.3631 -0.7180
 4684SOL     OW25513   4.608   1.405   6.256  0.6412 -0.1888  0.3815
 4684SOL    HW125514   4.574   1.333   6.309 -0.2976  2.2159  3.0614
 4684SOL    HW225515   4.652   1.460   6.321 -0.8792 -0.0204  1.2787
 4685SOL     OW25516   4.213   3.518   9.097 -0.1954  0.2723 -0.1557
 4685SOL    HW125517   4.233   3.597   9.148 -0.0036  0.1199  0.0021
 4685SOL    HW225518   4.154   3.478   9.161 -0.3983  1.9742  0.7415
 4686SOL     OW25519   0.847   3.826   2.143  0.0573 -0.1499 -1.3786
 4686SOL    HW125520   0.844   3.736   2.110  0.4100 -1.5746  2.4373
 4686SOL    HW225521   0.875   3.799   2.231  0.2575 -0.3402 -1.5021
 4687SOL     OW25522   2.544   2.901  13.246  0.2420  0.5287 -0.0073
 4687SOL    HW125523   2.595   2.982  13.254  0.1299  0.2627  3.7546
 4687SOL    HW225524   2.456   2.924  13.279 -0.5253 -1.0534 -0.9799
 4688SOL     OW25525   0.223   1.856  13.815  0.2604  0.8796 -0.1627
 4688SOL    HW125526   0.263   1.887  13.897  1.1850 -0.2851 -0.1714
 4688SOL    HW225527   0.225   1.763  13.837  1.5385  0.7060 -0.9909
 4689SOL     OW25528   3.630   0.049  15.850  0.4007 -0.0938 -0.4414
 4689SOL    HW125529   3.664   0.048  15.760 -1.8153  1.7900 -1.2775
 4689SOL    HW225530   3.542   0.083  15.834 -0.4321 -1.2767  1.5525
 4690SOL     OW25531   1.807   1.841   5.772 -0.4537 -0.4634 -0.6864
 4690SOL    HW125532   1.732   1.883   5.731 -0.4672  0.2909  0.1182
 4690SOL    HW225533   1.871   1.829   5.702 -1.2182 -0.3059 -1.4121
 4691SOL     OW25534   4.628   2.406   4.491 -0.3631  0.1081 -0.4810
 4691SOL    HW125535   4.684   2.347   4.542  0.6746  1.7039  0.2141
 4691SOL    HW225536   4.678   2.439   4.417  2.3981  0.1743  1.3802
 4692SOL     OW25537   3.091   2.894   8.030 -0.3037 -0.5205 -0.0737
 4692SOL    HW125538   3.122   2.840   8.103  0.0994  1.3604  1.1556
 4692SOL    HW225539   3.035   2.957   8.076 -0.4698 -0.6052 -0.1607
 4693SOL     OW25540   3.557   2.345   6.117  0.2294  0.5208  0.0750
 4693SOL    HW125541   3.522   2.373   6.202 -2.4015 -0.0511 -0.7919
 4693SOL    HW225542   3.632   2.403   6.108  1.1975 -0.9251 -1.0776
 4694SOL     OW25543   2.329   3.001   2.829 -0.3149 -0.3956 -0.2437
 4694SOL    HW125544   2.382   2.949   2.769 -1.3545  1.3929 -2.7107
 4694SOL    HW225545   2.290   2.921   2.863  1.7309 -1.4934 -0.5240
 4695SOL     OW25546   2.461   3.343  13.065  0.0462  0.3896 -0.2477
 4695SOL    HW125547   2.443   3.297  12.983  0.4502 -3.1652  1.6427
 4695SOL    HW225548   2.516   3.417  13.040  1.5340 -0.2683  1.1091
 4696SOL     OW25549   2.738   0.930   8.897 -0.0771 -0.1616  0.2720
 4696SOL    HW125550   2.713   0.857   8.954  2.0546 -0.9846  0.1874
 4696SOL    HW225551   2.823   0.900   8.864  0.0362  1.9311 -1.2957
 4697SOL     OW25552   1.544   4.241   4.510  0.3535 -0.2120 -0.4106
 4697SOL    HW125553   1.529   4.213   4.600 -0.5430  0.4416 -0.3615
 4697SOL    HW225554   1.459   4.235   4.466  0.0163  1.9755 -0.0519
 4698SOL     OW25555   2.728   3.840   7.523  0.6024  0.8048  0.3880
 4698SOL    HW125556   2.666   3.824   7.595 -2.6873  2.2520 -2.1279
 4698SOL    HW225557   2.768   3.754   7.516 -1.0724 -0.1088  1.8808
 4699SOL     OW25558   4.096   2.893   2.730  0.1576  0.7523 -0.3726
 4699SOL    HW125559   4.068   2.884   2.639  1.8619 -1.2319 -0.6919
 4699SOL    HW225560   4.160   2.822   2.731 -1.8809 -1.0687  1.0148
 4700SOL     OW25561   0.847   2.088  15.151  0.0266  0.0911 -0.0841
 4700SOL    HW125562   0.811   2.000  15.146 -0.5512  0.3699 -0.8465
 4700SOL    HW225563   0.908   2.076  15.223  0.8537  1.0192 -0.6363
 4701SOL     OW25564   3.996   0.362   3.171  0.0265 -0.1195 -0.4191
 4701SOL    HW125565   3.913   0.389   3.132  0.5375 -0.2192 -1.5654
 4701SOL    HW225566   4.058   0.401   3.109  0.5754  0.0345  0.2160
 4702SOL     OW25567   4.027   1.351   8.686 -0.1240  0.0203 -0.3352
 4702SOL    HW125568   3.947   1.380   8.730 -0.1343  0.4211 -0.6147
 4702SOL    HW225569   4.058   1.298   8.759  2.5185  0.8834 -0.7997
 4703SOL     OW25570   4.113   4.290   9.901 -0.1046 -0.4296  0.7011
 4703SOL    HW125571   4.142   4.201   9.878 -2.1104 -1.6273  2.7466
 4703SOL    HW225572   4.046   4.301   9.833 -0.7154  0.6381  1.4763
 4704SOL     OW25573   2.446   1.585  13.407 -1.0468  0.3379 -0.4415
 4704SOL    HW125574   2.485   1.573  13.493  1.8773 -0.2556 -1.8422
 4704SOL    HW225575   2.364   1.629  13.430 -2.1988 -1.4594 -1.0812
 4705SOL     OW25576   2.137   0.538   6.384 -0.2633  0.0717  0.2918
 4705SOL    HW125577   2.222   0.583   6.383 -0.8328  1.1435  0.5007
 4705SOL    HW225578   2.077   0.600   6.425  0.1928 -0.6696  2.0476
 4706SOL     OW25579   0.505   4.568   7.529 -0.3142  0.4396 -0.8449
 4706SOL    HW125580   0.524   4.616   7.610  1.2822  0.7902 -1.4377
 4706SOL    HW225581   0.539   4.483   7.556 -1.4386 -0.0867 -1.0901
 4707SOL     OW25582   2.189   0.056   3.247  0.6778  0.1972  0.1463
 4707SOL    HW125583   2.114   0.088   3.197 -1.6643 -1.5327  2.5344
 4707SOL    HW225584   2.171   0.092   3.334  1.9181 -0.5110  0.7003
 4708SOL     OW25585   0.626   4.420   0.231  0.0663  0.2963  0.1483
 4708SOL    HW125586   0.540   4.407   0.272 -0.1466  1.3438  0.0452
 4708SOL    HW225587   0.627   4.503   0.183 -0.0906  0.1894 -0.0378
 4709SOL     OW25588   1.481   1.928   8.231 -0.1663  0.0542 -0.2026
 4709SOL    HW125589   1.514   1.920   8.320 -0.1677 -0.6644 -0.2643
 4709SOL    HW225590   1.542   1.872   8.183 -0.9350 -0.9328 -0.0248
 4710SOL     OW25591   0.698   1.355   1.680  0.8325  0.2558 -0.4689
 4710SOL    HW125592   0.681   1.445   1.710  0.9562  0.6988 -1.7196
 4710SOL    HW225593   0.794   1.356   1.684  0.8615 -2.9871 -0.7738
 4711SOL     OW25594   0.282   1.675  15.171  0.1052  0.2984 -0.4416
 4711SOL    HW125595   0.374   1.701  15.178 -0.2743  1.2410  1.1352
 4711SOL    HW225596   0.287   1.581  15.152  1.3833  0.2348  0.1801
 4712SOL     OW25597   0.289   3.889   7.660 -0.0114  0.1748  0.1752
 4712SOL    HW125598   0.340   3.954   7.708 -0.1924  0.7184 -0.3717
 4712SOL    HW225599   0.231   3.849   7.725  0.0423  0.1119  0.1845
 4713SOL     OW25600   0.802   2.732   4.392  0.5714  0.6126  0.2017
 4713SOL    HW125601   0.876   2.740   4.332  1.1451  1.4841  1.0195
 4713SOL    HW225602   0.779   2.644   4.364  0.2180  1.0152 -0.7956
 4714SOL     OW25603   4.351   2.627   7.995 -0.4895  0.0495  0.3089
 4714SOL    HW125604   4.325   2.652   8.084 -1.2296  0.3624  0.0016
 4714SOL    HW225605   4.444   2.651   7.993 -0.0914 -1.3413  1.5273
 4715SOL     OW25606   1.281   3.760   8.062  0.6466  0.0394 -0.2367
 4715SOL    HW125607   1.188   3.777   8.051  0.9695  2.0186  0.0693
 4715SOL    HW225608   1.306   3.690   8.003  0.9167  0.4093 -0.5629
 4716SOL     OW25609   1.973   1.223   3.685  0.5379  0.0925  0.2634
 4716SOL    HW125610   1.936   1.148   3.730  2.2511 -1.1131 -0.3371
 4716SOL    HW225611   2.050   1.185   3.642  0.4035 -0.1305  0.2259
 4717SOL     OW25612   1.737   1.404   2.273 -0.2569  0.2057  0.2092
 4717SOL    HW125613   1.785   1.481   2.243  0.0152 -0.3111 -0.6830
 4717SOL    HW225614   1.653   1.425   2.231  0.2713  1.2637 -0.3201
 4718SOL     OW25615   2.882   1.288   1.055 -0.4628  0.5118  0.1379
 4718SOL    HW125616   2.909   1.214   1.109 -1.4937  1.1844  1.5793
 4718SOL    HW225617   2.940   1.277   0.979 -1.1306 -1.0086 -0.1524
 4719SOL     OW25618   3.297   4.301   7.973 -0.0915 -0.1551  0.3300
 4719SOL    HW125619   3.239   4.241   8.021  4.0808 -2.8885  1.9904
 4719SOL    HW225620   3.302   4.381   8.025  1.8781  0.4568 -0.8052
 4720SOL     OW25621   3.853   1.923   5.190 -0.1967  0.1662  0.1714
 4720SOL    HW125622   3.907   1.878   5.125  0.4871 -0.5982  1.2634
 4720SOL    HW225623   3.806   1.963   5.117 -0.0591  1.9688  1.0613
 4721SOL     OW25624   4.459   1.122   2.491 -0.1353 -0.3692  0.9056
 4721SOL    HW125625   4.475   1.080   2.575 -0.3037  0.8406  1.5286
 4721SOL    HW225626   4.545   1.144   2.455 -0.5741 -0.3458 -0.1391
 4722SOL     OW25627   0.835   3.010   4.113  0.3031  0.0703 -0.0941
 4722SOL    HW125628   0.880   3.094   4.103  0.8744 -0.2061  0.1436
 4722SOL    HW225629   0.904   2.944   4.115 -0.1655 -0.4242 -0.0151
 4723SOL     OW25630   4.161   3.092   9.172  0.2661 -0.6436 -0.0440
 4723SOL    HW125631   4.170   3.177   9.215 -1.6493  0.2127 -1.3891
 4723SOL    HW225632   4.151   3.040   9.252 -2.6698  0.3448  0.2190
 4724SOL     OW25633   1.273   0.690   5.463 -0.2346  0.9149 -0.3035
 4724SOL    HW125634   1.312   0.702   5.376  1.3160  3.1404  0.7129
 4724SOL    HW225635   1.307   0.603   5.484 -0.2141  1.0411  0.1895
 4725SOL     OW25636   1.365   0.274  14.961 -0.1065  0.1345 -0.5300
 4725SOL    HW125637   1.288   0.225  14.989  0.9619 -1.4958 -0.4901
 4725SOL    HW225638   1.338   0.366  14.959  0.3129  0.2916  0.4939
 4726SOL     OW25639   4.345   2.991   3.608 -0.2920  0.2926  0.0663
 4726SOL    HW125640   4.266   2.971   3.557 -0.9118 -1.1574  1.6255
 4726SOL    HW225641   4.322   2.955   3.693 -0.3703  1.7880  0.6844
 4727SOL     OW25642   1.477   0.043   8.551 -0.6094  0.1772 -0.1570
 4727SOL    HW125643   1.572   0.032   8.559 -0.9390 -2.3028  0.4112
 4727SOL    HW225644   1.444   0.019   8.637 -0.7379  3.6437  0.7310
 4728SOL     OW25645   0.311   3.508   7.596 -0.0861  0.0516 -0.6692
 4728SOL    HW125646   0.388   3.531   7.648  0.1566 -2.3614  0.0301
 4728SOL    HW225647   0.262   3.445   7.649 -0.0152 -0.9065 -1.7560
 4729SOL     OW25648   0.550   0.662   3.361 -0.3494 -0.2947 -0.0469
 4729SOL    HW125649   0.460   0.667   3.328 -0.6477 -0.9422  0.6747
 4729SOL    HW225650   0.562   0.569   3.344 -1.7786 -0.3465 -0.8072
 4730SOL     OW25651   1.614   0.655   5.997  0.3947  0.3698 -0.4417
 4730SOL    HW125652   1.695   0.659   5.947 -0.2107 -2.5136 -1.6370
 4730SOL    HW225653   1.571   0.723   5.946  2.6170  1.7881 -0.4311
 4731SOL     OW25654   3.615   2.104   8.392 -0.0748  0.2390  0.1361
 4731SOL    HW125655   3.701   2.143   8.384 -0.6633  0.8336 -3.4226
 4731SOL    HW225656   3.628   2.009   8.400  0.6281  0.2476 -0.8612
 4732SOL     OW25657   1.414   2.453   7.546 -0.1719 -0.0097 -0.0774
 4732SOL    HW125658   1.432   2.545   7.530 -0.7518  0.0442 -0.4146
 4732SOL    HW225659   1.330   2.454   7.592 -0.8736 -3.6633 -1.2550
 4733SOL     OW25660   2.470   2.581  13.541  0.2916  0.0977 -0.6117
 4733SOL    HW125661   2.414   2.571  13.618  0.8320  0.5923 -0.1520
 4733SOL    HW225662   2.496   2.673  13.550  0.3637 -0.0551  0.7680
 4734SOL     OW25663   1.692   1.939   3.344  0.0840 -0.2887 -0.2249
 4734SOL    HW125664   1.701   1.903   3.432 -1.9612  0.4551  0.2870
 4734SOL    HW225665   1.597   1.948   3.349  0.0602 -0.6016 -0.1157
 4735SOL     OW25666   2.475   0.131   3.834 -0.8108 -0.1211  0.4390
 4735SOL    HW125667   2.529   0.169   3.765 -1.3363 -0.1417  0.0186
 4735SOL    HW225668   2.412   0.081   3.782 -0.4788  0.6360 -0.6859
 4736SOL     OW25669   3.878   3.587   9.239 -0.4236  0.1148  0.4091
 4736SOL    HW125670   3.924   3.652   9.292 -0.1014 -0.4235  0.7861
 4736SOL    HW225671   3.892   3.501   9.279  0.5979 -0.0116 -0.2058
 4737SOL     OW25672   2.805   2.835  15.196 -0.4918 -0.0200 -0.2857
 4737SOL    HW125673   2.756   2.889  15.257  0.7736  2.7222 -1.6599
 4737SOL    HW225674   2.802   2.749  15.237 -0.7557  0.9429  1.7167
 4738SOL     OW25675   0.175   1.419   6.966  0.4431  0.2227 -0.9619
 4738SOL    HW125676   0.218   1.334   6.973 -0.7122 -0.1494  1.6822
 4738SOL    HW225677   0.188   1.450   7.056 -2.1608 -1.2197 -0.1010
 4739SOL     OW25678   3.041   2.104   4.395 -0.7672  0.1302 -0.4190
 4739SOL    HW125679   3.075   2.186   4.430  0.5394 -0.7578  0.4280
 4739SOL    HW225680   2.961   2.132   4.353 -0.2030 -0.1052 -1.6407
 4740SOL     OW25681   1.536   4.721   9.828  0.7476  0.0605 -0.2270
 4740SOL    HW125682   1.469   0.059   9.794 -0.4870 -1.0834  0.1857
 4740SOL    HW225683   1.504   4.636   9.798  1.3849  0.1744 -1.2332
 4741SOL     OW25684   4.227   3.170   8.606  0.4392 -1.1484  0.1394
 4741SOL    HW125685   4.212   3.213   8.522  0.1837 -1.1673  0.1743
 4741SOL    HW225686   4.163   3.214   8.662  3.0940  2.4840  0.3033
 4742SOL     OW25687   3.665   4.127  12.334  0.2437 -0.3491 -0.4086
 4742SOL    HW125688   3.668   4.186  12.409  0.3120 -0.9788  0.0862
 4742SOL    HW225689   3.632   4.196  12.277 -1.0089  0.8573  1.7917
 4743SOL     OW25690   2.454   4.120  12.848  0.0071 -0.6506  0.2341
 4743SOL    HW125691   2.501   4.142  12.768  0.4473  0.1920  0.7240
 4743SOL    HW225692   2.472   4.194  12.906 -0.0497 -1.4488  1.2721
 4744SOL     OW25693   3.747   1.808  15.896  0.5960  0.2255  0.5026
 4744SOL    HW125694   3.684   1.820  15.824  0.6844 -1.2405  0.1801
 4744SOL    HW225695   3.700   1.735  15.936  0.2175  0.1975  0.0124
 4745SOL     OW25696   2.226   0.289   4.168 -0.2353  0.0292 -0.0921
 4745SOL    HW125697   2.270   0.362   4.213  0.3707  0.7631 -1.8473
 4745SOL    HW225698   2.199   0.326   4.084 -2.1723  0.4030  0.7087
 4746SOL     OW25699   1.293   1.407   2.274 -0.3220  0.3678 -0.0699
 4746SOL    HW125700   1.359   1.403   2.343 -1.5794 -3.8142  0.8296
 4746SOL    HW225701   1.218   1.398   2.332  1.0306 -0.4417  1.5289
 4747SOL     OW25702   2.725   4.123  13.496  0.5389  0.8191 -0.1094
 4747SOL    HW125703   2.662   4.151  13.562  1.4724 -0.1079  1.1978
 4747SOL    HW225704   2.696   4.169  13.418  2.7714  0.6693 -1.0288
 4748SOL     OW25705   3.749   2.356  15.683  0.4081  0.4674 -0.0833
 4748SOL    HW125706   3.743   2.335  15.590  0.8531 -1.7289  0.3834
 4748SOL    HW225707   3.712   2.274  15.716  1.2362  0.3278  0.4958
 4749SOL     OW25708   0.618   2.094   8.450  0.1799 -0.1946  0.2043
 4749SOL    HW125709   0.633   2.059   8.538 -3.4759 -1.0626  0.4976
 4749SOL    HW225710   0.617   2.189   8.459  1.7875  0.2160 -3.7983
 4750SOL     OW25711   0.302   2.228  11.335 -0.7325  0.0761 -0.2322
 4750SOL    HW125712   0.219   2.204  11.377 -0.8438  1.5176  0.3513
 4750SOL    HW225713   0.358   2.231  11.412 -3.3963 -0.1671  1.7446
 4751SOL     OW25714   3.029   1.156  16.849 -0.3113  0.2229 -0.0103
 4751SOL    HW125715   2.955   1.180  16.793  0.4373 -0.6355 -1.3622
 4751SOL    HW225716   3.105   1.172  16.793 -0.1136 -1.2472 -0.1673
 4752SOL     OW25717   2.265   3.602   2.906 -0.1303 -0.7147  0.2090
 4752SOL    HW125718   2.211   3.591   2.828  2.5074 -1.7102 -1.4595
 4752SOL    HW225719   2.247   3.514   2.939  0.3516 -0.3729  1.3658
 4753SOL     OW25720   2.887   4.659  14.285 -0.0183 -0.3511 -0.0359
 4753SOL    HW125721   2.974   4.665  14.324 -1.2849  0.4025  2.6125
 4753SOL    HW225722   2.855   0.028  14.283  1.1654  0.0264 -2.1156
 4754SOL     OW25723   0.772   2.601   6.034 -0.3762 -0.1506 -0.1665
 4754SOL    HW125724   0.811   2.629   6.117  1.3876  0.7681 -1.2897
 4754SOL    HW225725   0.682   2.624   6.056  0.3134  1.7344  0.6701
 4755SOL     OW25726   2.995   0.949   7.398  0.2475  0.1835 -0.1402
 4755SOL    HW125727   3.088   0.959   7.416  0.1901  2.7056 -1.2416
 4755SOL    HW225728   2.993   0.858   7.369 -0.9761  0.1759 -0.0381
 4756SOL     OW25729   0.615   4.255  10.737  0.5889  0.2050 -0.1650
 4756SOL    HW125730   0.654   4.331  10.780 -1.5536  0.2066  1.7968
 4756SOL    HW225731   0.677   4.252  10.665 -0.1475  1.3942 -0.8534
 4757SOL     OW25732   2.273   0.360   3.395 -0.0493  0.1976  0.1236
 4757SOL    HW125733   2.199   0.401   3.439 -0.5944 -0.2557 -0.3741
 4757SOL    HW225734   2.234   0.345   3.308 -0.0351 -0.0062  0.1508
 4758SOL     OW25735   4.442   0.933   9.237  0.2063 -0.0051  0.0917
 4758SOL    HW125736   4.532   0.965   9.236  0.5617 -1.0277 -0.2188
 4758SOL    HW225737   4.449   0.841   9.260 -0.0740 -0.0358  0.0586
 4759SOL     OW25738   3.277   0.328  12.342  0.1149  0.0193  0.1825
 4759SOL    HW125739   3.220   0.251  12.338  2.2215 -1.4418 -2.1156
 4759SOL    HW225740   3.229   0.382  12.404  0.4824 -0.2150  0.6805
 4760SOL     OW25741   1.182   4.304   7.007 -0.0732  0.2024 -0.2962
 4760SOL    HW125742   1.116   4.234   7.006  0.4891 -0.3358  0.6381
 4760SOL    HW225743   1.128   4.376   7.041 -0.8173 -0.1860 -0.6537
 4761SOL     OW25744   3.663   3.531   1.582  0.4909  0.0080 -0.2991
 4761SOL    HW125745   3.758   3.528   1.589  0.5302  1.4582 -0.2081
 4761SOL    HW225746   3.637   3.456   1.635  0.3179  0.9487  0.9274
 4762SOL     OW25747   2.920   3.221  15.549 -0.1594 -0.1637 -0.3213
 4762SOL    HW125748   2.922   3.278  15.626 -0.7892  0.2133 -0.5800
 4762SOL    HW225749   2.831   3.188  15.559  0.4458 -1.3538  0.9967
 4763SOL     OW25750   2.727   2.902  15.813 -0.1381  0.6008 -0.5782
 4763SOL    HW125751   2.701   2.919  15.723  1.0314 -1.4585 -1.3064
 4763SOL    HW225752   2.721   2.806  15.810 -0.8688  0.5794  1.7101
 4764SOL     OW25753   4.622   3.625   1.439  0.6212  0.3862  0.3762
 4764SOL    HW125754   4.670   3.662   1.513  2.3492  0.4486 -0.7704
 4764SOL    HW225755   4.571   3.552   1.474 -0.8027  0.5457 -1.3199
 4765SOL     OW25756   1.600   0.454   6.224  0.1236 -0.2658 -0.0969
 4765SOL    HW125757   1.687   0.426   6.194  0.4463  1.6415 -0.9020
 4765SOL    HW225758   1.571   0.511   6.153 -0.7470 -0.0072  0.4710
 4766SOL     OW25759   0.728   4.079   4.418  0.2447  0.3767  0.0586
 4766SOL    HW125760   0.663   4.149   4.415 -0.4799 -0.2306  1.8319
 4766SOL    HW225761   0.791   4.124   4.474  0.9560  0.5463 -0.8763
 4767SOL     OW25762   1.525   4.069   8.329 -0.1503 -0.1565  0.1480
 4767SOL    HW125763   1.448   4.017   8.306  1.5629 -2.6533  0.1563
 4767SOL    HW225764   1.595   4.004   8.332  1.9588  2.1222  0.2583
 4768SOL     OW25765   0.183   2.430   5.830 -0.4036  0.4449  0.9692
 4768SOL    HW125766   0.200   2.449   5.738 -1.6894  0.2384  0.6852
 4768SOL    HW225767   0.173   2.517   5.870  1.6701  2.1096 -2.2019
 4769SOL     OW25768   2.438   0.784  10.928 -0.4628 -0.4795 -0.7316
 4769SOL    HW125769   2.428   0.692  10.952 -2.4084 -0.5427 -1.7925
 4769SOL    HW225770   2.367   0.836  10.966 -0.7720 -1.1817 -0.3525
 4770SOL     OW25771   4.661   1.088   0.586 -0.7780 -0.0060 -0.4305
 4770SOL    HW125772   4.582   1.041   0.611 -0.7966  0.6563  0.7412
 4770SOL    HW225773   4.660   1.071   0.492 -3.9213  0.5654 -0.4709
 4771SOL     OW25774   3.786   1.232  11.140 -0.1625  0.0448 -0.2698
 4771SOL    HW125775   3.808   1.300  11.077  1.5613 -0.3095 -0.0577
 4771SOL    HW225776   3.761   1.299  11.204  1.0836  0.0863  0.1674
 4772SOL     OW25777   2.475   1.765   0.711 -0.3012 -1.0484  0.7124
 4772SOL    HW125778   2.420   1.842   0.723  1.1621  0.1719 -0.4196
 4772SOL    HW225779   2.534   1.793   0.641 -1.1316 -1.4174 -0.1472
 4773SOL     OW25780   1.300   4.450   8.199  0.0731 -0.1381 -0.0812
 4773SOL    HW125781   1.207   4.459   8.176  0.5230  0.8234 -1.5492
 4773SOL    HW225782   1.333   4.538   8.216  2.7161 -0.5208 -3.2253
 4774SOL     OW25783   0.606   4.427   9.739 -0.4040 -0.3572  0.3332
 4774SOL    HW125784   0.585   4.402   9.829 -0.7439 -2.9124 -0.4764
 4774SOL    HW225785   0.587   4.343   9.699  1.3937 -0.8531  0.5266
 4775SOL     OW25786   4.214   4.549  11.796 -0.2342 -0.6096  0.3624
 4775SOL    HW125787   4.152   4.582  11.731 -1.3770  0.8457  2.1849
 4775SOL    HW225788   4.302   4.570  11.764 -1.6887  1.3533 -2.3804
 4776SOL     OW25789   3.064   1.501   2.679 -0.7431  0.3961  0.7111
 4776SOL    HW125790   2.972   1.476   2.682 -0.4394 -0.6153  1.8213
 4776SOL    HW225791   3.109   1.420   2.706 -0.2659  0.5502  0.3849
 4777SOL     OW25792   0.965   0.572   1.744  0.0721  0.3683 -0.0019
 4777SOL    HW125793   0.975   0.479   1.723 -0.0718  0.2843  0.3048
 4777SOL    HW225794   0.873   0.565   1.766  0.1502 -0.1508  0.1709
 4778SOL     OW25795   4.169   1.304   7.811 -0.5284 -0.1909  0.1490
 4778SOL    HW125796   4.123   1.287   7.893 -1.0245  2.9268  0.5372
 4778SOL    HW225797   4.118   1.383   7.791  2.4907  1.0900 -2.4554
 4779SOL     OW25798   1.928   0.236  14.533  0.0669 -0.9316  0.7445
 4779SOL    HW125799   1.854   0.249  14.593  1.7104 -0.1600  2.6053
 4779SOL    HW225800   1.997   0.285  14.577 -1.5523  3.1149 -1.2710
 4780SOL     OW25801   1.979   4.413   3.160 -0.0780 -0.5309  0.4212
 4780SOL    HW125802   2.064   4.456   3.166  0.3006 -1.0404 -1.2702
 4780SOL    HW225803   1.941   4.470   3.093  1.2570  0.4876  0.5292
 4781SOL     OW25804   3.040   0.204  15.579  0.4918  1.1111 -0.3713
 4781SOL    HW125805   3.009   0.133  15.636 -2.0387  2.1423 -0.4719
 4781SOL    HW225806   3.047   0.277  15.641 -0.1627  1.1508 -0.3472
 4782SOL     OW25807   3.088   4.406  12.431  0.5119 -0.3956  0.2712
 4782SOL    HW125808   3.090   4.469  12.359 -0.0821 -1.8847 -1.0403
 4782SOL    HW225809   2.999   4.374  12.418 -0.0298  0.8464  0.8637
 4783SOL     OW25810   1.481   0.700   9.861 -0.4870  0.1753  0.2063
 4783SOL    HW125811   1.410   0.647   9.825  0.4348 -1.1511  0.3485
 4783SOL    HW225812   1.434   0.752   9.927 -1.0658  0.1228 -0.1613
 4784SOL     OW25813   1.830   0.503   6.472  0.4789  0.4059  0.0203
 4784SOL    HW125814   1.833   0.532   6.381 -1.5044  0.5071 -0.0288
 4784SOL    HW225815   1.767   0.559   6.519  1.3386  0.9998  0.4706
 4785SOL     OW25816   3.469   0.615   6.538  0.4019  0.7451  0.6112
 4785SOL    HW125817   3.406   0.598   6.468  1.0817 -1.6326  0.5892
 4785SOL    HW225818   3.530   0.541   6.535 -0.4306  0.1258 -0.9869
 4786SOL     OW25819   2.743   2.663   0.960 -1.0124 -0.8829  0.6962
 4786SOL    HW125820   2.720   2.637   0.871  0.4661  2.6307 -0.7319
 4786SOL    HW225821   2.774   2.578   0.992 -1.1453 -1.5202 -0.8876
 4787SOL     OW25822   3.432   4.425   5.141 -0.2482 -0.2906  0.1620
 4787SOL    HW125823   3.423   4.398   5.050 -1.2729  1.1220 -0.1626
 4787SOL    HW225824   3.521   4.396   5.157  0.7841  3.0511  0.5086
 4788SOL     OW25825   2.220   0.360  11.133  0.3216 -0.1968  0.2653
 4788SOL    HW125826   2.262   0.358  11.219  1.1985  0.1045 -0.1595
 4788SOL    HW225827   2.292   0.318  11.087 -0.2980 -1.2966  0.3131
 4789SOL     OW25828   3.400   4.561  13.564  0.0225 -0.1363 -0.0780
 4789SOL    HW125829   3.456   4.636  13.543  0.0874 -0.1401  0.0806
 4789SOL    HW225830   3.456   4.509  13.622  0.9912  1.5215  0.4915
 4790SOL     OW25831   3.390   3.048   5.539  0.3055 -0.2138 -0.5022
 4790SOL    HW125832   3.329   2.977   5.557 -1.6040  1.2246 -1.3639
 4790SOL    HW225833   3.377   3.092   5.622  1.5683  0.6693 -0.7647
 4791SOL     OW25834   0.754   4.662  12.000 -0.1009 -0.0281 -0.2330
 4791SOL    HW125835   0.674   4.614  12.021  1.6780 -2.2113  1.5595
 4791SOL    HW225836   0.823   4.603  12.032 -0.8125 -0.5985  0.2560
 4792SOL     OW25837   0.850   0.564   4.030  0.9134 -0.5278 -0.0834
 4792SOL    HW125838   0.780   0.504   4.055  0.2938 -0.2916 -1.2330
 4792SOL    HW225839   0.873   0.554   3.937  0.6011  0.6557 -0.2866
 4793SOL     OW25840   3.575   0.172   1.510 -0.2056  0.5546 -0.0588
 4793SOL    HW125841   3.660   0.132   1.493  0.4825  1.5997  0.8905
 4793SOL    HW225842   3.591   0.261   1.478 -0.4400  0.9248  0.8504
 4794SOL     OW25843   3.876   2.962   0.820  0.4083 -0.1428  0.0550
 4794SOL    HW125844   3.918   2.891   0.771 -2.2107 -1.9326  0.3869
 4794SOL    HW225845   3.788   2.965   0.781  0.0011  0.1598  1.0060
 4795SOL     OW25846   0.565   1.340   8.147 -0.3601 -0.1757  0.4299
 4795SOL    HW125847   0.654   1.314   8.172  0.0223 -0.0989 -0.8419
 4795SOL    HW225848   0.557   1.402   8.219 -0.9706  1.2001 -0.8174
 4796SOL     OW25849   3.826   2.249   8.295  0.2882 -0.3824 -0.2935
 4796SOL    HW125850   3.834   2.280   8.205 -0.0381  0.8898  0.1251
 4796SOL    HW225851   3.898   2.186   8.295 -1.4927 -2.4137  0.1434
 4797SOL     OW25852   0.022   3.385   7.223  0.5332  0.4792  0.0979
 4797SOL    HW125853   0.044   3.329   7.298  0.3082  1.7830  1.1454
 4797SOL    HW225854   4.666   3.424   7.263 -0.4488  0.9589 -2.3244
 4798SOL     OW25855   0.597   0.543  15.350  0.7489  0.0179 -0.2727
 4798SOL    HW125856   0.607   0.619  15.406  2.3280 -0.0701 -0.4441
 4798SOL    HW225857   0.501   0.542  15.344  0.6778  0.2084  0.9850
 4799SOL     OW25858   0.823   1.671   1.235  0.0287 -0.2312  0.0702
 4799SOL    HW125859   0.828   1.761   1.265  0.2486 -1.1556  2.7473
 4799SOL    HW225860   0.810   1.701   1.145 -0.6925 -1.4686 -0.2403
 4800SOL     OW25861   1.295   4.318  13.907 -0.1529 -0.1545 -0.0892
 4800SOL    HW125862   1.235   4.380  13.866  0.5705  0.8819  0.4431
 4800SOL    HW225863   1.349   4.296  13.831  1.5251  0.4264  0.9281
 4801SOL     OW25864   3.627   1.050  15.696  0.3553 -0.6385 -0.4848
 4801SOL    HW125865   3.617   0.964  15.656  0.5780  0.7327 -3.4789
 4801SOL    HW225866   3.708   1.026  15.741 -0.4256  0.6324  1.5959
 4802SOL     OW25867   1.220   1.095   1.753  0.0795  0.5639  0.0590
 4802SOL    HW125868   1.304   1.140   1.756  1.2164 -1.3759 -2.0532
 4802SOL    HW225869   1.214   1.056   1.840 -0.2629  0.1439 -0.1494
 4803SOL     OW25870   0.518   3.735   3.042 -0.7175  0.4352  0.2591
 4803SOL    HW125871   0.463   3.684   3.100 -2.4655  1.8591 -0.1307
 4803SOL    HW225872   0.469   3.775   2.970 -1.6744  0.9336  1.1827
 4804SOL     OW25873   2.695   2.720   3.029 -0.5086  0.2565 -0.2908
 4804SOL    HW125874   2.743   2.647   2.989  1.5178  2.1202 -1.3443
 4804SOL    HW225875   2.702   2.785   2.958  1.0963  1.5307  1.0379
 4805SOL     OW25876   4.105   0.699   9.260  0.4161  0.7750  0.0154
 4805SOL    HW125877   4.142   0.676   9.345 -0.8760 -0.7865  0.1571
 4805SOL    HW225878   4.012   0.708   9.278  0.7021  1.5862  1.0571
 4806SOL     OW25879   0.284   0.931   2.784  0.0265  0.4070 -0.5080
 4806SOL    HW125880   0.230   0.959   2.858 -0.2572 -1.0396 -0.1716
 4806SOL    HW225881   0.235   0.855   2.753  1.1014 -0.5083  0.0069
 4807SOL     OW25882   2.370   2.441   8.097 -0.2320  0.1988  0.1031
 4807SOL    HW125883   2.287   2.462   8.053 -0.5664 -0.7916  0.2658
 4807SOL    HW225884   2.426   2.494   8.041  2.6686 -2.6343  0.3155
 4808SOL     OW25885   1.219   0.369   2.888  0.0871 -0.1308 -0.0544
 4808SOL    HW125886   1.217   0.308   2.815  0.4102 -1.0613  0.7117
 4808SOL    HW225887   1.132   0.409   2.884 -0.4888 -1.2525  0.9654
 4809SOL     OW25888   3.124   2.726   4.698 -0.4389 -0.0113 -0.0200
 4809SOL    HW125889   3.137   2.729   4.792  1.1709 -1.8176 -0.1905
 4809SOL    HW225890   3.207   2.766   4.673 -0.1758 -0.1795  0.6018
 4810SOL     OW25891   2.897   3.101   1.448  0.0620  0.2811  0.0741
 4810SOL    HW125892   2.811   3.078   1.483  0.3242 -0.7609  0.0398
 4810SOL    HW225893   2.938   3.154   1.517  0.8045  1.2226 -1.0835
 4811SOL     OW25894   2.797   3.352   3.785 -0.2447  0.2877 -0.3818
 4811SOL    HW125895   2.702   3.354   3.786 -0.2796 -1.1153 -1.6019
 4811SOL    HW225896   2.804   3.259   3.761 -1.9908  0.1736 -0.4526
 4812SOL     OW25897   1.525   2.081   6.008 -0.0226 -0.2239  0.4818
 4812SOL    HW125898   1.575   2.003   6.031  1.1335  0.1083 -0.8763
 4812SOL    HW225899   1.471   2.059   5.932 -1.8590 -0.6328  1.9063
 4813SOL     OW25900   1.351   2.507  16.576 -0.8578 -0.4070  0.4249
 4813SOL    HW125901   1.344   2.601  16.594 -0.3550 -0.6302  1.7409
 4813SOL    HW225902   1.280   2.481  16.634 -0.2129 -1.0112  0.9395
 4814SOL     OW25903   0.212   0.465   9.350  0.3175  0.8468  0.3348
 4814SOL    HW125904   0.199   0.372   9.329 -2.7623  1.6927 -1.4993
 4814SOL    HW225905   0.299   0.488   9.316 -0.0188  0.0266 -1.0920
 4815SOL     OW25906   3.513   2.848  16.479  0.5469 -0.2710  0.2728
 4815SOL    HW125907   3.432   2.797  16.469  0.2204  0.4194 -0.5351
 4815SOL    HW225908   3.575   2.776  16.483 -0.2111 -1.0252 -1.6937
 4816SOL     OW25909   1.975   4.596   5.632 -0.2276  0.0200 -0.4343
 4816SOL    HW125910   1.949   4.504   5.633  1.9365 -0.5903  0.1686
 4816SOL    HW225911   2.023   4.608   5.550 -0.7458 -0.7389 -0.8457
 4817SOL     OW25912   3.202   1.045   4.418  0.3135 -0.4597  0.1695
 4817SOL    HW125913   3.267   0.975   4.411  0.9954  0.2497 -0.5854
 4817SOL    HW225914   3.247   1.129   4.427  0.7646 -0.7081  0.2393
 4818SOL     OW25915   2.502   0.860   7.597  0.3883  0.0593 -0.0878
 4818SOL    HW125916   2.566   0.893   7.535  0.0654 -0.6874 -0.8207
 4818SOL    HW225917   2.425   0.903   7.559  0.3995 -0.4828 -0.7303
 4819SOL     OW25918   2.239   0.009  11.606 -0.5217  0.3629 -0.6601
 4819SOL    HW125919   2.298   4.661  11.636 -1.2299  0.2706  0.5366
 4819SOL    HW225920   2.275   0.082  11.656 -0.9381  0.5857 -0.6813
 4820SOL     OW25921   4.611   1.948  12.039 -0.0581 -0.1814  0.1528
 4820SOL    HW125922   4.544   1.983  12.097 -1.2108 -1.4526 -0.3949
 4820SOL    HW225923   4.688   1.970  12.091 -1.9773  0.9992  2.4741
 4821SOL     OW25924   1.229   1.949   3.052 -0.0378  0.1723 -0.0388
 4821SOL    HW125925   1.219   1.951   2.957 -0.4421  1.8109  0.0461
 4821SOL    HW225926   1.142   1.930   3.087  0.3577 -2.7937 -0.6870
 4822SOL     OW25927   1.098   2.119  11.357 -0.5895 -0.1721 -0.0895
 4822SOL    HW125928   1.124   2.165  11.437 -0.8994 -0.6065  0.2615
 4822SOL    HW225929   1.045   2.046  11.390 -1.5361  0.1127 -0.9910
 4823SOL     OW25930   0.695   0.404   6.932 -0.3989 -0.4785  0.1222
 4823SOL    HW125931   0.776   0.455   6.940 -0.8592  0.2962 -0.1304
 4823SOL    HW225932   0.712   0.345   6.859  0.4442  0.3314 -0.3247
 4824SOL     OW25933   1.295   1.948   7.631 -0.2282 -0.5593  0.5491
 4824SOL    HW125934   1.332   1.860   7.622  1.4896  0.0748  1.4361
 4824SOL    HW225935   1.206   1.931   7.663 -0.2220 -0.6783  0.5032
 4825SOL     OW25936   0.314   1.918   0.980  0.3152 -0.5100  0.5242
 4825SOL    HW125937   0.236   1.969   1.003  1.8515  1.8582  0.5895
 4825SOL    HW225938   0.369   1.996   0.967  2.7499 -2.4919 -0.9952
 4826SOL     OW25939   2.650   3.615   6.170  0.0331 -0.0379 -0.2095
 4826SOL    HW125940   2.670   3.589   6.260  0.6200  1.7982  0.1991
 4826SOL    HW225941   2.597   3.544   6.133  1.7024 -0.1558 -2.4229
 4827SOL     OW25942   0.750   2.388   0.003 -0.0541  0.7846  0.9163
 4827SOL    HW125943   0.784   2.355   0.086  0.4519 -0.7220  0.1033
 4827SOL    HW225944   0.680   2.443   0.039  0.4530  1.3329  1.0724
 4828SOL     OW25945   3.552   4.612   2.707  0.0373  0.3419 -0.4371
 4828SOL    HW125946   3.506   4.536   2.742  0.7322 -1.0235 -2.4975
 4828SOL    HW225947   3.476   4.669   2.693  0.4646  1.0688  0.1803
 4829SOL     OW25948   3.845   3.445   4.424  0.5994 -0.8886  0.0280
 4829SOL    HW125949   3.909   3.450   4.352  0.8892 -2.1841  0.1911
 4829SOL    HW225950   3.900   3.482   4.493 -2.5874  2.4659  0.7793
 4830SOL     OW25951   3.068   2.447   9.150  0.2618 -0.3563  0.6762
 4830SOL    HW125952   3.119   2.423   9.228 -0.1230  0.5716  1.2161
 4830SOL    HW225953   3.019   2.365   9.138  0.1148 -0.1961  0.2020
 4831SOL     OW25954   2.770   2.595  17.313  0.8131  0.0386 -0.3730
 4831SOL    HW125955   2.827   2.625  17.241  1.3564  0.4412  0.2238
 4831SOL    HW225956   2.705   2.558  17.253 -0.2958  0.7643  0.3829
 4832SOL     OW25957   2.977   4.315   9.243 -0.1916  0.0709 -0.1997
 4832SOL    HW125958   2.906   4.252   9.257  0.0482  0.1309  1.2933
 4832SOL    HW225959   3.055   4.260   9.250 -0.6513 -0.5220  0.2924
 4833SOL     OW25960   4.257   1.895   5.569 -0.0906  0.7613  0.1604
 4833SOL    HW125961   4.251   1.965   5.504 -1.0671  1.3675  0.8891
 4833SOL    HW225962   4.293   1.944   5.643 -0.6019  1.0286  0.2342
 4834SOL     OW25963   2.969   2.310   5.664 -0.3338  0.1258  0.4600
 4834SOL    HW125964   2.984   2.223   5.626 -3.4272 -0.7347  1.1867
 4834SOL    HW225965   2.913   2.290   5.739 -1.0368  0.1111 -0.0703
 4835SOL     OW25966   1.564   0.918  17.468 -0.4641  0.1685  0.0203
 4835SOL    HW125967   1.552   0.905  17.563 -1.2087  1.4500  0.0935
 4835SOL    HW225968   1.659   0.923  17.458 -0.3322  0.7144  1.5008
 4836SOL     OW25969   2.056   0.739  12.158 -0.1355 -0.8144 -0.0075
 4836SOL    HW125970   2.052   0.796  12.081  0.6156  1.0241  1.3069
 4836SOL    HW225971   1.985   0.674  12.149 -1.6380  1.1998 -2.9190
 4837SOL     OW25972   4.585   3.065   7.570  0.2470  0.3537 -0.2287
 4837SOL    HW125973   4.575   3.012   7.649  1.6947  0.6858  0.1604
 4837SOL    HW225974   4.508   3.039   7.519 -0.2478  1.0981  0.1450
 4838SOL     OW25975   2.604   3.019   6.611 -0.6497  0.3764 -0.6018
 4838SOL    HW125976   2.612   3.106   6.651 -0.5377 -1.0791  2.5681
 4838SOL    HW225977   2.696   2.990   6.612 -0.7803  0.0218  0.7215
 4839SOL     OW25978   4.490   4.603   7.826  0.2518  0.0017  0.1858
 4839SOL    HW125979   4.445   4.634   7.748 -0.9872 -0.3191  0.7753
 4839SOL    HW225980   4.509   4.683   7.875  0.3325 -1.3201  2.3429
 4840SOL     OW25981   4.106   4.191   0.351 -0.2867 -0.2822  0.0810
 4840SOL    HW125982   4.055   4.271   0.368 -1.2953 -0.5856 -1.5836
 4840SOL    HW225983   4.157   4.185   0.432 -1.6269  0.8326  1.0149
 4841SOL     OW25984   2.622   0.671   9.006 -0.3971  0.3474 -0.1510
 4841SOL    HW125985   2.623   0.576   9.012  1.4938  0.4480  1.1941
 4841SOL    HW225986   2.661   0.691   9.091 -1.1990 -1.8973  0.7466
 4842SOL     OW25987   3.750   4.674   0.969  0.1010 -0.5730  0.8093
 4842SOL    HW125988   3.662   4.707   0.984  0.1512 -0.0477 -0.0574
 4842SOL    HW225989   3.753   4.601   1.032 -0.1546 -1.7368 -0.5125
 4843SOL     OW25990   3.063   0.013   5.850 -0.2587  0.8684 -0.4085
 4843SOL    HW125991   3.100   4.652   5.883 -0.9563  0.4138 -0.7380
 4843SOL    HW225992   3.099   0.083   5.904 -0.7096 -0.1855  1.2799
 4844SOL     OW25993   3.813   1.450   8.796 -0.1850  0.5850  0.1730
 4844SOL    HW125994   3.772   1.374   8.836 -0.9342  1.6321  1.4123
 4844SOL    HW225995   3.857   1.486   8.873  2.8933  0.0679 -1.3545
 4845SOL     OW25996   2.622   1.890   7.713 -0.6350 -0.4042 -0.3524
 4845SOL    HW125997   2.710   1.882   7.675 -0.7746 -0.9383 -0.5669
 4845SOL    HW225998   2.623   1.899   7.808  0.1132 -0.1531 -0.3863
 4846SOL     OW25999   4.149   0.153   1.200 -0.0960  0.1934 -0.0128
 4846SOL    HW126000   4.114   0.067   1.222 -1.0502  0.4857 -0.4001
 4846SOL    HW226001   4.184   0.132   1.114 -1.1053  1.4471 -0.7257
 4847SOL     OW26002   0.476   4.665  12.300  0.4923 -0.3230 -0.2594
 4847SOL    HW126003   0.431   4.671  12.216  0.1474  0.4202 -0.0210
 4847SOL    HW226004   0.422   0.004  12.352 -1.2678 -1.2247 -1.0475
 4848SOL     OW26005   4.020   3.500   8.322  0.0080  0.0777 -0.1482
 4848SOL    HW126006   4.092   3.513   8.385  0.7374  1.9741 -1.3563
 4848SOL    HW226007   3.963   3.573   8.348 -0.5456  0.2624 -1.8904
 4849SOL     OW26008   2.461   2.438   3.941  0.1534 -0.2731  0.4539
 4849SOL    HW126009   2.443   2.489   3.861  3.0645  0.5355  0.3285
 4849SOL    HW226010   2.409   2.360   3.924  2.7860 -1.4016 -2.4266
 4850SOL     OW26011   4.313   2.192   2.487 -0.1187  0.2655  0.2105
 4850SOL    HW126012   4.233   2.159   2.447  0.8489 -0.3252 -1.2472
 4850SOL    HW226013   4.282   2.273   2.527  1.6519  0.6160  0.8799
 4851SOL     OW26014   1.401   2.296  13.045  0.0592  0.5809  0.2583
 4851SOL    HW126015   1.495   2.311  13.034  0.4924 -0.6232  2.2939
 4851SOL    HW226016   1.394   2.208  13.083  1.6985  1.2335  2.1133
 4852SOL     OW26017   2.422   4.388   4.043  0.0553 -0.8723  0.3832
 4852SOL    HW126018   2.483   4.330   4.089  1.4118 -0.2157 -0.5565
 4852SOL    HW226019   2.354   4.407   4.108  1.8968  0.2052  2.0040
 4853SOL     OW26020   4.005   1.802  11.774 -0.4827 -0.4863 -0.0598
 4853SOL    HW126021   3.911   1.809  11.788 -0.6667 -1.3557 -0.8423
 4853SOL    HW226022   4.024   1.830  11.863 -0.7017  1.6924 -0.6902
 4854SOL     OW26023   0.585   0.437   3.224  0.0273  0.6277  0.0509
 4854SOL    HW126024   0.627   0.352   3.237  2.6782  1.6053 -2.2574
 4854SOL    HW226025   0.512   0.406   3.171 -1.7820  0.4536  2.6146
 4855SOL     OW26026   0.350   3.985  16.142  0.5382  0.0209  0.0570
 4855SOL    HW126027   0.292   3.921  16.181 -0.1204  0.7985  0.3602
 4855SOL    HW226028   0.330   3.980  16.049  2.1913 -1.3244 -0.2243
 4856SOL     OW26029   4.101   0.937   7.645  0.2419  0.6081  0.2264
 4856SOL    HW126030   4.164   0.980   7.702 -0.0842 -0.5648  1.4697
 4856SOL    HW226031   4.157   0.880   7.591 -0.6804 -0.0303 -0.0477
 4857SOL     OW26032   1.348   0.663  15.136  0.0099  0.4247 -0.1175
 4857SOL    HW126033   1.367   0.733  15.199  1.1752 -1.1488  1.2676
 4857SOL    HW226034   1.409   0.598  15.172 -0.7918  1.0906  2.4247
 4858SOL     OW26035   1.029   0.496  15.182  0.2677 -0.4702  0.3018
 4858SOL    HW126036   1.008   0.581  15.221 -0.6066  0.2515 -1.6952
 4858SOL    HW226037   0.979   0.432  15.233 -1.2030 -0.2074 -0.8023
 4859SOL     OW26038   4.357   0.299   4.785  0.5360 -0.1186 -0.0010
 4859SOL    HW126039   4.364   0.335   4.873 -0.1278  0.3737 -0.1510
 4859SOL    HW226040   4.323   0.371   4.732  0.1795  0.3569  0.8637
 4860SOL     OW26041   0.002   3.422   8.495 -0.1070  0.9589  0.1187
 4860SOL    HW126042   0.063   3.363   8.540 -1.0402 -0.5917 -0.6700
 4860SOL    HW226043   4.703   3.484   8.565  0.8108  1.4143 -0.0156
 4861SOL     OW26044   3.732   1.393  14.463 -0.2587 -0.0399 -0.2554
 4861SOL    HW126045   3.803   1.359  14.408 -0.5913 -1.7593  0.3556
 4861SOL    HW226046   3.789   1.432  14.529 -1.6073 -0.9807  1.4661
 4862SOL     OW26047   4.320   1.572  11.917 -0.5262  0.8960 -0.6981
 4862SOL    HW126048   4.403   1.594  11.960 -0.4994 -1.6099  0.5393
 4862SOL    HW226049   4.334   1.480  11.893  1.1782  1.2391 -1.0587
 4863SOL     OW26050   3.176   0.926   4.947  0.0793  0.1575 -0.7842
 4863SOL    HW126051   3.098   0.941   4.894 -1.7352 -0.4134  1.7465
 4863SOL    HW226052   3.201   1.015   4.972  1.7938 -0.6154  0.2548
 4864SOL     OW26053   1.168   2.204   5.044  0.2112  0.1532 -0.1379
 4864SOL    HW126054   1.250   2.252   5.061  1.3970 -2.0783  0.4892
 4864SOL    HW226055   1.143   2.248   4.963  0.2603  1.5356  0.6019
 4865SOL     OW26056   2.621   4.478  15.957  0.3418  0.5374  0.4121
 4865SOL    HW126057   2.618   4.552  15.896 -2.9594 -0.2564 -0.3690
 4865SOL    HW226058   2.608   4.405  15.896  0.9782  3.1516 -2.8741
 4866SOL     OW26059   0.404   0.799   4.638  0.6263  0.0884 -0.1971
 4866SOL    HW126060   0.330   0.772   4.693  0.1116 -1.1117 -1.4470
 4866SOL    HW226061   0.434   0.880   4.679 -1.9717  0.4842  0.9715
 4867SOL     OW26062   3.983   0.400   3.480  0.2515 -0.0095 -0.6760
 4867SOL    HW126063   4.048   0.463   3.448 -0.6675  1.0786 -0.4060
 4867SOL    HW226064   3.945   0.363   3.401 -0.6917  0.2300 -0.3307
 4868SOL     OW26065   2.752   1.487   9.965  0.1306 -0.3307  0.5432
 4868SOL    HW126066   2.686   1.426   9.932 -2.2626  1.5195  1.9194
 4868SOL    HW226067   2.806   1.426  10.015 -0.5853  0.8464  2.7193
 4869SOL     OW26068   3.048   3.374   8.621  0.0087 -0.3848 -0.0714
 4869SOL    HW126069   3.039   3.298   8.564 -1.4813 -0.5746  0.4198
 4869SOL    HW226070   3.086   3.446   8.571 -1.1288 -0.5335 -1.1522
 4870SOL     OW26071   2.783   4.648   7.884  0.5715 -0.3834  0.0622
 4870SOL    HW126072   2.792   0.013   7.926 -1.9002  0.5033 -1.2787
 4870SOL    HW226073   2.688   4.647   7.889  0.6335 -0.7806  1.1048
 4871SOL     OW26074   3.594   4.063   8.307 -0.1047  0.3120 -0.2366
 4871SOL    HW126075   3.683   4.054   8.340 -0.4045 -0.4683  0.3433
 4871SOL    HW226076   3.600   4.015   8.224 -1.4470 -0.1261 -0.0755
 4872SOL     OW26077   3.051   1.415   3.022 -0.0706 -0.1314  0.1118
 4872SOL    HW126078   2.989   1.477   3.060  0.5870  1.6366 -1.7539
 4872SOL    HW226079   3.131   1.459   2.993 -0.0208 -1.9774 -2.5282
 4873SOL     OW26080   1.635   1.601   8.476  0.0044 -0.0791 -0.7640
 4873SOL    HW126081   1.682   1.520   8.495  1.2913  1.2717  1.8324
 4873SOL    HW226082   1.613   1.627   8.565  1.2773 -0.1078 -0.4368
 4874SOL     OW26083   0.662   0.694   7.190 -0.0856  0.6304 -0.0392
 4874SOL    HW126084   0.748   0.729   7.212  0.3314  0.6315 -1.7156
 4874SOL    HW226085   0.606   0.761   7.230 -0.4051 -0.2616  1.0140
 4875SOL     OW26086   1.774   1.509   5.057  0.4681 -0.0669  0.4072
 4875SOL    HW126087   1.686   1.475   5.074 -0.4590  2.2800  0.2330
 4875SOL    HW226088   1.749   1.597   5.029 -1.1622 -1.9285 -3.9077
 4876SOL     OW26089   0.447   0.491   2.026 -0.8096  0.4533  0.5275
 4876SOL    HW126090   0.536   0.526   2.022 -0.3006 -0.8913  0.0575
 4876SOL    HW226091   0.392   0.557   1.985 -0.3774  0.9863  0.7934
 4877SOL     OW26092   4.349   1.950   2.989  0.1053 -0.0586 -0.3817
 4877SOL    HW126093   4.414   1.880   2.996 -0.8108 -0.7347  1.4691
 4877SOL    HW226094   4.404   2.026   2.971 -4.1453  2.8466 -0.9070
 4878SOL     OW26095   2.243   3.132   4.163  0.3588  0.3218 -0.1292
 4878SOL    HW126096   2.235   3.132   4.258 -2.5007  1.7922 -0.3596
 4878SOL    HW226097   2.155   3.164   4.142 -0.2062 -2.5626 -2.1260
 4879SOL     OW26098   1.202   2.480   6.601  0.5033  0.3577  0.5359
 4879SOL    HW126099   1.222   2.457   6.510 -0.2881  0.9942  0.2066
 4879SOL    HW226100   1.110   2.454   6.594  1.1477 -1.8799  0.3033
 4880SOL     OW26101   2.204   4.203   9.123 -0.2603  0.0266 -0.0250
 4880SOL    HW126102   2.280   4.205   9.182  1.3313  4.1481 -2.2013
 4880SOL    HW226103   2.195   4.298   9.112 -0.3515 -0.1113 -1.1095
 4881SOL     OW26104   1.529   4.664  13.750  0.0330 -0.0110 -0.6728
 4881SOL    HW126105   1.483   4.625  13.675 -0.1477 -0.3595 -0.3820
 4881SOL    HW226106   1.610   4.705  13.720  0.6920 -0.5584  0.3756
 4882SOL     OW26107   1.487   1.089  15.803  0.2427 -0.3588 -0.0819
 4882SOL    HW126108   1.573   1.127  15.821 -0.1762  0.6668 -0.2278
 4882SOL    HW226109   1.433   1.153  15.850  0.6444 -1.3790  1.7794
 4883SOL     OW26110   1.087   2.705   7.952  0.4827 -0.2724 -0.5957
 4883SOL    HW126111   1.094   2.642   8.024 -1.2727 -1.3574 -1.3490
 4883SOL    HW226112   1.017   2.662   7.902  0.2182  1.6222 -1.8580
 4884SOL     OW26113   0.169   1.538   2.326  0.1402 -0.4777  0.2399
 4884SOL    HW126114   0.116   1.539   2.247 -0.6069  0.4323  0.7521
 4884SOL    HW226115   0.238   1.483   2.289  1.1093 -0.2732  1.7538
 4885SOL     OW26116   1.776   2.673   1.875  0.0154 -0.3255  0.1789
 4885SOL    HW126117   1.855   2.678   1.821 -1.0753  1.0334 -1.2821
 4885SOL    HW226118   1.788   2.748   1.933  0.4724  0.3400 -0.7685
 4886SOL     OW26119   0.751   4.558   1.784 -0.3075 -0.1367 -0.6420
 4886SOL    HW126120   0.812   4.629   1.762  1.6127 -1.3015  0.8390
 4886SOL    HW226121   0.677   4.607   1.819 -0.3971 -0.0622 -0.9422
 4887SOL     OW26122   2.382   2.133   8.267  0.5606  0.7424 -0.4524
 4887SOL    HW126123   2.380   2.227   8.249  1.7689  0.5819 -1.3315
 4887SOL    HW226124   2.396   2.100   8.179 -2.3365  0.4779 -0.8431
 4888SOL     OW26125   0.242   0.543  15.803 -0.2817 -0.3325 -0.1537
 4888SOL    HW126126   0.171   0.479  15.810  0.1484 -0.5327  2.3751
 4888SOL    HW226127   0.256   0.563  15.895 -2.0046 -0.7353  0.1932
 4889SOL     OW26128   0.388   3.098   2.899 -0.1228  0.0234 -0.0649
 4889SOL    HW126129   0.318   3.133   2.843  1.3145  0.2280 -1.7492
 4889SOL    HW226130   0.350   3.013   2.920  1.1055 -0.7990 -1.1379
 4890SOL     OW26131   4.346   3.913   0.018 -0.3068 -0.1737 -0.4227
 4890SOL    HW126132   4.251   3.897   0.023  0.1425 -1.5097  3.4720
 4890SOL    HW226133   4.357   3.962   0.100  3.0519 -1.1722 -0.2764
 4891SOL     OW26134   0.918   4.469   2.024 -0.0105 -0.0104  0.1310
 4891SOL    HW126135   0.940   4.381   1.993 -0.9559  0.4351 -1.7904
 4891SOL    HW226136   0.876   4.506   1.946  0.7284 -0.2645 -0.3824
 4892SOL     OW26137   1.066   2.891   9.260 -0.8249 -0.0379 -0.2993
 4892SOL    HW126138   1.071   2.938   9.344 -1.9055  0.2596 -0.4043
 4892SOL    HW226139   0.987   2.926   9.217 -1.2282  1.4096  1.5866
 4893SOL     OW26140   4.259   0.748   2.039 -0.5763 -0.0330  0.3182
 4893SOL    HW126141   4.322   0.740   2.111  2.0266  0.1591 -1.9481
 4893SOL    HW226142   4.253   0.843   2.041 -1.7780 -0.1609  2.7876
 4894SOL     OW26143   4.657   3.998   4.483 -0.2565 -0.4250 -0.2293
 4894SOL    HW126144   4.586   4.060   4.498 -0.8922 -0.8912 -1.3777
 4894SOL    HW226145   4.662   3.955   4.569 -0.6992  2.1654  1.0788
 4895SOL     OW26146   1.951   0.813   4.405  0.1328 -0.1866 -0.3960
 4895SOL    HW126147   2.001   0.785   4.482 -0.7539 -2.6044 -0.6628
 4895SOL    HW226148   1.964   0.907   4.409  1.3529 -0.3572 -0.6264
 4896SOL     OW26149   0.471   2.311   1.946  0.5072  0.4606  0.5419
 4896SOL    HW126150   0.483   2.268   2.030  0.3751 -1.7989 -0.5982
 4896SOL    HW226151   0.430   2.389   1.983  0.5092  0.4262  0.6170
 4897SOL     OW26152   0.795   2.309  10.633  0.0996 -0.3286 -0.7335
 4897SOL    HW126153   0.812   2.261  10.552  1.9312  1.0334 -1.1268
 4897SOL    HW226154   0.853   2.384  10.635 -0.0187 -0.2487 -0.3415
 4898SOL     OW26155   0.579   3.825   7.838  0.5304 -0.0396 -0.6664
 4898SOL    HW126156   0.598   3.742   7.794  1.3078 -0.1731 -0.0676
 4898SOL    HW226157   0.489   3.803   7.863 -0.6953  2.1063 -3.1348
 4899SOL     OW26158   0.578   2.524   0.986 -0.3371  0.0448 -0.1355
 4899SOL    HW126159   0.552   2.590   0.922 -0.1925  0.0399 -0.1982
 4899SOL    HW226160   0.489   2.496   1.006 -0.4774  0.1945 -0.5445
 4900SOL     OW26161   3.004   4.467   4.639  0.1914  0.4805  0.8126
 4900SOL    HW126162   3.002   4.551   4.593 -0.0074  0.0162 -0.0245
 4900SOL    HW226163   2.921   4.464   4.686 -0.1475 -0.1183  0.1816
 4901SOL     OW26164   0.940   2.625   2.412 -0.0525  0.2768 -0.1930
 4901SOL    HW126165   0.926   2.718   2.392 -0.0671  0.4376  0.5548
 4901SOL    HW226166   0.938   2.580   2.328  0.8379 -0.2498  0.0690
 4902SOL     OW26167   3.672   1.082   3.107  0.1771 -0.1174  0.1064
 4902SOL    HW126168   3.706   1.015   3.048 -1.9932 -0.9127 -0.2226
 4902SOL    HW226169   3.609   1.131   3.055 -0.8483 -1.4405  0.1129
 4903SOL     OW26170   1.829   1.028   1.437  0.0543 -0.4436 -0.0361
 4903SOL    HW126171   1.735   1.011   1.449 -0.1174 -0.5782 -1.4859
 4903SOL    HW226172   1.843   1.114   1.477  0.6629  0.6655 -2.6304
 4904SOL     OW26173   3.378   1.121  12.360 -0.3187 -0.3336  0.4125
 4904SOL    HW126174   3.426   1.203  12.360  0.4131 -0.7649  0.0080
 4904SOL    HW226175   3.342   1.125  12.272 -0.8116  2.1311  0.7160
 4905SOL     OW26176   3.388   3.065   1.988  0.4178 -0.1128  0.3297
 4905SOL    HW126177   3.406   3.005   2.060  0.8336  0.1635  0.4538
 4905SOL    HW226178   3.309   3.113   2.010 -0.4334 -0.3242 -2.2352
 4906SOL     OW26179   4.332   1.256   2.281 -0.4934 -0.0829  0.3553
 4906SOL    HW126180   4.393   1.323   2.250  0.1128 -1.1812 -0.8907
 4906SOL    HW226181   4.371   1.224   2.362  2.4614 -0.8465 -1.3519
 4907SOL     OW26182   2.254   2.290   4.084  0.1917 -0.0309  0.2762
 4907SOL    HW126183   2.339   2.334   4.078  0.1082  0.2974  1.5076
 4907SOL    HW226184   2.194   2.364   4.089  0.6208  0.2130  1.7810
 4908SOL     OW26185   0.372   3.270  16.827  0.1130 -1.3751 -0.1701
 4908SOL    HW126186   0.397   3.287  16.736 -3.4227 -2.7091 -1.4386
 4908SOL    HW226187   0.277   3.274  16.811 -0.0659 -1.1430  1.0084
 4909SOL     OW26188   3.999   2.981  17.489 -0.4763  0.6721  0.0902
 4909SOL    HW126189   4.036   3.058  17.445  0.6358  0.3943  0.5246
 4909SOL    HW226190   4.075   2.924  17.502 -0.5910  0.1160 -1.6768
 4910SOL     OW26191   2.498   4.629   0.474 -0.3116  0.0133  0.2115
 4910SOL    HW126192   2.445   4.635   0.394 -0.3179  0.2254  0.2320
 4910SOL    HW226193   2.485   4.716   0.512  1.1064  0.6186 -0.7239
 4911SOL     OW26194   4.670   0.501  13.561 -0.2957  0.1639 -0.6954
 4911SOL    HW126195   4.627   0.580  13.593 -0.8167 -0.2456 -0.3857
 4911SOL    HW226196   4.642   0.432  13.622  0.9893  0.8900  0.7287
 4912SOL     OW26197   2.629   3.045   1.793 -0.3086 -0.1576  0.3334
 4912SOL    HW126198   2.575   2.969   1.771  2.9975 -2.2896 -0.4255
 4912SOL    HW226199   2.646   3.069   1.702 -4.5159 -0.1775 -0.4472
 4913SOL     OW26200   2.107   2.693  17.565  0.3778  0.6064  0.0598
 4913SOL    HW126201   2.176   2.709  17.501  1.3146  1.7132  1.3376
 4913SOL    HW226202   2.157   2.638  17.626  1.0534  0.4544 -0.6296
 4914SOL     OW26203   0.012   0.771   4.290  0.5344 -0.7710  0.3935
 4914SOL    HW126204   0.046   0.696   4.338 -1.5411 -0.2549  2.6327
 4914SOL    HW226205   4.680   0.723   4.227 -2.2001  0.0045  2.1112
 4915SOL     OW26206   2.307   3.292   6.118 -0.4800  0.3605  0.0011
 4915SOL    HW126207   2.234   3.268   6.061 -0.6713  0.5822  0.1526
 4915SOL    HW226208   2.325   3.200   6.136 -0.3693  0.2307 -0.7983
 4916SOL     OW26209   3.005   1.469   5.253  0.8718  0.2914  0.0703
 4916SOL    HW126210   3.085   1.515   5.278  1.4307  0.8442 -2.7126
 4916SOL    HW226211   2.973   1.530   5.186 -0.6712  1.1968  1.6422
 4917SOL     OW26212   0.334   1.702   7.709  0.1913 -0.0944 -0.6301
 4917SOL    HW126213   0.347   1.764   7.637 -0.2232 -1.7134 -2.0647
 4917SOL    HW226214   0.290   1.762   7.770 -0.3999 -1.1349 -0.0250
 4918SOL     OW26215   3.422   4.402   2.780 -0.7136 -0.0740  0.3964
 4918SOL    HW126216   3.328   4.383   2.787 -0.9789  0.3929 -2.0067
 4918SOL    HW226217   3.462   4.316   2.792  0.6399  0.5284  0.1194
 4919SOL     OW26218   3.768   1.213   3.338  0.1818 -0.8700  0.5148
 4919SOL    HW126219   3.790   1.157   3.413 -1.7357  0.3983  2.0080
 4919SOL    HW226220   3.763   1.150   3.266 -0.9926 -1.0877  0.7897
 4920SOL     OW26221   4.465   1.241   9.077 -0.1741  0.6024 -0.2212
 4920SOL    HW126222   4.437   1.298   9.148  2.4748  2.9703 -1.0900
 4920SOL    HW226223   4.559   1.226   9.084 -0.1964  0.0110 -1.0912
 4921SOL     OW26224   0.216   4.596   2.649 -0.1892 -0.2156  0.6501
 4921SOL    HW126225   0.147   4.629   2.591  0.4913  0.6125  0.3162
 4921SOL    HW226226   0.289   4.655   2.630  0.6253 -1.1250  0.9794
 4922SOL     OW26227   0.914   0.442   3.289 -0.3113 -0.1617  0.4181
 4922SOL    HW126228   0.992   0.395   3.261 -0.4244 -1.6330  2.5669
 4922SOL    HW226229   0.861   0.380   3.339 -1.0874 -1.1109 -1.6040
 4923SOL     OW26230   2.130   3.880   6.970 -1.2443 -0.1632 -0.3341
 4923SOL    HW126231   2.053   3.905   6.920 -1.8893  0.0453  0.7604
 4923SOL    HW226232   2.125   3.952   7.033  2.4803  0.2911 -0.5424
 4924SOL     OW26233   4.608   3.802  16.854  0.2762 -0.2496 -0.0364
 4924SOL    HW126234   4.685   3.793  16.909  0.8201 -1.5574 -1.0148
 4924SOL    HW226235   4.558   3.752  16.919  1.4861 -1.5387 -0.0903
 4925SOL     OW26236   2.735   1.785   8.342 -0.2939 -0.3497  0.0724
 4925SOL    HW126237   2.819   1.749   8.312  0.5309 -0.9151  3.1205
 4925SOL    HW226238   2.704   1.837   8.268 -0.1507 -0.5378 -0.1199
 4926SOL     OW26239   2.387   0.650   7.941  0.5365  0.9811 -0.2453
 4926SOL    HW126240   2.415   0.594   8.014  1.2805 -1.3120 -2.2833
 4926SOL    HW226241   2.461   0.709   7.953  1.3912 -0.0348 -0.4788
 4927SOL     OW26242   0.819   4.472  16.177 -0.4003  0.3901 -0.3144
 4927SOL    HW126243   0.909   4.494  16.153 -0.1150  0.2840  0.6445
 4927SOL    HW226244   0.793   4.532  16.248  2.5796  0.4457  0.7374
 4928SOL     OW26245   4.414   2.267   9.462 -0.0531 -0.3042  0.0456
 4928SOL    HW126246   4.405   2.204   9.533  0.5555 -1.0402 -0.5263
 4928SOL    HW226247   4.335   2.248   9.411 -0.2099 -1.2802  0.6685
 4929SOL     OW26248   3.298   2.443   4.289 -0.9614 -0.2498 -0.4517
 4929SOL    HW126249   3.306   2.355   4.252 -2.5376 -0.5224 -0.1799
 4929SOL    HW226250   3.336   2.492   4.217 -0.6685 -0.5539 -0.5033
 4930SOL     OW26251   4.184   1.274   0.104  0.1988 -0.7859  0.2578
 4930SOL    HW126252   4.130   1.220   0.046  0.3774 -0.2305 -0.4161
 4930SOL    HW226253   4.244   1.314   0.042  2.5594  1.5401  4.0458
 4931SOL     OW26254   1.778   2.073   2.371  0.2749  0.3991 -0.0358
 4931SOL    HW126255   1.849   2.125   2.408 -0.1971 -1.0823  3.0117
 4931SOL    HW226256   1.716   2.139   2.341  0.7067  1.3120  1.0754
 4932SOL     OW26257   1.886   2.856   5.529 -0.2785 -0.1934 -0.2084
 4932SOL    HW126258   1.933   2.802   5.466  1.7070  1.5904 -0.2528
 4932SOL    HW226259   1.891   2.941   5.486  3.1709 -0.1117  0.3226
 4933SOL     OW26260   4.178   1.679   3.792 -0.0925 -0.1867 -0.0983
 4933SOL    HW126261   4.264   1.637   3.786 -1.3830 -2.4357 -2.8229
 4933SOL    HW226262   4.206   1.760   3.835  1.4290  0.2122 -1.8445
 4934SOL     OW26263   4.303   3.034   4.520 -0.6072  0.4215 -0.0277
 4934SOL    HW126264   4.271   3.025   4.610 -0.0124 -1.1156  0.0354
 4934SOL    HW226265   4.270   3.120   4.495  0.1954  0.5271 -0.7149
 4935SOL     OW26266   3.141   2.675   8.745  0.5239 -0.1602  0.3746
 4935SOL    HW126267   3.211   2.720   8.792  1.4695  1.7749 -2.8790
 4935SOL    HW226268   3.166   2.592   8.784 -1.3390 -1.3778 -1.0122
 4936SOL     OW26269   1.006   1.477  10.794  0.9684 -0.4405 -0.2983
 4936SOL    HW126270   1.009   1.465  10.888 -2.5716 -0.9645 -0.2832
 4936SOL    HW226271   0.986   1.389  10.764 -2.7582  0.0094  0.8591
 4937SOL     OW26272   3.703   3.522  15.540 -0.8620 -0.5864 -0.6169
 4937SOL    HW126273   3.737   3.502  15.628 -0.2023  0.4689 -0.6358
 4937SOL    HW226274   3.614   3.485  15.541 -1.0302 -0.1538  1.0778
 4938SOL     OW26275   3.352   3.670   1.307 -0.7591 -0.0184 -0.1006
 4938SOL    HW126276   3.369   3.606   1.376  0.0713  1.7293  1.3478
 4938SOL    HW226277   3.355   3.749   1.362  0.8182 -0.0689 -0.0919
 4939SOL     OW26278   2.980   4.640   9.325  0.3552  0.4733 -0.6556
 4939SOL    HW126279   3.070   4.657   9.295  0.9936 -1.1173  0.3302
 4939SOL    HW226280   2.953   4.573   9.263 -2.1557  1.7083 -0.8744
 4940SOL     OW26281   1.831   3.851  15.915 -0.4738  0.6630  0.0709
 4940SOL    HW126282   1.833   3.759  15.940  0.3948  0.3938 -0.9846
 4940SOL    HW226283   1.833   3.838  15.820  3.0622  1.9507 -0.0466
 4941SOL     OW26284   1.805   4.012  12.070 -0.3302  0.4933 -0.1035
 4941SOL    HW126285   1.899   4.024  12.053 -0.5618 -0.8114 -2.3103
 4941SOL    HW226286   1.790   4.056  12.154  0.3993 -1.1533  0.8967
 4942SOL     OW26287   3.535   4.549   9.547  0.4534 -0.1726  0.2784
 4942SOL    HW126288   3.441   4.533   9.538  0.3868  1.5340 -1.9792
 4942SOL    HW226289   3.535   4.551   9.643 -1.3672 -4.2591  0.3857
 4943SOL     OW26290   4.036   4.630   1.257 -0.0946  0.3276  0.3827
 4943SOL    HW126291   4.076   4.588   1.333 -3.9123 -0.7280  1.7779
 4943SOL    HW226292   3.961   4.573   1.241  1.3819 -1.3840 -0.5004
 4944SOL     OW26293   3.295   4.222   5.265 -0.1839 -0.2641 -0.6267
 4944SOL    HW126294   3.357   4.191   5.332 -1.4871 -0.7660  0.3492
 4944SOL    HW226295   3.346   4.293   5.226  1.0460 -0.3996  0.7450
 4945SOL     OW26296   3.786   3.640   5.616 -0.1017  0.0640 -0.4461
 4945SOL    HW126297   3.740   3.679   5.690 -0.4774 -0.8232 -0.2078
 4945SOL    HW226298   3.820   3.719   5.574  1.5440 -0.9433 -1.0323
 4946SOL     OW26299   2.605   2.440   7.344  0.2615  0.2209  0.5102
 4946SOL    HW126300   2.682   2.402   7.302  0.2051 -0.7847  1.2908
 4946SOL    HW226301   2.537   2.411   7.283  0.7001  0.0143  0.1222
 4947SOL     OW26302   2.637   2.946  13.818  0.3696  0.0594  0.3000
 4947SOL    HW126303   2.565   3.007  13.798 -0.3913 -0.9143  0.0733
 4947SOL    HW226304   2.671   2.940  13.728  0.3606  0.4631  0.2686
 4948SOL     OW26305   0.439   1.692   4.407 -0.1566 -0.5614  0.2407
 4948SOL    HW126306   0.517   1.703   4.352 -0.9253  4.7375  0.1347
 4948SOL    HW226307   0.481   1.665   4.488 -0.3881  0.1161  0.5889
 4949SOL     OW26308   2.224   3.334   3.036  0.6654  0.1967  0.4955
 4949SOL    HW126309   2.181   3.312   3.119  0.6964  0.1121  0.4895
 4949SOL    HW226310   2.153   3.327   2.971  1.5219  1.4703 -0.5768
 4950SOL     OW26311   0.148   0.875   3.371 -0.4252 -0.5563 -0.0311
 4950SOL    HW126312   0.197   0.803   3.331  0.8133  0.3000 -0.0248
 4950SOL    HW226313   0.210   0.921   3.427 -1.6770  0.2921  0.6598
 4951SOL     OW26314   1.932   1.550   5.936  0.2723 -0.6442  0.5696
 4951SOL    HW126315   1.859   1.602   5.971  0.2952 -0.1837 -0.0730
 4951SOL    HW226316   1.951   1.488   6.006  1.0004 -0.5795  0.4314
 4952SOL     OW26317   0.411   0.636   5.702 -0.5341  0.7631  0.0062
 4952SOL    HW126318   0.364   0.610   5.623 -0.6954  0.3267  0.2483
 4952SOL    HW226319   0.361   0.601   5.775  0.0410 -0.0573  0.0028
 4953SOL     OW26320   1.350   2.231   8.343 -0.0754  0.0299  0.0329
 4953SOL    HW126321   1.366   2.263   8.432  0.1968 -0.8844  0.3160
 4953SOL    HW226322   1.414   2.161   8.334  0.2061  0.2594  0.2606
 4954SOL     OW26323   0.229   0.489   7.160  0.2619 -0.3017  0.6612
 4954SOL    HW126324   0.254   0.574   7.122 -0.3823 -0.2507  0.3371
 4954SOL    HW226325   0.316   0.460   7.185  0.6735  1.0870  0.8597
 4955SOL     OW26326   3.064   2.080  11.033 -0.7242  0.2663 -0.1467
 4955SOL    HW126327   3.052   2.155  11.091  0.3016  0.7467 -0.5523
 4955SOL    HW226328   3.151   2.105  11.002  0.1840 -0.8982  1.5062
 4956SOL     OW26329   3.341   2.489   7.060  0.0040  0.0394  0.6206
 4956SOL    HW126330   3.258   2.446   7.038  0.8170 -0.6647 -1.0946
 4956SOL    HW226331   3.387   2.486   6.976  1.4942  1.6639  1.3742
 4957SOL     OW26332   2.157   3.609   3.590  0.4709  0.4098  1.0927
 4957SOL    HW126333   2.199   3.525   3.608 -0.0352  0.1634  1.1489
 4957SOL    HW226334   2.221   3.659   3.540  1.1342 -2.5607 -1.0395
 4958SOL     OW26335   0.061   2.860  16.520 -0.3255 -0.2996  0.1110
 4958SOL    HW126336   0.078   2.802  16.445  2.5914 -1.8926  2.0157
 4958SOL    HW226337   0.004   2.802  16.571  0.8385 -0.3092  1.3849
 4959SOL     OW26338   1.419   1.236  15.163  0.3160 -0.1153  0.2443
 4959SOL    HW126339   1.389   1.285  15.240 -0.1252  0.4360 -0.2826
 4959SOL    HW226340   1.487   1.188  15.210 -0.1453 -1.9603 -0.9479
 4960SOL     OW26341   1.161   4.147   0.048  0.9750 -0.1012  0.3917
 4960SOL    HW126342   1.191   4.238   0.041  2.4464 -0.5748  0.5234
 4960SOL    HW226343   1.093   4.161  17.669 -1.2093 -1.7628  2.2965
 4961SOL     OW26344   0.860   1.022   1.646 -0.5381  0.1542  0.0447
 4961SOL    HW126345   0.837   1.115   1.650 -2.8260 -0.3908 -0.7778
 4961SOL    HW226346   0.935   1.028   1.586 -0.8927  2.1751 -0.2075
 4962SOL     OW26347   3.888   0.577  11.435  0.3745  0.1843 -0.1002
 4962SOL    HW126348   3.896   0.635  11.511  4.8593 -1.6808  0.8156
 4962SOL    HW226349   3.955   0.611  11.375 -0.6155 -0.2207 -1.4409
 4963SOL     OW26350   1.437   1.156   2.649 -0.7383 -0.4820  0.2609
 4963SOL    HW126351   1.374   1.091   2.618 -1.6700  0.0383  1.0320
 4963SOL    HW226352   1.441   1.144   2.744 -3.0891  0.2952  0.4647
 4964SOL     OW26353   2.807   1.616  13.751  0.3019  0.0545 -0.0584
 4964SOL    HW126354   2.712   1.616  13.739  0.2121  0.1417  0.6795
 4964SOL    HW226355   2.823   1.710  13.742  1.6342  0.1386  3.4994
 4965SOL     OW26356   4.314   0.017   1.517  0.1374  0.2182 -0.3183
 4965SOL    HW126357   4.396   0.035   1.563 -0.1216 -0.1791  0.2974
 4965SOL    HW226358   4.322   0.091   1.457  1.1990  1.3525  1.2426
 4966SOL     OW26359   0.626   1.427   5.627  0.2146 -0.2928 -0.2623
 4966SOL    HW126360   0.545   1.473   5.604  0.3143  1.2342  2.4391
 4966SOL    HW226361   0.677   1.500   5.664 -1.2120  0.5990 -0.0759
 4967SOL     OW26362   0.522   1.828   0.667 -0.3935 -0.4040 -0.1375
 4967SOL    HW126363   0.540   1.769   0.741 -2.0510 -1.8511 -0.9047
 4967SOL    HW226364   0.608   1.844   0.629 -0.8926 -1.7485 -1.7847
 4968SOL     OW26365   1.501   1.743  12.148 -0.1932  0.0867 -0.3109
 4968SOL    HW126366   1.420   1.714  12.106 -1.0311  1.5626  0.2866
 4968SOL    HW226367   1.569   1.683  12.117  1.5181 -0.2279  4.1274
 4969SOL     OW26368   2.389   2.933   8.844 -0.1047 -0.2399 -0.6501
 4969SOL    HW126369   2.454   2.958   8.779  1.4238  0.2063  1.0329
 4969SOL    HW226370   2.357   2.851   8.808  0.3539 -1.0084  0.6818
 4970SOL     OW26371   1.452   0.014   7.913  0.3327  0.1599 -0.6380
 4970SOL    HW126372   1.534   4.687   7.899  0.5809  0.5607 -0.5482
 4970SOL    HW226373   1.390   4.670   7.879  0.2344 -0.6195  1.0314
 4971SOL     OW26374   4.567   3.083   8.260  0.2500 -0.2428 -0.0623
 4971SOL    HW126375   4.659   3.103   8.247 -0.0728 -0.2231 -2.3697
 4971SOL    HW226376   4.567   2.987   8.263  1.1897 -0.3081 -1.9989
 4972SOL     OW26377   1.161   0.748   7.470 -0.5684  0.7228 -0.6352
 4972SOL    HW126378   1.232   0.811   7.477 -1.6650  1.9240 -0.3652
 4972SOL    HW226379   1.210   0.666   7.477 -0.7581  0.7619  1.1504
 4973SOL     OW26380   3.357   1.743   2.555 -0.6167 -0.6033  1.1263
 4973SOL    HW126381   3.391   1.798   2.484 -1.1836 -3.0398 -1.0184
 4973SOL    HW226382   3.285   1.696   2.514 -1.0694  1.2943 -0.2636
 4974SOL     OW26383   3.468   2.721   9.643  0.3626 -0.1127 -0.0035
 4974SOL    HW126384   3.392   2.669   9.667  0.6569 -0.4783  0.1367
 4974SOL    HW226385   3.526   2.662   9.595  0.1696  0.2114 -0.6351
 4975SOL     OW26386   1.576   2.132   1.873  0.3312 -0.4248  0.2544
 4975SOL    HW126387   1.558   2.041   1.846 -0.0781 -0.2988  0.1030
 4975SOL    HW226388   1.515   2.137   1.946 -0.6749 -2.2446 -0.4388
 4976SOL     OW26389   1.088   3.852   8.495 -0.0564  0.2047  0.2852
 4976SOL    HW126390   1.062   3.893   8.413 -0.7717  1.6332  1.2332
 4976SOL    HW226391   1.172   3.816   8.468  0.1586 -0.3463  1.6797
 4977SOL     OW26392   1.781   1.367   0.971  0.6179 -0.2114 -0.0509
 4977SOL    HW126393   1.758   1.457   0.948  1.5716  0.4387  1.5621
 4977SOL    HW226394   1.706   1.336   1.022 -0.1222  1.1656 -0.2955
 4978SOL     OW26395   3.498   3.058   4.609  0.1803 -0.1640  0.0955
 4978SOL    HW126396   3.590   3.060   4.584  0.8423  1.0424  2.6736
 4978SOL    HW226397   3.497   3.120   4.681 -0.0116  1.4483 -1.2976
 4979SOL     OW26398   3.827   2.064   5.655  0.1227 -0.3113  0.2412
 4979SOL    HW126399   3.768   2.090   5.584  0.5551  2.8174  1.0008
 4979SOL    HW226400   3.806   1.971   5.652  1.4210 -0.6359  1.1254
 4980SOL     OW26401   2.694   2.648  15.830 -0.2712 -0.2900  0.4488
 4980SOL    HW126402   2.619   2.590  15.817 -1.3841  1.8007 -2.4001
 4980SOL    HW226403   2.690   2.655  15.926  0.9988 -1.9212  0.6273
 4981SOL     OW26404   3.796   2.934   4.016 -0.1189 -0.5354  0.4625
 4981SOL    HW126405   3.867   2.927   4.079  0.1780 -0.3540  0.1485
 4981SOL    HW226406   3.734   2.872   4.055 -0.3352 -1.1638 -0.8735
 4982SOL     OW26407   2.554   4.232   5.521 -0.3487  0.1438 -0.7293
 4982SOL    HW126408   2.542   4.274   5.606 -2.0271 -0.4206 -0.6817
 4982SOL    HW226409   2.613   4.163   5.550  0.6868  1.7607  1.0453
 4983SOL     OW26410   0.235   2.530   0.314 -0.2381 -0.2901  0.2179
 4983SOL    HW126411   0.304   2.570   0.261 -0.8665 -0.0172 -0.3840
 4983SOL    HW226412   0.175   2.603   0.300  0.7385  0.5979  0.6504
 4984SOL     OW26413   3.510   3.348   8.064 -0.3110 -0.0808 -0.3270
 4984SOL    HW126414   3.542   3.328   8.152  0.3725  1.1672 -0.3044
 4984SOL    HW226415   3.494   3.260   8.028 -1.5197 -0.6015  1.4393
 4985SOL     OW26416   2.624   3.967   6.320  0.5695 -0.3253 -1.1210
 4985SOL    HW126417   2.697   4.022   6.291  1.1261  0.0862  1.0754
 4985SOL    HW226418   2.659   3.908   6.387 -0.7531 -0.4198 -0.5033
 4986SOL     OW26419   1.540   3.815   1.425 -0.3859 -0.5761 -0.1699
 4986SOL    HW126420   1.481   3.771   1.486  1.2715  0.2840  2.0581
 4986SOL    HW226421   1.576   3.886   1.478 -1.0579  0.8529 -1.6215
 4987SOL     OW26422   3.570   3.469  13.008  0.2846  0.1221  0.2085
 4987SOL    HW126423   3.633   3.472  12.935 -0.2417  2.3968 -0.1359
 4987SOL    HW226424   3.589   3.547  13.060 -0.5917 -0.0731  0.8158
 4988SOL     OW26425   1.766   3.501   9.605  0.1078  0.2044  0.2207
 4988SOL    HW126426   1.815   3.439   9.551  1.6885  1.6328  0.0258
 4988SOL    HW226427   1.840   3.552   9.636  0.0318 -0.2148  1.0767
 4989SOL     OW26428   2.004   3.040   9.719  0.0290 -0.0307 -0.5180
 4989SOL    HW126429   1.966   2.963   9.676 -1.5534  0.7678 -0.5496
 4989SOL    HW226430   2.053   2.997   9.789  0.2892  2.8628  1.0708
 4990SOL     OW26431   4.394   0.202   3.853  0.1129 -0.4172 -0.2890
 4990SOL    HW126432   4.308   0.201   3.811 -1.3256  2.8488  2.5437
 4990SOL    HW226433   4.436   0.281   3.819  2.7428 -1.4136  0.6930
 4991SOL     OW26434   0.875   2.525   0.822 -0.2711  0.0147  0.2366
 4991SOL    HW126435   0.885   2.528   0.917 -1.2269 -0.4521  0.3540
 4991SOL    HW226436   0.822   2.446   0.825 -2.3904  1.3414 -1.3297
 4992SOL     OW26437   2.573   0.727  13.909  0.0360  0.1339  0.1283
 4992SOL    HW126438   2.664   0.735  13.937  1.1216 -0.9869 -2.9975
 4992SOL    HW226439   2.569   0.803  13.851 -0.6751  0.3713  0.4901
 4993SOL     OW26440   2.567   1.469   5.796  0.0548 -0.4131  0.1857
 4993SOL    HW126441   2.517   1.402   5.750  1.0514 -1.5020  0.6974
 4993SOL    HW226442   2.511   1.545   5.783 -0.1816 -0.5953  0.1539
 4994SOL     OW26443   0.937   2.247   3.835 -0.7237 -0.4437 -0.3559
 4994SOL    HW126444   0.964   2.162   3.801 -1.2769  0.1166 -2.2341
 4994SOL    HW226445   0.867   2.265   3.771 -2.3291 -0.5867  1.3721
 4995SOL     OW26446   4.616   0.982   6.297 -0.1001 -0.0494  0.6000
 4995SOL    HW126447   4.575   0.972   6.383  1.6139  0.6020  1.5064
 4995SOL    HW226448   4.688   1.040   6.322  0.3769 -0.0229 -0.8339
 4996SOL     OW26449   4.111   4.300  15.053 -0.0186 -0.0731 -0.4585
 4996SOL    HW126450   4.027   4.258  15.072  0.0497  0.0532  0.1129
 4996SOL    HW226451   4.173   4.265  15.117  1.4395  2.9939 -0.1677
 4997SOL     OW26452   3.959   3.982   2.791 -0.2461 -0.1656 -0.2673
 4997SOL    HW126453   3.888   3.951   2.735  0.0858  1.0111 -1.3175
 4997SOL    HW226454   3.954   4.077   2.781 -0.8787 -0.2364 -0.6116
 4998SOL     OW26455   3.889   2.454   5.364 -0.6035  0.2396  0.2986
 4998SOL    HW126456   3.829   2.524   5.337 -0.3409  0.5371  0.4840
 4998SOL    HW226457   3.954   2.506   5.412 -1.9061  1.8271  0.3452
 4999SOL     OW26458   4.553   3.209   8.729  0.9760  0.1471  0.0147
 4999SOL    HW126459   4.519   3.254   8.806 -2.5253  0.7390 -1.8485
 4999SOL    HW226460   4.479   3.208   8.667  0.9466 -0.9558  0.0700
 5000SOL     OW26461   3.480   2.969  13.204 -0.0805 -0.3000 -0.3532
 5000SOL    HW126462   3.401   2.938  13.160 -1.9574  2.9940  0.6797
 5000SOL    HW226463   3.545   2.952  13.136  1.5493  1.0659  0.8438
 5001SOL     OW26464   1.537   3.716  16.518 -0.0105 -0.3418  0.0660
 5001SOL    HW126465   1.511   3.624  16.530 -1.1836 -0.3069 -2.1254
 5001SOL    HW226466   1.630   3.701  16.502  0.4376  1.8680  0.6259
 5002SOL     OW26467   4.127   2.471   4.992 -0.0664  0.1242  0.0691
 5002SOL    HW126468   4.124   2.558   4.952  1.0671  0.6473  1.1138
 5002SOL    HW226469   4.047   2.438   4.950 -2.1120  3.1269  1.5747
 5003SOL     OW26470   3.405   3.833   4.514  0.6406  0.2845  0.1953
 5003SOL    HW126471   3.358   3.766   4.564  2.2964 -0.2143  1.0766
 5003SOL    HW226472   3.342   3.904   4.522 -0.9406 -1.0875 -0.0278
 5004SOL     OW26473   3.814   3.875   2.583 -0.2207  0.5876  0.2881
 5004SOL    HW126474   3.765   3.794   2.598 -1.3836  0.6507 -3.0165
 5004SOL    HW226475   3.812   3.880   2.487  1.9229 -3.2046  0.0452
 5005SOL     OW26476   4.030   2.763   1.202 -0.0084  0.5645  0.2098
 5005SOL    HW126477   3.938   2.791   1.198 -0.0943  0.5161  1.9205
 5005SOL    HW226478   4.075   2.847   1.201  0.0792  0.5239  0.8248
 5006SOL     OW26479   1.935   3.370   8.687 -0.0617  0.0740 -0.2198
 5006SOL    HW126480   1.913   3.427   8.613 -0.9562  0.2708  0.1900
 5006SOL    HW226481   2.010   3.321   8.655 -1.3412 -1.7806 -0.4181
 5007SOL     OW26482   1.372   2.083  15.171 -0.1828  0.3245  0.3303
 5007SOL    HW126483   1.304   2.062  15.107  1.0441 -1.7499 -0.2841
 5007SOL    HW226484   1.328   2.143  15.231  2.5289  1.0502  1.6070
 5008SOL     OW26485   4.262   1.821   5.976  0.3455  0.1262  0.0317
 5008SOL    HW126486   4.243   1.915   5.972 -0.6391  0.0121  1.8858
 5008SOL    HW226487   4.356   1.814   5.965  0.0747  0.9730 -2.9950
 5009SOL     OW26488   2.164   4.700  14.324  0.0811 -0.3829  0.8435
 5009SOL    HW126489   2.133   4.656  14.403  0.2222  0.5108  1.3921
 5009SOL    HW226490   2.252   0.009  14.345  0.5979 -0.4756 -1.1562
 5010SOL     OW26491   0.060   2.901   5.013  0.3929  0.5808 -0.3490
 5010SOL    HW126492   0.090   2.810   5.025 -2.3240 -0.3241 -0.3981
 5010SOL    HW226493   0.100   2.952   5.083  1.0945  0.0029 -0.3258
 5011SOL     OW26494   0.990   3.350   3.526 -0.2116 -0.1784 -0.4752
 5011SOL    HW126495   1.074   3.304   3.528  0.2530  0.5420 -2.8092
 5011SOL    HW226496   0.942   3.326   3.446 -1.3352  1.0883 -0.1702
 5012SOL     OW26497   3.117   0.948   3.582 -0.1300 -0.1533 -0.0666
 5012SOL    HW126498   3.152   0.869   3.624 -0.2007 -1.3295 -2.2069
 5012SOL    HW226499   3.195   1.004   3.590  0.2228 -0.5564 -0.6555
 5013SOL     OW26500   0.209   0.297   4.366 -0.6711 -0.1902  0.2695
 5013SOL    HW126501   0.208   0.263   4.455 -1.2068 -0.1941  0.2603
 5013SOL    HW226502   0.190   0.214   4.323  1.0500  1.0879 -2.9435
 5014SOL     OW26503   0.187   0.258   3.689 -0.0434  0.4664  0.6532
 5014SOL    HW126504   0.191   0.305   3.773  0.2189  0.5610  0.5883
 5014SOL    HW226505   0.275   0.224   3.674 -0.1131  0.3237  0.5723
 5015SOL     OW26506   3.949   3.410   3.258 -1.0152  0.2624 -0.0787
 5015SOL    HW126507   3.922   3.431   3.169 -2.2207 -0.3330  0.1407
 5015SOL    HW226508   3.922   3.489   3.305  2.7896  1.6358 -0.1485
 5016SOL     OW26509   1.923   0.258   3.348 -0.0984  0.7086  0.5237
 5016SOL    HW126510   1.929   0.293   3.259  1.3662  1.0509  0.7705
 5016SOL    HW226511   1.872   0.318   3.402 -0.2266  0.7249  0.3845
 5017SOL     OW26512   2.123   4.228   4.763 -0.2255 -0.5026 -0.2360
 5017SOL    HW126513   2.202   4.251   4.713  1.2895  0.0329  2.4382
 5017SOL    HW226514   2.095   4.310   4.802  2.6279  0.0612  0.6339
 5018SOL     OW26515   2.462   4.560   0.169 -0.1567 -0.4216 -0.1019
 5018SOL    HW126516   2.504   4.642   0.145  0.2877 -0.1150  1.6939
 5018SOL    HW226517   2.410   4.562   0.089 -1.3968 -1.6653  0.6625
 5019SOL     OW26518   1.886   1.795   7.728  0.0395  0.2773  0.1535
 5019SOL    HW126519   1.910   1.768   7.639  0.5251  0.7979  0.1277
 5019SOL    HW226520   1.878   1.708   7.768  1.7993  1.0087  2.1249
 5020SOL     OW26521   0.773   0.186   3.393 -0.3211  0.3643 -0.0068
 5020SOL    HW126522   0.835   0.164   3.463  1.3160  0.1515 -1.5313
 5020SOL    HW226523   0.714   0.231   3.454 -1.7506 -0.9145 -0.4401
 5021SOL     OW26524   0.579   0.009   7.310 -0.3192  0.7913  0.2855
 5021SOL    HW126525   0.565   4.668   7.381  0.4720  1.2142  0.8027
 5021SOL    HW226526   0.492   0.050   7.315 -1.3970 -1.2894 -1.5131
 5022SOL     OW26527   2.870   4.204  16.183  0.5716 -0.1710  0.3721
 5022SOL    HW126528   2.876   4.208  16.088  1.8423  1.4302  0.5093
 5022SOL    HW226529   2.962   4.190  16.209  0.6402  0.5072  0.4898
 5023SOL     OW26530   4.298   4.288   5.830 -0.2509 -0.4135  0.3058
 5023SOL    HW126531   4.219   4.248   5.864 -1.2333 -0.5215 -2.1270
 5023SOL    HW226532   4.359   4.247   5.892 -0.2935 -2.4860 -1.0242
 5024SOL     OW26533   0.121   1.096   6.376  0.0932  0.4692  0.8719
 5024SOL    HW126534   0.153   1.183   6.400  0.7035  0.5966 -0.4336
 5024SOL    HW226535   0.161   1.046   6.447 -1.2022 -0.5663  0.8695
 5025SOL     OW26536   0.218   0.329   1.486 -0.4889  0.3017  0.2771
 5025SOL    HW126537   0.187   0.415   1.459  0.1728  0.4257 -0.0733
 5025SOL    HW226538   0.297   0.318   1.435 -1.3207  1.8349 -1.3205
 5026SOL     OW26539   0.079   2.770   5.505  0.6256 -0.4557  0.3488
 5026SOL    HW126540   0.107   2.850   5.550 -1.4415  0.4310  0.0683
 5026SOL    HW226541   0.008   2.812   5.456 -0.2465 -0.2733  1.7611
 5027SOL     OW26542   4.463   2.915   8.905  0.1331  0.1108  0.2627
 5027SOL    HW126543   4.448   2.866   8.824 -1.0631 -0.0594  0.5918
 5027SOL    HW226544   4.397   2.869   8.957  3.9957 -3.3130  2.1142
 5028SOL     OW26545   4.484   4.610   5.919 -0.0755 -0.0481 -0.1739
 5028SOL    HW126546   4.413   4.670   5.900  0.1102  0.9628  2.4177
 5028SOL    HW226547   4.436   4.527   5.925  1.4191 -0.8841  0.4199
 5029SOL     OW26548   3.678   0.371  15.114  0.1255  0.0652  0.2169
 5029SOL    HW126549   3.752   0.334  15.162 -0.2505 -0.5085  0.3442
 5029SOL    HW226550   3.634   0.411  15.188 -1.4222 -0.9168 -0.1798
 5030SOL     OW26551   0.665   2.924   0.608  0.4220 -0.6180  0.0746
 5030SOL    HW126552   0.721   2.849   0.587  0.1765 -0.4422 -1.2345
 5030SOL    HW226553   0.708   2.996   0.562 -0.9581  0.3101  0.2329
 5031SOL     OW26554   3.120   3.685   7.746 -0.0910  0.0724  0.2635
 5031SOL    HW126555   3.029   3.667   7.772 -0.1343  1.6958  1.2037
 5031SOL    HW226556   3.130   3.609   7.687 -1.6535  0.9724 -1.1631
 5032SOL     OW26557   0.460   4.144   4.617  0.2182  0.3640 -0.0753
 5032SOL    HW126558   0.503   4.218   4.575 -0.7475 -0.1196 -1.9250
 5032SOL    HW226559   0.398   4.115   4.550  2.0912 -0.5444 -1.4294
 5033SOL     OW26560   4.522   1.489   8.123 -0.2284 -0.4994 -0.4707
 5033SOL    HW126561   4.553   1.546   8.052 -0.5338 -0.0761 -0.2569
 5033SOL    HW226562   4.432   1.519   8.116  0.0812  0.7717  1.1376
 5034SOL     OW26563   1.100   0.320  16.449  0.6856  0.1632  0.2590
 5034SOL    HW126564   1.055   0.393  16.492 -4.8781 -2.5075 -1.0446
 5034SOL    HW226565   1.183   0.316  16.496  0.5410 -1.9790  0.3085
 5035SOL     OW26566   1.223   0.537   2.123  0.3565 -0.3597  0.1545
 5035SOL    HW126567   1.247   0.446   2.101 -0.0047 -0.2849 -0.5526
 5035SOL    HW226568   1.237   0.520   2.216  1.3247  0.7605  0.2049
 5036SOL     OW26569   4.460   1.496  10.501  0.2920 -0.0551 -0.1875
 5036SOL    HW126570   4.532   1.530  10.448  0.7523 -0.0112  0.4670
 5036SOL    HW226571   4.490   1.521  10.589 -0.1534 -3.8439  1.0482
 5037SOL     OW26572   1.692   3.202   9.432 -0.4590  0.2021 -0.3173
 5037SOL    HW126573   1.783   3.232   9.443 -1.0880  1.2130  2.1284
 5037SOL    HW226574   1.648   3.251   9.502  0.5876 -1.3474  1.4172
 5038SOL     OW26575   4.448   2.469   9.174 -0.1169 -0.4445  0.3890
 5038SOL    HW126576   4.407   2.538   9.228 -1.1067 -1.4154  0.8891
 5038SOL    HW226577   4.511   2.523   9.126 -2.5439  1.6933 -0.3858
 5039SOL     OW26578   3.288   4.205   4.731  0.1267  0.0439  1.0124
 5039SOL    HW126579   3.345   4.138   4.769  0.3838 -0.3987 -0.1633
 5039SOL    HW226580   3.326   4.289   4.758 -0.7439  0.0217  2.2968
 5040SOL     OW26581   0.130   4.400   6.916 -0.7058  0.4425 -0.7858
 5040SOL    HW126582   0.063   4.466   6.900 -2.0339  0.1659  3.6729
 5040SOL    HW226583   0.074   4.322   6.916  0.1852 -0.2104  0.9245
 5041SOL     OW26584   0.976   0.485   2.827 -0.3177  0.4199  0.3757
 5041SOL    HW126585   0.989   0.575   2.857  0.3865  0.5835 -0.4097
 5041SOL    HW226586   0.927   0.444   2.898 -1.5575  1.7866  0.3207
 5042SOL     OW26587   1.134   2.968  14.345 -0.2911  0.3177  0.0665
 5042SOL    HW126588   1.044   2.950  14.317  0.8110 -0.4685 -2.8968
 5042SOL    HW226589   1.134   3.062  14.327  0.3870  0.1747 -0.6390
 5043SOL     OW26590   3.985   0.398   5.394  0.1927 -0.0282  0.2113
 5043SOL    HW126591   3.928   0.473   5.412 -1.0608 -1.3564  1.7295
 5043SOL    HW226592   4.063   0.421   5.445  0.3613  1.4357 -0.7006
 5044SOL     OW26593   0.640   0.566   6.180  0.3468  0.5130  0.0111
 5044SOL    HW126594   0.644   0.642   6.122 -0.6263  1.8537  1.6811
 5044SOL    HW226595   0.555   0.587   6.219 -0.3402 -0.7889 -0.8236
 5045SOL     OW26596   4.670   2.355   1.870 -0.3869 -0.2517  0.1731
 5045SOL    HW126597   4.701   2.414   1.939  1.7886  1.1772 -1.9895
 5045SOL    HW226598   4.715   2.392   1.794 -2.0970 -1.5865 -1.4912
 5046SOL     OW26599   3.647   1.903   6.307  0.3848  0.8227 -0.4500
 5046SOL    HW126600   3.579   1.908   6.239 -0.3084 -0.0606  0.1836
 5046SOL    HW226601   3.714   1.850   6.264  1.2236 -2.2900  4.7706
 5047SOL     OW26602   2.686   3.524   6.434  0.2530  0.1074  0.1553
 5047SOL    HW126603   2.617   3.477   6.482 -1.5964  1.7115 -0.9094
 5047SOL    HW226604   2.762   3.471   6.458 -0.0890 -0.9023 -0.9751
 5048SOL     OW26605   2.881   4.318   7.229  0.1346  0.5098  0.1398
 5048SOL    HW126606   2.883   4.299   7.135  1.3243 -0.3286  0.3231
 5048SOL    HW226607   2.812   4.384   7.232  0.3174  0.6382  1.8835
 5049SOL     OW26608   0.364   1.659   6.950  0.8019 -0.3282 -0.0260
 5049SOL    HW126609   0.382   1.740   6.901 -0.6090 -0.8978 -1.4732
 5049SOL    HW226610   0.449   1.614   6.944  1.4381  0.7945  0.5140
 5050SOL     OW26611   3.310   2.297   2.514  0.5665 -0.1753 -0.0483
 5050SOL    HW126612   3.281   2.374   2.563  1.3210  0.0208  0.1005
 5050SOL    HW226613   3.389   2.283   2.567  1.1357  1.1000 -0.5462
 5051SOL     OW26614   3.851   2.418   4.911  0.5165  0.5864 -0.0583
 5051SOL    HW126615   3.810   2.448   4.830  1.3625  0.9614 -0.3485
 5051SOL    HW226616   3.788   2.354   4.944 -0.8665  2.1282  0.2615
 5052SOL     OW26617   4.419   4.448  17.295  0.0089  0.4562  0.0054
 5052SOL    HW126618   4.348   4.427  17.356  0.4532  3.0268  1.3800
 5052SOL    HW226619   4.379   4.452  17.208 -1.7105 -2.4153  0.6465
 5053SOL     OW26620   0.922   2.599  11.717  0.7238  0.1368 -0.1224
 5053SOL    HW126621   0.890   2.527  11.664 -3.6896 -0.1166  2.9065
 5053SOL    HW226622   1.005   2.570  11.756  0.4173 -1.8267 -0.9341
 5054SOL     OW26623   0.292   1.380   7.593 -0.2190  0.4586  0.4568
 5054SOL    HW126624   0.362   1.436   7.559 -0.0576 -0.4559 -0.7081
 5054SOL    HW226625   0.265   1.445   7.659 -0.9972  1.9026 -1.2882
 5055SOL     OW26626   2.149   4.034   6.561 -0.3134  0.5018 -0.0079
 5055SOL    HW126627   2.187   4.025   6.474  0.2046  0.2560  0.2400
 5055SOL    HW226628   2.217   4.061   6.623  0.4346  1.2215 -1.1394
 5056SOL     OW26629   1.536   2.951  11.909 -0.1432  0.4624  0.5777
 5056SOL    HW126630   1.445   2.941  11.880 -0.6287  1.9244  1.5935
 5056SOL    HW226631   1.562   3.014  11.841  1.0574 -0.4988  0.1562
 5057SOL     OW26632   0.279   3.153  12.762 -0.4611 -0.0795  0.1302
 5057SOL    HW126633   0.368   3.168  12.792 -0.7963  1.9503  0.1157
 5057SOL    HW226634   0.263   3.243  12.734 -0.1203  0.9572  3.3232
 5058SOL     OW26635   0.306   0.149  13.341  0.3401 -0.0998 -0.0262
 5058SOL    HW126636   0.221   0.186  13.317  1.7529  3.5461  0.6715
 5058SOL    HW226637   0.333   0.092  13.268  1.9260  0.6779 -0.0416
 5059SOL     OW26638   3.982   3.278   4.632  0.1117  0.2924 -0.1855
 5059SOL    HW126639   4.059   3.329   4.607 -0.3357 -0.2466 -2.6798
 5059SOL    HW226640   4.032   3.224   4.694  0.4983  1.1085  0.2225
 5060SOL     OW26641   4.253   1.159   6.630  0.1834 -0.2897  0.3886
 5060SOL    HW126642   4.218   1.212   6.558 -0.4346  0.6104  1.3673
 5060SOL    HW226643   4.265   1.220   6.703 -1.1419  2.0987 -1.3745
 5061SOL     OW26644   1.117   3.001   4.613  0.3247 -0.0195 -0.5394
 5061SOL    HW126645   1.173   3.048   4.551 -0.2277  0.2008 -0.8738
 5061SOL    HW226646   1.069   2.945   4.552  0.8255 -2.2154  1.0732
 5062SOL     OW26647   0.400   0.963   8.544  0.2183  0.4136  0.4334
 5062SOL    HW126648   0.343   0.999   8.475  2.4757  1.4458 -0.9159
 5062SOL    HW226649   0.397   0.876   8.505 -1.8621  0.2446  0.9990
 5063SOL     OW26650   3.364   2.402   9.897  0.5685  0.6141  0.3295
 5063SOL    HW126651   3.328   2.477   9.849  0.1653  2.1009  2.9912
 5063SOL    HW226652   3.409   2.440   9.972  1.3143  0.9710 -0.2975
 5064SOL     OW26653   1.608   3.501   2.548 -0.8134 -0.0736 -0.5326
 5064SOL    HW126654   1.548   3.488   2.621 -1.1293 -0.0145 -0.7830
 5064SOL    HW226655   1.557   3.492   2.467  0.7924 -1.1134 -1.4335
 5065SOL     OW26656   4.401   2.562  12.299  0.4697  0.2204 -0.1553
 5065SOL    HW126657   4.476   2.609  12.262  0.9437 -0.8905 -0.6426
 5065SOL    HW226658   4.324   2.608  12.268  1.6552  1.0366 -1.8754
 5066SOL     OW26659   1.955   4.600   6.752  0.6400 -0.5794  0.4352
 5066SOL    HW126660   1.921   4.686   6.776  0.8539 -0.3268 -0.1623
 5066SOL    HW226661   2.038   4.629   6.714  0.6414  0.8839  1.5530
 5067SOL     OW26662   1.874   2.927  10.382  0.4199  0.5301  0.0415
 5067SOL    HW126663   1.818   3.005  10.387  0.3873  0.3988  1.4948
 5067SOL    HW226664   1.920   2.939  10.298 -0.9718 -0.1126 -0.8132
 5068SOL     OW26665   4.246   3.485   4.835  0.2509 -0.2396 -0.0803
 5068SOL    HW126666   4.275   3.537   4.910  0.2477  1.0197 -0.9379
 5068SOL    HW226667   4.324   3.490   4.779  0.9467  1.1397  0.9967
 5069SOL     OW26668   4.550   0.589   0.956  0.2947 -0.2776  0.1887
 5069SOL    HW126669   4.557   0.549   0.869 -2.5887  0.7899 -0.5292
 5069SOL    HW226670   4.455   0.597   0.959  0.3354  0.0460  0.6499
 5070SOL     OW26671   4.646   4.418   3.078 -0.1649 -0.2127 -0.0227
 5070SOL    HW126672   4.588   4.490   3.099  0.1277 -0.3272  1.1558
 5070SOL    HW226673   4.690   4.459   3.003 -0.5507  0.7645  0.2873
 5071SOL     OW26674   3.080   1.570   4.280  0.5516 -0.1163 -0.0013
 5071SOL    HW126675   3.152   1.589   4.220  0.7041  2.1442  0.9183
 5071SOL    HW226676   3.111   1.586   4.369 -1.3122 -1.6394  0.9234
 5072SOL     OW26677   2.701   4.430  13.948 -0.1817  0.0738  0.4162
 5072SOL    HW126678   2.745   4.410  14.031  3.3004  0.7799 -1.2427
 5072SOL    HW226679   2.620   4.471  13.978  0.8569  2.0552  0.5374
 5073SOL     OW26680   0.457   4.578  16.600  0.0034 -0.1970  0.4948
 5073SOL    HW126681   0.531   4.541  16.648  0.5401  0.2056 -0.0180
 5073SOL    HW226682   0.389   4.534  16.650 -0.8129  0.2798 -0.1880
 5074SOL     OW26683   4.462   1.676   8.904  0.0014  0.3756  0.1969
 5074SOL    HW126684   4.431   1.586   8.891 -2.1403  1.0014  0.9909
 5074SOL    HW226685   4.523   1.648   8.972 -0.2813 -2.1533 -0.5671
 5075SOL     OW26686   3.481   4.692   6.883 -0.1564  0.1793 -0.2416
 5075SOL    HW126687   3.429   0.048   6.858  0.9862  0.6968 -1.0052
 5075SOL    HW226688   3.423   4.664   6.953  0.6004  0.1790  0.3860
 5076SOL     OW26689   0.391   3.895  10.818  0.1758  0.1351 -0.4586
 5076SOL    HW126690   0.431   3.931  10.738 -0.5536  1.9671 -0.0086
 5076SOL    HW226691   0.349   3.969  10.862  0.0712 -0.6702  0.7646
 5077SOL     OW26692   0.777   0.953  13.295 -0.0075 -0.4100 -0.2118
 5077SOL    HW126693   0.783   0.921  13.385  1.8058 -1.5668 -0.7313
 5077SOL    HW226694   0.717   0.888  13.258 -1.5379 -0.1318  1.7415
 5078SOL     OW26695   2.959   4.599  16.166 -0.5217 -0.7503 -0.4904
 5078SOL    HW126696   2.941   4.557  16.082  3.2406 -0.6280 -1.3652
 5078SOL    HW226697   2.911   4.557  16.237 -0.9581  2.3575  1.0276
 5079SOL     OW26698   1.615   4.575   8.367 -0.1297  0.5667 -0.8124
 5079SOL    HW126699   1.541   4.632   8.389 -0.5344 -0.3443  0.2362
 5079SOL    HW226700   1.572   4.491   8.386  0.2064  0.3865 -0.8528
 5080SOL     OW26701   4.459   3.226   3.692 -0.3104 -0.3425 -0.4732
 5080SOL    HW126702   4.455   3.132   3.676 -1.7986 -0.1134 -1.5240
 5080SOL    HW226703   4.542   3.231   3.645  0.1082 -3.1551 -0.0104
 5081SOL     OW26704   3.316   1.864  13.109  0.5323  0.1321 -0.0155
 5081SOL    HW126705   3.298   1.851  13.016 -0.0337  1.7140 -0.1404
 5081SOL    HW226706   3.279   1.781  13.138 -1.3182  0.9424 -0.0335
 5082SOL     OW26707   3.106   1.978   8.696 -1.0549 -0.0605 -0.3679
 5082SOL    HW126708   3.061   1.938   8.621 -1.1390  3.1174 -2.0093
 5082SOL    HW226709   3.197   1.983   8.668 -1.3885  0.9408 -1.2704
 5083SOL     OW26710   4.598   0.037   8.025 -0.7914  0.4161  0.2340
 5083SOL    HW126711   4.662   4.689   8.042 -0.9823  0.2766  0.3846
 5083SOL    HW226712   4.658   0.101   7.987 -1.4947  2.3036  2.2873
 5084SOL     OW26713   4.697   2.070   5.060  0.3432  0.3498 -0.1731
 5084SOL    HW126714   4.616   2.116   5.037 -0.4771  0.0541  2.1787
 5084SOL    HW226715   4.700   2.085   5.154  0.0040 -1.9275  0.1854
 5085SOL     OW26716   3.154   2.946  12.372  0.0456 -0.2699 -0.3099
 5085SOL    HW126717   3.211   2.902  12.309 -1.6275 -2.3077 -0.4250
 5085SOL    HW226718   3.073   2.894  12.372 -0.3414  0.3607  1.0992
 5086SOL     OW26719   1.038   4.197   3.611  0.0016 -0.9826  0.1925
 5086SOL    HW126720   0.992   4.205   3.528 -0.1962 -0.8395  0.3165
 5086SOL    HW226721   0.975   4.140   3.655 -0.9555  1.9265  2.6035
 5087SOL     OW26722   2.745   1.512   2.216 -0.3485 -0.0793  0.4385
 5087SOL    HW126723   2.705   1.470   2.293  1.0373  0.7343  1.6082
 5087SOL    HW226724   2.782   1.583   2.268  1.3840 -0.6616 -0.0107
 5088SOL     OW26725   1.824   3.022   4.550 -0.5322 -0.4594  0.1527
 5088SOL    HW126726   1.885   2.964   4.596 -0.2501  0.7162  1.2627
 5088SOL    HW226727   1.742   2.994   4.590  0.0766  1.3178  2.6883
 5089SOL     OW26728   2.664   0.183   6.714  0.3615 -0.4997  0.2785
 5089SOL    HW126729   2.591   0.155   6.769 -0.5710  1.0693 -0.1557
 5089SOL    HW226730   2.735   0.135   6.757 -1.0310 -1.6318  1.3259
 5090SOL     OW26731   2.637   3.930   4.731  0.7831 -0.5848 -0.2036
 5090SOL    HW126732   2.649   4.025   4.729  0.0482 -0.5440 -2.5846
 5090SOL    HW226733   2.597   3.924   4.818 -1.7936  1.7057 -1.2596
 5091SOL     OW26734   4.122   3.917   4.940 -0.6517 -0.4905  0.3565
 5091SOL    HW126735   4.217   3.905   4.948 -0.6060 -0.4420 -0.1135
 5091SOL    HW226736   4.108   4.011   4.944  0.0722 -0.3178 -0.9567
 5092SOL     OW26737   0.382   2.107   8.001  0.3288 -0.9926 -0.5933
 5092SOL    HW126738   0.331   2.169   8.053  1.1802 -0.9114  0.1436
 5092SOL    HW226739   0.439   2.080   8.072 -0.0395  0.2157  0.1564
 5093SOL     OW26740   3.593   3.752   6.604 -0.1352 -0.3179 -0.0432
 5093SOL    HW126741   3.622   3.666   6.574 -0.6616 -1.1073  1.6820
 5093SOL    HW226742   3.669   3.808   6.586 -0.1286 -0.2605  0.1590
 5094SOL     OW26743   1.112   1.930  11.695  0.6479  0.1908  0.0735
 5094SOL    HW126744   1.061   1.889  11.624 -0.8148 -0.6376  1.6092
 5094SOL    HW226745   1.084   2.019  11.673  1.1190  0.0053 -1.3163
 5095SOL     OW26746   0.739   2.953   6.371  0.2506  0.2751 -0.0092
 5095SOL    HW126747   0.742   2.939   6.277 -0.7905 -1.3704  0.2018
 5095SOL    HW226748   0.817   2.907   6.402 -0.1610  0.3429  1.1260
 5096SOL     OW26749   1.924   1.262   1.557 -0.0920 -0.4304  0.1652
 5096SOL    HW126750   1.976   1.302   1.488  0.7767 -0.0852  1.0282
 5096SOL    HW226751   1.841   1.282   1.513 -0.2895 -0.3944  0.5468
 5097SOL     OW26752   2.471   2.638  13.887  0.6472 -0.1646  0.3708
 5097SOL    HW126753   2.522   2.711  13.853 -1.0125  0.7476 -0.2041
 5097SOL    HW226754   2.439   2.682  13.967  0.0605  1.8114 -0.9408
 5098SOL     OW26755   0.905   3.155   7.635  0.5908  0.1879 -0.3790
 5098SOL    HW126756   0.830   3.122   7.684  0.1103 -1.7843 -2.4558
 5098SOL    HW226757   0.974   3.159   7.702  0.8391 -0.0587 -0.6220
 5099SOL     OW26758   4.248   0.797   4.146  0.1223 -0.0227 -0.4268
 5099SOL    HW126759   4.290   0.879   4.172  0.9708  0.4473 -3.2733
 5099SOL    HW226760   4.299   0.768   4.070 -0.6156  0.0207 -0.9404
 5100SOL     OW26761   4.615   2.456   2.301 -0.2126  0.2620 -0.0697
 5100SOL    HW126762   4.576   2.372   2.278 -0.6320  0.2903  0.5281
 5100SOL    HW226763   4.542   2.497   2.347  0.9860  2.2812  0.0205
 5101SOL     OW26764   0.667   0.831   1.611  0.3793  0.6934  0.3516
 5101SOL    HW126765   0.586   0.867   1.646  0.8043 -0.5495  2.6293
 5101SOL    HW226766   0.733   0.882   1.657  1.1943 -1.0923  1.1964
 5102SOL     OW26767   2.596   0.150   7.552  0.3043 -0.0346 -0.4340
 5102SOL    HW126768   2.540   0.169   7.627  0.8462  0.3223 -0.1185
 5102SOL    HW226769   2.644   0.233   7.545 -1.8800  1.0264 -2.6521
 5103SOL     OW26770   1.378   3.824   2.666 -0.4584  0.6529 -0.1054
 5103SOL    HW126771   1.315   3.767   2.710  0.9573 -2.0467 -1.5265
 5103SOL    HW226772   1.404   3.879   2.740  1.5887  0.6701 -0.8305
 5104SOL     OW26773   4.707   4.448   9.048  0.7070  0.4149 -0.8316
 5104SOL    HW126774   0.071   4.456   9.090 -0.2404  1.8236  0.8577
 5104SOL    HW226775   4.650   4.449   9.125  1.9575 -3.5488  0.1012
 5105SOL     OW26776   1.242   3.823   5.943 -0.1623 -0.6653 -0.1414
 5105SOL    HW126777   1.311   3.872   5.899 -0.3234 -0.4464 -0.1500
 5105SOL    HW226778   1.293   3.751   5.982  1.2567  1.1978  1.4188
 5106SOL     OW26779   4.682   1.292   8.091  0.3796  0.5223 -0.0488
 5106SOL    HW126780   4.618   1.359   8.115 -0.4228 -0.3281  0.1676
 5106SOL    HW226781   0.044   1.317   8.132 -1.0816 -0.8401  3.7526
 5107SOL     OW26782   4.698   2.878   2.082 -0.0267 -0.1685  0.3295
 5107SOL    HW126783   4.611   2.889   2.120 -0.2442  0.5155 -0.3773
 5107SOL    HW226784   0.018   2.853   2.165 -1.5995 -1.1722  0.8053
 5108SOL     OW26785   1.527   1.405  15.442  0.1665 -0.3314  0.3626
 5108SOL    HW126786   1.548   1.382  15.532 -0.2784  1.4190  0.9064
 5108SOL    HW226787   1.432   1.399  15.446  0.0694  0.0201 -1.2544
 5109SOL     OW26788   2.969   2.878   6.856 -0.0368 -0.2887 -0.3916
 5109SOL    HW126789   2.977   2.802   6.914  2.3596 -0.5871 -1.1240
 5109SOL    HW226790   3.040   2.937   6.881 -0.8805  0.4428  0.2936
 5110SOL     OW26791   3.053   2.642  12.954  0.0557 -0.5075 -0.0753
 5110SOL    HW126792   3.129   2.585  12.946  0.4358 -0.0501  0.3076
 5110SOL    HW226793   3.042   2.622  13.047  3.0338 -1.7243  0.0130
 5111SOL     OW26794   2.793   3.806   5.693 -0.2366 -0.7691 -0.2900
 5111SOL    HW126795   2.867   3.746   5.699  0.8083  0.7122  1.4350
 5111SOL    HW226796   2.746   3.754   5.759 -0.3632 -0.0581  0.1745
 5112SOL     OW26797   3.491   0.690  13.804 -0.3558  0.4969 -0.7085
 5112SOL    HW126798   3.497   0.770  13.857 -0.0786  1.0775 -1.6051
 5112SOL    HW226799   3.550   0.709  13.731 -1.7348  0.5472 -1.8286
 5113SOL     OW26800   3.253   3.400   2.107 -0.0431 -0.0798  0.3972
 5113SOL    HW126801   3.317   3.426   2.041 -0.7274 -1.5524 -0.8318
 5113SOL    HW226802   3.229   3.312   2.078  2.4942  0.2687 -2.6378
 5114SOL     OW26803   3.132   0.741   1.571  0.3985 -0.4440  0.4735
 5114SOL    HW126804   3.076   0.728   1.648 -0.6378 -0.7790 -0.3488
 5114SOL    HW226805   3.221   0.722   1.601  0.5954 -1.2247 -0.6405
 5115SOL     OW26806   0.427   4.720   2.509  0.0721  0.2959 -0.4134
 5115SOL    HW126807   0.383   4.715   2.424  1.0365 -1.0046 -0.8206
 5115SOL    HW226808   0.501   4.663   2.491  1.3707  1.7816  0.2483
 5116SOL     OW26809   1.172   0.741  13.913 -0.0997  0.0642  0.3936
 5116SOL    HW126810   1.238   0.810  13.922 -0.8987  0.5551  2.4694
 5116SOL    HW226811   1.203   0.677  13.978  3.2184 -0.7059 -1.9219
 5117SOL     OW26812   2.959   0.187   9.173  0.0097  0.5777  0.3355
 5117SOL    HW126813   2.997   0.124   9.233  2.4519  1.4580 -0.2885
 5117SOL    HW226814   2.932   0.139   9.095  1.0475  0.4556  0.0612
 5118SOL     OW26815   4.101   4.563   7.547  0.4500 -0.8717 -0.1325
 5118SOL    HW126816   4.103   4.621   7.623 -1.1145  0.9351 -1.4828
 5118SOL    HW226817   4.195   4.555   7.533  0.3165 -0.0674 -1.4756
 5119SOL     OW26818   1.007   1.703   9.926  0.1016  0.1397 -0.2241
 5119SOL    HW126819   0.968   1.626   9.884  1.5032 -0.3883 -0.5542
 5119SOL    HW226820   1.022   1.766   9.855  1.1518 -1.3271 -1.3114
 5120SOL     OW26821   0.194   4.116   6.841  0.0349  0.3102  0.3045
 5120SOL    HW126822   0.105   4.151   6.845 -0.3547 -0.6358 -0.1461
 5120SOL    HW226823   0.230   4.121   6.930 -0.7339 -0.0064  0.6323
 5121SOL     OW26824   2.572   1.217  11.848  0.3544  0.2380 -0.2765
 5121SOL    HW126825   2.514   1.207  11.772 -0.9788  0.2398  0.7342
 5121SOL    HW226826   2.550   1.304  11.882 -1.3485 -0.8217  1.3816
 5122SOL     OW26827   1.092   1.559   3.153 -0.0267  0.4701 -0.1043
 5122SOL    HW126828   1.035   1.486   3.128  1.0450 -0.0667 -0.9980
 5122SOL    HW226829   1.176   1.518   3.174 -0.7729 -1.9519 -1.8847
 5123SOL     OW26830   1.824   0.512   6.868 -0.4090  0.8444  0.0782
 5123SOL    HW126831   1.835   0.580   6.801  2.9931  0.3445  0.1674
 5123SOL    HW226832   1.733   0.520   6.897 -0.9285  0.2356 -1.4163
 5124SOL     OW26833   4.017   1.035  16.564  0.1708 -0.5846  0.4705
 5124SOL    HW126834   3.997   0.948  16.528  0.7506 -1.0567  1.2779
 5124SOL    HW226835   3.937   1.078  16.535 -0.4103 -0.6122  2.0394
 5125SOL     OW26836   3.425   0.513  14.507  0.3331  0.0434  0.1835
 5125SOL    HW126837   3.431   0.420  14.485  2.7345  0.1146  0.5095
 5125SOL    HW226838   3.353   0.530  14.446  1.0443  0.8912 -0.4085
 5126SOL     OW26839   1.078   1.763   6.731 -0.9408 -0.0696 -0.2307
 5126SOL    HW126840   1.006   1.822   6.710 -0.9582  0.6789  1.8708
 5126SOL    HW226841   1.087   1.720   6.646  2.3349 -0.4022  0.2579
 5127SOL     OW26842   0.349   0.715   9.588 -0.1509  0.1324  0.8506
 5127SOL    HW126843   0.365   0.800   9.629 -1.7021  1.1553 -0.7180
 5127SOL    HW226844   0.439   0.680   9.586 -1.3361 -2.8979 -0.0430
 5128SOL     OW26845   4.256   3.658   3.082  0.6058 -0.2242 -0.3766
 5128SOL    HW126846   4.216   3.665   2.996 -1.6696 -2.9614  0.4631
 5128SOL    HW226847   4.230   3.745   3.112  0.3216 -1.8975  4.2365
 5129SOL     OW26848   2.978   3.049  14.595  0.3281  0.6096  0.4711
 5129SOL    HW126849   2.906   3.013  14.646 -1.5753 -0.6045 -3.0252
 5129SOL    HW226850   3.010   2.969  14.553 -0.7955  0.0323  0.7284
 5130SOL     OW26851   1.962   0.155   5.224 -1.0934  0.5389 -0.1608
 5130SOL    HW126852   1.989   0.156   5.316  1.8480  0.7872 -0.9959
 5130SOL    HW226853   1.868   0.170   5.221 -1.1456  0.4009  0.8761
 5131SOL     OW26854   4.315   0.674   2.913 -0.0925 -0.0052 -0.6244
 5131SOL    HW126855   4.372   0.685   2.837 -0.7273 -2.6330 -1.5008
 5131SOL    HW226856   4.372   0.707   2.982  1.5834 -5.3954  0.5977
 5132SOL     OW26857   0.098   3.432   1.918  0.1938 -0.0571  0.2570
 5132SOL    HW126858   0.074   3.483   1.841  1.0181 -1.7517 -1.1354
 5132SOL    HW226859   0.091   3.345   1.878 -0.1015  0.0040  0.1749
 5133SOL     OW26860   2.606   1.265  12.383 -0.4946 -0.2170  0.2282
 5133SOL    HW126861   2.625   1.291  12.473  0.2905  0.8931 -0.2700
 5133SOL    HW226862   2.518   1.301  12.374 -1.2231 -2.1679 -0.5248
 5134SOL     OW26863   3.348   1.533   3.710 -0.5743  0.1054 -0.5318
 5134SOL    HW126864   3.325   1.614   3.754  0.8102 -0.6489  1.5594
 5134SOL    HW226865   3.355   1.558   3.617 -1.7618  0.1119 -0.6236
 5135SOL     OW26866   2.740   4.433   1.401 -0.3491  0.2003  0.0902
 5135SOL    HW126867   2.831   4.406   1.411 -0.0708  0.6594 -1.2576
 5135SOL    HW226868   2.717   4.446   1.493 -2.8304  1.2718 -0.6810
 5136SOL     OW26869   0.063   2.505   4.295  0.3892 -0.0222 -0.4404
 5136SOL    HW126870   0.101   2.419   4.276  0.5563 -0.2408  0.8269
 5136SOL    HW226871   0.103   2.558   4.227  1.5643 -0.0321  0.2391
 5137SOL     OW26872   2.845   1.284   4.901  0.4476 -0.2921  0.5817
 5137SOL    HW126873   2.796   1.204   4.919 -1.2176  0.9393  1.5354
 5137SOL    HW226874   2.777   1.329   4.852 -0.2971 -2.5807 -0.4598
 5138SOL     OW26875   2.538   1.038   4.663 -0.5131 -0.5065  0.2361
 5138SOL    HW126876   2.443   1.034   4.673 -0.7381 -1.6961 -2.2688
 5138SOL    HW226877   2.564   1.034   4.571  0.7215  2.8527  0.4367
 5139SOL     OW26878   2.484   2.001   7.526  0.3248  0.2451  0.3512
 5139SOL    HW126879   2.542   1.939   7.571  1.3336 -0.5062 -1.9653
 5139SOL    HW226880   2.555   2.052   7.488 -0.1013  0.5340 -0.0564
 5140SOL     OW26881   1.987   2.457  13.536 -0.4583 -0.3364 -0.1281
 5140SOL    HW126882   1.991   2.479  13.443  2.1123  0.6004  0.2226
 5140SOL    HW226883   1.997   2.546  13.567  2.9357 -1.3413  1.6704
 5141SOL     OW26884   0.285   0.338   2.838  0.1546 -0.6631 -0.4078
 5141SOL    HW126885   0.204   0.374   2.802  0.4787 -0.8095 -1.3103
 5141SOL    HW226886   0.335   0.337   2.756 -1.5624  0.7275 -1.4586
 5142SOL     OW26887   2.638   4.091   9.522 -0.2946  0.4955 -0.3711
 5142SOL    HW126888   2.682   4.035   9.587  0.5293  0.1374 -1.2427
 5142SOL    HW226889   2.547   4.064   9.527  0.5350 -2.3398  0.1344
 5143SOL     OW26890   4.393   1.388  16.318  0.1707  0.0540  0.1472
 5143SOL    HW126891   4.479   1.388  16.276 -0.0252  1.0083 -0.2453
 5143SOL    HW226892   4.343   1.328  16.263  0.1817  1.4348 -1.3697
 5144SOL     OW26893   1.035   4.563  11.455 -0.3506 -0.1738  0.2250
 5144SOL    HW126894   1.069   4.474  11.467  1.6887  0.2499 -2.3320
 5144SOL    HW226895   1.107   4.609  11.497  0.5097 -0.5552 -0.8207
 5145SOL     OW26896   4.029   0.694  12.264 -0.8021  0.1004 -1.2194
 5145SOL    HW126897   3.937   0.711  12.248 -0.3973  1.9995 -1.4582
 5145SOL    HW226898   4.072   0.748  12.198 -0.0540  1.1285  0.1023
 5146SOL     OW26899   0.442   0.914  10.219  0.2928 -0.1886  0.3265
 5146SOL    HW126900   0.473   1.004  10.207 -1.1717  0.5724  2.3092
 5146SOL    HW226901   0.429   0.888  10.128 -2.6825 -2.4181  1.3740
 5147SOL     OW26902   1.212   0.483  15.003 -0.6227  0.4651 -0.1023
 5147SOL    HW126903   1.257   0.562  15.034  0.1135 -0.5453  1.4023
 5147SOL    HW226904   1.143   0.478  15.069  2.4992 -0.2159  3.1186
 5148SOL     OW26905   4.640   1.346   5.613 -0.1767  0.0470 -0.1183
 5148SOL    HW126906   4.572   1.279   5.605 -0.0871  0.0253 -0.6950
 5148SOL    HW226907   4.647   1.373   5.522  0.1507  0.4754  0.0363
 5149SOL     OW26908   1.732   3.801   8.667 -0.0050 -0.2693  0.1710
 5149SOL    HW126909   1.742   3.896   8.677  1.8867 -0.5109  0.5405
 5149SOL    HW226910   1.715   3.773   8.757  1.2006 -2.9539 -0.4532
 5150SOL     OW26911   1.775   1.206  12.561 -0.3443 -0.3881  0.1695
 5150SOL    HW126912   1.699   1.190  12.505  0.5588  0.3719 -1.2714
 5150SOL    HW226913   1.728   1.192  12.643  2.1778 -0.4498  1.5909
 5151SOL     OW26914   2.556   3.083   3.503 -0.3591 -0.5204 -0.7302
 5151SOL    HW126915   2.544   2.991   3.480  1.9018 -1.3725  1.5161
 5151SOL    HW226916   2.466   3.112   3.488 -0.9583 -2.8813 -1.7700
 5152SOL     OW26917   1.823   3.621   3.416  0.5741 -0.5314  0.0624
 5152SOL    HW126918   1.866   3.621   3.331  0.8566 -1.8113  0.2025
 5152SOL    HW226919   1.745   3.575   3.383  0.3667 -2.3915  3.1660
 5153SOL     OW26920   3.257   0.708  12.704 -0.3284  0.3932  0.4645
 5153SOL    HW126921   3.276   0.785  12.651 -1.0143  0.4924  0.3575
 5153SOL    HW226922   3.207   0.651  12.646  0.6302 -0.8227  0.8277
 5154SOL     OW26923   0.886   0.956  15.895 -0.4858  0.1193 -0.1845
 5154SOL    HW126924   0.923   1.043  15.910 -0.8060  0.2428 -0.0941
 5154SOL    HW226925   0.913   0.948  15.804 -1.9575 -1.7641 -0.4683
 5155SOL     OW26926   4.536   1.469   2.468  0.7443  0.9443  0.0360
 5155SOL    HW126927   4.536   1.466   2.373 -1.9923 -1.5123  0.1273
 5155SOL    HW226928   4.591   1.547   2.475  1.9100  0.1548 -0.2011
 5156SOL     OW26929   2.463   0.273   1.929 -0.0086 -0.6490  0.3635
 5156SOL    HW126930   2.458   0.203   1.995  2.0267 -1.1564 -0.0255
 5156SOL    HW226931   2.466   0.351   1.984  3.3775 -0.7934  0.3542
 5157SOL     OW26932   2.911   3.299   5.170 -0.3657 -0.6773 -0.9529
 5157SOL    HW126933   2.837   3.360   5.170  0.8253  0.7674  0.3237
 5157SOL    HW226934   2.984   3.343   5.126  1.1830 -1.6836  0.5967
 5158SOL     OW26935   3.149   1.005  11.854  0.3296 -0.1721  0.0442
 5158SOL    HW126936   3.100   0.930  11.819 -2.0352  1.6687 -0.5867
 5158SOL    HW226937   3.072   1.057  11.877 -0.0531 -0.1602 -1.2637
 5159SOL     OW26938   4.529   3.960   6.848  0.8490 -0.8659 -0.0899
 5159SOL    HW126939   4.535   3.966   6.753  2.7745  0.8733  0.1516
 5159SOL    HW226940   4.463   4.025   6.872 -1.2397 -2.0257 -2.6873
 5160SOL     OW26941   3.234   3.561   8.967  0.0737 -0.3114 -0.4145
 5160SOL    HW126942   3.310   3.503   8.961  0.2172  0.1009 -2.6975
 5160SOL    HW226943   3.257   3.620   8.895  0.4032  0.1138  0.0373
 5161SOL     OW26944   2.450   4.428  10.053 -0.0840 -0.1091  0.3299
 5161SOL    HW126945   2.415   4.474   9.977 -0.6659  0.0516  0.6973
 5161SOL    HW226946   2.535   4.395  10.025 -0.6996 -0.4388 -1.1614
 5162SOL     OW26947   0.119   1.990  11.140 -0.1026 -0.1415 -0.3603
 5162SOL    HW126948   0.133   1.953  11.054 -1.4817  0.6503 -0.9316
 5162SOL    HW226949   0.160   1.923  11.195  1.5570  1.2420  0.0882
 5163SOL     OW26950   4.419   2.500   7.556  0.6015  0.7995  0.4083
 5163SOL    HW126951   4.352   2.432   7.549  1.4043  0.0290  0.2799
 5163SOL    HW226952   4.377   2.544   7.630  0.1839  0.8367  0.1510
 5164SOL     OW26953   2.017   4.640   5.119 -0.3305  0.7399 -0.2424
 5164SOL    HW126954   2.094   4.621   5.171 -1.1352 -0.4770  0.5246
 5164SOL    HW226955   1.972   4.674   5.196 -0.2271  2.3753 -0.9023
 5165SOL     OW26956   2.426   4.234  15.275 -0.4990  0.0237  0.0543
 5165SOL    HW126957   2.497   4.284  15.235 -1.8049 -0.1423 -2.5089
 5165SOL    HW226958   2.360   4.296  15.305 -2.3506 -1.4886 -0.8638
 5166SOL     OW26959   1.110   1.711   5.098 -0.1270  0.4176 -0.1767
 5166SOL    HW126960   1.120   1.804   5.121  2.1201  0.5354 -1.5468
 5166SOL    HW226961   1.083   1.717   5.006  0.7389  1.3079 -0.3757
 5167SOL     OW26962   3.117   0.190   3.101  0.2178  0.0613  0.1177
 5167SOL    HW126963   3.121   0.104   3.058  1.0815  0.0656  0.1903
 5167SOL    HW226964   3.210   0.210   3.113 -0.4074  1.8179  1.9294
 5168SOL     OW26965   2.122   2.666   6.172  0.7314  0.0023  0.1588
 5168SOL    HW126966   2.068   2.669   6.251 -0.4086  0.6416 -0.6369
 5168SOL    HW226967   2.054   2.653   6.106  0.3922  3.2229 -0.1497
 5169SOL     OW26968   0.915   1.137   1.977  0.2021 -0.6230 -0.5271
 5169SOL    HW126969   0.963   1.099   1.904 -0.2648 -1.3073 -0.4755
 5169SOL    HW226970   0.965   1.216   1.999  0.2344 -0.0073 -2.7703
 5170SOL     OW26971   0.679   2.907  14.747 -0.3705  0.7710 -0.1080
 5170SOL    HW126972   0.726   2.831  14.712 -0.0206  0.5092  0.9204
 5170SOL    HW226973   0.590   2.870  14.744  0.4612 -1.2205 -0.8256
 5171SOL     OW26974   2.376   0.454   7.557 -0.3277  0.4551  0.2186
 5171SOL    HW126975   2.296   0.427   7.602 -1.7363  2.5743 -0.9797
 5171SOL    HW226976   2.395   0.531   7.611 -0.3356  1.4007 -1.0981
 5172SOL     OW26977   4.438   2.888  16.858 -0.0120 -0.2256  0.2674
 5172SOL    HW126978   4.430   2.795  16.841 -1.3959 -0.1646  0.5857
 5172SOL    HW226979   4.472   2.917  16.773 -2.7270 -1.5680 -1.2755
 5173SOL     OW26980   0.921   1.112   6.514  0.4758 -0.2472 -0.0745
 5173SOL    HW126981   0.990   1.047   6.529  1.7011  0.5022 -2.3841
 5173SOL    HW226982   0.867   1.059   6.455 -0.8567 -0.3900  1.2629
 5174SOL     OW26983   3.519   1.316   3.643 -0.0333  0.5936  0.5074
 5174SOL    HW126984   3.575   1.274   3.708 -1.3674 -0.7045  0.8180
 5174SOL    HW226985   3.482   1.385   3.699 -0.2093 -0.3282  1.5130
 5175SOL     OW26986   3.982   2.570  12.699  0.2406 -0.2843 -0.2643
 5175SOL    HW126987   4.072   2.603  12.704 -0.3887  1.4677 -0.6697
 5175SOL    HW226988   3.929   2.645  12.723 -0.6501 -1.0312  0.0851
 5176SOL     OW26989   0.425   2.545   1.331 -0.1153 -0.3790 -0.4154
 5176SOL    HW126990   0.485   2.619   1.320 -0.0444 -0.3299  0.2762
 5176SOL    HW226991   0.406   2.520   1.240 -1.0222 -0.0652 -0.3079
 5177SOL     OW26992   1.202   1.246   6.852  0.0310 -0.3794  0.1489
 5177SOL    HW126993   1.170   1.336   6.859  1.1231  0.0347 -0.3088
 5177SOL    HW226994   1.276   1.254   6.911 -0.2546  2.7534  0.1001
 5178SOL     OW26995   2.556   2.136  12.562  0.0658  0.4531  0.2715
 5178SOL    HW126996   2.532   2.045  12.576 -0.6398  0.6245  0.1403
 5178SOL    HW226997   2.485   2.168  12.506  0.8976  1.0839 -0.4316
 5179SOL     OW26998   0.113   0.863   0.613 -0.4096  0.5220  0.3359
 5179SOL    HW126999   0.131   0.956   0.597 -0.6820  0.3043 -1.2311
 5179SOL    HW227000   0.021   0.875   0.635 -0.8124 -1.6828 -0.1814
 5180SOL     OW27001   3.867   0.417   8.470 -0.4082  0.2984  0.3310
 5180SOL    HW127002   3.836   0.338   8.427 -2.6803  0.8502  0.9590
 5180SOL    HW227003   3.961   0.408   8.486 -0.5763 -0.7794  0.7193
 5181SOL     OW27004   1.873   3.558  12.877  0.4372  0.1666 -0.1571
 5181SOL    HW127005   1.782   3.577  12.897  0.6674 -0.6394  1.6079
 5181SOL    HW227006   1.905   3.647  12.863  1.5433 -0.1368  0.4223
 5182SOL     OW27007   2.634   1.080   3.866 -0.0798  0.5078  0.4615
 5182SOL    HW127008   2.713   1.036   3.834  1.2311  1.1255  2.8459
 5182SOL    HW227009   2.597   1.020   3.931 -0.5425 -0.2856 -0.5392
 5183SOL     OW27010   3.759   1.998   4.948 -0.2518 -0.9460 -0.0881
 5183SOL    HW127011   3.708   2.070   4.911 -1.0706 -0.2276  2.4597
 5183SOL    HW227012   3.728   1.942   4.877 -0.4775 -2.8707  1.5184
 5184SOL     OW27013   2.844   2.309   7.579  0.3490  0.8295  0.0581
 5184SOL    HW127014   2.916   2.359   7.618 -0.1127  0.6826  1.1027
 5184SOL    HW227015   2.767   2.356   7.610  0.0217  0.9302 -0.9074
 5185SOL     OW27016   2.194   2.225  13.389  0.4156 -0.7166  0.4972
 5185SOL    HW127017   2.211   2.284  13.316 -1.3584 -0.2559  0.4630
 5185SOL    HW227018   2.195   2.292  13.457  0.8904 -0.5323  0.3125
 5186SOL     OW27019   1.416   0.335   3.092 -0.3160  0.5566 -0.0703
 5186SOL    HW127020   1.345   0.371   3.040 -1.5190 -0.8769  0.5809
 5186SOL    HW227021   1.484   0.402   3.098  0.2581 -0.0512  0.2854
 5187SOL     OW27022   1.799   3.695   6.593 -0.2617  0.0144  0.1102
 5187SOL    HW127023   1.713   3.725   6.562 -0.7848  0.4155  1.9382
 5187SOL    HW227024   1.778   3.726   6.681 -2.8128  3.4544 -1.6942
 5188SOL     OW27025   1.196   0.419   3.991 -0.1658 -0.1669  0.1088
 5188SOL    HW127026   1.225   0.413   4.082 -0.8260 -1.2037  0.2426
 5188SOL    HW227027   1.157   0.507   3.991  0.1622 -0.0206  0.0495
 5189SOL     OW27028   1.860   4.212  12.957 -0.4964  0.2689  0.3460
 5189SOL    HW127029   1.948   4.211  12.996 -0.4175  2.4287  0.1748
 5189SOL    HW227030   1.841   4.120  12.978 -0.9468 -0.2508 -2.4258
 5190SOL     OW27031   3.433   2.382  17.005  0.2774  0.1005 -0.0317
 5190SOL    HW127032   3.472   2.439  16.938  0.3610  2.0014  1.6379
 5190SOL    HW227033   3.356   2.431  17.034 -0.3791  1.6552 -4.2920
 5191SOL     OW27034   3.422   0.739  14.730 -0.4897 -0.4364 -0.4593
 5191SOL    HW127035   3.429   0.672  14.662 -0.0477  0.3597 -1.2120
 5191SOL    HW227036   3.472   0.696  14.799  3.1346  3.3462 -0.6606
 5192SOL     OW27037   3.314   3.203   9.256  0.1926  0.2734  0.9025
 5192SOL    HW127038   3.220   3.186   9.256  0.3414 -0.5078 -0.8759
 5192SOL    HW227039   3.329   3.221   9.349  0.4972 -0.7096  1.0445
 5193SOL     OW27040   4.093   4.504   1.735  0.1420 -0.5234 -0.7621
 5193SOL    HW127041   4.048   4.422   1.754 -0.5893 -0.1270 -0.7890
 5193SOL    HW227042   4.017   4.559   1.717  1.1073  2.2133  3.6226
 5194SOL     OW27043   2.536   4.228  13.690  0.1454  0.3279  0.2492
 5194SOL    HW127044   2.475   4.282  13.641 -0.2141  0.5736  0.9740
 5194SOL    HW227045   2.541   4.275  13.773 -2.1391 -0.2660  0.7252
 5195SOL     OW27046   2.735   2.792  10.869 -0.1098 -0.8227 -0.0333
 5195SOL    HW127047   2.830   2.792  10.881 -0.6002  1.6062  3.9737
 5195SOL    HW227048   2.722   2.878  10.910 -1.8560  0.1414 -2.5791
 5196SOL     OW27049   4.596   4.249   1.877  0.3449  0.1710  0.1785
 5196SOL    HW127050   4.638   4.331   1.852  2.3209 -1.9243 -3.4321
 5196SOL    HW227051   4.504   4.258   1.855 -0.0650 -3.3516  0.4082
 5197SOL     OW27052   0.739   0.604   4.715 -0.0058  0.6904  0.3821
 5197SOL    HW127053   0.723   0.698   4.706 -1.2974  0.5525  1.3398
 5197SOL    HW227054   0.668   0.563   4.666  0.4386  1.2073 -0.6956
 5198SOL     OW27055   2.583   3.579  15.559  0.0538 -0.2088  0.0032
 5198SOL    HW127056   2.530   3.574  15.479 -0.0050 -2.7130  0.1741
 5198SOL    HW227057   2.666   3.613  15.527  0.3273 -0.6285  0.2696
 5199SOL     OW27058   4.507   3.403   4.772  0.3333 -0.7811  0.8944
 5199SOL    HW127059   4.537   3.316   4.746 -0.2888 -0.9642  0.8113
 5199SOL    HW227060   4.567   3.407   4.847 -0.2438 -0.9912  1.3717
 5200SOL     OW27061   3.430   4.545  11.739  0.2408  0.3399  0.5838
 5200SOL    HW127062   3.441   4.561  11.645 -2.5042  0.8083  0.3466
 5200SOL    HW227063   3.353   4.597  11.759  0.8419  1.5962 -0.3655
 5201SOL     OW27064   3.580   2.216  17.199  0.3636  0.1118 -0.4554
 5201SOL    HW127065   3.556   2.259  17.117  1.0463 -1.2232 -1.3652
 5201SOL    HW227066   3.577   2.298  17.247  3.5078 -0.5181  0.8241
 5202SOL     OW27067   0.316   3.585  16.393  0.2265 -0.3021  0.0467
 5202SOL    HW127068   0.372   3.663  16.403  0.7098 -0.5422 -0.8088
 5202SOL    HW227069   0.285   3.593  16.303  1.8824  0.5606 -0.4478
 5203SOL     OW27070   1.371   1.018   8.156 -0.2510 -0.4466 -0.2661
 5203SOL    HW127071   1.414   1.101   8.177  1.3950 -1.2605 -0.3922
 5203SOL    HW227072   1.441   0.957   8.134  0.6912  1.2246 -1.8604
 5204SOL     OW27073   2.928   1.146   7.196  0.3184 -0.0217 -0.8470
 5204SOL    HW127074   2.943   1.093   7.275 -0.9138 -0.6438 -1.0249
 5204SOL    HW227075   3.012   1.134   7.153  1.4919 -0.8568  1.6698
 5205SOL     OW27076   3.690   1.533   3.934  0.1720 -0.2853 -0.4126
 5205SOL    HW127077   3.702   1.452   3.885 -0.0151 -0.7382  0.2942
 5205SOL    HW227078   3.778   1.570   3.945  1.2640 -2.7090 -1.1298
 5206SOL     OW27079   0.611   1.264   1.302  0.3659 -0.8498  0.4162
 5206SOL    HW127080   0.569   1.326   1.362  1.9429 -2.0182  2.7310
 5206SOL    HW227081   0.691   1.304   1.270  0.8383 -1.1933  1.1854
 5207SOL     OW27082   3.879   1.800   2.895 -0.1974  0.1499  0.6809
 5207SOL    HW127083   3.822   1.732   2.932 -0.9570  1.0405  1.1231
 5207SOL    HW227084   3.959   1.755   2.866 -0.2073  0.7980 -0.3394
 5208SOL     OW27085   1.708   3.113   2.859  0.4706  0.2013 -0.5393
 5208SOL    HW127086   1.691   3.023   2.889  0.6664 -0.1765 -1.5359
 5208SOL    HW227087   1.733   3.090   2.769 -2.9363  0.4795 -1.5477
 5209SOL     OW27088   3.494   1.346  12.015 -0.2683  0.3030  0.3164
 5209SOL    HW127089   3.509   1.255  11.990 -1.5084  0.6793 -1.7879
 5209SOL    HW227090   3.584   1.378  12.004 -0.3569  0.8565  1.1691
 5210SOL     OW27091   0.418   4.718   3.275 -0.0426 -1.0928 -0.6413
 5210SOL    HW127092   0.368   0.032   3.349  2.1957  0.4867  0.1193
 5210SOL    HW227093   0.424   4.629   3.308 -0.9919 -0.7517  0.4903
 5211SOL     OW27094   0.098   0.008   7.036  0.0958 -0.2887  0.0719
 5211SOL    HW127095   0.185   0.007   6.996 -0.1208 -0.3037 -0.3924
 5211SOL    HW227096   0.077   0.101   7.044 -0.8774 -0.5473  0.5429
 5212SOL     OW27097   1.304   4.553   9.723  0.6332 -0.1676 -0.5148
 5212SOL    HW127098   1.286   4.636   9.679 -1.1408  0.1586  0.8140
 5212SOL    HW227099   1.300   4.490   9.651 -0.9509 -0.7644  0.1046
 5213SOL     OW27100   0.535   0.061   9.820 -0.0064  0.0018  0.2326
 5213SOL    HW127101   0.563   0.149   9.795  0.9362  0.2631  2.1905
 5213SOL    HW227102   0.612   0.029   9.867  1.3828 -0.9104 -2.7195
 5214SOL     OW27103   4.496   3.582  10.147  0.3066  0.0493  0.4328
 5214SOL    HW127104   4.419   3.615  10.101  1.5066 -3.0767 -3.8572
 5214SOL    HW227105   4.501   3.660  10.201  0.0755 -0.1681  0.7659
 5215SOL     OW27106   4.663   1.105   9.340  0.0121  0.1334  0.1793
 5215SOL    HW127107   4.679   1.193   9.375 -1.3774  0.8783 -1.0669
 5215SOL    HW227108   4.720   1.056   9.399  1.5121  2.0068  0.3068
 5216SOL     OW27109   2.721   0.135   3.125 -0.1439  0.7251 -0.0097
 5216SOL    HW127110   2.753   0.047   3.105  0.4470  0.4196  2.3613
 5216SOL    HW227111   2.626   0.119   3.124 -0.2601  1.5566 -2.7723
 5217SOL     OW27112   4.706   4.511   2.821 -0.9253 -0.1497  0.1870
 5217SOL    HW127113   0.049   4.567   2.778 -1.5835  0.4600 -0.0107
 5217SOL    HW227114   0.008   4.421   2.798  1.3252 -0.0437  1.9886
 5218SOL     OW27115   0.547   0.156   2.686  0.2622  0.4410  0.2363
 5218SOL    HW127116   0.484   0.110   2.631 -2.3156  1.3324  2.4370
 5218SOL    HW227117   0.628   0.108   2.665 -0.6516 -0.8271 -0.3501
 5219SOL     OW27118   0.058   2.235   8.817  0.1733 -0.0623 -0.1079
 5219SOL    HW127119   0.012   2.151   8.818 -0.0815  0.1073  1.3634
 5219SOL    HW227120   0.029   2.257   8.905 -0.5021  1.5793 -0.7457
 5220SOL     OW27121   2.396   1.441  12.477  0.0655  1.0118  0.0020
 5220SOL    HW127122   2.324   1.504  12.468  0.4570  1.4920  0.2615
 5220SOL    HW227123   2.435   1.471  12.559  1.1978 -2.6563  0.8097
 5221SOL     OW27124   4.248   1.734   3.398  0.5732  0.1759  0.1524
 5221SOL    HW127125   4.333   1.694   3.381  0.6520 -0.4229  1.9605
 5221SOL    HW227126   4.264   1.768   3.486  1.2971  1.1185 -0.3311
 5222SOL     OW27127   1.054   3.336   4.664 -0.2355 -0.0297  0.3017
 5222SOL    HW127128   0.981   3.303   4.612  0.8155 -1.7202 -0.0971
 5222SOL    HW227129   1.126   3.333   4.602 -0.5950 -1.4176 -0.0680
 5223SOL     OW27130   0.561   4.455  11.967  0.0168 -0.0358  0.0127
 5223SOL    HW127131   0.572   4.384  12.031  2.5428  0.9774  0.7277
 5223SOL    HW227132   0.496   4.515  12.004 -0.0823 -0.0396 -0.1572
 5224SOL     OW27133   1.747   0.647  15.490  0.0775  0.9374  0.4969
 5224SOL    HW127134   1.737   0.578  15.425  1.3109 -0.7074  2.0392
 5224SOL    HW227135   1.770   0.724  15.438  0.4978  1.0266  0.8092
 5225SOL     OW27136   3.563   4.231   6.996  0.5789 -0.3741  0.0317
 5225SOL    HW127137   3.546   4.242   7.090 -0.7434 -1.5528 -0.0705
 5225SOL    HW227138   3.535   4.141   6.980 -1.4068  0.1002  0.7514
 5226SOL     OW27139   4.032   3.214   5.443 -0.2192  0.3102  0.7708
 5226SOL    HW127140   4.086   3.290   5.421  1.2532 -1.2615 -1.0864
 5226SOL    HW227141   4.081   3.193   5.523  0.7580 -0.2103  0.0417
 5227SOL     OW27142   3.701   0.336  13.611 -0.4301  0.5162 -0.0440
 5227SOL    HW127143   3.698   0.325  13.706  3.0334  0.1897  0.0221
 5227SOL    HW227144   3.746   0.256  13.585 -2.1167 -0.4579  0.0452
 5228SOL     OW27145   3.066   1.313  11.419 -0.0409 -0.0949 -0.1106
 5228SOL    HW127146   3.114   1.230  11.417 -0.5068 -0.3715  0.2563
 5228SOL    HW227147   3.140   1.374  11.429 -0.0411 -0.3426  1.3259
 5229SOL     OW27148   2.353   3.176   1.822  0.2470  0.0784 -0.2417
 5229SOL    HW127149   2.278   3.131   1.784  0.5124  0.1792 -0.8782
 5229SOL    HW227150   2.415   3.162   1.750 -0.1880  0.0622 -0.6082
 5230SOL     OW27151   0.839   3.652   8.489  0.1742 -0.3835 -0.9723
 5230SOL    HW127152   0.821   3.718   8.422  2.2792 -0.7641 -1.9137
 5230SOL    HW227153   0.932   3.668   8.506 -0.4924  1.4300  0.9205
 5231SOL     OW27154   3.896   3.679   3.329  0.0505 -0.1299 -0.3551
 5231SOL    HW127155   3.835   3.714   3.264 -0.5792  0.8105  0.7573
 5231SOL    HW227156   3.878   3.738   3.402  0.8757  1.4513 -1.4010
 5232SOL     OW27157   1.194   0.298   6.714 -0.5076 -0.0364 -0.7946
 5232SOL    HW127158   1.189   0.386   6.752 -1.2203 -0.3802 -0.1076
 5232SOL    HW227159   1.120   0.298   6.653 -1.9356 -2.8749  0.9600
 5233SOL     OW27160   1.983   1.416  12.559 -0.0631 -0.2160 -0.6463
 5233SOL    HW127161   1.924   1.341  12.566 -0.2347  0.2871  3.3307
 5233SOL    HW227162   2.066   1.393  12.600 -0.5247  0.6867  0.8218
 5234SOL     OW27163   1.915   1.357   6.194 -0.2036 -0.2961 -0.1718
 5234SOL    HW127164   1.861   1.315   6.260 -1.3165  0.5634 -0.5401
 5234SOL    HW227165   1.944   1.287   6.136 -0.2319 -0.4805  0.0377
 5235SOL     OW27166   1.095   4.150   2.952 -0.0352 -0.0173 -0.7012
 5235SOL    HW127167   1.089   4.076   2.891  1.4568  1.7692 -3.0370
 5235SOL    HW227168   1.143   4.101   3.018 -0.8785  0.0608 -0.0291
 5236SOL     OW27169   2.088   1.138   7.528  0.5455  0.0182 -0.2396
 5236SOL    HW127170   2.001   1.148   7.491 -0.2824 -0.0448  1.6789
 5236SOL    HW227171   2.072   1.057   7.577 -0.4345 -0.4827 -1.3965
 5237SOL     OW27172   3.894   2.877   6.568 -0.1575 -0.4223  0.5687
 5237SOL    HW127173   3.929   2.875   6.479  1.3568 -0.9917  1.1839
 5237SOL    HW227174   3.883   2.971   6.583 -0.3672 -0.1758 -1.0659
 5238SOL     OW27175   1.120   2.661   2.795 -0.4197  0.2703 -0.3487
 5238SOL    HW127176   1.072   2.591   2.752  2.0528 -1.1211 -0.7948
 5238SOL    HW227177   1.136   2.720   2.721 -0.6251 -0.3922 -0.9157
 5239SOL     OW27178   1.545   2.249   4.331  0.3358  0.4280 -0.4459
 5239SOL    HW127179   1.592   2.333   4.337 -0.8157  1.1506 -1.4237
 5239SOL    HW227180   1.493   2.249   4.411  0.7854  1.0962 -0.1486
 5240SOL     OW27181   2.220   2.222   1.404 -0.2435 -0.4729 -0.5844
 5240SOL    HW127182   2.233   2.261   1.491 -0.9468 -2.6009  0.4816
 5240SOL    HW227183   2.163   2.288   1.364  0.8710  1.1914  0.5323
 5241SOL     OW27184   2.591   0.890  12.315  0.2016 -0.7516  0.7791
 5241SOL    HW127185   2.511   0.887  12.367 -0.1902  0.4971  0.2556
 5241SOL    HW227186   2.586   0.972  12.267 -0.7666 -0.8320  0.7466
 5242SOL     OW27187   1.607   2.621   6.840 -0.6224 -0.0666  0.3224
 5242SOL    HW127188   1.702   2.622   6.844 -0.5577 -1.1530 -1.1637
 5242SOL    HW227189   1.604   2.692   6.776  1.7658 -0.8662 -0.6581
 5243SOL     OW27190   2.656   1.591   6.671  0.6276 -0.2376 -0.2618
 5243SOL    HW127191   2.691   1.570   6.584 -0.0740 -3.2592  0.1663
 5243SOL    HW227192   2.735   1.572   6.721  0.5364 -0.8389 -0.3386
 5244SOL     OW27193   1.499   3.192   4.505  0.3406  0.1301  0.1591
 5244SOL    HW127194   1.413   3.153   4.490  0.6043 -0.8591  1.2306
 5244SOL    HW227195   1.539   3.129   4.565  0.2799 -0.1882 -0.1333
 5245SOL     OW27196   4.015   3.044   9.604  0.4394  0.1940  0.3645
 5245SOL    HW127197   4.074   2.976   9.636  0.2427 -0.2658 -0.2367
 5245SOL    HW227198   3.928   3.012   9.629  0.9064 -0.7688  0.7650
 5246SOL     OW27199   1.251   4.240   1.362  0.9768 -0.0170 -0.3156
 5246SOL    HW127200   1.290   4.153   1.372 -0.9250 -0.7803  0.5597
 5246SOL    HW227201   1.202   4.231   1.280 -0.9868 -0.2986  0.8896
 5247SOL     OW27202   0.344   4.344   6.343  0.2322 -0.2012  0.4728
 5247SOL    HW127203   0.402   4.269   6.331 -0.6571 -0.3896 -2.5528
 5247SOL    HW227204   0.324   4.339   6.437  2.8048 -0.1688  1.0011
 5248SOL     OW27205   1.572   3.177   5.054  0.2111  0.1991 -0.3899
 5248SOL    HW127206   1.581   3.239   4.982 -2.1835  0.3589 -0.5802
 5248SOL    HW227207   1.657   3.134   5.058 -0.6194 -1.2599  1.4416
 5249SOL     OW27208   1.264   4.334   3.645 -0.3056  0.7926 -0.5152
 5249SOL    HW127209   1.257   4.358   3.737 -0.8151  2.2421 -0.9319
 5249SOL    HW227210   1.184   4.286   3.625  1.3676 -2.5703  1.0283
 5250SOL     OW27211   4.203   2.951   5.460  0.0605  0.0499  0.7261
 5250SOL    HW127212   4.124   2.995   5.430 -0.6868 -1.7330  0.0786
 5250SOL    HW227213   4.173   2.860   5.455 -1.2223  0.4782  0.6614
 5251SOL     OW27214   2.576   0.443   2.952  0.1499  0.4409 -0.4750
 5251SOL    HW127215   2.500   0.492   2.983 -0.6196 -1.0069 -0.0591
 5251SOL    HW227216   2.610   0.396   3.029  0.7638 -0.1409 -1.0912
 5252SOL     OW27217   2.472   3.258  13.321 -0.0085 -0.0592  0.5969
 5252SOL    HW127218   2.472   3.277  13.227 -0.2316 -0.1001  0.5878
 5252SOL    HW227219   2.402   3.193  13.332 -0.3287  0.5143  1.9792
 5253SOL     OW27220   4.601   1.020   6.590 -0.2107 -0.4024  0.5031
 5253SOL    HW127221   4.596   1.019   6.685 -0.1878 -0.4259  0.5039
 5253SOL    HW227222   4.694   1.010   6.570 -0.0111 -0.1361  1.3173
 5254SOL     OW27223   0.818   2.786  11.200 -0.3602 -0.0422  0.1919
 5254SOL    HW127224   0.723   2.794  11.202 -0.2789  0.9450 -0.2960
 5254SOL    HW227225   0.827   2.732  11.279 -0.5658  0.1590  0.3512
 5255SOL     OW27226   0.476   3.387   5.610 -0.1763 -0.1050  0.1305
 5255SOL    HW127227   0.516   3.472   5.590 -1.7979  0.3470 -1.2083
 5255SOL    HW227228   0.388   3.408   5.642  0.8067  1.3417  1.8751
 5256SOL     OW27229   2.535   0.842   4.018 -0.0807  0.4217  0.2161
 5256SOL    HW127230   2.449   0.840   4.058 -0.5845 -0.1824 -0.8989
 5256SOL    HW227231   2.536   0.761   3.968 -2.0549 -1.2001  2.8256
 5257SOL     OW27232   4.712   1.244   2.808 -0.5351 -0.8272 -0.1380
 5257SOL    HW127233   4.634   1.197   2.835  0.3369 -2.2362 -0.0500
 5257SOL    HW227234   0.064   1.194   2.845  0.3912  0.7644  0.2018
 5258SOL     OW27235   3.125   2.312   5.939  0.0527  0.6161  0.2901
 5258SOL    HW127236   3.130   2.282   5.848 -0.9970  2.0428 -0.2426
 5258SOL    HW227237   3.156   2.400   5.920  0.1633  0.6649  0.7023
 5259SOL     OW27238   2.048   0.149   5.487 -0.2267  0.4389  0.3058
 5259SOL    HW127239   2.112   0.219   5.475  0.6774 -0.1981  1.4096
 5259SOL    HW227240   2.006   0.188   5.564  1.5306  1.6450  0.6525
 5260SOL     OW27241   1.850   2.189   7.425  0.6661 -0.3946  0.1977
 5260SOL    HW127242   1.916   2.121   7.439  1.5631  0.3501 -0.3972
 5260SOL    HW227243   1.783   2.138   7.470 -0.0366 -0.8117 -1.3103
 5261SOL     OW27244   0.248   4.673   8.953 -0.0213 -0.9999  0.0973
 5261SOL    HW127245   0.265   4.606   8.887  0.6558  0.4897 -1.2393
 5261SOL    HW227246   0.222   4.615   9.025 -0.6439 -1.4430 -0.4868
 5262SOL     OW27247   2.912   0.208   3.350 -0.2579 -0.3906  0.2246
 5262SOL    HW127248   2.866   0.222   3.432  0.8990 -1.7653  1.1155
 5262SOL    HW227249   2.893   0.117   3.328 -2.1534  0.1874 -0.4839
 5263SOL     OW27250   0.408   2.755   3.635  0.0346 -0.1275 -0.0173
 5263SOL    HW127251   0.409   2.697   3.711 -1.5674  1.8388  1.5173
 5263SOL    HW227252   0.356   2.704   3.573  1.5208 -0.9602 -0.5817
 5264SOL     OW27253   1.545   4.215  11.734  0.1424  0.4014 -0.7146
 5264SOL    HW127254   1.529   4.122  11.750 -1.0751  0.7140 -0.0709
 5264SOL    HW227255   1.610   4.206  11.665  3.5866  1.1711  2.4096
 5265SOL     OW27256   0.177   0.568   9.893 -0.7173  0.8123  0.5727
 5265SOL    HW127257   0.130   0.644   9.858 -1.2390  0.7343  1.1058
 5265SOL    HW227258   0.268   0.580   9.865 -0.5280 -0.4959  0.6470
 5266SOL     OW27259   0.366   1.917   6.852  0.3629 -0.2024  0.0172
 5266SOL    HW127260   0.347   1.921   6.759  1.4154 -0.1292 -0.1935
 5266SOL    HW227261   0.314   1.992   6.881  1.9422  0.5573  0.8762
 5267SOL     OW27262   4.373   3.906   7.924 -0.1172  0.3242  0.2419
 5267SOL    HW127263   4.310   3.834   7.919 -1.0545  1.0914  0.7863
 5267SOL    HW227264   4.316   3.984   7.919  1.3376  1.3773  0.1932
 5268SOL     OW27265   3.779   0.394  13.319 -0.6812 -0.0301  0.5765
 5268SOL    HW127266   3.869   0.383  13.348 -0.9938  0.6629  1.8374
 5268SOL    HW227267   3.793   0.400  13.224  1.2095  0.3122  0.8759
 5269SOL     OW27268   1.297   4.610  11.962 -0.6925 -0.0394  0.1262
 5269SOL    HW127269   1.371   4.667  11.980 -0.8144 -0.5600  2.2337
 5269SOL    HW227270   1.239   4.596  12.037 -1.2543  2.0084  0.0580
 5270SOL     OW27271   2.643   0.807   4.747 -0.4326  0.4676  0.6385
 5270SOL    HW127272   2.564   0.752   4.749  0.5976 -1.0232 -0.5245
 5270SOL    HW227273   2.608   0.887   4.707  0.0400 -0.2726 -1.2629
 5271SOL     OW27274   3.310   3.161  10.653  0.3732 -0.5537 -0.6816
 5271SOL    HW127275   3.231   3.196  10.611  0.0794 -0.8178 -0.3438
 5271SOL    HW227276   3.276   3.093  10.710  0.3315 -1.0970 -1.3638
 5272SOL     OW27277   4.204   0.376   9.529 -0.1482 -0.4093 -0.4007
 5272SOL    HW127278   4.161   0.461   9.537  0.5068 -0.2656  1.4379
 5272SOL    HW227279   4.215   0.352   9.621  0.3979 -1.6119 -0.7781
 5273SOL     OW27280   1.867   3.713   1.941  0.4157  0.1071 -0.3340
 5273SOL    HW127281   1.948   3.670   1.969 -0.2664  0.3683  2.1104
 5273SOL    HW227282   1.902   3.790   1.896 -1.9510  0.1964 -1.9821
 5274SOL     OW27283   3.583   2.748   8.048  0.4299 -0.0093  0.4565
 5274SOL    HW127284   3.521   2.699   8.103 -0.4594 -0.8869 -1.3250
 5274SOL    HW227285   3.625   2.812   8.105  0.5228 -1.3554  1.9161
 5275SOL     OW27286   2.587   1.328   3.965  0.6752 -0.1834 -0.7218
 5275SOL    HW127287   2.630   1.388   3.903 -0.2010  1.8720  0.6478
 5275SOL    HW227288   2.613   1.243   3.931 -2.0777 -0.6068 -1.7392
 5276SOL     OW27289   4.687   4.097   7.289  0.9574  0.0815 -0.0716
 5276SOL    HW127290   4.664   4.108   7.382  0.0654  0.1360 -0.2982
 5276SOL    HW227291   4.620   4.037   7.258 -0.3815  0.2985  2.3453
 5277SOL     OW27292   4.342   1.224   5.206 -0.4538 -0.4206  0.4230
 5277SOL    HW127293   4.251   1.251   5.205 -0.1019  0.7865  0.8903
 5277SOL    HW227294   4.357   1.271   5.288 -3.1027  2.5140 -0.7971
 5278SOL     OW27295   2.562   2.686   9.626  0.0613  0.2019 -0.3075
 5278SOL    HW127296   2.536   2.773   9.596  1.5131  0.5250 -0.6049
 5278SOL    HW227297   2.541   2.636   9.547  0.2195  0.1051 -0.2873
 5279SOL     OW27298   1.185   3.886   1.082  0.0549 -0.4823 -0.2498
 5279SOL    HW127299   1.213   3.825   1.014 -1.8500  0.3598 -1.8068
 5279SOL    HW227300   1.096   3.908   1.054  0.4077 -1.0054 -1.7664
 5280SOL     OW27301   4.348   4.285   8.920 -0.1513  0.2805  0.1909
 5280SOL    HW127302   4.281   4.239   8.971 -1.2826  1.3559 -0.3237
 5280SOL    HW227303   4.306   4.370   8.905  0.5109  0.7633  1.0718
 5281SOL     OW27304   2.097   4.691  15.112 -0.1762 -0.4218 -0.2511
 5281SOL    HW127305   2.096   4.617  15.052  0.1281  0.2682 -1.0988
 5281SOL    HW227306   2.006   4.706  15.138 -0.0526  0.0706 -0.1001
 5282SOL     OW27307   0.659   1.371  13.575 -0.5237  0.4908  0.3557
 5282SOL    HW127308   0.590   1.437  13.582  0.2528  1.3048  0.2900
 5282SOL    HW227309   0.676   1.353  13.668  0.3409  2.2248  0.5240
 5283SOL     OW27310   0.256   1.711   7.219  0.2887 -0.0856  0.3089
 5283SOL    HW127311   0.285   1.708   7.128 -1.0814  2.7638 -0.2344
 5283SOL    HW227312   0.224   1.624   7.243 -0.2490  0.1296  0.3782
 5284SOL     OW27313   4.332   4.068   3.681  0.6138 -0.0473 -0.1356
 5284SOL    HW127314   4.239   4.048   3.672  0.4589 -0.0694  1.4784
 5284SOL    HW227315   4.332   4.130   3.754  2.6437 -3.1357  2.5059
 5285SOL     OW27316   2.304   3.558  12.183 -0.2794  0.3837 -0.2340
 5285SOL    HW127317   2.305   3.474  12.229 -0.1384 -0.9727 -2.6990
 5285SOL    HW227318   2.350   3.614  12.245  0.5909  1.8837 -2.2223
 5286SOL     OW27319   3.120   1.741  13.384 -0.2130 -0.1839  0.1941
 5286SOL    HW127320   3.053   1.732  13.451  0.1560  1.4763  0.8068
 5286SOL    HW227321   3.068   1.789  13.320 -0.3679 -0.4857  0.0955
 5287SOL     OW27322   2.300   4.364   4.289 -0.1863 -0.0049 -0.4003
 5287SOL    HW127323   2.299   4.272   4.265 -0.0513  0.2099 -1.2267
 5287SOL    HW227324   2.230   4.371   4.354  0.2815 -0.1652  0.1205
 5288SOL     OW27325   1.440   0.158   6.636  0.1127 -0.3093 -0.2118
 5288SOL    HW127326   1.346   0.172   6.649  0.6040  1.4381  1.4777
 5288SOL    HW227327   1.438   0.079   6.582 -0.1638  1.2579 -2.4706
 5289SOL     OW27328   3.839   4.384   4.276 -0.2594 -0.4420  0.1052
 5289SOL    HW127329   3.801   4.320   4.217 -0.2192 -3.3070  3.1847
 5289SOL    HW227330   3.933   4.366   4.272 -0.6111 -2.7190  2.4784
 5290SOL     OW27331   0.314   2.515   2.011 -0.2292 -0.0900 -0.4780
 5290SOL    HW127332   0.228   2.478   2.032  0.7016 -0.6127  2.4117
 5290SOL    HW227333   0.295   2.609   2.012  0.4605  0.0432  0.4484
 5291SOL     OW27334   3.202   0.121   7.257  0.2825 -0.1376 -0.0068
 5291SOL    HW127335   3.270   0.162   7.310 -0.6382  0.3657  0.7913
 5291SOL    HW227336   3.138   0.090   7.322  0.0446  0.4102  0.0203
 5292SOL     OW27337   1.747   0.945   1.151  0.1036 -0.1843 -0.3695
 5292SOL    HW127338   1.820   0.884   1.148 -0.8979 -1.4211  0.9844
 5292SOL    HW227339   1.694   0.917   1.225  3.7122 -0.9425  1.9106
 5293SOL     OW27340   3.910   3.107   7.151 -0.0936  0.3484 -0.3458
 5293SOL    HW127341   3.845   3.046   7.187  1.4773 -1.2142 -0.1167
 5293SOL    HW227342   3.974   3.046   7.114 -0.1380  1.4873 -2.2625
 5294SOL     OW27343   0.829   4.265   2.638 -1.2334 -0.9503 -0.2395
 5294SOL    HW127344   0.805   4.235   2.726 -0.5505  0.1408  0.3257
 5294SOL    HW227345   0.784   4.201   2.583 -2.3384 -0.3304 -0.0539
 5295SOL     OW27346   0.222   1.414   0.077  0.6966 -0.3357 -0.0850
 5295SOL    HW127347   0.277   1.441   0.150  1.0847 -0.6387 -0.2632
 5295SOL    HW227348   0.140   1.462   0.091  0.4134 -0.4606 -1.3012
 5296SOL     OW27349   1.659   2.503   7.755 -0.2185 -0.4962  0.3971
 5296SOL    HW127350   1.645   2.470   7.667 -0.5529 -1.8724  0.9697
 5296SOL    HW227351   1.595   2.447   7.800  0.6971  0.8357  3.3717
 5297SOL     OW27352   0.490   2.186   9.255  0.2660  0.2984 -0.2063
 5297SOL    HW127353   0.403   2.193   9.294  0.5089 -0.8672  0.5450
 5297SOL    HW227354   0.517   2.262   9.307  0.6524  0.9535 -1.3605
 5298SOL     OW27355   1.954   4.576   0.676 -0.7736  0.4052 -0.4071
 5298SOL    HW127356   1.901   4.510   0.721 -2.1026  0.7509 -1.4775
 5298SOL    HW227357   1.975   4.640   0.744  5.1172 -1.2087 -0.7263
 5299SOL     OW27358   2.366   2.951   6.788 -0.0846  0.2250 -0.1583
 5299SOL    HW127359   2.422   2.992   6.723  1.5822 -0.0662  1.0764
 5299SOL    HW227360   2.366   3.019   6.855  2.3098 -0.5624  0.6415
 5300SOL     OW27361   2.891   3.763   4.648 -0.3200 -0.3905 -0.4697
 5300SOL    HW127362   2.899   3.683   4.598  2.1041  0.3452 -1.2441
 5300SOL    HW227363   2.795   3.767   4.650 -0.3231 -0.3362 -0.8641
 5301SOL     OW27364   0.924   0.386   7.804 -0.1357  0.1971  0.0765
 5301SOL    HW127365   0.832   0.361   7.797  0.4297 -1.7869 -0.2141
 5301SOL    HW227366   0.945   0.374   7.896  0.0082 -0.9451 -0.1044
 5302SOL     OW27367   3.585   0.760  15.722  0.6817 -0.3374  0.0763
 5302SOL    HW127368   3.654   0.738  15.785  1.2710  0.8232 -0.1661
 5302SOL    HW227369   3.555   0.671  15.704  1.5975 -0.7219  0.4277
 5303SOL     OW27370   3.057   1.848   5.894 -0.0040  0.2717 -0.4640
 5303SOL    HW127371   3.000   1.917   5.927  0.5404  0.3361  0.3362
 5303SOL    HW227372   3.011   1.798   5.827 -2.6741  0.6564  1.0812
 5304SOL     OW27373   2.133   2.565   2.868  0.2626 -0.6039 -0.0219
 5304SOL    HW127374   2.163   2.633   2.808 -0.7593 -0.1101  0.0333
 5304SOL    HW227375   2.042   2.556   2.840 -0.2800  0.7490  1.2884
 5305SOL     OW27376   0.312   2.458   2.554  0.3165  0.1037 -0.5678
 5305SOL    HW127377   0.351   2.504   2.480  1.5752  0.5143  0.3308
 5305SOL    HW227378   0.377   2.393   2.583 -1.0934 -0.9639  0.2043
 5306SOL     OW27379   4.181   4.632   8.389 -0.3689  0.3611 -0.3205
 5306SOL    HW127380   4.135   4.566   8.440 -1.9036  1.3725 -0.3776
 5306SOL    HW227381   4.134   4.620   8.307 -1.5268  0.5094  0.3169
 5307SOL     OW27382   1.307   3.479   8.024 -0.2692  0.4928  0.3968
 5307SOL    HW127383   1.300   3.389   8.058  0.7485  0.6067  0.9304
 5307SOL    HW227384   1.234   3.484   7.963 -0.0859 -0.5894  0.0841
 5308SOL     OW27385   3.349   1.967  11.356 -0.1114  0.1663 -0.5094
 5308SOL    HW127386   3.307   1.882  11.362 -0.8025  0.5799  0.4918
 5308SOL    HW227387   3.273   2.020  11.332  0.3858  1.2564  0.2889
 5309SOL     OW27388   2.112   0.841   8.069  0.7344 -0.4188 -0.2674
 5309SOL    HW127389   2.143   0.782   8.138 -2.3092 -2.4731 -0.6660
 5309SOL    HW227390   2.025   0.806   8.048  0.4206  0.1071  0.1207
 5310SOL     OW27391   1.680   0.462   7.992  0.2510  0.2685 -0.5831
 5310SOL    HW127392   1.600   0.431   8.033  1.4624  1.2931  2.5545
 5310SOL    HW227393   1.727   0.385   7.961 -0.2851 -0.1141 -0.4385
 5311SOL     OW27394   2.117   0.637   5.768  0.2638 -0.0367  0.1591
 5311SOL    HW127395   2.195   0.602   5.726 -0.0619  0.9778 -1.2966
 5311SOL    HW227396   2.072   0.670   5.690  0.9453 -2.2697 -1.1669
 5312SOL     OW27397   0.080   3.517   5.917 -0.5009  0.0873  0.0033
 5312SOL    HW127398   0.016   3.495   5.985 -0.9538  1.3009 -0.0312
 5312SOL    HW227399   0.031   3.559   5.847  1.3711  1.5021 -0.4366
 5313SOL     OW27400   3.334   4.234  12.290 -0.0542  0.1345 -0.0324
 5313SOL    HW127401   3.330   4.187  12.373  1.7871 -0.1850 -0.1236
 5313SOL    HW227402   3.257   4.193  12.251 -0.3259 -0.9877  1.6870
 5314SOL     OW27403   3.699   1.575   5.322 -0.0350 -0.2184  0.4592
 5314SOL    HW127404   3.738   1.591   5.236 -0.8508 -0.7342 -0.0116
 5314SOL    HW227405   3.665   1.661   5.346  0.1627  0.1492 -0.5985
 5315SOL     OW27406   3.908   1.410  12.305 -0.0500 -0.1514 -0.0071
 5315SOL    HW127407   3.924   1.377  12.217  0.0741  0.3152 -0.1606
 5315SOL    HW227408   3.909   1.506  12.303 -0.6008 -0.1457  0.0319
 5316SOL     OW27409   2.832   0.110   4.329 -0.6629  0.9096 -0.1433
 5316SOL    HW127410   2.756   0.051   4.327 -1.8351  2.3510  1.5160
 5316SOL    HW227411   2.859   0.125   4.239  2.7428 -1.6088  0.4506
 5317SOL     OW27412   2.210   3.479  13.714 -0.0965 -0.3557 -0.6797
 5317SOL    HW127413   2.281   3.529  13.674  0.0065 -0.4019 -0.5562
 5317SOL    HW227414   2.194   3.408  13.652 -0.5066 -1.4241  0.6373
 5318SOL     OW27415   1.489   3.104   7.150  0.5106  0.1266  0.2252
 5318SOL    HW127416   1.574   3.146   7.147  0.2622  0.3996 -2.4103
 5318SOL    HW227417   1.453   3.134   7.067  1.8520  1.3953  0.1167
 5319SOL     OW27418   2.902   1.591   5.695 -0.0212  0.5410 -0.2111
 5319SOL    HW127419   2.950   1.623   5.618 -0.0310  0.5635 -0.2080
 5319SOL    HW227420   2.816   1.628   5.675 -1.4217 -1.9291  1.2738
 5320SOL     OW27421   2.952   3.957  16.755 -0.4328  0.3162  0.0075
 5320SOL    HW127422   3.028   3.991  16.801 -1.7929 -0.8983  3.1546
 5320SOL    HW227423   2.956   4.012  16.676  1.1466  1.2823  0.7545
 5321SOL     OW27424   2.953   1.547  12.395 -0.6726 -0.4534 -0.9040
 5321SOL    HW127425   2.973   1.562  12.487  0.2849 -1.5108 -0.9406
 5321SOL    HW227426   2.868   1.591  12.403 -0.5688  0.1674 -3.2704
 5322SOL     OW27427   3.749   2.833   6.908  0.1778 -0.2831  0.1856
 5322SOL    HW127428   3.681   2.894   6.879 -0.4300  0.7541  3.8954
 5322SOL    HW227429   3.707   2.747   6.899  1.2446 -0.8344  0.3843
 5323SOL     OW27430   3.357   0.887  15.556 -0.1519  0.3841  0.3682
 5323SOL    HW127431   3.349   0.971  15.602 -2.3378  0.3768 -0.0117
 5323SOL    HW227432   3.439   0.856  15.595 -1.0314 -1.9179  0.3543
 5324SOL     OW27433   0.969   1.223  14.323  0.3443 -0.3172 -0.0062
 5324SOL    HW127434   0.875   1.225  14.306  0.0376  1.0713  1.8949
 5324SOL    HW227435   0.994   1.315  14.309 -1.5026  0.3847  1.3890
 5325SOL     OW27436   4.129   1.331   7.081 -0.6911  0.6527  0.1467
 5325SOL    HW127437   4.137   1.240   7.109 -1.8351  0.8619  1.1236
 5325SOL    HW227438   4.219   1.359   7.097 -0.4610  0.5545 -0.9351
 5326SOL     OW27439   3.191   4.160   7.707 -0.1527  0.4008  0.0512
 5326SOL    HW127440   3.241   4.169   7.626  0.6375 -1.0478  0.3832
 5326SOL    HW227441   3.141   4.083   7.680  0.2180  0.3513 -0.4820
 5327SOL     OW27442   0.055   0.735   8.372  0.2294 -0.3000  0.1588
 5327SOL    HW127443   0.096   0.675   8.435  2.3120 -0.0586 -0.9587
 5327SOL    HW227444   0.103   0.816   8.390 -1.2013  0.1361  1.9669
 5328SOL     OW27445   4.304   1.369   2.599 -0.3872 -0.4689  0.0689
 5328SOL    HW127446   4.311   1.277   2.572 -1.8280 -0.9604  1.3841
 5328SOL    HW227447   4.382   1.400   2.554 -0.1387 -0.0876  0.7841
 5329SOL     OW27448   0.787   4.327   5.908 -0.4084  0.0387  0.1941
 5329SOL    HW127449   0.799   4.377   5.989 -0.9957  2.1001 -0.9878
 5329SOL    HW227450   0.713   4.377   5.875 -0.5006  0.7935  1.5631
 5330SOL     OW27451   0.747   1.858   0.155 -0.1179 -0.0951 -0.1638
 5330SOL    HW127452   0.687   1.828   0.087 -1.3716  0.8874  0.5268
 5330SOL    HW227453   0.734   1.795   0.227  2.9918 -0.8469 -0.2376
 5331SOL     OW27454   1.691   4.398  13.779  0.1385  0.1771 -0.3895
 5331SOL    HW127455   1.729   4.386  13.866 -1.0312 -2.3757 -0.2328
 5331SOL    HW227456   1.611   4.446  13.799 -1.2833 -1.0675 -3.0053
 5332SOL     OW27457   1.302   2.811  11.885  0.7891 -0.6550 -0.5430
 5332SOL    HW127458   1.258   2.843  11.964  0.6226 -0.0741 -0.8679
 5332SOL    HW227459   1.277   2.719  11.893  1.1067 -0.6796  0.2065
 5333SOL     OW27460   2.664   4.253   8.862 -0.3994  0.2386 -0.7996
 5333SOL    HW127461   2.685   4.162   8.883 -1.0237  0.3846  0.5225
 5333SOL    HW227462   2.749   4.292   8.842 -0.0261 -1.0152 -1.6468
 5334SOL     OW27463   3.218   4.296   3.190 -0.0615 -0.0382  0.6120
 5334SOL    HW127464   3.294   4.238   3.192  1.0428  1.4847  3.8969
 5334SOL    HW227465   3.258   4.370   3.143 -1.8919 -0.1776 -1.1637
 5335SOL     OW27466   3.249   4.514  10.276  0.0822 -0.6179  0.2321
 5335SOL    HW127467   3.191   4.546  10.345 -1.0871 -3.3665  0.5145
 5335SOL    HW227468   3.334   4.541  10.310  0.5235 -0.2769 -1.1270
 5336SOL     OW27469   4.664   4.119   6.422 -0.6213  0.9768  0.2070
 5336SOL    HW127470   4.660   4.162   6.336 -1.4900 -2.8607 -1.6560
 5336SOL    HW227471   0.037   4.123   6.440 -0.5115 -3.4306  0.5837
 5337SOL     OW27472   3.074   0.656   2.385  0.1209  0.4986 -0.5342
 5337SOL    HW127473   3.056   0.562   2.377 -0.2567  0.4213  1.3224
 5337SOL    HW227474   3.084   0.681   2.293 -1.0079 -0.6794 -0.9953
 5338SOL     OW27475   1.839   2.737  12.315 -0.0524  0.0923 -0.1869
 5338SOL    HW127476   1.773   2.780  12.261  1.0106 -1.1199 -2.4626
 5338SOL    HW227477   1.910   2.802  12.318 -0.0607  0.1718 -1.7862
 5339SOL     OW27478   0.615   2.177  15.275  0.6098 -0.0025  0.1106
 5339SOL    HW127479   0.620   2.088  15.311 -1.2763 -0.0004  0.4106
 5339SOL    HW227480   0.685   2.168  15.211  1.0196 -0.7566  0.6667
 5340SOL     OW27481   0.417   4.174  10.110  0.2472  0.8907 -0.2492
 5340SOL    HW127482   0.475   4.248  10.088  0.4174  1.1577  1.0998
 5340SOL    HW227483   0.354   4.169  10.038 -0.2959  2.6102  0.1019
 5341SOL     OW27484   3.457   3.079  13.851 -0.1045 -0.0923 -0.3923
 5341SOL    HW127485   3.510   3.158  13.855  2.4215 -1.8602  1.4483
 5341SOL    HW227486   3.474   3.048  13.940 -2.7994  0.6464  0.3597
 5342SOL     OW27487   1.046   3.360   8.313 -0.3194  0.2975 -0.2178
 5342SOL    HW127488   1.008   3.312   8.239 -1.5574  3.0269 -1.3241
 5342SOL    HW227489   0.978   3.363   8.379  1.1014  0.3280  1.2471
 5343SOL     OW27490   1.649   2.017   8.427  0.0267  0.0519 -0.0254
 5343SOL    HW127491   1.721   1.988   8.483  0.3146 -0.0919 -0.4716
 5343SOL    HW227492   1.594   2.045   8.501 -0.5995 -2.9226  0.6495
 5344SOL     OW27493   3.077   1.446   7.348  0.3663 -0.1007  0.0762
 5344SOL    HW127494   2.982   1.440   7.345  0.3391 -0.0013  0.6339
 5344SOL    HW227495   3.093   1.447   7.443  0.2463  2.8309  0.0589
 5345SOL     OW27496   2.924   2.367   3.391  0.7388 -0.4250  0.0424
 5345SOL    HW127497   2.829   2.374   3.395  0.8885  1.0921  0.9909
 5345SOL    HW227498   2.953   2.432   3.455 -2.4512  1.4060 -0.3640
 5346SOL     OW27499   1.758   2.936  13.963 -0.1802 -0.2881  0.1895
 5346SOL    HW127500   1.775   2.983  14.044 -0.9593 -0.9968  0.7675
 5346SOL    HW227501   1.829   2.966  13.906 -0.4554 -1.1920 -0.6354
 5347SOL     OW27502   2.665   0.732   5.225  0.9903 -0.1047 -0.1677
 5347SOL    HW127503   2.703   0.659   5.273 -0.4161  0.8997  2.4725
 5347SOL    HW227504   2.714   0.807   5.258  1.0624 -0.2684  0.0884
 5348SOL     OW27505   0.868   0.324   2.218  0.0593 -0.2455 -0.2790
 5348SOL    HW127506   0.926   0.398   2.199 -0.3339  0.9641  3.2890
 5348SOL    HW227507   0.849   0.348   2.309 -1.9956 -1.7916 -0.3037
 5349SOL     OW27508   0.243   1.764  14.304  0.6427 -0.1106  0.4247
 5349SOL    HW127509   0.241   1.668  14.312  0.6598 -0.2296 -0.9196
 5349SOL    HW227510   0.311   1.787  14.367  0.2485 -2.2203  1.6439
 5350SOL     OW27511   1.995   0.927  13.439 -0.0068  0.3934 -0.3393
 5350SOL    HW127512   1.949   0.962  13.515  2.8927  1.9294  0.6888
 5350SOL    HW227513   2.021   0.840  13.471 -0.6757 -0.0940 -1.1378
 5351SOL     OW27514   2.568   0.785   2.130 -0.0647  0.6077  0.4059
 5351SOL    HW127515   2.570   0.880   2.139 -0.5020  0.7304 -0.8139
 5351SOL    HW227516   2.661   0.767   2.147  0.8400  2.0352 -2.9889
 5352SOL     OW27517   3.180   3.063   6.916 -0.0937 -0.0512  0.2659
 5352SOL    HW127518   3.229   3.145   6.908 -2.5837  1.4015  0.1799
 5352SOL    HW227519   3.231   3.003   6.861 -1.3628 -0.6093 -0.3067
 5353SOL     OW27520   2.913   3.031  14.975  0.7408 -0.3572  0.6079
 5353SOL    HW127521   2.971   2.959  15.001  1.2833 -1.6943 -4.2599
 5353SOL    HW227522   2.965   3.105  15.006 -0.0269  0.6506 -0.5237
 5354SOL     OW27523   0.327   2.775   6.404  0.3438  0.1537 -0.6734
 5354SOL    HW127524   0.408   2.819   6.430  0.5847 -0.5109 -0.2923
 5354SOL    HW227525   0.267   2.822   6.462 -2.4213 -2.0488 -1.7257
 5355SOL     OW27526   0.183   1.191   7.396  0.4623 -0.8068 -0.4045
 5355SOL    HW127527   0.130   1.118   7.428  0.6705 -0.4350  0.7761
 5355SOL    HW227528   0.187   1.251   7.471  2.4222 -1.7152  0.2042
 5356SOL     OW27529   0.644   1.431   7.230 -0.7089  0.4564  0.4438
 5356SOL    HW127530   0.728   1.458   7.267 -0.2875 -0.5722  0.2540
 5356SOL    HW227531   0.668   1.438   7.138  1.3339  1.1929  1.0367
 5357SOL     OW27532   1.277   4.272   0.804  0.4668 -0.3679  0.4715
 5357SOL    HW127533   1.264   4.353   0.756  0.4921 -0.3371  0.5161
 5357SOL    HW227534   1.212   4.216   0.763 -1.2008  0.1804  2.3997
 5358SOL     OW27535   1.273   4.028  15.224 -0.1235 -0.2381 -0.3744
 5358SOL    HW127536   1.203   3.978  15.183 -1.0473 -0.4609  1.4738
 5358SOL    HW227537   1.347   3.995  15.173  1.5460 -0.4312  2.2146
 5359SOL     OW27538   4.045   3.891   7.792 -0.4731 -0.1070  0.1034
 5359SOL    HW127539   4.064   3.815   7.847 -0.4056  1.0212  1.6480
 5359SOL    HW227540   4.087   3.963   7.840 -2.3979 -0.3338  2.0975
 5360SOL     OW27541   0.948   4.222  17.550 -0.2032 -0.1280  0.0368
 5360SOL    HW127542   0.881   4.256  17.609 -2.2488 -2.5995 -0.8634
 5360SOL    HW227543   0.971   4.300  17.500  1.4017  0.9113  2.4061
 5361SOL     OW27544   2.213   4.617   4.930  0.2909 -0.1479  0.2881
 5361SOL    HW127545   2.161   4.576   4.861  0.2436  0.4845 -0.0528
 5361SOL    HW227546   2.138   4.659   4.973  1.1884  0.8986  0.8287
 5362SOL     OW27547   3.757   3.171  12.185 -0.3841 -0.5108  0.0701
 5362SOL    HW127548   3.684   3.172  12.246 -1.7588  0.1137 -1.5724
 5362SOL    HW227549   3.707   3.148  12.106 -1.3234  3.1707 -0.4020
 5363SOL     OW27550   4.685   3.781   4.169  0.4041  0.2876 -0.3236
 5363SOL    HW127551   4.685   3.699   4.119  0.2870 -0.8079  1.4829
 5363SOL    HW227552   4.602   3.816   4.135  0.0091 -0.9958 -0.6955
 5364SOL     OW27553   2.785   2.446  12.633 -0.0189 -0.3604 -0.2292
 5364SOL    HW127554   2.777   2.393  12.713 -0.8511  1.3758  0.8542
 5364SOL    HW227555   2.764   2.535  12.661  3.4288 -0.4950  2.8648
 5365SOL     OW27556   3.066   2.012   9.956  0.4088 -0.5965 -0.5810
 5365SOL    HW127557   3.071   2.023  10.051  2.5716 -1.1416 -0.6417
 5365SOL    HW227558   2.971   2.020   9.943 -0.2376 -2.0081  3.1680
 5366SOL     OW27559   0.360   0.489   8.309 -0.1686  0.4791  0.1869
 5366SOL    HW127560   0.390   0.464   8.222  2.2276  0.6499  0.9838
 5366SOL    HW227561   0.275   0.445   8.309 -0.8290  1.7543  0.8562
 5367SOL     OW27562   3.195   2.367   7.530 -0.4910 -0.4515  0.0821
 5367SOL    HW127563   3.140   2.380   7.607  0.9276  0.6237  0.8950
 5367SOL    HW227564   3.251   2.444   7.532  1.7662 -2.0668 -0.2946
 5368SOL     OW27565   3.453   1.627   8.364 -0.2338 -0.5459  0.1234
 5368SOL    HW127566   3.405   1.631   8.446  1.3439  1.8921  0.9449
 5368SOL    HW227567   3.421   1.540   8.339  0.0766 -1.0230  1.3961
 5369SOL     OW27568   4.440   0.219   8.385 -0.5023  0.3743 -0.3652
 5369SOL    HW127569   4.511   0.193   8.444  0.8073  0.0613 -2.1024
 5369SOL    HW227570   4.469   0.300   8.344  1.2993  0.4272  1.0364
 5370SOL     OW27571   0.339   0.994   9.227 -0.1244  0.1130  0.0247
 5370SOL    HW127572   0.302   1.067   9.276  0.5595  0.2815  0.2887
 5370SOL    HW227573   0.408   1.047   9.188  0.1593 -0.9006 -0.8703
 5371SOL     OW27574   2.060   1.469   4.791  0.0623  0.0045  0.3093
 5371SOL    HW127575   2.051   1.426   4.876 -0.6666  0.8486  0.6642
 5371SOL    HW227576   2.151   1.471   4.763 -0.3523 -1.8199 -1.1424
 5372SOL     OW27577   2.693   3.880  16.653  0.1318  0.5629 -0.2989
 5372SOL    HW127578   2.662   3.833  16.730 -1.2575 -0.4335 -1.4940
 5372SOL    HW227579   2.777   3.903  16.693  0.3574 -1.2539  0.2799
 5373SOL     OW27580   3.641   1.114   5.058  0.0062  0.0018 -0.0852
 5373SOL    HW127581   3.569   1.119   5.121  0.0873  2.0168 -0.1733
 5373SOL    HW227582   3.723   1.136   5.102  0.6153  0.2245 -1.3489
 5374SOL     OW27583   1.757   0.285  14.311 -0.0619  0.1485 -0.2584
 5374SOL    HW127584   1.807   0.256  14.387  0.4127  1.3144 -0.1287
 5374SOL    HW227585   1.752   0.380  14.320 -0.2186  0.0680  0.4615
 5375SOL     OW27586   3.562   3.084   9.162  0.1442 -0.1162  0.1518
 5375SOL    HW127587   3.494   3.134   9.208 -0.6490 -1.5145  0.4752
 5375SOL    HW227588   3.633   3.147   9.173  0.2279 -0.5256  2.0113
 5376SOL     OW27589   3.558   1.544   7.379 -1.0361 -0.6230 -0.3603
 5376SOL    HW127590   3.632   1.555   7.438 -1.5945 -0.7484  0.3573
 5376SOL    HW227591   3.597   1.491   7.309  2.0975  1.1199  0.0478
 5377SOL     OW27592   3.006   4.466  14.068 -0.1901 -0.0170 -0.2076
 5377SOL    HW127593   2.920   4.510  14.071  0.5966  1.4061  1.4901
 5377SOL    HW227594   3.059   4.527  14.017  1.1488  0.8068  2.1729
 5378SOL     OW27595   0.199   3.230   6.013  0.2809 -0.3057 -0.3966
 5378SOL    HW127596   0.285   3.194   6.035 -0.1831 -0.5441  1.0460
 5378SOL    HW227597   0.208   3.315   6.056 -0.3887  0.2106 -1.2654
 5379SOL     OW27598   0.657   0.086  11.640  0.3398 -0.3145  0.4429
 5379SOL    HW127599   0.680   4.715  11.655 -0.4761 -0.7264 -0.8814
 5379SOL    HW227600   0.705   0.133  11.708 -0.4544  0.6906  0.3101
 5380SOL     OW27601   4.502   0.031   1.859 -0.6060 -0.7521  0.3725
 5380SOL    HW127602   4.450   0.111   1.859  1.2281  0.4518  0.2971
 5380SOL    HW227603   4.539   0.028   1.771  1.0673  0.3614  1.0293
 5381SOL     OW27604   2.662   0.712   2.436  0.5839 -0.1705 -0.1927
 5381SOL    HW127605   2.724   0.774   2.398 -0.0966  0.1762 -0.7505
 5381SOL    HW227606   2.719   0.669   2.499 -1.4463  0.3084  1.9696
 5382SOL     OW27607   1.264   1.096   6.003 -0.4598  0.1569 -0.3496
 5382SOL    HW127608   1.263   1.113   5.909  0.3388  1.1088 -0.1920
 5382SOL    HW227609   1.351   1.124   6.032 -0.6510  1.8336 -1.3467
 5383SOL     OW27610   2.750   4.582  13.199 -0.3398  0.2181 -0.4361
 5383SOL    HW127611   2.812   4.653  13.212 -0.8231  0.8436 -1.5525
 5383SOL    HW227612   2.720   4.560  13.287  0.8817  0.6060  0.0706
 5384SOL     OW27613   2.304   0.989   4.335  0.5497  0.0589  0.8540
 5384SOL    HW127614   2.323   0.921   4.270  0.9441  1.6337 -0.6841
 5384SOL    HW227615   2.277   1.057   4.273  0.9309 -1.0600 -0.5209
 5385SOL     OW27616   0.295   0.464   7.600 -0.2649 -0.5314 -0.5598
 5385SOL    HW127617   0.301   0.388   7.543 -1.6147 -0.9140 -0.1876
 5385SOL    HW227618   0.352   0.449   7.675 -1.0861 -1.3288 -0.1023
 5386SOL     OW27619   1.933   4.679   7.626 -0.2874 -0.2137 -0.7357
 5386SOL    HW127620   1.885   0.015   7.566 -3.7540 -0.5604  1.7423
 5386SOL    HW227621   1.944   4.601   7.572 -1.1745  0.0573 -1.3052
 5387SOL     OW27622   1.189   1.237   1.044 -0.3683 -0.4713 -0.2677
 5387SOL    HW127623   1.150   1.162   1.000 -0.3785 -0.5606 -0.1033
 5387SOL    HW227624   1.281   1.213   1.038  0.0793  1.0039  0.7859
 5388SOL     OW27625   1.207   3.275   4.894 -0.2982  0.1486 -0.0129
 5388SOL    HW127626   1.155   3.313   4.965 -1.3973 -0.7300 -0.3319
 5388SOL    HW227627   1.163   3.293   4.810  1.7283 -1.0581 -1.3462
 5389SOL     OW27628   0.563   2.885   7.016  0.2049 -0.6535 -0.8136
 5389SOL    HW127629   0.615   2.954   6.974 -0.6156 -0.9021 -2.2252
 5389SOL    HW227630   0.525   2.937   7.087  0.8466  0.9653 -1.6449
 5390SOL     OW27631   0.670   0.108   2.331  0.1678  0.1905  0.0255
 5390SOL    HW127632   0.616   0.185   2.314  1.5978  1.7031  2.4224
 5390SOL    HW227633   0.731   0.142   2.396 -0.5906  2.8909 -0.6843
 5391SOL     OW27634   0.771   1.191   6.737 -0.2314 -0.2630  0.2672
 5391SOL    HW127635   0.794   1.113   6.788 -0.6557 -0.0574  0.7749
 5391SOL    HW227636   0.816   1.182   6.653  0.5389 -3.8066  1.0653
 5392SOL     OW27637   3.222   1.638   5.231 -0.5328  0.3227  0.2085
 5392SOL    HW127638   3.267   1.688   5.299 -1.3593  1.4404 -0.0747
 5392SOL    HW227639   3.235   1.704   5.163  0.6110 -1.9805 -1.8247
 5393SOL     OW27640   0.753   0.804   7.561 -0.3746  0.7629 -0.4118
 5393SOL    HW127641   0.662   0.833   7.553 -0.6872 -0.7586 -2.5056
 5393SOL    HW227642   0.777   0.775   7.473  1.2336  0.8634  0.0006
 5394SOL     OW27643   3.797   1.341   7.916  0.3556 -0.1818 -0.1301
 5394SOL    HW127644   3.878   1.341   7.967 -1.2895 -1.0206  2.4585
 5394SOL    HW227645   3.758   1.428   7.925 -0.1219 -0.3015 -1.0164
 5395SOL     OW27646   0.061   2.541   4.804 -0.2759  0.0563  0.3155
 5395SOL    HW127647   0.021   2.619   4.764  2.4557  1.0356 -0.5077
 5395SOL    HW227648   0.053   2.478   4.732 -1.7647  2.5257 -1.6937
 5396SOL     OW27649   0.493   1.888   3.619 -0.0514 -0.2729  0.0183
 5396SOL    HW127650   0.542   1.822   3.669 -1.2314 -1.4837 -0.4235
 5396SOL    HW227651   0.556   1.959   3.617 -1.9462  1.2972 -3.3962
 5397SOL     OW27652   3.262   1.629  13.197 -0.1035 -0.2024 -0.0379
 5397SOL    HW127653   3.221   1.664  13.276 -0.9098 -0.8001 -0.1843
 5397SOL    HW227654   3.352   1.618  13.228  0.4964 -0.3107 -1.7826
 5398SOL     OW27655   2.734   4.609   8.395 -0.0433 -0.3922  0.2177
 5398SOL    HW127656   2.695   4.596   8.308 -0.3139 -2.5761  0.6458
 5398SOL    HW227657   2.661   4.623   8.456  2.3346 -1.7699  3.4153
 5399SOL     OW27658   2.881   1.561  14.493  0.1089  0.1138  0.0246
 5399SOL    HW127659   2.912   1.564  14.402 -0.4011 -1.7609 -0.2144
 5399SOL    HW227660   2.946   1.582  14.559 -2.9909  3.6117  1.9297
 5400SOL     OW27661   3.439   2.759   8.838 -0.3479  0.6934  0.2837
 5400SOL    HW127662   3.448   2.832   8.899 -2.6247  0.5364  0.8209
 5400SOL    HW227663   3.490   2.791   8.763  2.0356  0.9296  2.0391
 5401SOL     OW27664   1.419   2.744   7.475  0.3602 -0.0134  0.6460
 5401SOL    HW127665   1.475   2.809   7.431 -1.4353  1.1908  0.1780
 5401SOL    HW227666   1.367   2.788   7.541 -2.8981  0.4584 -2.2694
 5402SOL     OW27667   1.251   2.661   5.401  0.6899  0.4050  0.2216
 5402SOL    HW127668   1.245   2.649   5.306  5.3367 -0.6450  0.0262
 5402SOL    HW227669   1.222   2.752   5.406  0.2857  0.2243  1.1457
 5403SOL     OW27670   2.157   2.588   2.384 -0.3464 -0.0733 -0.0185
 5403SOL    HW127671   2.192   2.666   2.341 -0.5479 -0.4140 -0.7915
 5403SOL    HW227672   2.187   2.512   2.334  0.6816  0.8534 -0.8034
 5404SOL     OW27673   0.533   0.703   5.430 -0.2581 -0.2896 -0.1827
 5404SOL    HW127674   0.583   0.681   5.508  0.6922 -0.0702 -0.7403
 5404SOL    HW227675   0.449   0.735   5.464  0.1940 -0.8102  1.4553
 5405SOL     OW27676   3.470   3.787   2.244 -0.1908 -0.0679  0.5920
 5405SOL    HW127677   3.521   3.867   2.233  0.0489 -0.3345 -0.2599
 5405SOL    HW227678   3.401   3.789   2.177 -1.6487  0.3948  2.1085
 5406SOL     OW27679   3.183   3.471   6.422 -0.5070  0.7539 -0.1258
 5406SOL    HW127680   3.107   3.417   6.400 -0.1462 -0.2649  1.1470
 5406SOL    HW227681   3.192   3.468   6.517 -2.1628  1.2984  0.0327
 5407SOL     OW27682   3.760   2.492   0.237 -0.0022  0.1392  0.0869
 5407SOL    HW127683   3.724   2.446   0.313 -0.4994 -0.4975 -0.5315
 5407SOL    HW227684   3.680   2.512   0.188  1.1108  2.9700 -0.5267
 5408SOL     OW27685   4.579   1.613   7.148 -0.0285 -0.5079  0.7570
 5408SOL    HW127686   4.617   1.698   7.127  0.9567 -0.9359  0.8142
 5408SOL    HW227687   4.638   1.573   7.212 -0.9326  0.6873  2.3085
 5409SOL     OW27688   1.582   0.865   2.940 -0.6009 -0.1509 -0.7239
 5409SOL    HW127689   1.507   0.811   2.967 -1.0638 -0.6182 -2.8546
 5409SOL    HW227690   1.556   0.956   2.944 -1.3388 -0.3267 -1.3985
 5410SOL     OW27691   1.597   1.703   7.569 -0.0949  0.3670  0.0993
 5410SOL    HW127692   1.612   1.791   7.604  2.2448 -0.2537  0.6781
 5410SOL    HW227693   1.575   1.661   7.653  0.1893 -0.2427 -0.1287
 5411SOL     OW27694   4.386   2.701   9.327 -0.6055 -0.5681 -0.1814
 5411SOL    HW127695   4.454   2.767   9.318 -0.5135 -0.5230  0.9298
 5411SOL    HW227696   4.409   2.656   9.408  0.4837  0.7051  0.2122
 5412SOL     OW27697   3.566   0.074   7.612 -0.5680  0.2774 -0.3677
 5412SOL    HW127698   3.573   4.700   7.612  0.6289  0.3728 -2.0812
 5412SOL    HW227699   3.649   0.098   7.571  0.5935 -1.7031  0.8815
 5413SOL     OW27700   1.249   2.608  14.484  0.7188 -0.2050  0.1786
 5413SOL    HW127701   1.277   2.699  14.479  1.9889 -0.6057  0.1002
 5413SOL    HW227702   1.332   2.564  14.500  0.8830  0.3332  0.8215
 5414SOL     OW27703   3.451   4.308   6.748 -0.0696 -0.1054  0.4340
 5414SOL    HW127704   3.497   4.315   6.831 -1.2900  1.7670  0.9692
 5414SOL    HW227705   3.501   4.234   6.713 -0.1283  0.4066 -0.7538
 5415SOL     OW27706   2.413   1.695   7.821  0.1124  0.5434 -0.3301
 5415SOL    HW127707   2.425   1.620   7.763 -1.1624 -1.0925  1.5137
 5415SOL    HW227708   2.461   1.756   7.764 -0.7398  1.1045 -0.4517
 5416SOL     OW27709   2.818   3.008  13.114  0.2507  0.1073  0.4440
 5416SOL    HW127710   2.782   3.017  13.203 -1.7401  1.7121 -0.5420
 5416SOL    HW227711   2.836   3.100  13.096  4.9298 -1.0753 -0.8017
 5417SOL     OW27712   0.863   1.097  17.390 -0.1965 -0.1102  0.5781
 5417SOL    HW127713   0.792   1.032  17.387 -0.1412 -0.0160 -2.8031
 5417SOL    HW227714   0.930   1.067  17.328  0.6954 -0.6290  1.7865
 5418SOL     OW27715   3.654   1.344  13.276 -0.4261 -0.0462  0.0366
 5418SOL    HW127716   3.583   1.285  13.303 -1.2686  1.6380  1.5709
 5418SOL    HW227717   3.700   1.288  13.214 -1.4201  1.3423 -1.9611
 5419SOL     OW27718   3.055   3.606   8.430 -0.3831 -0.5190 -0.1662
 5419SOL    HW127719   3.031   3.678   8.489 -0.3817 -0.5904 -0.0788
 5419SOL    HW227720   3.122   3.645   8.375  0.0587 -1.0900 -0.0276
 5420SOL     OW27721   3.352   2.626   7.310 -0.0853  0.0681 -0.1640
 5420SOL    HW127722   3.299   2.706   7.300  1.3037  1.0737  0.5706
 5420SOL    HW227723   3.354   2.591   7.221  1.1760 -0.3831  0.0514
 5421SOL     OW27724   2.311   1.786   3.115  0.1075  0.4756  0.2844
 5421SOL    HW127725   2.258   1.862   3.094 -1.3809 -0.7587 -0.4061
 5421SOL    HW227726   2.396   1.824   3.138 -0.4261  0.6991  1.9307
 5422SOL     OW27727   0.957   1.015   2.951 -0.6478  0.6746 -0.3214
 5422SOL    HW127728   0.880   1.046   2.999 -0.4413 -1.7411  1.5604
 5422SOL    HW227729   0.949   1.077   2.878 -1.6413  0.4237 -0.4286
 5423SOL     OW27730   2.673   0.887   3.449 -0.4274 -0.1525  0.0667
 5423SOL    HW127731   2.691   0.981   3.449  2.7646 -0.7620 -0.8303
 5423SOL    HW227732   2.751   0.848   3.410 -0.3577  0.0755 -0.0250
 5424SOL     OW27733   2.354   1.661   5.703  0.1636  1.1039 -0.3270
 5424SOL    HW127734   2.263   1.638   5.690  0.1607  2.1635 -2.3326
 5424SOL    HW227735   2.342   1.744   5.750  1.8430  1.0029  0.2903
 5425SOL     OW27736   3.058   2.623   5.747 -0.1436 -0.0071  0.2309
 5425SOL    HW127737   3.018   2.557   5.690 -0.7698  0.1116  0.5355
 5425SOL    HW227738   3.068   2.697   5.686  2.7144  0.4840  1.2773
 5426SOL     OW27739   4.032   1.543   3.633  0.1564 -0.1628  0.4423
 5426SOL    HW127740   4.065   1.510   3.549  1.5576 -0.5937  1.1531
 5426SOL    HW227741   4.102   1.591   3.677 -0.6246  1.7897 -0.4374
 5427SOL     OW27742   0.070   3.940  10.820 -0.4862  0.3761  0.2843
 5427SOL    HW127743   0.116   3.856  10.814  0.5859  1.1636 -2.5491
 5427SOL    HW227744   4.707   3.897  10.835  0.0640 -1.1436 -1.0175
 5428SOL     OW27745   2.318   3.891   5.229  0.2495  0.1899  0.0896
 5428SOL    HW127746   2.367   3.908   5.309  1.8500 -0.5078 -0.7392
 5428SOL    HW227747   2.239   3.940   5.250  0.4870  0.6894 -0.1914
 5429SOL     OW27748   0.081   1.630   7.524 -0.0656 -0.0564 -0.2348
 5429SOL    HW127749   0.079   1.726   7.525  0.5536 -0.0148 -2.4223
 5429SOL    HW227750   0.151   1.612   7.588  0.8450 -0.4503 -1.3283
 5430SOL     OW27751   3.709   4.109  15.668  0.5885 -0.0666  0.0426
 5430SOL    HW127752   3.676   4.189  15.626  0.3246 -1.5507 -2.6047
 5430SOL    HW227753   3.728   4.053  15.592  0.6608  2.3117 -1.6799
 5431SOL     OW27754   0.776   3.743   6.640  0.0396  0.3388  0.0802
 5431SOL    HW127755   0.684   3.746   6.669 -0.8609  2.7793 -2.9942
 5431SOL    HW227756   0.794   3.652   6.663 -1.1263  0.2627  0.7129
 5432SOL     OW27757   0.046   0.792   2.910  0.6243 -0.4109 -0.4520
 5432SOL    HW127758   0.035   0.745   2.828 -2.2454 -0.4023 -0.0836
 5432SOL    HW227759   0.090   0.723   2.960 -2.0360 -1.8208 -0.0433
 5433SOL     OW27760   1.152   0.027   2.941 -0.0878 -0.2500 -0.7588
 5433SOL    HW127761   1.140   0.010   3.035  0.6003  0.9500 -0.4480
 5433SOL    HW227762   1.072   0.071   2.914  0.0394  1.8289  2.1797
 5434SOL     OW27763   3.425   1.180   8.472  0.1677  0.3631  0.1662
 5434SOL    HW127764   3.441   1.237   8.548  1.7609 -0.1576  0.2077
 5434SOL    HW227765   3.501   1.123   8.469 -0.8941 -1.1098  0.9897
 5435SOL     OW27766   0.252   1.613   1.422 -0.3931 -0.1732  0.2030
 5435SOL    HW127767   0.264   1.705   1.443  1.1140 -0.7882  2.0679
 5435SOL    HW227768   0.345   1.593   1.409 -0.2552 -0.1649  1.1661
 5436SOL     OW27769   0.532   0.296   4.595  0.1174  0.3588 -0.0298
 5436SOL    HW127770   0.562   0.361   4.532 -0.1519  1.0879  0.6044
 5436SOL    HW227771   0.538   0.334   4.683  1.7902 -1.2646  0.5703
 5437SOL     OW27772   3.431   2.974   9.564 -0.5729  0.3296  0.5020
 5437SOL    HW127773   3.465   2.897   9.608  0.8545  0.5538 -0.2224
 5437SOL    HW227774   3.336   2.964   9.559 -0.7263  1.4778  0.9992
 5438SOL     OW27775   4.245   0.850  15.816  0.0116  0.3893 -0.1100
 5438SOL    HW127776   4.210   0.894  15.894  1.5263  1.8672 -0.2607
 5438SOL    HW227777   4.260   0.768  15.862  0.8910  0.4557 -0.2680
 5439SOL     OW27778   0.539   2.457   9.340 -0.1129 -0.4692  0.1333
 5439SOL    HW127779   0.451   2.491   9.322 -0.3448 -0.3696  1.4584
 5439SOL    HW227780   0.564   2.503   9.420  1.2085  3.4115 -2.5032
 5440SOL     OW27781   2.662   4.199   4.787 -0.2413 -0.2179  0.7761
 5440SOL    HW127782   2.750   4.204   4.825  0.4335  1.5814 -0.9777
 5440SOL    HW227783   2.614   4.206   4.870 -0.7534  1.0872  0.3771
 5441SOL     OW27784   3.794   1.850  14.305  0.1666 -0.2408 -0.4241
 5441SOL    HW127785   3.803   1.760  14.273 -0.3069 -0.0126 -1.1966
 5441SOL    HW227786   3.777   1.903  14.228 -0.2968 -2.3647 -1.7766
 5442SOL     OW27787   2.497   2.700   8.295  0.6021 -0.0214 -0.0574
 5442SOL    HW127788   2.486   2.640   8.369 -0.3104 -1.9490 -1.7476
 5442SOL    HW227789   2.404   2.707   8.271  0.4940  3.3717  1.2966
 5443SOL     OW27790   2.984   3.005   7.773  0.1437 -0.2584  0.6162
 5443SOL    HW127791   3.042   2.965   7.838  1.1167 -0.2301 -0.2308
 5443SOL    HW227792   3.049   3.033   7.709 -0.0943  0.9084  0.8959
 5444SOL     OW27793   1.973   3.062  16.933 -0.4370 -0.3950 -0.6806
 5444SOL    HW127794   1.959   3.139  16.988 -1.5710 -0.0371 -1.4904
 5444SOL    HW227795   2.014   3.104  16.857  0.6148  0.8637  0.5725
 5445SOL     OW27796   1.078   3.255   6.325  0.4778  0.0482 -0.1782
 5445SOL    HW127797   1.112   3.288   6.243  1.0622  0.7598  0.3510
 5445SOL    HW227798   1.130   3.301   6.391  0.7227 -0.7537  0.1871
 5446SOL     OW27799   1.934   3.969  12.469  0.4875 -0.1833  0.1749
 5446SOL    HW127800   1.913   3.876  12.457 -0.5755 -0.4292  4.2117
 5446SOL    HW227801   2.018   3.974  12.422  0.2377 -1.2305 -0.3956
 5447SOL     OW27802   4.604   2.853  17.135  0.3787 -0.0299  0.1966
 5447SOL    HW127803   4.643   2.773  17.170  0.2172  0.1732  0.8416
 5447SOL    HW227804   4.568   2.882  17.219 -1.4813  0.4367 -0.7722
 5448SOL     OW27805   4.129   3.219  12.181  0.0676  0.1646 -0.5469
 5448SOL    HW127806   4.190   3.278  12.135  0.0040 -0.1312 -1.0120
 5448SOL    HW227807   4.068   3.195  12.111  0.0684 -1.2437 -0.0512
 5449SOL     OW27808   1.304   1.057   2.009  0.1678  0.3791  0.5365
 5449SOL    HW127809   1.298   1.065   2.104  1.1578  2.0120  0.4687
 5449SOL    HW227810   1.333   1.146   1.987 -1.2968  0.9585  0.9357
 5450SOL     OW27811   1.386   1.690   6.256 -0.2795  0.1522 -0.4704
 5450SOL    HW127812   1.358   1.696   6.165  0.8008  0.4720 -0.7743
 5450SOL    HW227813   1.348   1.767   6.298  1.3826  0.4547  0.4677
 5451SOL     OW27814   3.934   4.046   8.808  0.5294 -0.0400 -0.2776
 5451SOL    HW127815   4.025   4.075   8.808  1.1219 -1.9445 -2.2074
 5451SOL    HW227816   3.924   3.965   8.857 -3.1829  0.8117  0.3687
 5452SOL     OW27817   2.734   1.510   3.302  0.0764  0.2232  0.0368
 5452SOL    HW127818   2.659   1.538   3.251  0.2205 -0.9310 -0.8016
 5452SOL    HW227819   2.809   1.536   3.248  0.5702 -0.0349  0.5939
 5453SOL     OW27820   1.080   2.972   5.789 -0.2064  0.6495  0.1959
 5453SOL    HW127821   1.013   2.905   5.773  1.1290 -0.5021 -0.5508
 5453SOL    HW227822   1.090   2.993   5.697  0.4935 -0.5586 -0.0025
 5454SOL     OW27823   4.177   3.487   6.951 -0.4599 -0.0203  0.6825
 5454SOL    HW127824   4.200   3.445   7.034 -0.2446  0.7666  1.0152
 5454SOL    HW227825   4.129   3.420   6.903 -3.3745  2.6308 -0.1146
 5455SOL     OW27826   2.887   1.305   4.208  0.4438  0.2325 -0.1752
 5455SOL    HW127827   2.879   1.385   4.156  1.9632  1.2991  1.2249
 5455SOL    HW227828   2.887   1.339   4.297 -0.1113 -1.4011  0.4383
 5456SOL     OW27829   1.331   0.037  10.518  0.4056 -0.5984 -0.2884
 5456SOL    HW127830   1.340   0.055  10.612 -0.2426  2.5396 -0.8121
 5456SOL    HW227831   1.270   0.110  10.504  0.6900 -0.6836 -1.9654
 5457SOL     OW27832   0.075   1.605   6.004  0.3271  0.1622  0.1625
 5457SOL    HW127833   0.114   1.678   6.052  2.0620 -0.8627  0.3036
 5457SOL    HW227834   4.704   1.630   6.011 -0.4851 -2.9688  0.7682
 5458SOL     OW27835   3.492   2.926  16.871 -0.5982  0.8222 -0.2171
 5458SOL    HW127836   3.507   3.019  16.883  0.5645  0.6797 -0.5601
 5458SOL    HW227837   3.476   2.907  16.963  0.1652  0.3299 -0.1849
 5459SOL     OW27838   3.126   1.647  15.189 -0.3986  0.0667  0.8857
 5459SOL    HW127839   3.122   1.742  15.182 -1.0343 -0.0209  0.0898
 5459SOL    HW227840   3.205   1.620  15.142 -1.5745 -0.9968 -0.5078
 5460SOL     OW27841   0.794   3.119   0.472 -0.7148  0.4232 -0.7285
 5460SOL    HW127842   0.880   3.133   0.513 -1.0853 -0.6797  0.4101
 5460SOL    HW227843   0.771   3.207   0.441 -1.8376  0.4606  0.2245
 5461SOL     OW27844   4.615   2.882   5.363 -0.3870  0.3938 -0.4354
 5461SOL    HW127845   4.542   2.921   5.411  1.1165  1.4133  1.0262
 5461SOL    HW227846   4.604   2.909   5.272 -1.3050 -2.8025 -1.2691
 5462SOL     OW27847   4.287   1.725  11.707 -0.0501 -0.0283 -0.1004
 5462SOL    HW127848   4.292   1.657  11.775 -1.5201  1.8700  1.9088
 5462SOL    HW227849   4.251   1.797  11.759  0.2976  0.1434 -0.0981
 5463SOL     OW27850   0.517   2.588   6.112  0.0465 -1.0916  0.3295
 5463SOL    HW127851   0.522   2.504   6.066 -2.3382 -1.0532 -0.0175
 5463SOL    HW227852   0.460   2.565   6.185  0.6303  1.1911  1.5061
 5464SOL     OW27853   2.723   1.238   2.994 -0.0886 -0.1693  0.0673
 5464SOL    HW127854   2.790   1.209   2.931  0.7790  0.3400  0.7539
 5464SOL    HW227855   2.779   1.235   3.072 -1.6581 -2.9580  1.0672
 5465SOL     OW27856   3.761   1.152   0.728  0.1454 -0.2005 -0.5767
 5465SOL    HW127857   3.788   1.135   0.638 -0.2504 -1.2603 -0.4976
 5465SOL    HW227858   3.847   1.121   0.755 -0.0200  0.9052  1.2393
 5466SOL     OW27859   0.551   2.046   2.477 -0.8121  0.2194 -0.4309
 5466SOL    HW127860   0.534   2.135   2.446 -2.5843  0.7699  2.1219
 5466SOL    HW227861   0.467   2.014   2.510 -0.9158  0.1950 -0.7162
 5467SOL     OW27862   0.704   0.033   6.437 -0.2744 -0.0351  0.5746
 5467SOL    HW127863   0.732   0.106   6.382 -1.4420 -0.6183 -0.7766
 5467SOL    HW227864   0.613   0.017   6.411 -0.2315 -0.9187  0.9781
 5468SOL     OW27865   3.865   0.665  16.999 -0.5068  0.0740 -0.3855
 5468SOL    HW127866   3.913   0.709  16.928  1.0627 -1.9134 -0.5605
 5468SOL    HW227867   3.786   0.643  16.950 -0.5783  0.2118 -0.3306
 5469SOL     OW27868   0.675   0.260   7.770  0.2265  0.2933  0.1856
 5469SOL    HW127869   0.672   0.239   7.863 -4.1384 -0.3089 -0.0837
 5469SOL    HW227870   0.623   0.341   7.764  1.8645  1.3042 -0.3423
 5470SOL     OW27871   3.092   1.606  12.993 -0.2999  0.1147 -0.2265
 5470SOL    HW127872   3.137   1.557  12.924  0.7470 -1.6228  1.6663
 5470SOL    HW227873   3.160   1.606  13.061 -1.1779  1.0560  0.6525
 5471SOL     OW27874   0.461   2.465   8.649  0.2578 -0.5840 -0.2401
 5471SOL    HW127875   0.503   2.484   8.733 -0.1621 -1.1760  0.1076
 5471SOL    HW227876   0.417   2.384   8.675 -1.3179  0.4211  0.2375
 5472SOL     OW27877   2.890   2.050  13.388 -0.0631 -0.3340  0.0103
 5472SOL    HW127878   2.824   2.112  13.421  2.9135  0.6646  4.0212
 5472SOL    HW227879   2.974   2.089  13.412  0.1602  0.8576 -2.7158
 5473SOL     OW27880   2.470   0.504   2.081  0.0164  0.1035  0.2211
 5473SOL    HW127881   2.548   0.558   2.074  0.4924 -0.7905 -1.5106
 5473SOL    HW227882   2.423   0.522   2.162  0.0736 -2.5829  0.8626
 5474SOL     OW27883   1.714   0.562   1.475 -0.7261 -0.0512  0.3282
 5474SOL    HW127884   1.679   0.628   1.415  2.0340  1.2489  0.1319
 5474SOL    HW227885   1.769   0.511   1.415 -0.9687  2.0500 -1.6923
 5475SOL     OW27886   4.563   1.109   7.079  0.3042 -0.2270 -0.2779
 5475SOL    HW127887   4.548   1.199   7.110 -1.8431 -0.0865 -1.7507
 5475SOL    HW227888   4.499   1.098   7.009 -0.3019 -0.4516  0.3202
 5476SOL     OW27889   2.477   3.963   4.937  0.4409  0.2346  0.2162
 5476SOL    HW127890   2.387   3.979   4.965  0.5626 -0.0669  0.7841
 5476SOL    HW227891   2.516   3.905   5.003  0.3934  0.4414  0.4280
 5477SOL     OW27892   0.452   2.272  11.547  0.1489  0.4262 -0.3785
 5477SOL    HW127893   0.543   2.248  11.532 -0.3625 -1.5015 -0.3285
 5477SOL    HW227894   0.459   2.367  11.535 -2.9151  0.7017  0.0553
 5478SOL     OW27895   1.110   2.947   8.064 -0.5349 -0.8140 -0.1856
 5478SOL    HW127896   1.164   2.893   8.121 -2.6665 -1.6313  1.0777
 5478SOL    HW227897   1.079   2.874   8.010 -1.8647 -0.3798 -0.0122
 5479SOL     OW27898   4.568   4.386   3.678 -0.3967 -0.2417  0.1599
 5479SOL    HW127899   4.517   4.451   3.630  1.7366  1.2617 -0.0719
 5479SOL    HW227900   4.537   4.405   3.766 -1.3081 -1.0978  0.0236
 5480SOL     OW27901   0.360   2.340   4.773 -0.0268 -0.5045  0.4711
 5480SOL    HW127902   0.435   2.398   4.783 -1.3186  1.3101 -0.5318
 5480SOL    HW227903   0.339   2.341   4.866 -0.6542  4.1011  0.2588
 5481SOL     OW27904   3.370   1.681   7.924 -0.1739  0.0638 -0.3085
 5481SOL    HW127905   3.392   1.757   7.871  0.3493 -0.2166 -0.4944
 5481SOL    HW227906   3.397   1.723   8.005 -2.5455 -3.1662  2.1372
 5482SOL     OW27907   3.863   0.142  15.248  0.3151  0.6121  0.2803
 5482SOL    HW127908   3.952   0.121  15.219  0.2012 -1.5698  1.4375
 5482SOL    HW227909   3.831   0.053  15.266  1.5025  0.3478  1.0914
 5483SOL     OW27910   1.832   3.899  13.331  0.0356  0.1969  0.4275
 5483SOL    HW127911   1.902   3.946  13.376  0.1111  0.1158  0.3958
 5483SOL    HW227912   1.756   3.940  13.370 -0.5406 -1.7596  1.3663
 5484SOL     OW27913   0.383   2.266   3.871  0.4321 -0.3420 -0.2915
 5484SOL    HW127914   0.338   2.190   3.907  0.0662 -0.0635 -0.1574
 5484SOL    HW227915   0.437   2.286   3.948 -1.5010  3.1031  0.1712
 5485SOL     OW27916   4.429   1.154   3.403 -0.0531  0.0894 -0.4446
 5485SOL    HW127917   4.515   1.143   3.443  0.8971 -0.0610 -2.5365
 5485SOL    HW227918   4.383   1.073   3.426  1.6494 -0.8597 -0.4225
 5486SOL     OW27919   2.525   3.265   3.794 -0.1493 -0.8384 -0.1895
 5486SOL    HW127920   2.447   3.212   3.782 -0.7004 -0.0077 -0.3211
 5486SOL    HW227921   2.539   3.252   3.888 -2.6428 -0.3232  0.2431
 5487SOL     OW27922   3.113   3.341   2.350  0.3072  0.3247 -0.0732
 5487SOL    HW127923   3.153   3.389   2.278  0.4320 -2.4543 -1.8749
 5487SOL    HW227924   3.121   3.249   2.322  1.1911  0.6340 -0.8442
 5488SOL     OW27925   2.401   3.025   2.075  0.3493 -0.0982  0.5501
 5488SOL    HW127926   2.309   3.048   2.063  0.9963  0.7508 -2.7207
 5488SOL    HW227927   2.441   3.106   2.044 -0.6039 -0.5744 -1.9465
 5489SOL     OW27928   2.077   3.956   7.430  0.2858  0.2479 -0.4822
 5489SOL    HW127929   2.106   4.045   7.412 -1.1619  0.7311 -0.4658
 5489SOL    HW227930   1.982   3.969   7.427  0.3921  1.0319 -0.3308
 5490SOL     OW27931   4.701   3.571  10.795  0.1429  0.1561  0.5271
 5490SOL    HW127932   0.069   3.607  10.801 -0.4148  1.6726 -0.2928
 5490SOL    HW227933   4.648   3.649  10.779 -0.9502 -0.7938 -0.4161
 5491SOL     OW27934   1.857   0.797   6.318 -0.3349  0.5722 -0.1398
 5491SOL    HW127935   1.870   0.788   6.224  1.7568 -0.4540  0.2629
 5491SOL    HW227936   1.776   0.849   6.320 -1.8616 -1.8076 -0.1287
 5492SOL     OW27937   1.571   4.065   2.272 -0.2603  0.6030  0.6656
 5492SOL    HW127938   1.622   4.138   2.236 -0.9100 -0.4813 -2.5148
 5492SOL    HW227939   1.546   4.024   2.189  0.3900  1.5928 -0.0287
 5493SOL     OW27940   0.827   0.616   1.023 -0.1784 -0.2034  0.9279
 5493SOL    HW127941   0.869   0.666   0.953  1.3338 -0.1148  1.9237
 5493SOL    HW227942   0.734   0.636   1.009  0.0389  0.0915 -0.1102
 5494SOL     OW27943   1.979   0.428  13.975  0.2162  0.3307 -0.6307
 5494SOL    HW127944   1.999   0.461  14.063  0.7099 -1.1037 -0.1982
 5494SOL    HW227945   1.993   0.500  13.914  0.3231  1.0837  0.2841
 5495SOL     OW27946   3.306   1.742  10.006  0.5399  0.3720  0.0033
 5495SOL    HW127947   3.286   1.733  10.099 -1.6532 -2.1764 -0.7119
 5495SOL    HW227948   3.396   1.774  10.008 -0.1156  2.2082  0.2710
 5496SOL     OW27949   1.715   3.743  11.766 -0.3198  0.1028 -0.3722
 5496SOL    HW127950   1.675   3.664  11.728 -2.7091  1.3898 -0.5109
 5496SOL    HW227951   1.723   3.720  11.858 -3.2530 -1.7196 -0.5653
 5497SOL     OW27952   3.775   2.725   2.889  0.1561 -0.1659 -0.2135
 5497SOL    HW127953   3.735   2.732   2.976 -1.7865  1.0551 -1.1997
 5497SOL    HW227954   3.720   2.656   2.851  1.7932  0.2328 -3.3048
 5498SOL     OW27955   3.146   2.833  14.540 -0.3182  0.5159 -0.0378
 5498SOL    HW127956   3.134   2.806  14.631  0.1541  3.2008  0.8266
 5498SOL    HW227957   3.241   2.821  14.533 -0.4228 -0.5067  0.3124
 5499SOL     OW27958   2.008   1.807  12.333  0.4673 -0.8869 -0.1918
 5499SOL    HW127959   1.937   1.854  12.290 -0.0079 -1.1065  0.3420
 5499SOL    HW227960   2.041   1.761  12.256  0.3150 -0.9951 -0.1920
 5500SOL     OW27961   2.985   0.585  13.199  0.0512  0.4502 -0.2525
 5500SOL    HW127962   3.064   0.603  13.148  1.9134 -1.7323  1.8258
 5500SOL    HW227963   3.012   0.557  13.287  3.2762 -1.0609 -1.7076
 5501SOL     OW27964   4.673   2.210   3.238  0.5725  0.1189 -0.2896
 5501SOL    HW127965   4.652   2.277   3.173 -0.3586 -0.8549 -1.0049
 5501SOL    HW227966   0.047   2.209   3.239  0.5733  0.1310 -0.3672
 5502SOL     OW27967   3.604   2.724   6.027  0.2345  1.0979  0.7353
 5502SOL    HW127968   3.676   2.663   6.014 -2.5046 -1.6307 -1.5502
 5502SOL    HW227969   3.592   2.740   5.933  0.2076  0.8556  0.6994
 5503SOL     OW27970   1.959   0.554   2.525  0.0509  0.1048  0.0184
 5503SOL    HW127971   1.900   0.616   2.482  0.1023  0.2065  0.0942
 5503SOL    HW227972   2.034   0.570   2.468 -0.3999 -0.2620 -0.6910
 5504SOL     OW27973   1.593   0.999   5.694 -0.3647  0.2938  0.1060
 5504SOL    HW127974   1.559   0.945   5.766 -0.1471  2.2911  1.7192
 5504SOL    HW227975   1.657   1.050   5.745  0.3290 -1.7502  1.2856
 5505SOL     OW27976   0.586   4.040  11.535 -0.4540  0.1400  0.4625
 5505SOL    HW127977   0.621   4.028  11.624  2.7073 -1.5976 -1.0318
 5505SOL    HW227978   0.638   3.982  11.480  1.3616  1.2781  0.9962
 5506SOL     OW27979   0.569   3.605   0.502  0.1958 -0.3392 -0.2952
 5506SOL    HW127980   0.665   3.607   0.501  0.1913 -0.8612 -2.3428
 5506SOL    HW227981   0.552   3.640   0.589  0.8267  1.1160 -0.7406
 5507SOL     OW27982   2.058   4.271   8.184  0.2313  0.3324 -0.2549
 5507SOL    HW127983   2.125   4.210   8.216 -0.7488 -0.3980  0.3866
 5507SOL    HW227984   2.020   4.219   8.114  0.1066 -1.3552  1.0693
 5508SOL     OW27985   0.991   1.018   3.460  0.3059 -0.8986 -0.4888
 5508SOL    HW127986   0.932   1.064   3.400  0.5162  0.7840  0.5935
 5508SOL    HW227987   0.927   0.959   3.500 -1.1962  0.3479 -1.0456
 5509SOL     OW27988   2.838   2.103  12.772  0.1826 -0.7706  0.2834
 5509SOL    HW127989   2.895   2.178  12.790  0.0952 -0.9153  1.1562
 5509SOL    HW227990   2.761   2.141  12.729  1.0802  0.0287 -0.6343
 5510SOL     OW27991   0.792   2.315   4.541  1.1823  0.6221 -0.6790
 5510SOL    HW127992   0.811   2.221   4.549 -2.3710  0.0688  1.5583
 5510SOL    HW227993   0.756   2.328   4.629  0.3216  3.4357 -1.4609
 5511SOL     OW27994   3.459   4.264   2.216 -0.3864  0.0271  0.0391
 5511SOL    HW127995   3.483   4.307   2.298 -1.6665 -1.2818  1.0911
 5511SOL    HW227996   3.388   4.207   2.246 -1.8360  0.4482 -2.5525
 5512SOL     OW27997   4.148   2.803   2.179  0.4856 -0.1855 -0.3134
 5512SOL    HW127998   4.220   2.860   2.151 -1.0806  1.3256 -1.2874
 5512SOL    HW227999   4.147   2.744   2.104  0.9491  0.8671 -1.1566
 5513SOL     OW28000   3.386   0.946  10.473  0.0484 -0.5465  0.0049
 5513SOL    HW128001   3.464   0.901  10.442  0.0591 -0.4292 -0.1399
 5513SOL    HW228002   3.374   1.005  10.398  0.6083  1.2712  1.3445
 5514SOL     OW28003   1.451   2.660  17.354 -0.0145  0.2227  0.1054
 5514SOL    HW128004   1.394   2.590  17.322 -0.7823  0.9319 -0.0722
 5514SOL    HW228005   1.430   2.732  17.294 -1.1513  1.2644  1.7626
 5515SOL     OW28006   0.585   0.398   4.850  0.2556 -0.5421  0.3528
 5515SOL    HW128007   0.499   0.430   4.875 -0.7199 -1.3530 -1.9834
 5515SOL    HW228008   0.649   0.456   4.892 -0.4332  0.3913  0.0904
 5516SOL     OW28009   1.072   1.737  12.416 -0.5368  0.1255 -0.1259
 5516SOL    HW128010   0.986   1.751  12.455 -0.6345 -1.2432  0.1616
 5516SOL    HW228011   1.043   1.737  12.325  0.4918  0.5492 -0.4553
 5517SOL     OW28012   1.806   1.167   8.934  0.0081 -0.1341  0.1604
 5517SOL    HW128013   1.821   1.252   8.893 -5.0865 -0.0823 -1.6100
 5517SOL    HW228014   1.886   1.119   8.914  2.2206  3.3346  0.5834
 5518SOL     OW28015   1.959   2.922  15.028 -0.0208 -0.1602  0.3200
 5518SOL    HW128016   1.903   2.847  15.013 -0.6222 -0.0415  1.9781
 5518SOL    HW228017   1.973   2.942  14.936  0.7491  1.1708  0.7227
 5519SOL     OW28018   4.554   1.216   4.350  0.4206 -0.5108 -0.0315
 5519SOL    HW128019   4.540   1.121   4.341 -1.1862 -0.4768  2.1576
 5519SOL    HW228020   4.474   1.252   4.389 -0.5544 -1.7907 -0.8450
 5520SOL     OW28021   2.846   3.702   7.753 -0.0048  0.3069  0.3127
 5520SOL    HW128022   2.760   3.662   7.766  0.8649 -1.8152 -0.4673
 5520SOL    HW228023   2.841   3.793   7.782 -0.5144  0.4517 -0.2275
 5521SOL     OW28024   2.655   0.349   6.263  0.1556 -0.3991 -0.1277
 5521SOL    HW128025   2.715   0.288   6.221  1.0723  0.2783  0.1869
 5521SOL    HW228026   2.602   0.295   6.322 -0.3637 -1.4392 -1.5417
 5522SOL     OW28027   1.764   0.176   7.929  0.0706  0.4144 -0.5015
 5522SOL    HW128028   1.755   0.081   7.916  1.4758  0.4547 -1.7463
 5522SOL    HW228029   1.795   0.181   8.019  0.8474 -1.4755 -0.6570
 5523SOL     OW28030   2.543   2.452  13.137  0.0279 -0.4099 -0.8046
 5523SOL    HW128031   2.502   2.494  13.061 -2.8713  0.5296  1.2945
 5523SOL    HW228032   2.615   2.509  13.163  0.1898 -2.0662  2.2983
 5524SOL     OW28033   3.723   0.958   4.803 -0.1003 -0.2860  0.2423
 5524SOL    HW128034   3.718   1.004   4.886 -0.6721  1.0837 -0.5668
 5524SOL    HW228035   3.785   1.011   4.753  0.7162  1.3398  3.0097
 5525SOL     OW28036   4.269   2.338   3.542 -0.5802 -0.0398 -0.3331
 5525SOL    HW128037   4.302   2.279   3.475 -0.8833 -1.0219  0.3728
 5525SOL    HW228038   4.225   2.276   3.601 -1.4992  1.0967  0.1688
 5526SOL     OW28039   0.759   1.371   4.179  0.0705  0.5314  0.1354
 5526SOL    HW128040   0.841   1.408   4.213  0.9943 -0.1719 -1.3295
 5526SOL    HW228041   0.803   1.301   4.131  2.1066  1.6348  0.3623
 5527SOL     OW28042   2.891   3.243   0.394  0.5976 -0.7347  0.5467
 5527SOL    HW128043   2.898   3.188   0.472  1.7553 -0.5324  0.5872
 5527SOL    HW228044   2.924   3.329   0.422 -0.0182  0.2154 -1.6926
 5528SOL     OW28045   3.253   3.119   7.665  0.0591 -0.4456  0.0669
 5528SOL    HW128046   3.298   3.068   7.733  0.5018 -0.1844 -0.0292
 5528SOL    HW228047   3.272   3.208   7.693 -0.8711  0.6345 -2.7349
 5529SOL     OW28048   1.708   4.189  15.283  0.5840 -0.1129  0.0825
 5529SOL    HW128049   1.722   4.169  15.376  1.4244  0.4975  0.0936
 5529SOL    HW228050   1.793   4.208  15.244 -0.1201  1.5131 -0.6275
 5530SOL     OW28051   3.817   0.452   9.021 -0.5525  0.5220  0.4165
 5530SOL    HW128052   3.802   0.431   8.929  0.0567 -1.3119  0.7493
 5530SOL    HW228053   3.801   0.547   9.015 -0.6380  0.6007  1.8684
 5531SOL     OW28054   0.167   4.230   7.613  0.2398 -0.4031 -0.2428
 5531SOL    HW128055   0.232   4.229   7.683  0.1390  0.3476 -0.1407
 5531SOL    HW228056   0.150   4.321   7.592  0.2468  0.2063  2.3733
 5532SOL     OW28057   1.905   1.858   4.940  0.6382  0.4556 -0.1657
 5532SOL    HW128058   1.925   1.949   4.962 -1.3152  1.1039 -1.0157
 5532SOL    HW228059   1.830   1.828   4.992  1.5311 -0.4224  0.5936
 5533SOL     OW28060   1.709   4.207  10.354 -0.5943 -0.5887  0.1014
 5533SOL    HW128061   1.660   4.155  10.418 -0.8504  0.1741  0.5327
 5533SOL    HW228062   1.800   4.181  10.365 -0.4996 -0.3775 -0.1896
 5534SOL     OW28063   3.742   4.454  15.597 -0.0713 -0.3024  0.4795
 5534SOL    HW128064   3.794   4.417  15.525  1.7194  1.1548  1.0156
 5534SOL    HW228065   3.766   4.547  15.601  1.1873 -0.5354 -1.7555
 5535SOL     OW28066   1.012   1.859   0.107 -0.2575 -0.1221 -0.2866
 5535SOL    HW128067   0.919   1.876   0.121  0.0898  0.9849  0.6816
 5535SOL    HW228068   1.012   1.764   0.113  1.9175 -0.1112 -0.1074
 5536SOL     OW28069   2.838   1.025  11.749  0.0510 -0.3203 -0.1469
 5536SOL    HW128070   2.814   0.933  11.762  4.4123 -1.5461 -0.8228
 5536SOL    HW228071   2.906   1.021  11.682  0.6738 -1.6471  0.5673
 5537SOL     OW28072   2.294   0.996  11.085 -0.4158 -0.6571 -0.1928
 5537SOL    HW128073   2.313   1.066  11.147 -2.0516 -0.2835 -0.1014
 5537SOL    HW228074   2.225   1.038  11.033 -0.2478  0.1873  0.2667
 5538SOL     OW28075   2.008   1.876   4.437 -0.0359 -0.2617 -0.0304
 5538SOL    HW128076   2.057   1.958   4.430  0.5706 -0.5038  1.4412
 5538SOL    HW228077   2.035   1.842   4.522  0.5916  0.7780  0.1841
 5539SOL     OW28078   3.081   0.075  11.337  0.3599  0.0972  0.1584
 5539SOL    HW128079   3.119   0.009  11.396 -0.3207 -0.4014  0.0386
 5539SOL    HW228080   3.142   0.080  11.264 -0.2180  1.1410 -0.2418
 5540SOL     OW28081   2.395   2.349  15.054  0.4723 -0.0685 -0.0588
 5540SOL    HW128082   2.437   2.386  15.132  0.9423 -3.0063  1.0938
 5540SOL    HW228083   2.364   2.268  15.096 -2.1661  1.6862  1.3674
 5541SOL     OW28084   3.482   1.159  16.395  0.2246  0.6311  0.1489
 5541SOL    HW128085   3.485   1.228  16.328 -0.1242  0.6015  0.1041
 5541SOL    HW228086   3.389   1.159  16.417 -0.1485 -1.7933 -1.3911
 5542SOL     OW28087   4.336   1.925   4.945 -0.8573  0.3452  0.0998
 5542SOL    HW128088   4.341   2.021   4.946 -0.5808  0.3349 -0.1276
 5542SOL    HW228089   4.330   1.917   4.850  1.3341  0.2737 -0.0318
 5543SOL     OW28090   1.694   2.492   4.283 -0.1481 -0.1076  0.5254
 5543SOL    HW128091   1.788   2.498   4.301 -0.6018  1.3768  2.3644
 5543SOL    HW228092   1.683   2.585   4.267  3.3161  0.0835 -0.6017
 5544SOL     OW28093   1.262   1.768   2.539 -0.0796  0.6463  0.3203
 5544SOL    HW128094   1.227   1.761   2.627 -1.3174 -0.6909 -0.2749
 5544SOL    HW228095   1.204   1.833   2.499 -0.9370  0.0216  0.5628
 5545SOL     OW28096   3.515   3.910  11.100  0.2194  0.0254 -0.3168
 5545SOL    HW128097   3.565   3.968  11.042  0.5515  1.5336  1.4565
 5545SOL    HW228098   3.561   3.831  11.072 -0.6015 -0.4847 -0.2203
 5546SOL     OW28099   3.763   2.010  11.272 -0.1345  0.1270 -0.2837
 5546SOL    HW128100   3.851   2.025  11.308  0.6432 -1.4550 -1.4930
 5546SOL    HW228101   3.712   2.049  11.342  3.1347  1.6931  1.2561
 5547SOL     OW28102   4.278   3.140   6.960  0.7087  0.0880  0.3697
 5547SOL    HW128103   4.278   3.173   7.050 -0.6541  1.6405 -0.1918
 5547SOL    HW228104   4.330   3.061   6.967  2.8846  1.5464  0.4863
 5548SOL     OW28105   0.549   1.563   2.189  0.3779  0.2419  0.2929
 5548SOL    HW128106   0.619   1.535   2.130 -0.4365  1.1307 -1.0932
 5548SOL    HW228107   0.484   1.494   2.174 -0.3186  0.8297  0.6017
 5549SOL     OW28108   4.500   0.132   5.658  0.1589 -0.8564 -0.0976
 5549SOL    HW128109   4.432   0.096   5.715 -0.4882 -0.8022 -0.8342
 5549SOL    HW228110   4.449   0.139   5.577  2.0231 -2.7640 -1.4203
 5550SOL     OW28111   2.405   1.940   5.711  0.0697  0.4515 -0.4423
 5550SOL    HW128112   2.384   1.944   5.617 -4.0317  0.7016  0.4949
 5550SOL    HW228113   2.325   1.986   5.735 -0.5795  0.3336 -2.3645
 5551SOL     OW28114   0.086   4.187   3.597 -0.2045  0.9967  0.3535
 5551SOL    HW128115   0.061   4.219   3.510 -0.9327  0.4639  0.3717
 5551SOL    HW228116   0.157   4.131   3.565 -0.8680  0.8945 -0.9487
 5552SOL     OW28117   3.951   0.353   7.927 -0.1387  0.1482 -0.0537
 5552SOL    HW128118   3.974   0.442   7.900 -0.0337  0.1487  0.0371
 5552SOL    HW228119   4.012   0.305   7.871  2.6770  2.6797  0.8438
 5553SOL     OW28120   3.996   4.132   5.322  0.6954 -0.2882  0.3411
 5553SOL    HW128121   3.940   4.210   5.332  2.4915  1.2208 -1.2624
 5553SOL    HW228122   4.043   4.152   5.241  1.7718 -0.0501  1.0399
 5554SOL     OW28123   1.298   3.914   8.279 -0.7098  0.8907 -0.2162
 5554SOL    HW128124   1.217   3.963   8.267 -1.6430 -0.5262  0.3784
 5554SOL    HW228125   1.305   3.858   8.202  2.9979  0.9575  0.0619
 5555SOL     OW28126   1.490   4.216  15.818  0.3642  0.3338  0.0050
 5555SOL    HW128127   1.547   4.234  15.744  1.1095 -2.1632 -0.0023
 5555SOL    HW228128   1.554   4.190  15.884  0.7707  0.9709 -0.1351
 5556SOL     OW28129   1.950   2.128   5.032 -0.1661 -0.0045  0.1802
 5556SOL    HW128130   1.876   2.149   5.088 -1.3645 -0.3290 -1.2833
 5556SOL    HW228131   2.022   2.183   5.063  1.0773 -0.2629 -2.1547
 5557SOL     OW28132   3.869   2.838   7.558  0.3066 -0.0721  0.6414
 5557SOL    HW128133   3.848   2.747   7.577  0.9532 -0.4259 -0.3757
 5557SOL    HW228134   3.801   2.879   7.612  0.3954  1.9494 -0.7968
 5558SOL     OW28135   0.941   4.623  14.826  0.4424  0.4367  0.0723
 5558SOL    HW128136   1.024   4.668  14.846  1.0866 -0.4335 -0.6398
 5558SOL    HW228137   0.956   4.538  14.867 -0.6362  0.3231  0.2196
 5559SOL     OW28138   3.782   1.650   5.036  0.4942 -0.4821  0.4215
 5559SOL    HW128139   3.869   1.689   5.045  0.7300 -1.1104  0.8988
 5559SOL    HW228140   3.799   1.584   4.969 -2.2330  0.6171 -1.3358
 5560SOL     OW28141   3.298   1.194  11.672 -0.4667 -0.4271 -0.1102
 5560SOL    HW128142   3.224   1.156  11.720 -0.5698 -2.3435 -1.7745
 5560SOL    HW228143   3.371   1.167  11.728 -1.0496 -2.9587 -0.5635
 5561SOL     OW28144   4.386   1.727   6.277  0.0594  0.0049  0.8862
 5561SOL    HW128145   4.320   1.660   6.296  0.3099 -0.6574 -0.6052
 5561SOL    HW228146   4.335   1.807   6.287 -1.5241 -0.7594 -1.1315
 5562SOL     OW28147   0.399   4.030   3.997  0.2810  0.0488 -0.2165
 5562SOL    HW128148   0.436   4.034   3.909 -2.5532 -0.1079 -1.3943
 5562SOL    HW228149   0.329   3.966   3.988  0.3303 -0.0561  0.1583
 5563SOL     OW28150   2.330   4.301   9.786 -0.0685  0.1957  0.0689
 5563SOL    HW128151   2.360   4.210   9.789  1.2866  0.6266 -0.4584
 5563SOL    HW228152   2.235   4.292   9.794  0.2612 -1.6270  1.8351
 5564SOL     OW28153   0.994   4.515   7.405  0.2383 -0.3859 -0.3469
 5564SOL    HW128154   1.053   4.441   7.420 -0.5614 -0.2478  3.5417
 5564SOL    HW228155   0.917   4.479   7.361 -0.0732 -0.5586  0.3428
 5565SOL     OW28156   0.460   1.029   9.922 -0.6294  0.1799  0.0971
 5565SOL    HW128157   0.544   1.073   9.910  0.1194 -0.9818  1.1545
 5565SOL    HW228158   0.404   1.104   9.943 -1.8945 -1.1531  1.5386
 5566SOL     OW28159   1.091   0.720   3.323  0.2721  0.9040 -0.7275
 5566SOL    HW128160   1.058   0.638   3.361 -1.1745  2.2826  1.0278
 5566SOL    HW228161   1.026   0.734   3.254  0.0035 -3.2850 -1.3037
 5567SOL     OW28162   1.516   0.143   3.264  0.5548  0.0940 -0.7926
 5567SOL    HW128163   1.500   0.226   3.218  1.3621  0.1497 -0.9734
 5567SOL    HW228164   1.581   0.101   3.207 -0.0607  0.0118 -1.4381
 5568SOL     OW28165   2.004   0.161   0.595 -0.5397 -0.4207 -0.2155
 5568SOL    HW128166   1.966   0.184   0.680 -0.7841 -0.8418 -0.2125
 5568SOL    HW228167   2.096   0.140   0.613 -0.6891 -0.9528 -0.0907
 5569SOL     OW28168   0.664   1.145   7.681 -0.4416 -0.1564  0.4313
 5569SOL    HW128169   0.578   1.149   7.639  0.2676  1.6472 -0.8534
 5569SOL    HW228170   0.638   1.168   7.770  0.6507  0.1594  0.6733
 5570SOL     OW28171   2.697   2.736   5.656 -0.4117 -0.5660 -0.2715
 5570SOL    HW128172   2.725   2.826   5.672 -0.8244 -0.5211  0.1981
 5570SOL    HW228173   2.604   2.744   5.678 -0.4889  1.2037 -1.1899
 5571SOL     OW28174   1.464   4.335  10.297 -0.4542 -0.3512  0.5897
 5571SOL    HW128175   1.475   4.388  10.376 -1.4941 -0.7192  0.9741
 5571SOL    HW228176   1.549   4.296  10.277  0.0772  0.5675  1.0823
 5572SOL     OW28177   3.104   2.855   5.568 -0.5008 -0.3384  0.1424
 5572SOL    HW128178   3.087   2.936   5.520 -2.4725 -0.3341  0.8403
 5572SOL    HW228179   3.167   2.817   5.506 -0.9013 -0.1206 -0.4041
 5573SOL     OW28180   1.235   1.699   5.738 -0.3816 -0.0166 -0.2503
 5573SOL    HW128181   1.313   1.720   5.687 -0.2255  2.4204  1.0111
 5573SOL    HW228182   1.192   1.784   5.736 -0.0145  0.1874  0.3963
 5574SOL     OW28183   1.150   3.437   5.487 -0.4925 -0.4611  0.1840
 5574SOL    HW128184   1.191   3.515   5.449  0.1753 -1.4232 -1.0724
 5574SOL    HW228185   1.215   3.367   5.485 -1.5763 -1.4294 -0.4003
 5575SOL     OW28186   2.787   0.453   3.567  0.0690  0.6605  0.0684
 5575SOL    HW128187   2.813   0.394   3.637 -0.3643  1.1402  0.6310
 5575SOL    HW228188   2.872   0.478   3.532  0.7868  0.0184  1.3491
 5576SOL     OW28189   4.063   1.851   6.489 -0.2228  0.2033 -0.1108
 5576SOL    HW128190   3.982   1.897   6.512 -0.4897  0.1261 -0.8870
 5576SOL    HW228191   4.080   1.796   6.565  0.8922  1.7060  0.7155
 5577SOL     OW28192   3.721   1.890   8.580 -0.1107  0.8636 -0.2318
 5577SOL    HW128193   3.755   1.801   8.574 -2.7847 -0.1459 -0.1808
 5577SOL    HW228194   3.798   1.947   8.587  0.3634  0.0770  0.8220
 5578SOL     OW28195   4.184   0.346  13.142 -0.3376  0.3903  0.1219
 5578SOL    HW128196   4.268   0.313  13.112  0.7450  2.1766  1.1616
 5578SOL    HW228197   4.172   0.409  13.071  1.8099 -2.2656 -2.5983
 5579SOL     OW28198   1.877   2.780  12.893  0.0191  0.3174 -0.5641
 5579SOL    HW128199   1.855   2.705  12.838  2.8447 -0.0418 -1.2196
 5579SOL    HW228200   1.838   2.849  12.839  1.0974  2.0613  0.8746
 5580SOL     OW28201   3.726   3.092   9.419  0.0440  0.2511 -0.5049
 5580SOL    HW128202   3.692   3.030   9.484  0.0305 -0.8779 -1.5880
 5580SOL    HW228203   3.767   3.030   9.359 -0.6733 -1.2538  0.5669
 5581SOL     OW28204   3.182   3.949   5.680 -0.6342  0.1005 -1.1047
 5581SOL    HW128205   3.175   3.952   5.776 -1.3825 -0.3735 -1.1398
 5581SOL    HW228206   3.130   3.869   5.673 -2.6943  1.0870  2.2657
 5582SOL     OW28207   2.549   2.264   4.358  0.1336 -0.0156 -0.4708
 5582SOL    HW128208   2.533   2.353   4.326  1.3008 -0.2949 -1.8647
 5582SOL    HW228209   2.572   2.219   4.276  1.9125 -2.6157  1.4757
 5583SOL     OW28210   4.672   1.402  16.252  0.0979  0.1841 -0.3796
 5583SOL    HW128211   4.654   1.495  16.255 -1.5192 -0.1993  1.8055
 5583SOL    HW228212   0.023   1.393  16.190 -0.1018 -1.6676 -0.3538
 5584SOL     OW28213   0.198   3.445  12.826  0.0607 -0.1780  0.2580
 5584SOL    HW128214   0.205   3.428  12.732  2.6803 -0.6603  0.5681
 5584SOL    HW228215   0.278   3.496  12.837  0.8175 -1.0361 -1.3311
 5585SOL     OW28216   4.408   2.064  12.159  0.3347  0.1621  0.8763
 5585SOL    HW128217   4.442   2.152  12.174 -1.7743  1.3061 -1.1391
 5585SOL    HW228218   4.315   2.084  12.156  0.5387  1.0279  0.1789
 5586SOL     OW28219   3.197   3.696   6.987  0.7259  0.0292  0.4288
 5586SOL    HW128220   3.284   3.664   7.013  0.3477 -1.9019 -0.6682
 5586SOL    HW228221   3.193   3.743   7.070  2.0487 -0.8603  1.0025
 5587SOL     OW28222   2.986   3.771   9.328 -0.2812 -0.4866 -0.3732
 5587SOL    HW128223   3.010   3.679   9.338 -1.1275 -0.5259  1.4306
 5587SOL    HW228224   3.070   3.816   9.322  0.0530 -1.1625 -0.8259
 5588SOL     OW28225   4.388   1.400   7.180  0.1603  0.4568 -0.1396
 5588SOL    HW128226   4.419   1.489   7.163 -0.8211  0.1859 -3.2916
 5588SOL    HW228227   4.419   1.384   7.269  1.1448  2.1573 -0.1884
 5589SOL     OW28228   2.041   4.261   9.761 -0.4238  0.2927  0.1303
 5589SOL    HW128229   1.986   4.195   9.718  1.1078 -1.1741  0.4548
 5589SOL    HW228230   1.972   4.320   9.792  0.0522 -0.3592  2.4127
 5590SOL     OW28231   1.611   2.301   2.239  0.0570 -0.5869 -0.1925
 5590SOL    HW128232   1.655   2.362   2.180 -0.7703  0.1858 -0.0138
 5590SOL    HW228233   1.553   2.248   2.185 -1.7919 -0.8245  2.0126
 5591SOL     OW28234   2.617   1.805  10.788  0.0473 -0.4172 -0.1903
 5591SOL    HW128235   2.690   1.765  10.837  1.5842  3.3161  0.5832
 5591SOL    HW228236   2.550   1.768  10.845  0.6065 -0.0140  0.7342
 5592SOL     OW28237   1.044   0.234   5.101  0.1141 -0.3788 -0.0619
 5592SOL    HW128238   0.973   0.274   5.151  2.4251  2.2320  1.1448
 5592SOL    HW228239   1.046   0.284   5.020  2.3662  0.4813  0.5188
 5593SOL     OW28240   3.130   2.018   2.108  0.1393 -0.1296  0.0867
 5593SOL    HW128241   3.060   2.040   2.170  0.4939 -0.4335  0.6013
 5593SOL    HW228242   3.091   1.939   2.071  2.3567 -0.7050 -1.0148
 5594SOL     OW28243   0.344   1.737  10.691  0.1378  0.1800 -0.2274
 5594SOL    HW128244   0.305   1.690  10.617  0.4684 -0.9064  0.2830
 5594SOL    HW228245   0.303   1.820  10.667  0.9511  0.6831  0.1260
 5595SOL     OW28246   0.711   3.354   9.291  0.6068  0.1786 -0.9165
 5595SOL    HW128247   0.786   3.299   9.314  1.4054  0.3993 -2.9689
 5595SOL    HW228248   0.755   3.438   9.277  0.1048  0.6771  0.4916
 5596SOL     OW28249   0.050   4.014   5.758 -0.2597  0.0247  0.2443
 5596SOL    HW128250   0.044   4.106   5.732  0.2278 -0.4029 -1.3438
 5596SOL    HW228251   0.125   4.013   5.817 -0.2967 -0.4303  0.2863
 5597SOL     OW28252   4.294   2.094   7.844  0.6918 -0.7886 -0.0251
 5597SOL    HW128253   4.315   2.184   7.870 -1.0685 -0.2786 -0.3993
 5597SOL    HW228254   4.204   2.080   7.872  0.4669 -0.4106 -0.5560
 5598SOL     OW28255   1.065   1.975   2.474 -0.1362  0.6114  0.0121
 5598SOL    HW128256   0.995   1.971   2.539  0.1173  1.4454  0.3421
 5598SOL    HW228257   1.020   2.013   2.398 -1.3016 -1.7549 -0.4648
 5599SOL     OW28258   2.236   2.178   8.719 -0.4981 -0.0970 -0.3784
 5599SOL    HW128259   2.279   2.136   8.645 -0.5946 -1.4353  0.3352
 5599SOL    HW228260   2.291   2.162   8.795 -1.2459  0.3079  0.2565
 5600SOL     OW28261   0.492   4.447   2.762  0.5060 -0.1284  0.0419
 5600SOL    HW128262   0.480   4.439   2.856  0.8573 -1.2429 -0.0166
 5600SOL    HW228263   0.407   4.407   2.743  0.4012  0.5788 -1.0006
 5601SOL     OW28264   1.881   0.202   5.988  0.7986 -0.0784  0.9937
 5601SOL    HW128265   1.869   0.196   5.893  0.1252 -2.8469  1.2661
 5601SOL    HW228266   1.793   0.196   6.027  0.4220  0.8508  0.2869
 5602SOL     OW28267   2.670   0.042  14.115  0.7156 -0.1855  0.6514
 5602SOL    HW128268   2.736   0.077  14.055  0.6376 -3.7056 -1.4996
 5602SOL    HW228269   2.693   0.090  14.194 -1.9163 -0.1140  1.3811
 5603SOL     OW28270   2.433   0.026   8.433 -0.2364  0.0715 -0.4079
 5603SOL    HW128271   2.398   4.662   8.461  3.1553 -0.6301  1.6227
 5603SOL    HW228272   2.490   0.038   8.509  0.6130  2.4335 -1.4222
 5604SOL     OW28273   3.405   1.930  13.392 -0.3623  0.5962 -0.2032
 5604SOL    HW128274   3.330   1.987  13.405  0.0079  0.9236  0.5173
 5604SOL    HW228275   3.424   1.944  13.299 -0.4798  0.6535 -0.2178
 5605SOL     OW28276   1.632   4.573   7.472 -0.1609 -0.0152  0.5631
 5605SOL    HW128277   1.727   4.572   7.484  0.3202  1.7446 -3.0772
 5605SOL    HW228278   1.618   4.478   7.472 -0.2670 -0.0007  0.7423
 5606SOL     OW28279   1.925   4.496  13.703 -0.8046  0.4721 -0.0417
 5606SOL    HW128280   1.946   4.558  13.773  0.2916 -0.3592  0.3615
 5606SOL    HW228281   1.836   4.465  13.717 -0.1292 -0.5196  1.9300
 5607SOL     OW28282   3.455   0.745   7.776 -0.3694  0.1490  0.1018
 5607SOL    HW128283   3.410   0.780   7.853  0.9569  0.4207  0.7620
 5607SOL    HW228284   3.454   0.825   7.724 -2.3915  0.5557  0.7940
 5608SOL     OW28285   0.741   0.075  12.271 -0.0351 -0.3122  0.5985
 5608SOL    HW128286   0.651   0.046  12.280  0.3570 -1.4433  0.8291
 5608SOL    HW228287   0.770   0.019  12.199  0.3764  0.5292  0.0993
 5609SOL     OW28288   3.452   0.213   6.539  0.2754 -0.4473 -0.4651
 5609SOL    HW128289   3.508   0.291   6.541  1.1559 -1.0721 -0.8641
 5609SOL    HW228290   3.392   0.231   6.467  0.5335  0.6205 -0.4215
 5610SOL     OW28291   4.277   0.571   0.976  0.0949 -0.0922 -0.2120
 5610SOL    HW128292   4.255   0.521   0.897  0.4060  1.2803 -1.1557
 5610SOL    HW228293   4.202   0.547   1.031 -0.4708 -0.7811 -1.2813
 5611SOL     OW28294   1.216   1.205  12.941 -0.6948  0.4663 -0.5053
 5611SOL    HW128295   1.205   1.116  12.974  2.2822  0.6338  0.9683
 5611SOL    HW228296   1.128   1.227  12.909 -0.3917  2.0156 -0.3034
 5612SOL     OW28297   0.235   0.006   4.288  0.5416  0.7941 -0.0879
 5612SOL    HW128298   0.262   4.709   4.198 -0.2573 -0.9310  0.0256
 5612SOL    HW228299   0.175   4.654   4.306  0.6875  1.0512  1.4552
 5613SOL     OW28300   2.621   0.562   0.213 -0.0849 -0.1683  0.1221
 5613SOL    HW128301   2.643   0.570   0.306 -1.7282  0.6013  0.4325
 5613SOL    HW228302   2.663   0.641   0.179 -2.1312  0.2975 -1.3375
 5614SOL     OW28303   0.900   2.264  11.204  0.6090 -0.3911  0.1507
 5614SOL    HW128304   0.917   2.240  11.113 -1.6315 -0.2909 -0.2956
 5614SOL    HW228305   0.972   2.221  11.251 -0.9563 -0.6778  2.2574
 5615SOL     OW28306   0.130   1.854  10.861 -0.1222  0.0176 -0.2848
 5615SOL    HW128307   0.050   1.803  10.858  0.8282 -1.5160  0.5465
 5615SOL    HW228308   0.175   1.806  10.791 -2.6681 -0.7576 -1.3900
 5616SOL     OW28309   0.430   0.746   9.995 -0.2745 -0.0835  0.5275
 5616SOL    HW128310   0.439   0.838   9.972 -2.7849  0.4879  1.7877
 5616SOL    HW228311   0.508   0.708   9.956  0.2784  0.2043  1.3681
 5617SOL     OW28312   0.779   0.574  10.173  0.5599 -0.0676 -0.3899
 5617SOL    HW128313   0.713   0.518  10.214  1.6019 -0.9472  0.0666
 5617SOL    HW228314   0.741   0.601  10.089  0.6678 -2.3963 -1.1920
 5618SOL     OW28315   3.099   3.838   1.593  0.2376  0.0438 -0.5693
 5618SOL    HW128316   3.027   3.831   1.530  0.0744  1.3198 -0.5155
 5618SOL    HW228317   3.058   3.864   1.675  2.0272 -1.5435  0.8288
 5619SOL     OW28318   3.242   2.583   9.736 -0.5210 -0.4070  0.1709
 5619SOL    HW128319   3.177   2.639   9.779 -2.0644 -2.1031  0.0557
 5619SOL    HW228320   3.203   2.573   9.649  1.2008  2.2882 -0.9039
 5620SOL     OW28321   0.650   2.930  17.584  0.6617 -0.1190  0.7033
 5620SOL    HW128322   0.607   2.892  17.661 -1.2819 -2.0110 -1.3486
 5620SOL    HW228323   0.738   2.894  17.593 -0.0702 -1.7890  1.3011
 5621SOL     OW28324   3.846   3.863   3.530 -0.2352 -0.2592 -0.1365
 5621SOL    HW128325   3.800   3.897   3.607 -0.2606  0.2710 -0.3810
 5621SOL    HW228326   3.836   3.941   3.475  1.5565 -0.1564 -0.3009
 5622SOL     OW28327   1.621   0.257   4.914 -0.1846 -0.4612 -0.1397
 5622SOL    HW128328   1.541   0.220   4.952 -0.2123  0.4213  0.6813
 5622SOL    HW228329   1.625   0.343   4.957 -1.6364 -0.7106  0.4834
 5623SOL     OW28330   2.900   1.861   0.256 -0.2393  0.0537 -0.2848
 5623SOL    HW128331   2.957   1.847   0.180  0.1167 -2.0959  0.3802
 5623SOL    HW228332   2.852   1.937   0.222  0.9322  1.2760  0.7988
 5624SOL     OW28333   4.172   2.725   8.245  0.0182 -0.9126 -0.0845
 5624SOL    HW128334   4.212   2.661   8.303  0.1142 -1.6663 -0.9809
 5624SOL    HW228335   4.091   2.674   8.236 -0.6556  0.4068 -1.4472
 5625SOL     OW28336   2.697   2.358   9.323 -0.1838  0.4317 -0.0148
 5625SOL    HW128337   2.740   2.305   9.390 -0.2455 -0.2288 -0.4977
 5625SOL    HW228338   2.702   2.301   9.246 -1.2801  1.2253 -0.6818
 5626SOL     OW28339   3.138   0.202  12.049  0.1601  0.0581  0.1219
 5626SOL    HW128340   3.042   0.210  12.052  0.1985 -0.5505  3.2229
 5626SOL    HW228341   3.166   0.292  12.032 -1.3582  0.5554  0.2152
 5627SOL     OW28342   1.419   2.008   4.192 -0.3138  0.4678  0.7082
 5627SOL    HW128343   1.451   2.054   4.269 -0.6108 -0.2756  1.2797
 5627SOL    HW228344   1.371   2.066   4.133 -0.1488 -2.8233 -2.6761
 5628SOL     OW28345   3.454   0.213  14.424 -0.1013  0.6566 -0.1327
 5628SOL    HW128346   3.407   0.144  14.470 -2.0953  1.1185 -1.4985
 5628SOL    HW228347   3.528   0.227  14.484 -0.7619  1.3783  0.5223
 5629SOL     OW28348   1.397   3.161  11.110  0.1986 -0.1290 -0.7444
 5629SOL    HW128349   1.383   3.125  11.022 -0.6633 -0.2377 -0.5627
 5629SOL    HW228350   1.428   3.250  11.096  0.0072 -0.0779 -0.8569
 5630SOL     OW28351   3.509   2.890   4.892  0.3702  0.1438 -0.2752
 5630SOL    HW128352   3.518   2.984   4.910  0.9273  0.1272 -0.4755
 5630SOL    HW228353   3.593   2.860   4.857 -1.0358 -1.8923 -1.9427
 5631SOL     OW28354   1.620   2.895  10.071  0.6908  0.6476 -0.0397
 5631SOL    HW128355   1.690   2.830  10.074 -0.2547 -0.3389  0.7519
 5631SOL    HW228356   1.671   2.976  10.075  0.6363  0.6916 -0.2188
 5632SOL     OW28357   1.115   0.137   7.714  0.2060 -0.2356 -0.1030
 5632SOL    HW128358   1.047   0.198   7.686 -0.5954 -0.7700  0.7005
 5632SOL    HW228359   1.069   0.053   7.714 -1.0615  0.4557 -0.3925
 5633SOL     OW28360   4.465   1.736   5.595  0.1667 -0.1487 -0.0389
 5633SOL    HW128361   4.456   1.701   5.507  1.1596 -0.0639 -0.1676
 5633SOL    HW228362   4.383   1.785   5.604  0.6290  0.3870  1.2780
 5634SOL     OW28363   1.304   2.423   4.396 -0.3612  0.5065 -0.0256
 5634SOL    HW128364   1.346   2.470   4.469 -3.0475  0.3990  1.5762
 5634SOL    HW228365   1.228   2.385   4.440  1.2915  0.7488  3.0807
 5635SOL     OW28366   2.834   4.394   0.580 -0.5515 -0.2171 -0.4953
 5635SOL    HW128367   2.804   4.456   0.514  0.6915  0.1551 -0.7108
 5635SOL    HW228368   2.820   4.445   0.659  2.5914  1.7562 -1.2049
 5636SOL     OW28369   3.645   3.689  10.998  0.3512 -0.4763 -0.5927
 5636SOL    HW128370   3.573   3.629  11.016 -2.8437  3.3168 -0.8215
 5636SOL    HW228371   3.715   3.623  11.001 -1.0571 -1.8899  1.5010
 5637SOL     OW28372   3.389   2.689   0.922 -0.4355  0.7741 -0.0519
 5637SOL    HW128373   3.357   2.650   0.841  0.3996 -1.4257  0.6661
 5637SOL    HW228374   3.313   2.674   0.978  0.2823 -1.3375  0.3682
 5638SOL     OW28375   0.454   3.199   6.409  0.0558  0.1732 -0.3422
 5638SOL    HW128376   0.507   3.158   6.341 -1.8644 -0.8575 -1.2196
 5638SOL    HW228377   0.422   3.131   6.468  3.2373  0.9339  2.2655
 5639SOL     OW28378   1.405   0.441   7.783  0.1434  0.7580 -0.0969
 5639SOL    HW128379   1.440   0.353   7.772  1.4209  1.1542  0.8546
 5639SOL    HW228380   1.344   0.452   7.710  3.0181 -0.1553 -2.6686
 5640SOL     OW28381   3.596   3.708   7.947  0.0358  0.0640 -0.2468
 5640SOL    HW128382   3.534   3.717   7.875  0.1353  1.1745 -0.1910
 5640SOL    HW228383   3.548   3.663   8.017  1.0114 -0.6407 -0.0298
 5641SOL     OW28384   2.706   3.595   3.014 -0.5396 -0.1530 -0.4101
 5641SOL    HW128385   2.760   3.534   3.064  0.0865  1.0855  0.4034
 5641SOL    HW228386   2.763   3.671   3.018 -2.9176  1.6192  0.0535
 5642SOL     OW28387   4.258   1.785   0.720 -0.6162 -0.1835  0.6242
 5642SOL    HW128388   4.340   1.763   0.675 -0.4506  0.6884  0.4864
 5642SOL    HW228389   4.260   1.716   0.786 -0.4177 -0.0190  0.7928
 5643SOL     OW28390   3.925   0.270  15.604 -0.2215 -0.0176  0.0858
 5643SOL    HW128391   3.990   0.243  15.538  2.1577  1.1138  1.9716
 5643SOL    HW228392   3.941   0.364  15.595 -0.6556  0.0114 -0.4315
 5644SOL     OW28393   0.529   0.692  17.184  0.5372 -0.7548 -0.5819
 5644SOL    HW128394   0.500   0.601  17.173  1.8782 -1.2647  0.0875
 5644SOL    HW228395   0.519   0.737  17.100 -1.9376  1.8947  1.1353
 5645SOL     OW28396   2.524   1.548  12.737 -0.8607  0.8347  0.1801
 5645SOL    HW128397   2.482   1.629  12.765  0.5944  0.7203  2.6758
 5645SOL    HW228398   2.506   1.490  12.811  1.1605 -1.1553 -0.8779
 5646SOL     OW28399   2.496   0.181   6.487  0.2666  0.2370  0.4441
 5646SOL    HW128400   2.572   0.173   6.544  0.4258 -0.0390  0.1985
 5646SOL    HW228401   2.429   0.229   6.535 -1.6360 -1.8516 -0.0475
 5647SOL     OW28402   2.662   3.032   7.205  0.3901  0.4245  0.2199
 5647SOL    HW128403   2.576   3.016   7.243  0.6606 -0.0639  0.6191
 5647SOL    HW228404   2.702   2.945   7.211 -1.3541 -0.3401  0.5183
 5648SOL     OW28405   3.600   0.330   1.760 -0.0173  0.0343  0.6829
 5648SOL    HW128406   3.581   0.281   1.680  1.5653 -1.0898  1.0087
 5648SOL    HW228407   3.562   0.270   1.824  2.6608  0.2398  2.4951
 5649SOL     OW28408   1.786   1.827   4.270  0.2172 -0.3728 -0.0020
 5649SOL    HW128409   1.865   1.846   4.321  0.6011  1.5080 -1.3025
 5649SOL    HW228410   1.783   1.902   4.211  2.7748 -0.2529  0.0022
 5650SOL     OW28411   3.339   0.725   5.404 -0.8122 -0.4156 -0.0285
 5650SOL    HW128412   3.303   0.691   5.322  2.7726  0.9861 -2.1838
 5650SOL    HW228413   3.262   0.713   5.459 -0.8031 -2.6240 -0.5037
 5651SOL     OW28414   2.231   0.200   4.446 -0.6115  0.5142  0.0122
 5651SOL    HW128415   2.283   0.217   4.368 -0.7757  0.5362 -0.0924
 5651SOL    HW228416   2.194   0.118   4.414 -1.7561 -0.4155  3.6818
 5652SOL     OW28417   0.001   0.156  14.268  0.1469  0.1540 -0.2434
 5652SOL    HW128418   4.711   0.109  14.186  0.9126  0.7861 -0.7182
 5652SOL    HW228419   4.668   0.094  14.317  2.0245  0.9407  2.8476
 5653SOL     OW28420   4.721   2.745  16.837  0.2459 -0.5449 -0.0086
 5653SOL    HW128421   4.702   2.689  16.761  0.2284  0.8746 -1.0597
 5653SOL    HW228422   0.093   2.730  16.847  0.2280 -0.3898  0.3944
 5654SOL     OW28423   3.437   1.159   5.664  0.7211  0.2506 -0.4618
 5654SOL    HW128424   3.394   1.121   5.587  0.0173 -1.6907  0.8966
 5654SOL    HW228425   3.357   1.199   5.697  0.7526 -1.2001  1.3757
 5655SOL     OW28426   3.594   3.459   6.434  0.4564 -0.0061 -0.4503
 5655SOL    HW128427   3.670   3.499   6.393  1.4728  0.7299  2.1921
 5655SOL    HW228428   3.595   3.373   6.393  1.6187 -0.0702 -0.2681
 5656SOL     OW28429   1.879   3.112   9.073 -0.7416  0.1413 -0.2166
 5656SOL    HW128430   1.900   3.134   8.982 -1.8465  2.2085  0.0404
 5656SOL    HW228431   1.928   3.031   9.088 -2.2560 -0.9618 -1.2871
 5657SOL     OW28432   4.121   4.218   9.054  0.5330 -0.1729  0.4371
 5657SOL    HW128433   4.091   4.129   9.073  1.1866 -0.8962 -1.9824
 5657SOL    HW228434   4.043   4.262   9.088  2.3351  0.8413  3.3051
 5658SOL     OW28435   3.995   0.345   1.358  0.4406  0.9618  0.4445
 5658SOL    HW128436   4.081   0.316   1.386 -0.5674 -2.6652 -0.2843
 5658SOL    HW228437   3.955   0.259   1.341  1.9544 -0.1476  2.5488
 5659SOL     OW28438   1.979   2.730   7.505 -0.0755 -0.0787  0.0786
 5659SOL    HW128439   1.907   2.668   7.522 -0.8851  1.0820  0.8850
 5659SOL    HW228440   2.013   2.737   7.594  0.8786 -0.2199 -0.2815
 5660SOL     OW28441   2.641   4.644  10.119  0.1474  0.4021 -0.1016
 5660SOL    HW128442   2.560   4.694  10.113 -0.2606 -0.1059  1.1950
 5660SOL    HW228443   2.641   4.618  10.211  0.8840  2.0823  0.3642
 5661SOL     OW28444   2.195   4.297   6.339  0.1932 -0.4114  0.0956
 5661SOL    HW128445   2.278   4.313   6.384  0.1261 -1.5622  0.6302
 5661SOL    HW228446   2.236   4.232   6.281  0.9724  0.3278 -0.1908
 5662SOL     OW28447   0.188   2.239   4.213 -0.1494  0.3734 -0.5142
 5662SOL    HW128448   0.214   2.169   4.152 -1.5683 -2.0115  1.6569
 5662SOL    HW228449   0.231   2.207   4.292  0.4103 -0.0387 -0.9813
 5663SOL     OW28450   3.653   4.601   8.834  0.3432  0.0972 -0.1632
 5663SOL    HW128451   3.708   4.628   8.760 -2.3936  0.1542 -2.1578
 5663SOL    HW228452   3.709   4.532   8.869  0.5503  0.0903 -0.5027
 5664SOL     OW28453   2.117   0.562   5.144  0.7530 -0.8981 -0.0391
 5664SOL    HW128454   2.211   0.545   5.138  1.2211  0.8488  1.9920
 5664SOL    HW228455   2.102   0.511   5.224  0.7482 -0.2989  0.3436
 5665SOL     OW28456   0.835   2.896   2.445  0.0040 -0.3065  0.1740
 5665SOL    HW128457   0.739   2.899   2.446 -0.0403 -0.7739 -1.3907
 5665SOL    HW228458   0.851   2.926   2.355 -0.8600  2.5625  0.9652
 5666SOL     OW28459   0.760   2.655   7.013 -0.1164 -0.4021  0.5554
 5666SOL    HW128460   0.825   2.663   7.083  1.4580 -3.2959 -0.6313
 5666SOL    HW228461   0.701   2.727   7.039  0.9147  0.0050  1.7976
 5667SOL     OW28462   3.110   4.589  17.260  0.4357 -0.3396 -0.1663
 5667SOL    HW128463   3.030   4.574  17.209  0.1396  0.6106  0.0177
 5667SOL    HW228464   3.092   4.674  17.300 -1.3981 -0.5677 -0.4939
 5668SOL     OW28465   2.831   1.661   3.857  0.1907 -0.0553 -0.7684
 5668SOL    HW128466   2.822   1.567   3.839 -0.9936 -0.2802  0.9946
 5668SOL    HW228467   2.898   1.679   3.790  1.1774 -0.4514  0.1160
 5669SOL     OW28468   4.616   2.686   7.945 -0.5247 -0.2462  0.2270
 5669SOL    HW128469   4.668   2.735   8.008  1.2635 -1.1542 -0.5536
 5669SOL    HW228470   4.673   2.612   7.923 -1.8252 -0.5323 -2.2245
 5670SOL     OW28471   0.764   1.531   9.286  0.2651 -0.8379  0.5866
 5670SOL    HW128472   0.832   1.480   9.243  1.3460  0.6414  0.5123
 5670SOL    HW228473   0.694   1.484   9.240 -1.4291  1.6076  0.6404
 5671SOL     OW28474   3.214   0.481  15.273 -0.4029  0.2345 -0.3563
 5671SOL    HW128475   3.244   0.570  15.290 -1.7143  0.5201  0.4367
 5671SOL    HW228476   3.285   0.449  15.216 -0.5621  1.4057 -1.2020
 5672SOL     OW28477   2.897   2.325  13.954  0.1539 -0.9360 -0.2343
 5672SOL    HW128478   2.874   2.399  14.011 -1.3813 -0.8514 -0.9567
 5672SOL    HW228479   2.814   2.294  13.919  0.8603  0.4624 -3.1408
 5673SOL     OW28480   0.137   3.268  14.448  0.2345 -0.2174  0.1054
 5673SOL    HW128481   0.083   3.219  14.510 -0.4749  1.5467  0.8907
 5673SOL    HW228482   0.205   3.203  14.432 -1.9733 -2.0623 -1.8163
 5674SOL     OW28483   2.387   1.420  13.204 -0.3649 -0.4144  0.1979
 5674SOL    HW128484   2.327   1.372  13.260  1.5336  0.8811  3.3701
 5674SOL    HW228485   2.426   1.481  13.267 -3.0324  1.9224 -0.4536
 5675SOL     OW28486   2.143   0.954   1.844 -0.2999 -0.1813  0.6279
 5675SOL    HW128487   2.085   0.893   1.799  0.6088 -0.8769  0.4058
 5675SOL    HW228488   2.210   0.895   1.877 -0.9399  0.1237  2.4965
 5676SOL     OW28489   2.296   1.000   8.397  0.4253  0.0359  0.5299
 5676SOL    HW128490   2.205   0.991   8.368  0.3535 -1.0013  1.0521
 5676SOL    HW228491   2.358   0.986   8.325 -0.3208 -0.4697 -0.0124
 5677SOL     OW28492   1.081   2.430   3.380 -1.1366  0.5567  0.2853
 5677SOL    HW128493   1.021   2.495   3.344  1.3726  1.7501 -1.7005
 5677SOL    HW228494   1.029   2.350   3.370  0.8105 -0.8084  0.9744
 5678SOL     OW28495   0.409   1.479  15.447 -0.2721  0.0061 -0.3040
 5678SOL    HW128496   0.492   1.486  15.400  0.4679 -1.0612  0.8433
 5678SOL    HW228497   0.414   1.546  15.516 -0.4306  0.1282 -0.4126
 5679SOL     OW28498   1.352   3.994   1.296  0.2307  0.3100 -0.2312
 5679SOL    HW128499   1.324   3.940   1.222  0.1275 -0.9631  0.7394
 5679SOL    HW228500   1.408   3.939   1.351 -1.5320  1.6531  2.8987
 5680SOL     OW28501   0.071   3.841  12.161  0.7278  0.0860  0.4847
 5680SOL    HW128502   0.127   3.794  12.099  1.3022  1.4896 -0.0457
 5680SOL    HW228503   0.141   3.861  12.224  0.9796  0.5089  0.0716
 5681SOL     OW28504   2.214   1.764  17.231  0.3974  0.2661 -0.1954
 5681SOL    HW128505   2.218   1.803  17.144  1.7175 -0.4002 -0.4395
 5681SOL    HW228506   2.307   1.757  17.249  0.0863 -0.7263  1.0701
 5682SOL     OW28507   1.821   0.855  16.920 -0.1828 -0.1401 -0.1370
 5682SOL    HW128508   1.915   0.837  16.911 -0.0251  1.5239 -1.6135
 5682SOL    HW228509   1.820   0.887  17.010  1.6317 -0.7154  0.1024
 5683SOL     OW28510   0.374   4.013   2.485  0.1243 -0.1273  0.0554
 5683SOL    HW128511   0.424   4.049   2.411  0.5982 -0.9543 -0.0278
 5683SOL    HW228512   0.357   3.922   2.459  0.6406 -0.2587  0.1873
 5684SOL     OW28513   2.338   3.385   8.774 -0.1408 -0.0733  0.3669
 5684SOL    HW128514   2.283   3.444   8.723  0.9526  1.7226  1.2631
 5684SOL    HW228515   2.355   3.315   8.711 -0.3878  0.0383  0.1768
 5685SOL     OW28516   4.427   1.004  11.384  0.1107  0.0238 -0.0107
 5685SOL    HW128517   4.358   0.963  11.332 -0.0363  0.8231 -0.4427
 5685SOL    HW228518   4.398   1.095  11.388 -0.9104 -0.2097 -1.8297
 5686SOL     OW28519   0.171   3.019   5.217 -0.4856  0.0582 -0.1171
 5686SOL    HW128520   0.227   3.085   5.257  1.9938 -2.3064  0.2785
 5686SOL    HW228521   0.140   2.971   5.294 -1.3385  0.8871  0.0585
 5687SOL     OW28522   3.622   2.517   0.870  0.0042 -0.3391 -0.7488
 5687SOL    HW128523   3.571   2.439   0.890  1.4153 -0.3479  2.8662
 5687SOL    HW228524   3.556   2.585   0.886  1.5355  1.3982 -1.7823
 5688SOL     OW28525   1.010   3.893   3.248 -0.5332 -0.3219 -0.2276
 5688SOL    HW128526   0.967   3.855   3.325 -3.2906 -1.2327 -2.2375
 5688SOL    HW228527   0.934   3.935   3.208 -0.4731  0.6344  0.6401
 5689SOL     OW28528   3.332   0.685   6.953  0.0679  0.8005  0.5989
 5689SOL    HW128529   3.364   0.632   6.879 -1.3515  0.2445  0.3920
 5689SOL    HW228530   3.261   0.627   6.977  0.6664  0.0513  0.5579
 5690SOL     OW28531   1.782   4.470  12.878 -0.1440 -0.1381  0.4792
 5690SOL    HW128532   1.758   4.494  12.968 -1.5698  0.5225 -0.0858
 5690SOL    HW228533   1.791   4.376  12.892  0.4662 -0.1408  0.0663
 5691SOL     OW28534   2.531   3.343   3.047  0.5214  0.4539 -0.3012
 5691SOL    HW128535   2.608   3.398   3.037  0.9029  0.0594  0.4990
 5691SOL    HW228536   2.478   3.411   3.089  1.0910  0.9832 -0.4409
 5692SOL     OW28537   4.697   1.016   5.724  0.1674 -0.3886  0.6812
 5692SOL    HW128538   4.613   1.031   5.680  0.1766  1.7404  1.3984
 5692SOL    HW228539   4.711   0.922   5.712 -2.6545 -0.4319 -2.5065
 5693SOL     OW28540   4.525   0.759   8.246 -0.1856 -0.3152 -0.8783
 5693SOL    HW128541   4.606   0.759   8.299 -0.9224 -0.0723  0.2561
 5693SOL    HW228542   4.523   0.849   8.215 -1.9836  0.4277  1.3629
 5694SOL     OW28543   0.798   4.479  12.675 -0.0650  0.3940  0.1855
 5694SOL    HW128544   0.818   4.521  12.591  1.2727 -2.0494 -0.6904
 5694SOL    HW228545   0.878   4.506  12.718  0.3175  3.9341 -2.6997
 5695SOL     OW28546   4.516   3.157   6.403 -0.3642  0.3070  0.1205
 5695SOL    HW128547   4.470   3.173   6.321  0.8310  0.4866 -0.5059
 5695SOL    HW228548   4.592   3.213   6.395 -0.0558 -0.1575 -0.2147
 5696SOL     OW28549   3.098   3.336   6.714  0.4429 -0.0892 -0.1645
 5696SOL    HW128550   3.181   3.339   6.761 -1.1193  2.7650  2.3486
 5696SOL    HW228551   3.077   3.242   6.718  0.1291  0.0201  0.6145
 5697SOL     OW28552   2.497   0.408   5.455 -0.0633 -0.0072 -0.0925
 5697SOL    HW128553   2.548   0.382   5.378 -0.0825 -0.5268  0.0749
 5697SOL    HW228554   2.554   0.474   5.494  0.2873 -1.7330  2.3196
 5698SOL     OW28555   0.172   3.824  10.475 -0.6891  0.3313 -0.2455
 5698SOL    HW128556   0.219   3.900  10.440 -0.5148  0.9736  1.3912
 5698SOL    HW228557   0.190   3.753  10.414  2.1338 -0.9726  2.0913
 5699SOL     OW28558   1.717   2.250   0.929  0.3924  0.2295 -0.7890
 5699SOL    HW128559   1.673   2.187   0.871 -0.1104  0.6731 -0.8844
 5699SOL    HW228560   1.646   2.283   0.984  0.0444 -1.7602 -0.0264
 5700SOL     OW28561   0.154   1.009   9.489 -0.4884  0.1287 -0.5949
 5700SOL    HW128562   0.117   1.024   9.576  0.4798  0.7887 -0.2968
 5700SOL    HW228563   0.244   0.992   9.517 -1.9338 -2.2093  2.5943
 5701SOL     OW28564   0.763   3.297  13.073 -0.9227 -0.1422 -0.0626
 5701SOL    HW128565   0.755   3.391  13.061 -1.8467 -0.2932 -0.6718
 5701SOL    HW228566   0.737   3.285  13.165 -1.0286  1.8058  0.1470
 5702SOL     OW28567   0.734   3.310   4.128  0.1421 -0.1682 -0.0869
 5702SOL    HW128568   0.706   3.282   4.215 -2.4354  0.5926 -0.6798
 5702SOL    HW228569   0.823   3.276   4.117  0.4439 -0.1017  2.1420
 5703SOL     OW28570   2.190   2.536  10.937  0.4538 -0.3023  0.0384
 5703SOL    HW128571   2.277   2.499  10.925  0.3180 -0.1368 -1.4208
 5703SOL    HW228572   2.199   2.573  11.025  2.1076  1.2107 -0.7705
 5704SOL     OW28573   2.618   4.553   8.158  0.9137 -0.0803  0.0254
 5704SOL    HW128574   2.525   4.540   8.177  0.7406  1.0784 -0.0315
 5704SOL    HW228575   2.610   4.605   8.079 -1.3837  0.0366  0.3284
 5705SOL     OW28576   3.241   4.026  10.337  0.3522 -0.5027  0.1133
 5705SOL    HW128577   3.273   3.938  10.354 -0.8575 -0.8039  0.8742
 5705SOL    HW228578   3.185   4.048  10.412 -3.0064 -2.1106 -1.9170
 5706SOL     OW28579   4.011   0.799   3.827 -0.4432  0.1491 -0.7122
 5706SOL    HW128580   4.071   0.742   3.779 -1.2132 -1.7230  0.5829
 5706SOL    HW228581   4.015   0.880   3.776 -1.3504  0.4889 -0.2420
 5707SOL     OW28582   3.123   1.232   4.719 -1.2711  0.2986  0.2919
 5707SOL    HW128583   3.070   1.156   4.694 -1.4088  0.0433  1.3714
 5707SOL    HW228584   3.082   1.298   4.663  0.7066 -0.5860 -2.2099
 5708SOL     OW28585   0.519   3.543  11.307  0.0728  0.0367 -0.2616
 5708SOL    HW128586   0.597   3.542  11.252 -0.9460  0.1398 -1.7131
 5708SOL    HW228587   0.456   3.506  11.245 -0.3299  1.8540 -0.9401
 5709SOL     OW28588   4.370   1.374   6.814  0.7674  0.1194  0.2121
 5709SOL    HW128589   4.404   1.367   6.903  0.3191 -1.5347  0.2472
 5709SOL    HW228590   4.294   1.432   6.823 -0.2998 -1.6807  2.4980
 5710SOL     OW28591   4.185   1.180  16.291 -0.0531 -0.9113  0.0322
 5710SOL    HW128592   4.140   1.213  16.369  0.5946 -1.1787  0.5260
 5710SOL    HW228593   4.173   1.086  16.310 -1.1000 -0.3380  2.3145
 5711SOL     OW28594   3.226   1.066   6.029  0.8069  0.1742 -0.0012
 5711SOL    HW128595   3.234   1.034   5.939 -2.4617  0.5928 -0.4262
 5711SOL    HW228596   3.206   0.986   6.076  0.8719  0.8066  1.1108
 5712SOL     OW28597   4.141   2.160   4.193  0.5749  0.0065  0.1109
 5712SOL    HW128598   4.198   2.083   4.186  1.3219  0.6332 -0.6237
 5712SOL    HW228599   4.180   2.216   4.127 -0.5055  0.7507  0.0974
 5713SOL     OW28600   2.737   2.096   7.457  0.6547  0.2871  0.2092
 5713SOL    HW128601   2.781   2.174   7.491  0.9734  1.1529 -2.1655
 5713SOL    HW228602   2.802   2.029   7.440 -1.9069 -2.3341  0.6890
 5714SOL     OW28603   4.088   1.368   5.068  0.1339  0.8023 -0.5711
 5714SOL    HW128604   4.067   1.432   5.135 -0.2754  0.2830 -0.2075
 5714SOL    HW228605   4.007   1.357   5.018 -0.3626  0.2481  0.3606
 5715SOL     OW28606   3.226   1.859  11.883  0.1767 -0.6091 -0.0420
 5715SOL    HW128607   3.177   1.896  11.956  2.1630  0.5901  0.6877
 5715SOL    HW228608   3.198   1.922  11.818  1.7858  0.2808  0.1330
 5716SOL     OW28609   0.031   1.699   3.021  0.9913 -0.3196 -0.1809
 5716SOL    HW128610   4.715   1.619   2.982  0.9450 -0.6109  0.4643
 5716SOL    HW228611   4.676   1.739   3.064  0.6095  0.5265 -1.6443
 5717SOL     OW28612   3.325   3.333   3.381  0.3638 -0.2145  0.1681
 5717SOL    HW128613   3.373   3.250   3.380 -0.6359 -0.7952  1.0690
 5717SOL    HW228614   3.395   3.395   3.359  0.8097 -0.5299  0.6933
 5718SOL     OW28615   0.135   0.828   7.194 -0.9556 -0.0615  0.1474
 5718SOL    HW128616   0.043   0.831   7.166 -1.1916  2.4515  1.2419
 5718SOL    HW228617   0.179   0.775   7.127  1.3559  0.8814  0.9233
 5719SOL     OW28618   2.691   0.104   7.148 -0.1568 -0.2468  0.3581
 5719SOL    HW128619   2.693   0.083   7.241 -0.2029  0.8698  0.6101
 5719SOL    HW228620   2.716   0.022   7.105 -0.4475 -0.1233 -0.0446
 5720SOL     OW28621   0.291   4.560   3.056 -0.0656  0.2874 -0.1214
 5720SOL    HW128622   0.336   4.613   3.122 -0.0310 -0.9801  0.8589
 5720SOL    HW228623   0.214   4.610   3.029  0.4458  1.9093  1.4336
 5721SOL     OW28624   1.396   3.536   8.563 -0.8153 -0.1129  0.4106
 5721SOL    HW128625   1.322   3.577   8.519 -1.7433 -1.2052  0.9697
 5721SOL    HW228626   1.464   3.593   8.525  0.3306 -1.0753  1.0096
 5722SOL     OW28627   3.507   3.231   3.634  0.3963  0.4925  0.0072
 5722SOL    HW128628   3.427   3.194   3.671  0.1383 -1.8386 -2.8881
 5722SOL    HW228629   3.500   3.207   3.542 -1.5266 -0.5772  0.4390
 5723SOL     OW28630   4.496   3.810  10.287  0.0008  0.1916 -0.0759
 5723SOL    HW128631   4.532   3.815  10.376  0.0182 -0.4400 -0.0524
 5723SOL    HW228632   4.442   3.889  10.281  1.6213  1.2156 -1.2937
 5724SOL     OW28633   4.668   1.925   0.895 -0.4710 -0.3857  0.1933
 5724SOL    HW128634   0.005   1.924   0.819 -0.8910 -1.0663 -0.1265
 5724SOL    HW228635   0.003   1.959   0.965  0.5808 -2.9065  0.6100
 5725SOL     OW28636   3.063   2.206   2.943  0.0657 -0.0344  0.2602
 5725SOL    HW128637   3.001   2.233   3.011 -0.1929  0.9772 -0.3810
 5725SOL    HW228638   3.007   2.200   2.865  2.1890 -2.2008 -1.1070
 5726SOL     OW28639   2.497   2.760   4.034 -0.0445  0.6596 -0.0365
 5726SOL    HW128640   2.423   2.805   4.075  0.0515 -0.7996  1.7543
 5726SOL    HW228641   2.473   2.742   3.943 -0.0678  0.2646  0.0470
 5727SOL     OW28642   1.901   0.700   9.114  0.0391  0.6774  0.4754
 5727SOL    HW128643   1.931   0.723   9.202  0.7526 -2.0170  0.9396
 5727SOL    HW228644   1.842   0.772   9.094  1.2426  0.9091 -2.2413
 5728SOL     OW28645   2.044   3.379   7.998  0.3229 -0.0660  0.1279
 5728SOL    HW128646   1.990   3.344   8.068  1.7566  0.9043  1.7081
 5728SOL    HW228647   1.992   3.371   7.918 -0.2266 -1.5877  0.6320
 5729SOL     OW28648   2.458   2.219   6.984  0.3889  0.0590 -0.5675
 5729SOL    HW128649   2.470   2.135   6.940  0.4824 -0.9639  1.4033
 5729SOL    HW228650   2.512   2.282   6.936  0.1342 -0.7685 -1.9529
 5730SOL     OW28651   1.399   2.751  16.852 -0.4952  0.1948 -0.2777
 5730SOL    HW128652   1.452   2.707  16.918  2.1429  3.1949 -0.3700
 5730SOL    HW228653   1.390   2.839  16.888  0.0599  0.5496 -1.0033
 5731SOL     OW28654   4.488   0.981   4.802 -0.6248  0.9213 -0.0852
 5731SOL    HW128655   4.419   1.003   4.740 -0.9557  2.6687  0.9088
 5731SOL    HW228656   4.531   1.065   4.818 -2.7647  1.9050  0.4754
 5732SOL     OW28657   0.945   2.355   4.088  0.0060 -0.5103  0.0661
 5732SOL    HW128658   1.010   2.295   4.124  0.0420 -0.8406 -0.5436
 5732SOL    HW228659   0.960   2.344   3.994 -1.0807 -0.7610 -0.0781
 5733SOL     OW28660   4.683   0.555   3.172 -0.0388 -0.4310  0.3436
 5733SOL    HW128661   0.020   0.479   3.175 -1.1107 -1.2501  0.0415
 5733SOL    HW228662   4.635   0.543   3.090  0.7240  1.9743 -0.4709
 5734SOL     OW28663   0.553   4.644   8.229  0.0687 -0.0175  1.1125
 5734SOL    HW128664   0.473   4.695   8.214 -0.6882 -1.8427 -1.2017
 5734SOL    HW228665   0.619   4.689   8.176 -0.2006 -1.2032 -0.2514
 5735SOL     OW28666   2.641   1.709   0.918 -0.0168 -0.3881 -0.3241
 5735SOL    HW128667   2.575   1.740   0.856  1.6892 -0.4980 -2.1839
 5735SOL    HW228668   2.587   1.659   0.979 -0.5207  1.1888  0.5340
 5736SOL     OW28669   1.665   4.302  17.180 -0.2748  0.1249  0.5185
 5736SOL    HW128670   1.753   4.326  17.151 -0.5530 -0.0747 -0.4865
 5736SOL    HW228671   1.640   4.243  17.109  0.5738  1.9519 -1.2959
 5737SOL     OW28672   0.228   0.605  17.315 -0.3497  0.2707 -0.0857
 5737SOL    HW128673   0.165   0.544  17.355  1.3417 -2.3498 -1.3967
 5737SOL    HW228674   0.278   0.549  17.256  1.3673  0.7475  0.9175
 5738SOL     OW28675   1.050   2.161   1.450 -0.0744 -0.2877 -0.7295
 5738SOL    HW128676   1.117   2.224   1.474  0.5649 -1.3208  0.1655
 5738SOL    HW228677   0.966   2.208   1.446  0.3032  0.5633  1.3907
 5739SOL     OW28678   0.942   3.977  13.986  0.5256  0.1893 -1.0405
 5739SOL    HW128679   0.942   3.918  14.061  1.2406  2.1682  0.5394
 5739SOL    HW228680   0.848   3.987  13.971 -0.0704 -0.6194  2.0772
 5740SOL     OW28681   3.204   0.281   9.055 -0.2702 -0.1391  0.1814
 5740SOL    HW128682   3.116   0.263   9.090 -0.8545 -3.4439 -3.0254
 5740SOL    HW228683   3.249   0.209   9.099  0.2029  0.6462  0.9791
 5741SOL     OW28684   2.617   1.866   3.112  0.3810 -0.5339 -0.6455
 5741SOL    HW128685   2.684   1.896   3.051  0.6823 -1.7471 -0.9071
 5741SOL    HW228686   2.580   1.948   3.146 -0.4124 -0.8368 -0.7743
 5742SOL     OW28687   2.030   3.357  11.110  0.0177  0.3948 -0.0976
 5742SOL    HW128688   1.954   3.320  11.156  0.0040 -0.5708 -0.9068
 5742SOL    HW228689   2.001   3.445  11.088 -1.1998 -0.2212 -0.9175
 5743SOL     OW28690   0.921   4.178  10.188  0.4712  0.8665  0.6567
 5743SOL    HW128691   0.936   4.215  10.101  2.7846  0.0343  0.7278
 5743SOL    HW228692   0.826   4.170  10.197  0.6666 -2.2353 -0.3079
 5744SOL     OW28693   2.213   4.190  13.543  0.3044 -0.3056 -0.3648
 5744SOL    HW128694   2.180   4.239  13.619  1.6133 -2.1503  1.3992
 5744SOL    HW228695   2.267   4.261  13.508 -2.7044  1.9131 -0.4457
 5745SOL     OW28696   4.090   2.589   3.986 -0.1017  0.0656  0.6290
 5745SOL    HW128697   4.129   2.503   4.003  0.4314  0.9800  3.9871
 5745SOL    HW228698   4.025   2.574   3.917  1.3957  0.6728 -0.9240
 5746SOL     OW28699   1.287   0.752   4.969  0.4731  0.3547  0.2340
 5746SOL    HW128700   1.228   0.778   4.899 -1.3889  0.5364  1.8632
 5746SOL    HW228701   1.364   0.722   4.921  0.4641  1.8693 -0.7221
 5747SOL     OW28702   4.303   4.577   4.196  0.3919  0.2296  0.0791
 5747SOL    HW128703   4.333   4.660   4.160 -0.1506 -0.0229 -0.9503
 5747SOL    HW228704   4.226   4.577   4.140  1.6659 -2.2725 -1.6672
 5748SOL     OW28705   3.150   1.013   3.054 -0.7217  0.3139  0.0567
 5748SOL    HW128706   3.103   1.073   2.997 -2.6676 -0.8861  0.4000
 5748SOL    HW228707   3.161   1.055   3.140 -0.3567  1.9384 -0.7848
 5749SOL     OW28708   3.407   0.743  11.505 -0.5193  0.2629  0.6612
 5749SOL    HW128709   3.443   0.795  11.577 -0.5347 -1.5044  1.9460
 5749SOL    HW228710   3.478   0.685  11.479 -2.5130 -1.5595 -0.7497
 5750SOL     OW28711   0.970   1.887  11.437 -0.4963 -0.5687 -0.0654
 5750SOL    HW128712   0.988   1.802  11.396  1.8664 -0.4878  0.8017
 5750SOL    HW228713   0.877   1.883  11.457 -0.4286 -2.9466 -0.1743
 5751SOL     OW28714   2.084   3.983   9.525 -0.1085  0.5162  0.3447
 5751SOL    HW128715   2.001   3.989   9.573 -0.9635  0.6293 -1.1528
 5751SOL    HW228716   2.075   3.896   9.486  0.8021  1.1395 -1.2346
 5752SOL     OW28717   0.460   2.182   7.747  0.0492  0.0686  0.0949
 5752SOL    HW128718   0.436   2.140   7.830 -2.7566 -2.4200 -1.9823
 5752SOL    HW228719   0.544   2.142   7.725 -0.6435 -1.6832  0.6701
 5753SOL     OW28720   4.221   2.311   9.146 -0.0055  0.0436  0.3769
 5753SOL    HW128721   4.313   2.334   9.133 -0.0412  1.7353  2.9523
 5753SOL    HW228722   4.224   2.243   9.213 -0.1253  0.4467  0.7965
 5754SOL     OW28723   1.163   2.524  11.820 -0.1936 -0.6141 -0.0924
 5754SOL    HW128724   1.214   2.471  11.881 -0.2370 -0.3012  0.2195
 5754SOL    HW228725   1.219   2.499  11.747  0.1212 -0.9291  0.2574
 5755SOL     OW28726   3.699   0.092   4.779 -0.5088  0.2208  0.0276
 5755SOL    HW128727   3.647   0.012   4.783 -0.4337  0.3089  2.6392
 5755SOL    HW228728   3.697   0.110   4.685 -0.7313 -1.0769 -0.2123
 5756SOL     OW28729   3.653   0.833   5.194 -0.8270  0.7195 -0.1549
 5756SOL    HW128730   3.631   0.902   5.132 -1.3261  1.2874  0.6629
 5756SOL    HW228731   3.602   0.757   5.165 -0.0570  0.1753 -0.0963
 5757SOL     OW28732   3.000   0.400   0.056  0.3101  0.8194  0.6906
 5757SOL    HW128733   2.990   0.402   0.151 -2.9352 -1.1799  0.3858
 5757SOL    HW228734   2.918   0.356   0.037  1.7090 -0.7207 -1.7594
 5758SOL     OW28735   3.258   4.478   6.892  0.2708  0.0091  0.3747
 5758SOL    HW128736   3.333   4.438   6.849 -0.3364 -0.1896 -0.5014
 5758SOL    HW228737   3.292   4.501   6.979  2.4309  0.1434 -0.5024
 5759SOL     OW28738   2.372   1.884   4.955  0.1417  1.2771  0.4709
 5759SOL    HW128739   2.326   1.965   4.934 -3.1489 -0.8733 -0.6220
 5759SOL    HW228740   2.298   1.824   4.949  0.3911  1.2624 -2.7828
 5760SOL     OW28741   1.918   4.466   2.350  0.4847 -0.2031  0.2172
 5760SOL    HW128742   1.908   4.546   2.401 -0.6830  0.7517 -1.5320
 5760SOL    HW228743   2.007   4.444   2.378  1.0063  1.5221 -0.0848
 5761SOL     OW28744   2.891   1.493   6.809  0.3184 -0.2561  1.1039
 5761SOL    HW128745   2.982   1.523   6.819  0.0341  1.5662 -1.8053
 5761SOL    HW228746   2.879   1.437   6.886  1.8678 -2.3646 -0.1699
 5762SOL     OW28747   1.642   2.745   4.224  0.3481 -0.0847  0.2125
 5762SOL    HW128748   1.653   2.837   4.248  0.2799 -0.7886  2.9378
 5762SOL    HW228749   1.675   2.745   4.134  0.5732  0.9960  0.2969
 5763SOL     OW28750   3.733   4.134   7.704 -0.3625 -0.5673  0.5050
 5763SOL    HW128751   3.785   4.180   7.769 -0.8235  0.9137 -0.1741
 5763SOL    HW228752   3.651   4.157   7.747 -0.9607 -0.6004 -0.5960
 5764SOL     OW28753   3.997   3.781   9.398 -0.1061 -0.0305 -0.0249
 5764SOL    HW128754   4.064   3.847   9.379 -0.3033 -0.1269 -1.0795
 5764SOL    HW228755   4.045   3.714   9.448 -0.4598  0.8692  1.4991
 5765SOL     OW28756   1.989   2.257   8.791  0.3615 -0.0195  0.1174
 5765SOL    HW128757   2.021   2.172   8.821  1.5476  0.6718  0.7993
 5765SOL    HW228758   2.055   2.274   8.725  3.2654  0.0065  3.0215
 5766SOL     OW28759   0.981   4.119   7.060  0.2115 -0.1926 -0.2026
 5766SOL    HW128760   1.005   4.045   7.116  1.0796  0.9833  0.9578
 5766SOL    HW228761   0.893   4.138   7.093  0.1076 -0.6283 -0.2279
 5767SOL     OW28762   1.672   0.443   5.702  0.4200 -0.0377  0.2109
 5767SOL    HW128763   1.674   0.538   5.694 -1.9581  0.1165  1.3322
 5767SOL    HW228764   1.766   0.425   5.705 -0.0623 -2.5107  0.1710
 5768SOL     OW28765   3.879   0.397  15.880  0.0861  0.3282  0.3976
 5768SOL    HW128766   3.901   0.311  15.914  0.0693  0.0876 -0.1874
 5768SOL    HW228767   3.888   0.378  15.786 -1.2350 -0.5059  0.4290
 5769SOL     OW28768   4.702   1.125  12.956 -0.4286 -0.1316  0.5619
 5769SOL    HW128769   0.053   1.062  12.950  0.2401  0.6274  0.6574
 5769SOL    HW228770   0.021   1.187  12.895 -0.2537  0.7583  1.5719
 5770SOL     OW28771   1.380   0.689  15.517 -0.3095  0.0378  0.5353
 5770SOL    HW128772   1.370   0.757  15.450  0.5402 -1.4861 -1.1181
 5770SOL    HW228773   1.289   0.667  15.540  0.4325 -1.5532  1.9114
 5771SOL     OW28774   3.815   0.367   4.854  0.1995 -0.0046  0.0182
 5771SOL    HW128775   3.777   0.319   4.780 -2.3545 -1.4734  2.3026
 5771SOL    HW228776   3.771   0.452   4.846  3.2136  1.6489  1.0076
 5772SOL     OW28777   1.958   4.048  17.279  0.2424 -0.4190 -0.0471
 5772SOL    HW128778   1.944   4.131  17.233  0.2583 -1.5347 -2.0780
 5772SOL    HW228779   1.949   4.069  17.372  0.5171 -1.3435  0.1876
 5773SOL     OW28780   0.383   1.059   1.558 -0.6693  0.0633 -0.5026
 5773SOL    HW128781   0.308   1.114   1.582  0.0504  1.5949 -1.7400
 5773SOL    HW228782   0.416   1.036   1.645  0.0567 -2.3637 -1.4330
 5774SOL     OW28783   2.017   0.112   3.056 -0.4837  0.3720 -0.1726
 5774SOL    HW128784   2.080   0.122   2.985  0.8416  0.0659  0.9777
 5774SOL    HW228785   1.990   0.203   3.060 -0.5928  0.5054 -3.5086
 5775SOL     OW28786   3.904   4.199   7.460  0.0356  0.1062  0.7157
 5775SOL    HW128787   3.845   4.183   7.534 -0.8113  1.4356  0.3289
 5775SOL    HW228788   3.990   4.198   7.502  0.3540  1.7596  0.1244
 5776SOL     OW28789   2.674   0.608   0.514  0.7823 -0.4818 -0.2020
 5776SOL    HW128790   2.623   0.548   0.568  0.0184  1.1663  0.9036
 5776SOL    HW228791   2.763   0.582   0.539  0.5941 -0.5156  0.4362
 5777SOL     OW28792   3.495   4.226   3.209 -0.1271 -0.2763 -0.0134
 5777SOL    HW128793   3.545   4.281   3.269  0.5293 -3.5879  2.4561
 5777SOL    HW228794   3.547   4.243   3.131 -0.1773 -0.9310 -0.1834
 5778SOL     OW28795   1.261   3.671   3.057  0.1160  0.0616  0.4693
 5778SOL    HW128796   1.212   3.620   3.122  0.0283  0.0558  0.3987
 5778SOL    HW228797   1.346   3.677   3.100  0.4867  0.9060 -0.3857
 5779SOL     OW28798   1.160   2.431  11.285 -0.6086  0.1537  0.4874
 5779SOL    HW128799   1.083   2.384  11.317  0.2450  0.4743  2.9832
 5779SOL    HW228800   1.122   2.485  11.215 -2.4890 -0.1852  1.2302
 5780SOL     OW28801   1.270   2.566  17.673 -0.1059 -0.1287  0.2865
 5780SOL    HW128802   1.190   2.540   0.031  0.6366  0.2481  1.8218
 5780SOL    HW228803   1.237   2.646  17.634 -2.0228  0.0170  2.1843
 5781SOL     OW28804   1.563   1.158  16.251  0.8162  0.0755 -0.5231
 5781SOL    HW128805   1.584   1.071  16.218  0.0460 -0.8856  1.5030
 5781SOL    HW228806   1.567   1.144  16.346  0.9054 -1.2884 -0.7326
 5782SOL     OW28807   0.713   1.835  16.997  0.2952 -0.1090  0.0770
 5782SOL    HW128808   0.746   1.907  17.051  1.4461  1.2358 -2.4151
 5782SOL    HW228809   0.788   1.776  16.995  1.4258  1.3557 -1.3649
 5783SOL     OW28810   4.424   0.254   0.773 -0.1554 -0.1229 -0.6973
 5783SOL    HW128811   4.349   0.274   0.717 -0.4840 -0.6399 -0.4510
 5783SOL    HW228812   4.459   0.342   0.786 -1.6598  0.6418 -1.8325
 5784SOL     OW28813   0.956   1.214   5.246  0.3183  0.2693  0.0027
 5784SOL    HW128814   0.954   1.304   5.214  0.0903 -0.0153 -0.7961
 5784SOL    HW228815   0.925   1.221   5.336 -0.2211 -2.0448 -0.0087
 5785SOL     OW28816   1.718   2.019  12.913 -0.7424 -0.0488  0.7375
 5785SOL    HW128817   1.682   2.100  12.948  2.8808  2.1762 -0.6837
 5785SOL    HW228818   1.808   2.051  12.910 -0.4201 -0.9986  0.2453
 5786SOL     OW28819   0.529   4.455   4.214 -0.1327 -0.4738 -0.0325
 5786SOL    HW128820   0.564   4.539   4.183 -1.1454  0.1423  0.4964
 5786SOL    HW228821   0.436   4.473   4.222 -0.3897 -1.2886 -1.3208
 5787SOL     OW28822   0.291   2.385   0.733  0.0632 -0.1534  0.1831
 5787SOL    HW128823   0.246   2.346   0.808  1.1645 -1.6389  0.0792
 5787SOL    HW228824   0.361   2.421   0.786 -1.4655  0.1180  2.0126
 5788SOL     OW28825   0.124   3.080   3.859 -0.0382  0.2228 -0.1423
 5788SOL    HW128826   0.072   3.012   3.816 -1.3854  0.3258  1.3158
 5788SOL    HW228827   0.115   3.044   3.947 -2.9431 -0.4637 -0.7005
 5789SOL     OW28828   1.172   3.028   3.580 -0.0234  0.3998  0.0969
 5789SOL    HW128829   1.092   3.038   3.528  1.0064 -0.4814 -1.6639
 5789SOL    HW228830   1.234   3.078   3.525  1.0852 -0.1538  0.8491
 5790SOL     OW28831   3.759   0.049  15.611 -0.1570  0.4178  0.3658
 5790SOL    HW128832   3.721   0.052  15.524 -0.0333  0.7909  0.3257
 5790SOL    HW228833   3.815   0.126  15.620  0.6329 -0.3317  1.9640
 5791SOL     OW28834   0.355   1.496  14.344  0.1318 -0.0008 -0.0164
 5791SOL    HW128835   0.446   1.508  14.318 -0.9064  1.4438 -3.0273
 5791SOL    HW228836   0.366   1.446  14.425  0.2131  0.6543  0.3713
 5792SOL     OW28837   2.775   0.533   5.378  0.3614  0.2895  0.1948
 5792SOL    HW128838   2.839   0.518   5.309 -0.3954  1.6352 -0.7963
 5792SOL    HW228839   2.825   0.539   5.459 -0.2744  1.5362  0.5071
 5793SOL     OW28840   0.754   2.244   2.343  0.5239 -0.5199 -0.3708
 5793SOL    HW128841   0.756   2.324   2.291  2.2928  1.4060  2.6831
 5793SOL    HW228842   0.660   2.246   2.361  0.4082 -2.3064 -0.7556
 5794SOL     OW28843   1.292   1.555   5.419  0.0541  0.1790 -0.4181
 5794SOL    HW128844   1.210   1.602   5.430  0.3492  0.5008  0.3848
 5794SOL    HW228845   1.265   1.464   5.404 -2.6421  1.1204 -1.3066
 5795SOL     OW28846   0.880   3.533  13.346 -0.1029  0.2934 -0.3147
 5795SOL    HW128847   0.802   3.561  13.395 -0.3688 -0.2832 -0.4108
 5795SOL    HW228848   0.879   3.438  13.357 -0.2994  0.5548  2.0709
 5796SOL     OW28849   0.566   3.005  16.949 -0.6618  0.1414 -0.2730
 5796SOL    HW128850   0.598   2.984  16.862  1.0086  0.3162  0.2896
 5796SOL    HW228851   0.560   3.101  16.950  1.5316  0.2924 -0.7473
 5797SOL     OW28852   2.051   2.016  10.539  0.3602 -0.2737  0.3497
 5797SOL    HW128853   2.138   2.055  10.533 -0.6389  1.9540  0.3271
 5797SOL    HW228854   1.998   2.086  10.577  0.0733  0.2182 -0.9502
 5798SOL     OW28855   1.449   4.302  13.390 -0.1362 -0.3233 -0.6565
 5798SOL    HW128856   1.456   4.397  13.377 -0.0974 -0.1680  0.5046
 5798SOL    HW228857   1.400   4.268  13.315  0.3269 -0.6659 -0.7998
 5799SOL     OW28858   1.937   3.263   7.059 -0.4093 -0.3101  0.5158
 5799SOL    HW128859   2.031   3.280   7.061 -0.9995  2.8694  0.8253
 5799SOL    HW228860   1.912   3.354   7.069 -1.0964 -0.5943  1.3535
 5800SOL     OW28861   4.125   2.605   1.443  0.4673  0.1876 -0.3830
 5800SOL    HW128862   4.177   2.556   1.379  1.3601  0.4739  0.1223
 5800SOL    HW228863   4.079   2.661   1.381 -1.2546  0.5666  1.2217
 5801SOL     OW28864   3.288   3.773   5.052 -0.1488 -0.3642  0.4692
 5801SOL    HW128865   3.307   3.713   4.980 -0.1844  1.1250 -0.7921
 5801SOL    HW228866   3.277   3.713   5.125 -0.4108 -0.6397  0.2038
 5802SOL     OW28867   1.116   1.176   4.292 -0.2885 -0.1642  0.0436
 5802SOL    HW128868   1.167   1.238   4.240  1.6145 -0.0338  2.1091
 5802SOL    HW228869   1.185   1.110   4.288 -0.1879 -0.0650  0.1581
 5803SOL     OW28870   0.648   3.417   6.544 -0.3135  0.1277 -0.5874
 5803SOL    HW128871   0.698   3.456   6.616 -1.4380 -0.7081  0.6239
 5803SOL    HW228872   0.715   3.372   6.491 -1.0162 -1.0159 -0.4950
 5804SOL     OW28873   4.373   4.675   2.435  0.0063 -0.3905 -0.3890
 5804SOL    HW128874   4.407   4.675   2.525 -1.4808 -0.5455  0.1674
 5804SOL    HW228875   4.301   0.016   2.423 -1.9988 -2.9802 -1.9061
 5805SOL     OW28876   1.022   3.650   4.533 -0.1384  0.4091 -0.5911
 5805SOL    HW128877   1.104   3.610   4.560 -1.6272 -2.1783  0.1688
 5805SOL    HW228878   1.039   3.742   4.554 -2.4361  1.2609 -2.3431
 5806SOL     OW28879   3.451   4.127   2.815  0.2298 -0.4461  0.3317
 5806SOL    HW128880   3.393   4.054   2.836  0.7609 -0.6191  1.2458
 5806SOL    HW228881   3.533   4.092   2.850 -0.2410 -0.2914  1.5839
 5807SOL     OW28882   4.531   2.656   3.865 -0.1392  0.0881 -0.3788
 5807SOL    HW128883   4.480   2.583   3.829 -1.1776 -0.3262  1.9570
 5807SOL    HW228884   4.533   2.657   3.961 -2.2216 -1.2920 -0.3187
 5808SOL     OW28885   4.592   4.009   8.089 -0.2054 -0.0954  0.2751
 5808SOL    HW128886   4.627   4.058   8.014 -2.1474 -1.2089 -1.3714
 5808SOL    HW228887   4.519   3.965   8.046  0.1571  1.6310 -2.1032
 5809SOL     OW28888   2.545   4.095   8.151 -0.4168  0.9015  0.2466
 5809SOL    HW128889   2.559   4.005   8.181 -0.3924  1.3164  1.4889
 5809SOL    HW228890   2.621   4.143   8.184  1.0074 -1.3905  0.3014
 5810SOL     OW28891   3.885   1.673   9.261  0.5332 -0.0944 -0.0987
 5810SOL    HW128892   3.864   1.767   9.261 -2.0145 -0.6730  0.9371
 5810SOL    HW228893   3.924   1.676   9.174  0.7713 -1.9481 -0.0497
 5811SOL     OW28894   0.754   2.709  12.276 -0.8938 -0.2039 -0.0933
 5811SOL    HW128895   0.757   2.627  12.326  1.6928 -0.7725 -1.2012
 5811SOL    HW228896   0.788   2.773  12.339 -0.8470 -0.4588  0.1404
 5812SOL     OW28897   4.200   0.540   5.495  0.3154  0.3832 -0.2079
 5812SOL    HW128898   4.224   0.573   5.408 -2.4516 -2.9345 -2.2290
 5812SOL    HW228899   4.184   0.617   5.550 -0.0130  0.5866 -0.5872
 5813SOL     OW28900   3.539   1.573  16.471  0.3182 -0.3879  0.3494
 5813SOL    HW128901   3.490   1.593  16.550  1.1213  1.5914  0.3428
 5813SOL    HW228902   3.587   1.655  16.459 -0.1603 -0.2486 -0.6626
 5814SOL     OW28903   0.365   1.951   4.529 -0.1540 -1.1111 -0.2778
 5814SOL    HW128904   0.387   1.910   4.612  0.0805  1.7309  1.0378
 5814SOL    HW228905   0.363   1.866   4.484 -2.0155 -1.1795 -0.0861
 5815SOL     OW28906   4.497   0.652  11.478  0.1047  0.0752  0.0406
 5815SOL    HW128907   4.560   0.643  11.407  0.3198  1.6905  0.0460
 5815SOL    HW228908   4.548   0.616  11.551 -0.2563 -1.3910 -0.4141
 5816SOL     OW28909   0.829   4.112   6.355  0.2887  0.0143 -0.4921
 5816SOL    HW128910   0.831   4.016   6.351 -1.9860 -0.0780  1.0202
 5816SOL    HW228911   0.798   4.135   6.268  2.1403  1.0574 -0.8811
 5817SOL     OW28912   2.909   3.049   8.962  0.4410 -0.5311  0.1663
 5817SOL    HW128913   2.826   3.045   8.914  1.6222  2.0249 -2.1109
 5817SOL    HW228914   2.956   3.118   8.915 -1.3520  0.1438 -0.6512
 5818SOL     OW28915   3.561   3.114   6.389  0.2325 -0.2631  0.4411
 5818SOL    HW128916   3.487   3.055   6.373  0.6830 -1.0337  1.2199
 5818SOL    HW228917   3.611   3.119   6.307 -2.1696  1.8164 -0.9147
 5819SOL     OW28918   2.389   1.279   0.002  0.7807  0.2554  0.4358
 5819SOL    HW128919   2.448   1.302   0.074  0.8278 -0.2964  0.5764
 5819SOL    HW228920   2.327   1.235   0.061  1.4164 -1.0101  0.1681
 5820SOL     OW28921   2.961   3.366   7.081  0.6408  0.0499  0.4677
 5820SOL    HW128922   2.967   3.425   7.006 -0.0266  0.2446  0.5653
 5820SOL    HW228923   2.943   3.278   7.050 -1.4188  0.2408  1.0745
 5821SOL     OW28924   3.414   1.382   8.145  0.0056 -0.5882  0.1925
 5821SOL    HW128925   3.471   1.315   8.181  1.5715  1.0645  0.7782
 5821SOL    HW228926   3.407   1.362   8.052 -0.8129  1.2102 -0.1250
 5822SOL     OW28927   2.572   1.436   7.420  0.0149 -0.0283  0.1869
 5822SOL    HW128928   2.537   1.493   7.351 -0.1984 -0.6589 -0.2379
 5822SOL    HW228929   2.657   1.407   7.387  0.2113 -0.3966  1.0358
 5823SOL     OW28930   2.652   0.810   8.639  0.4389 -0.3420 -0.2434
 5823SOL    HW128931   2.703   0.836   8.716 -1.4433  0.0170  0.9106
 5823SOL    HW228932   2.567   0.791   8.680  0.5551 -1.5404 -0.5511
 5824SOL     OW28933   1.973   0.358  15.467  0.4455 -0.4441  0.1943
 5824SOL    HW128934   1.943   0.417  15.536  1.6545  0.4517 -0.0341
 5824SOL    HW228935   2.066   0.370  15.450 -0.0369  2.7793 -0.0501
 5825SOL     OW28936   2.172   1.410   7.550  0.0098  0.1118 -0.2386
 5825SOL    HW128937   2.267   1.412   7.561  0.0672 -0.3445 -0.6386
 5825SOL    HW228938   2.162   1.315   7.552 -0.1718  0.1313 -0.2528
 5826SOL     OW28939   0.539   3.997   3.768  0.8910 -0.2804  0.0208
 5826SOL    HW128940   0.469   3.932   3.763 -1.4860  2.2658  0.4877
 5826SOL    HW228941   0.512   4.054   3.697 -1.0469 -1.2443 -0.0146
 5827SOL     OW28942   1.720   1.448   4.536  0.3266 -0.3318  0.4145
 5827SOL    HW128943   1.737   1.395   4.458 -0.8338  0.2739 -0.2551
 5827SOL    HW228944   1.794   1.507   4.547 -0.1430  0.3815 -0.3075
 5828SOL     OW28945   1.415   3.895   8.554  0.1560 -0.1554  0.8022
 5828SOL    HW128946   1.465   3.975   8.569  1.3460 -0.6256 -0.6542
 5828SOL    HW228947   1.390   3.905   8.462  2.4563  1.5646  0.3656
 5829SOL     OW28948   1.799   2.744   5.776  0.1245  0.3303 -0.1864
 5829SOL    HW128949   1.801   2.767   5.683  0.2004  0.1430 -0.2320
 5829SOL    HW228950   1.707   2.718   5.783  0.3539 -1.4688 -3.6600
 5830SOL     OW28951   2.946   4.376   9.814  0.0301 -0.0339 -0.0194
 5830SOL    HW128952   2.975   4.386   9.723  0.1889  0.2569  0.0595
 5830SOL    HW228953   3.034   4.402   9.841  0.3900  1.1832 -2.3200
 5831SOL     OW28954   4.522   3.382   9.192 -0.7085  0.4110 -0.3831
 5831SOL    HW128955   4.510   3.442   9.266  2.6783 -1.7863  1.9452
 5831SOL    HW228956   4.439   3.336   9.185 -0.7145  0.4020 -0.2654
 5832SOL     OW28957   0.532   0.385   6.663  0.1178 -0.6348 -0.4851
 5832SOL    HW128958   0.570   0.302   6.633  2.2100 -0.0287  0.4423
 5832SOL    HW228959   0.613   0.434   6.650  0.2007 -0.4278  0.7678
 5833SOL     OW28960   3.125   3.210   9.695  0.2274  0.3783 -0.0459
 5833SOL    HW128961   3.087   3.130   9.658  0.0910  0.5453 -0.2693
 5833SOL    HW228962   3.200   3.173   9.740  0.8917 -0.5083 -1.8742
 5834SOL     OW28963   3.060   1.842   0.003  0.7479  0.1205  0.3488
 5834SOL    HW128964   3.010   1.761  17.675 -0.6349  1.2894 -1.3329
 5834SOL    HW228965   3.147   1.802  17.684  0.3747 -0.4313 -1.6389
 5835SOL     OW28966   2.968   3.614   5.312  0.3288  0.0983  0.9709
 5835SOL    HW128967   3.061   3.607   5.289 -0.2321  0.8580 -1.4697
 5835SOL    HW228968   2.971   3.708   5.331  0.1340  0.5028 -1.0479
 5836SOL     OW28969   2.998   2.758  16.149  0.5528  0.2400  0.0787
 5836SOL    HW128970   3.059   2.710  16.093  1.1488 -0.0308  0.9597
 5836SOL    HW228971   3.009   2.695  16.220 -0.1945  0.9043  0.7869
 5837SOL     OW28972   0.962   2.384   6.668  0.3692  0.6495  0.1740
 5837SOL    HW128973   0.941   2.329   6.593  0.8295 -1.1469  1.3704
 5837SOL    HW228974   0.922   2.336   6.740  0.4977 -2.0624 -1.5674
 5838SOL     OW28975   1.776   0.917  15.910 -0.7903  0.2674 -0.4581
 5838SOL    HW128976   1.718   0.907  15.835 -2.8163  3.6858  0.6466
 5838SOL    HW228977   1.859   0.933  15.865 -1.2253 -2.5418 -2.1969
 5839SOL     OW28978   2.287   2.934   2.489 -0.1306 -0.3125 -0.4075
 5839SOL    HW128979   2.315   2.909   2.401 -1.3700  1.6240 -1.3414
 5839SOL    HW228980   2.249   3.019   2.470  1.4617  0.8014  1.4064
 5840SOL     OW28981   2.141   4.699   6.376 -0.3285  0.0860 -0.0305
 5840SOL    HW128982   2.149   4.684   6.470 -2.7392 -0.8679  0.0258
 5840SOL    HW228983   2.160   0.069   6.353 -3.2228  0.2536 -1.7867
 5841SOL     OW28984   3.457   2.418   8.397  0.1024 -0.6292  0.6657
 5841SOL    HW128985   3.364   2.406   8.414  0.3211 -2.7104  0.4253
 5841SOL    HW228986   3.491   2.343   8.446  1.1694 -1.0133 -0.6460
 5842SOL     OW28987   2.889   3.351   7.351  0.5309 -0.5546 -0.4224
 5842SOL    HW128988   2.890   3.359   7.256  2.7406 -2.2066 -0.5364
 5842SOL    HW228989   2.976   3.313   7.364  1.4626  3.0488  3.8138
 5843SOL     OW28990   4.344   1.488  11.407  0.0537  0.2194 -0.9597
 5843SOL    HW128991   4.430   1.528  11.422  0.1130 -0.6071  0.9144
 5843SOL    HW228992   4.330   1.547  11.333  0.9064  1.1724 -0.3718
 5844SOL     OW28993   0.584   2.272  13.611  0.0127 -0.4912  0.4926
 5844SOL    HW128994   0.586   2.354  13.661  3.2087 -0.9631  1.1044
 5844SOL    HW228995   0.494   2.239  13.602 -0.5482  0.9202  0.9165
 5845SOL     OW28996   2.149   2.424   9.957 -0.3115 -0.5053 -0.0725
 5845SOL    HW128997   2.225   2.406  10.012 -0.1110  0.8260  0.1050
 5845SOL    HW228998   2.186   2.444   9.872 -0.3973  1.1102  0.2651
 5846SOL     OW28999   4.459   1.257   9.658 -0.7874  0.3330  0.3931
 5846SOL    HW129000   4.488   1.338   9.616 -1.2782 -0.9371 -2.3879
 5846SOL    HW229001   4.428   1.210   9.581  4.2823 -1.1334 -0.7985
 5847SOL     OW29002   3.028   1.522   4.580  0.6141  0.6920 -0.1790
 5847SOL    HW129003   3.086   1.538   4.654 -2.2352  2.0516  1.7731
 5847SOL    HW229004   2.951   1.576   4.600  0.9828  1.4245 -0.7276
 5848SOL     OW29005   4.521   0.220   2.698 -0.6487  0.5899  0.1585
 5848SOL    HW129006   4.431   0.242   2.673  0.2115  2.0688 -1.6939
 5848SOL    HW229007   4.525   0.125   2.692  0.3187  0.5137  1.9747
 5849SOL     OW29008   2.514   1.187   8.141  0.0341  0.2087 -0.4607
 5849SOL    HW129009   2.489   1.096   8.158 -2.0454  0.8448 -0.1297
 5849SOL    HW229010   2.543   1.179   8.050  0.5351 -0.2005 -0.2678
 5850SOL     OW29011   1.612   0.108   7.341 -0.5349  0.1793  0.2200
 5850SOL    HW129012   1.608   0.101   7.245  0.6795 -0.0413  0.1840
 5850SOL    HW229013   1.602   0.021   7.379 -1.3838 -0.6519 -1.8839
 5851SOL     OW29014   1.367   1.200   7.063  0.0245  0.3852  0.0664
 5851SOL    HW129015   1.420   1.279   7.059  0.8743 -0.1856  0.1434
 5851SOL    HW229016   1.355   1.196   7.158  1.2632 -1.8368  0.1397
 5852SOL     OW29017   1.328   1.261  15.936  0.1552 -0.3461 -0.7399
 5852SOL    HW129018   1.236   1.235  15.943  0.3314 -0.2873  1.6017
 5852SOL    HW229019   1.336   1.329  16.003 -1.5338 -1.2357  0.3569
 5853SOL     OW29020   0.838   2.345   7.600 -0.0556  0.3343  0.6913
 5853SOL    HW129021   0.790   2.263   7.593  0.9259 -0.1128 -0.7457
 5853SOL    HW229022   0.777   2.406   7.560 -1.7860 -1.3118  0.8319
 5854SOL     OW29023   0.518   1.309   7.877 -0.4316  0.2071  0.1069
 5854SOL    HW129024   0.538   1.314   7.971 -0.7745 -2.3741  0.3215
 5854SOL    HW229025   0.545   1.395   7.845  0.8116 -0.1015  0.3129
 5855SOL     OW29026   0.577   2.066   1.513 -0.7704 -0.0154  0.1556
 5855SOL    HW129027   0.513   2.021   1.458 -0.8163  1.5888 -1.1003
 5855SOL    HW229028   0.520   2.091   1.585 -0.7827  0.0542  0.1219
 5856SOL     OW29029   0.128   0.405   5.099 -0.0569 -0.1788  0.8048
 5856SOL    HW129030   0.095   0.495   5.091 -0.9156 -0.6710 -1.0775
 5856SOL    HW229031   0.049   0.365   5.135 -1.8607  0.0071 -2.9524
 5857SOL     OW29032   0.194   3.684  10.235  0.3439  0.1218 -0.3595
 5857SOL    HW129033   0.130   3.741  10.192 -0.7292  0.7292  2.0518
 5857SOL    HW229034   0.153   3.597  10.238  0.5332  0.0646  0.5484
 5858SOL     OW29035   2.539   3.391   5.071 -0.1736 -0.1111 -0.1030
 5858SOL    HW129036   2.572   3.464   5.019 -2.9991  3.4782  3.1150
 5858SOL    HW229037   2.580   3.405   5.157  1.0652  2.2173 -1.0716
 5859SOL     OW29038   4.341   1.364  17.583  0.0573  0.0840  0.3638
 5859SOL    HW129039   4.396   1.327  17.513 -2.7613  0.6983 -2.1674
 5859SOL    HW229040   4.352   1.458  17.574  0.0906  0.0366 -0.1400
 5860SOL     OW29041   3.027   0.856  12.154  0.5742  0.0762  0.2403
 5860SOL    HW129042   2.969   0.861  12.229 -0.0082 -1.1810 -0.1280
 5860SOL    HW229043   2.985   0.798  12.090  0.5629  0.8711 -0.4782
 5861SOL     OW29044   4.484   3.228   5.894 -0.3601 -0.5628  0.6076
 5861SOL    HW129045   4.524   3.298   5.945  1.0882 -0.6077 -0.4770
 5861SOL    HW229046   4.423   3.276   5.838  0.5007  0.8991  0.9302
 5862SOL     OW29047   2.639   0.807   1.132  0.0432 -0.4256 -0.2381
 5862SOL    HW129048   2.546   0.804   1.153 -0.2252  2.7677 -0.9094
 5862SOL    HW229049   2.659   0.727   1.083  1.1463 -1.3854  1.7630
 5863SOL     OW29050   2.358   0.200   8.246  0.5572  0.2644 -0.2414
 5863SOL    HW129051   2.324   0.142   8.178  1.1305 -2.7734  2.0758
 5863SOL    HW229052   2.369   0.154   8.329  2.4726 -0.8801 -1.1469
 5864SOL     OW29053   0.537   2.317   2.614  0.1803  0.4887  0.0268
 5864SOL    HW129054   0.562   2.321   2.706  2.1978  0.8796 -0.5301
 5864SOL    HW229055   0.593   2.387   2.581 -0.7320  1.6590  1.0049
 5865SOL     OW29056   1.683   1.580   7.192 -0.1012 -0.0507  0.4705
 5865SOL    HW129057   1.728   1.620   7.118  1.5326 -0.8850  1.0056
 5865SOL    HW229058   1.743   1.605   7.262  0.5743  1.1739 -0.5585
 5866SOL     OW29059   4.253   3.807   1.200  0.2676  0.2026 -0.1981
 5866SOL    HW129060   4.202   3.791   1.120  0.3859  2.6165 -0.7555
 5866SOL    HW229061   4.336   3.837   1.163 -0.4719  3.6942  0.9297
 5867SOL     OW29062   4.366   1.113   7.380  0.1130 -0.0090  0.4798
 5867SOL    HW129063   4.312   1.091   7.304  3.1758  0.4139 -1.7823
 5867SOL    HW229064   4.305   1.174   7.421 -1.8331 -0.5593 -1.6045
 5868SOL     OW29065   2.857   0.336   2.920 -0.9097  0.4306 -0.6996
 5868SOL    HW129066   2.811   0.420   2.918 -0.3237  0.7690  0.5960
 5868SOL    HW229067   2.815   0.298   2.843 -0.3316 -0.0682 -0.7708
 5869SOL     OW29068   0.424   2.865   8.166  0.4316  0.8792 -0.0666
 5869SOL    HW129069   0.373   2.940   8.137 -1.4565  0.5966  2.5510
 5869SOL    HW229070   0.510   2.908   8.165  0.0527  1.6218 -0.3434
 5870SOL     OW29071   0.851   3.899  17.586  0.5505  0.4458  0.0077
 5870SOL    HW129072   0.849   3.968  17.652 -0.5464 -2.0608  2.6098
 5870SOL    HW229073   0.761   3.883  17.558  0.3927  0.4036  0.5315
 5871SOL     OW29074   2.166   0.997   2.474 -0.1794  0.2430 -0.6582
 5871SOL    HW129075   2.165   1.003   2.569  0.4436  0.1745 -0.6478
 5871SOL    HW229076   2.095   1.054   2.443 -1.0807 -1.1668 -1.1806
 5872SOL     OW29077   0.039   4.684   9.975 -0.7272 -0.4432  0.0093
 5872SOL    HW129078   0.127   4.672   9.940  0.1409  4.2911  0.6003
 5872SOL    HW229079   4.717   0.024   9.916 -0.5847  0.1254  0.5012
 5873SOL     OW29080   3.973   0.318  11.182  0.1993  0.4481 -0.1595
 5873SOL    HW129081   3.995   0.224  11.182  1.6552  0.7984  0.0875
 5873SOL    HW229082   4.025   0.342  11.259  0.5416  1.7741 -0.8166
 5874SOL     OW29083   3.111   0.779  16.001 -0.2650  0.4175  0.4090
 5874SOL    HW129084   3.026   0.810  15.969  0.4708  0.5283 -1.4925
 5874SOL    HW229085   3.081   0.713  16.063  1.1229  0.2753  0.9374
 5875SOL     OW29086   0.669   2.444  13.818 -0.4061 -0.6007 -0.4169
 5875SOL    HW129087   0.624   2.492  13.888 -0.2935 -1.9198  0.5570
 5875SOL    HW229088   0.702   2.366  13.861  0.0081 -0.3963 -0.3622
 5876SOL     OW29089   0.790   2.240   1.370 -0.9396 -0.6764  0.9478
 5876SOL    HW129090   0.716   2.203   1.419 -1.3529 -0.2924  0.6116
 5876SOL    HW229091   0.772   2.209   1.281  0.0365 -0.1302  0.5547
 5877SOL     OW29092   2.129   1.204  16.965 -0.3029  0.1729  0.0500
 5877SOL    HW129093   2.053   1.244  17.007 -3.5998 -3.6343 -2.2452
 5877SOL    HW229094   2.130   1.122  17.014  1.1518 -0.5733 -1.2158
 5878SOL     OW29095   1.113   3.936   0.239 -0.5816  0.0795  0.0974
 5878SOL    HW129096   1.099   3.966   0.329 -1.0848  1.3752 -0.4232
 5878SOL    HW229097   1.074   4.008   0.190 -0.2839  0.5231  0.5136
 5879SOL     OW29098   3.049   1.433   7.969  0.0853 -0.2826 -0.2957
 5879SOL    HW129099   2.962   1.430   7.930 -0.3793 -1.5950  0.8417
 5879SOL    HW229100   3.085   1.520   7.952 -3.4710  1.2020 -0.1249
 5880SOL     OW29101   2.707   3.986  13.002  0.5532  0.9326 -1.2584
 5880SOL    HW129102   2.764   4.061  12.989  1.9075 -0.2657 -2.1840
 5880SOL    HW229103   2.739   3.923  12.938  2.3593  0.0223  0.5508
 5881SOL     OW29104   4.193   1.617   4.478 -0.1888 -0.0721 -0.2460
 5881SOL    HW129105   4.178   1.699   4.431  1.5010  2.0750  2.9764
 5881SOL    HW229106   4.123   1.609   4.544 -0.3382  1.8974 -0.1721
 5882SOL     OW29107   1.944   0.159   3.707 -0.2861 -0.2603  0.1448
 5882SOL    HW129108   1.975   0.097   3.641 -0.5704 -0.1147 -0.1253
 5882SOL    HW229109   1.941   0.098   3.781 -0.0703  0.3638  0.6596
 5883SOL     OW29110   4.415   2.189  10.099 -0.7177  0.1616 -0.4803
 5883SOL    HW129111   4.485   2.139  10.056 -1.9006 -1.5411 -0.4228
 5883SOL    HW229112   4.357   2.203  10.024 -2.7294 -1.8273  0.7240
 5884SOL     OW29113   1.577   2.237   8.975 -0.1741  0.4337  0.0810
 5884SOL    HW129114   1.522   2.266   8.902  0.1322 -2.0898 -1.1627
 5884SOL    HW229115   1.525   2.173   9.024  0.7704 -1.9559 -2.0073
 5885SOL     OW29116   2.812   4.033  11.856 -0.1667  0.1291 -0.0199
 5885SOL    HW129117   2.872   4.107  11.848 -0.2723  0.3261  1.0390
 5885SOL    HW229118   2.837   3.989  11.775  0.1651  0.6460 -0.1959
 5886SOL     OW29119   1.173   1.359  12.629  0.1046 -0.5505 -0.2017
 5886SOL    HW129120   1.160   1.296  12.557 -0.9056  1.3341 -1.6819
 5886SOL    HW229121   1.268   1.360  12.642 -0.0159 -2.5952  0.8204
 5887SOL     OW29122   3.561   1.736   7.574 -0.1525 -0.3364  0.3426
 5887SOL    HW129123   3.647   1.773   7.553 -0.5437 -0.2741 -1.1036
 5887SOL    HW229124   3.505   1.798   7.528  2.4286  1.0017 -1.0175
 5888SOL     OW29125   1.896   3.852  16.687  0.5873 -0.3908 -0.3098
 5888SOL    HW129126   1.975   3.876  16.639  2.1280 -1.0700  1.8518
 5888SOL    HW229127   1.835   3.831  16.616  1.4951 -1.7767 -0.6772
 5889SOL     OW29128   0.832   0.781   3.535 -0.1948 -0.1274 -0.4281
 5889SOL    HW129129   0.772   0.779   3.610 -0.1779  1.7214 -0.3525
 5889SOL    HW229130   0.846   0.689   3.512  2.8110  0.2162  0.1080
 5890SOL     OW29131   1.358   3.160  10.816 -0.2968  0.1190 -0.0822
 5890SOL    HW129132   1.264   3.169  10.801 -0.0598 -1.2410 -2.4756
 5890SOL    HW229133   1.389   3.222  10.750  1.9944 -0.9367 -0.0155
 5891SOL     OW29134   2.332   2.154   1.161  0.2438  0.0366 -0.3030
 5891SOL    HW129135   2.312   2.163   1.254 -1.1045  0.5763 -0.6415
 5891SOL    HW229136   2.258   2.199   1.120  3.3030  1.8119 -3.8300
 5892SOL     OW29137   3.356   0.470   0.695 -0.1845  0.5063  0.1796
 5892SOL    HW129138   3.339   0.408   0.766  1.1041  0.4224  0.4115
 5892SOL    HW229139   3.289   0.536   0.713  1.0567  1.8752 -0.2035
 5893SOL     OW29140   3.723   4.599  11.488 -0.3016 -0.2264  0.1542
 5893SOL    HW129141   3.661   4.666  11.520  0.4200  0.6342 -0.2397
 5893SOL    HW229142   3.724   4.617  11.394 -1.3836  2.4026  0.6272
 5894SOL     OW29143   1.818   1.087   0.916 -0.2833  0.3289 -0.1407
 5894SOL    HW129144   1.754   1.155   0.899  0.4538  0.9161 -0.5791
 5894SOL    HW229145   1.785   1.062   1.002  0.0501 -2.9105 -0.9573
 5895SOL     OW29146   1.546   3.967   2.016 -0.1960  0.1001 -0.0635
 5895SOL    HW129147   1.471   3.933   1.967  0.3513  2.0831 -2.2788
 5895SOL    HW229148   1.618   3.963   1.954 -0.0085  4.6048 -0.1454
 5896SOL     OW29149   3.120   0.094   2.791 -0.3482  0.1902  0.0783
 5896SOL    HW129150   3.045   0.114   2.735 -0.0692  0.4402 -0.2098
 5896SOL    HW229151   3.143   0.181   2.826 -0.7687  0.4598 -0.3125
 5897SOL     OW29152   1.559   2.418   3.676  0.1422 -0.1243  0.1789
 5897SOL    HW129153   1.490   2.450   3.618  0.7979 -0.3237 -0.7092
 5897SOL    HW229154   1.513   2.425   3.760  0.2030  1.8202  0.0611
 5898SOL     OW29155   0.201   3.732  13.934 -0.6663 -0.1003  0.3802
 5898SOL    HW129156   0.173   3.786  13.860 -1.1369 -1.5380 -0.5027
 5898SOL    HW229157   0.134   3.663  13.931 -0.0275 -0.7003 -0.1860
 5899SOL     OW29158   3.971   3.322  14.162 -1.0903  0.1852  0.8084
 5899SOL    HW129159   3.954   3.402  14.211  0.9875  0.2282  1.4460
 5899SOL    HW229160   3.971   3.344  14.068 -0.1408  0.1230  0.7973
 5900SOL     OW29161   3.633   1.131  17.623  0.2408 -0.2414  0.2687
 5900SOL    HW129162   3.549   1.093  17.598  0.3830 -0.1300 -0.3570
 5900SOL    HW229163   3.610   1.222  17.602  0.8208 -0.0418  0.4958
 5901SOL     OW29164   1.204   1.899   1.411 -0.4267 -0.1496  1.2124
 5901SOL    HW129165   1.128   1.954   1.429 -0.8556 -0.5438  0.5901
 5901SOL    HW229166   1.240   1.897   1.499  0.0040 -4.6103  0.9231
 5902SOL     OW29167   1.154   2.202  11.907 -0.0247  0.4260 -0.5953
 5902SOL    HW129168   1.115   2.275  11.954  0.1435 -1.1867  2.0291
 5902SOL    HW229169   1.116   2.131  11.960  0.7171  0.4125 -0.0829
 5903SOL     OW29170   3.024   3.261   6.329  0.2722 -0.1193  0.1417
 5903SOL    HW129171   3.034   3.194   6.262  0.0959 -0.3193  0.3169
 5903SOL    HW229172   2.982   3.329   6.276 -0.6107 -0.2693  0.6409
 5904SOL     OW29173   4.554   4.542   9.688  0.0948 -0.3774  0.1014
 5904SOL    HW129174   4.642   4.548   9.651  0.6564  0.1287  1.5532
 5904SOL    HW229175   4.491   4.553   9.616  1.5208 -0.7767 -1.2100
 5905SOL     OW29176   2.840   2.246   6.590 -0.3144  0.1837  0.3401
 5905SOL    HW129177   2.858   2.322   6.536  1.7823 -0.4370  0.1429
 5905SOL    HW229178   2.812   2.190   6.518  2.1539 -2.2722  1.2733
 5906SOL     OW29179   1.568   1.157   4.334  0.3984  0.7501  0.4974
 5906SOL    HW129180   1.603   1.130   4.249 -1.3305 -2.4644  0.8015
 5906SOL    HW229181   1.595   1.091   4.398 -2.8091 -1.2713 -0.2305
 5907SOL     OW29182   4.387   3.008  15.372 -0.2232 -0.0373  0.4970
 5907SOL    HW129183   4.405   3.052  15.456 -2.9705 -0.6855  1.4380
 5907SOL    HW229184   4.434   3.066  15.313 -1.5053 -0.0992 -0.5818
 5908SOL     OW29185   3.850   0.154  13.506 -0.1990 -0.2022  0.0511
 5908SOL    HW129186   3.906   0.078  13.493 -0.6290 -1.2414  4.2546
 5908SOL    HW229187   3.886   0.204  13.433  1.3687 -2.0331 -0.4433
 5909SOL     OW29188   4.382   0.478   6.002  0.2726  0.3743 -0.2935
 5909SOL    HW129189   4.463   0.430   6.014  0.5988  1.0651  0.2602
 5909SOL    HW229190   4.346   0.434   5.925 -0.5887 -2.2690  1.6700
 5910SOL     OW29191   3.043   4.658  13.009  0.0988 -0.2580 -0.0209
 5910SOL    HW129192   3.070   0.024  12.980  0.5035  0.2151  1.7899
 5910SOL    HW229193   2.993   4.639  12.929  1.0640  2.1410 -1.1990
 5911SOL     OW29194   0.532   4.699   1.901  0.1470  0.6918  0.0263
 5911SOL    HW129195   0.585   0.051   1.934  0.3670  0.2803  0.5883
 5911SOL    HW229196   0.501   4.656   1.981  1.4062  0.6523  0.4966
 5912SOL     OW29197   2.973   0.405   8.188  0.2246  0.1897 -0.2307
 5912SOL    HW129198   3.009   0.390   8.100  1.0923  0.5562  0.0530
 5912SOL    HW229199   2.923   0.484   8.168 -0.3882 -0.0625  0.3494
 5913SOL     OW29200   0.393   0.476   5.018 -0.5189 -0.1911 -0.4384
 5913SOL    HW129201   0.329   0.415   5.055 -3.7607  2.7280 -1.3218
 5913SOL    HW229202   0.464   0.480   5.082 -0.6178  0.9860 -0.4153
 5914SOL     OW29203   2.905   1.489  10.331 -0.2093  0.0905  0.8449
 5914SOL    HW129204   2.840   1.451  10.389 -0.2075 -1.8458 -0.4232
 5914SOL    HW229205   2.981   1.497  10.388  1.3524 -1.0293 -1.0858
 5915SOL     OW29206   3.145   1.329   6.121  0.1698  0.4395  0.5502
 5915SOL    HW129207   3.106   1.396   6.065 -1.5683 -0.2502  0.9519
 5915SOL    HW229208   3.153   1.249   6.069 -1.2329  0.5151  0.2276
 5916SOL     OW29209   4.423   4.014   7.211  0.0273  0.0211  0.7047
 5916SOL    HW129210   4.378   4.033   7.128 -1.7793 -5.0469  0.5118
 5916SOL    HW229211   4.400   4.097   7.252  0.6494 -0.4281  1.9439
 5917SOL     OW29212   2.853   0.601   2.605 -0.3575  0.7176  0.2479
 5917SOL    HW129213   2.804   0.518   2.605  0.4705  0.2263  0.2279
 5917SOL    HW229214   2.937   0.564   2.579 -0.1444  1.2530  0.1867
 5918SOL     OW29215   1.539   1.202   3.495 -0.1534 -0.0923 -0.4156
 5918SOL    HW129216   1.600   1.206   3.422 -0.9489  0.0057 -1.0813
 5918SOL    HW229217   1.603   1.252   3.545 -0.9257  0.6321 -0.1429
 5919SOL     OW29218   0.813   2.775  11.898  0.3266 -0.0855 -0.3947
 5919SOL    HW129219   0.767   2.695  11.923  0.0294  0.3713  0.5142
 5919SOL    HW229220   0.864   2.744  11.823 -1.2560  0.5160 -1.7256
 5920SOL     OW29221   1.877   4.653  14.914  0.1236 -0.1979  0.3815
 5920SOL    HW129222   1.917   4.673  14.829  0.3578  2.6234  1.1534
 5920SOL    HW229223   1.833   4.573  14.885  0.9974  0.4435 -2.7251
 5921SOL     OW29224   3.975   3.746   9.933  0.2611  0.7486  0.8788
 5921SOL    HW129225   3.963   3.836   9.902 -1.1293  0.2614  0.0079
 5921SOL    HW229226   3.900   3.732   9.990  1.6318  0.5656  2.6294
 5922SOL     OW29227   2.680   0.662   6.742  0.0789 -0.6264 -0.8787
 5922SOL    HW129228   2.709   0.742   6.699 -0.2727  1.1620  2.2031
 5922SOL    HW229229   2.706   0.591   6.683 -1.0112 -0.2481 -1.8087
 5923SOL     OW29230   2.288   2.763  13.732 -0.2816 -0.0480  0.5936
 5923SOL    HW129231   2.233   2.830  13.772 -0.5887 -0.4756  0.8860
 5923SOL    HW229232   2.301   2.700  13.803  1.5364  1.0707  1.2223
 5924SOL     OW29233   0.085   1.315   6.085  0.2971  0.1714 -1.1607
 5924SOL    HW129234   0.021   1.345   6.150 -1.0615  0.4046 -2.5934
 5924SOL    HW229235   0.127   1.395   6.054  0.2871  0.5895 -0.0987
 5925SOL     OW29236   3.372   4.474  11.153  0.3374  0.6831 -0.2566
 5925SOL    HW129237   3.415   4.421  11.086 -0.4488 -0.2827  0.0040
 5925SOL    HW229238   3.383   4.411  11.225 -2.6867 -0.0796 -0.4605
 5926SOL     OW29239   1.614   2.784   4.637 -0.3311 -0.3840  0.4431
 5926SOL    HW129240   1.646   2.711   4.584 -0.4172  0.0567 -0.2180
 5926SOL    HW229241   1.523   2.758   4.654 -0.7766  2.0970  1.8240
 5927SOL     OW29242   4.522   0.303  13.352 -0.8091  0.7105  0.2878
 5927SOL    HW129243   4.563   0.242  13.292 -2.4283 -1.3740  1.2761
 5927SOL    HW229244   4.590   0.369  13.364  0.7112 -0.5673 -1.4324
 5928SOL     OW29245   1.086   3.113   8.474 -0.6845 -0.4024 -0.2157
 5928SOL    HW129246   1.011   3.123   8.533 -0.0582 -1.2060  0.7017
 5928SOL    HW229247   1.088   3.205   8.446  1.5218 -0.1619  0.6524
 5929SOL     OW29248   3.310   1.661   2.215  0.0085  0.2142 -0.6504
 5929SOL    HW129249   3.280   1.635   2.128  1.5217 -1.2594 -0.7428
 5929SOL    HW229250   3.235   1.656   2.274  0.8687  0.8435  0.5207
 5930SOL     OW29251   0.734   2.257   8.915 -0.0888  0.2754 -0.1136
 5930SOL    HW129252   0.775   2.284   8.997  0.0264  2.5966 -0.9408
 5930SOL    HW229253   0.666   2.197   8.948  0.6112 -0.0800  0.6940
 5931SOL     OW29254   2.529   4.376   7.140  0.3548  0.7249  0.1441
 5931SOL    HW129255   2.541   4.319   7.216  0.9154  1.3768  0.5511
 5931SOL    HW229256   2.509   4.304   7.081  2.6612 -1.0352  1.4738
 5932SOL     OW29257   1.891   1.744   8.420 -0.2063 -0.0850  0.0211
 5932SOL    HW129258   1.797   1.728   8.433 -0.2992  1.9028  1.8505
 5932SOL    HW229259   1.915   1.723   8.511  0.8938  0.2605 -0.1876
 5933SOL     OW29260   4.097   1.818   2.513  0.0336 -0.6349 -0.3973
 5933SOL    HW129261   4.107   1.791   2.604 -1.6633 -2.6506 -0.8222
 5933SOL    HW229262   4.185   1.816   2.476  0.9593  0.7289  1.7201
 5934SOL     OW29263   1.576   1.115  15.381 -0.1372  0.3680  0.2012
 5934SOL    HW129264   1.667   1.104  15.407 -1.2467 -1.7820  3.1981
 5934SOL    HW229265   1.552   1.204  15.408  0.1139  0.3197  0.5839
 5935SOL     OW29266   0.612   1.621   8.001  0.2139  0.1411  0.0901
 5935SOL    HW129267   0.527   1.657   8.026 -0.1233 -2.1212  2.1736
 5935SOL    HW229268   0.590   1.588   7.914  1.1660 -0.2342 -0.0148
 5936SOL     OW29269   1.094   1.781   3.993 -0.0437  0.1150  0.5492
 5936SOL    HW129270   1.095   1.726   4.072  1.8119  0.0849  0.5135
 5936SOL    HW229271   1.111   1.864   4.036  1.3789  0.3835 -0.5243
 5937SOL     OW29272   0.275   0.138  12.334  0.4264 -0.3546  0.3251
 5937SOL    HW129273   0.224   0.108  12.409 -1.2195  0.3264 -0.5304
 5937SOL    HW229274   0.307   0.223  12.365  1.3887 -0.3222 -0.7526
 5938SOL     OW29275   0.923   3.299   5.605 -0.3915  0.1295  0.3655
 5938SOL    HW129276   0.992   3.354   5.569  0.5437 -1.8248 -0.8584
 5938SOL    HW229277   0.937   3.329   5.694  1.0128  0.3637  0.0639
 5939SOL     OW29278   1.677   3.836   8.398 -0.5628  0.4455  0.0005
 5939SOL    HW129279   1.670   3.749   8.360  3.0742  0.9741 -1.8549
 5939SOL    HW229280   1.671   3.812   8.490  0.4302  1.4680  0.3308
 5940SOL     OW29281   2.987   0.413   6.192 -0.2473 -0.1401  0.0770
 5940SOL    HW129282   2.918   0.352   6.167  0.1459 -0.6245  0.1544
 5940SOL    HW229283   2.987   0.488   6.133 -0.6922  0.0078  0.2720
 5941SOL     OW29284   3.482   0.451   1.449 -0.0722  0.0554  0.2856
 5941SOL    HW129285   3.445   0.539   1.453 -1.6593 -0.5644 -0.4040
 5941SOL    HW229286   3.409   0.401   1.411 -1.3336  0.4169  2.2502
 5942SOL     OW29287   0.615   2.307   6.505 -0.2484  0.7147  0.6050
 5942SOL    HW129288   0.576   2.274   6.585 -3.1575  2.7652  0.0251
 5942SOL    HW229289   0.605   2.402   6.519  1.4687  0.9828  0.0761
 5943SOL     OW29290   1.837   4.695   7.126 -0.5566  0.0660 -0.2414
 5943SOL    HW129291   1.920   4.652   7.106 -0.3547 -0.3223  1.3970
 5943SOL    HW229292   1.849   0.063   7.095  1.1279  0.5120  1.7016
 5944SOL     OW29293   0.951   0.585   2.171  0.2309 -0.4340  0.3764
 5944SOL    HW129294   1.045   0.568   2.168  0.2894 -0.5964  3.0337
 5944SOL    HW229295   0.947   0.668   2.219 -0.6635 -0.7526  0.8623
 5945SOL     OW29296   3.431   2.238   7.445 -0.5481  0.1385 -0.0932
 5945SOL    HW129297   3.341   2.246   7.478 -0.3110 -1.1148  0.8587
 5945SOL    HW229298   3.486   2.252   7.522  1.3202  1.0761 -1.6045
 5946SOL     OW29299   2.055   0.410   9.726 -0.0359 -0.4626 -0.2637
 5946SOL    HW129300   1.968   0.381   9.698  0.5055 -2.0028 -0.3626
 5946SOL    HW229301   2.063   0.474   9.655 -0.4888  0.0381  0.1379
 5947SOL     OW29302   2.289   0.866   3.001 -0.0036  0.3346  0.3731
 5947SOL    HW129303   2.199   0.851   2.971  0.4403  1.5366 -1.5324
 5947SOL    HW229304   2.332   0.902   2.924  2.3043  1.2320  2.1069
 5948SOL     OW29305   2.567   2.084  10.825 -0.1726 -0.0481  0.2676
 5948SOL    HW129306   2.641   2.128  10.867 -0.2309  0.3999 -0.0940
 5948SOL    HW229307   2.605   1.999  10.804  1.6922  0.9554 -0.3868
 5949SOL     OW29308   1.362   4.346   7.886  0.4325 -0.2235 -0.2802
 5949SOL    HW129309   1.422   4.324   7.958 -1.1636 -2.8367  0.2477
 5949SOL    HW229310   1.300   4.273   7.886  0.5978 -0.3680  0.1249
 5950SOL     OW29311   0.690   0.579  10.929  0.5247  0.1702 -0.1099
 5950SOL    HW129312   0.676   0.595  10.835 -1.3119  1.0960  0.3168
 5950SOL    HW229313   0.751   0.506  10.920 -0.0592 -0.0126 -2.5993
 5951SOL     OW29314   0.636   1.380   0.465  0.1562  0.2760  0.4508
 5951SOL    HW129315   0.645   1.434   0.387  0.2251 -1.7232 -0.9400
 5951SOL    HW229316   0.586   1.440   0.521 -0.4542 -1.0101  1.2845
 5952SOL     OW29317   1.008   3.394   0.105 -0.3329 -0.5480 -0.5227
 5952SOL    HW129318   1.070   3.393   0.031  2.7094 -1.2875  2.0632
 5952SOL    HW229319   0.986   3.487   0.110  3.4577  0.5326 -3.4010
 5953SOL     OW29320   0.433   2.126   1.733  0.0282  0.0426  0.1699
 5953SOL    HW129321   0.423   2.198   1.796 -1.2130  2.1623 -2.4390
 5953SOL    HW229322   0.351   2.081   1.754  0.7322 -0.7917  1.0812
 5954SOL     OW29323   1.078   2.354   4.498  0.3623 -0.2571 -0.0164
 5954SOL    HW129324   1.063   2.420   4.565  1.4340  0.7251 -0.7445
 5954SOL    HW229325   0.989   2.319   4.498  0.9118 -1.6699 -2.3327
 5955SOL     OW29326   2.070   1.059  10.887  0.5446 -0.2639 -0.1930
 5955SOL    HW129327   2.052   1.131  10.826 -0.9789 -1.5890 -1.2859
 5955SOL    HW229328   2.109   0.995  10.828  3.6660  1.0985  0.3880
 5956SOL     OW29329   4.407   2.363   7.877  0.0972 -0.1784  0.3683
 5956SOL    HW129330   4.479   2.376   7.815  0.2234 -2.6051 -0.0301
 5956SOL    HW229331   4.387   2.450   7.910  3.2252  1.3479 -1.7721
 5957SOL     OW29332   2.345   4.539   8.191  0.4424 -0.2243  0.0127
 5957SOL    HW129333   2.337   4.559   8.284  0.9148  1.8852 -0.3961
 5957SOL    HW229334   2.254   4.548   8.164  0.8456  3.6582  0.0150
 5958SOL     OW29335   2.452   3.965  13.668  0.2565 -0.2143 -0.3181
 5958SOL    HW129336   2.484   4.055  13.681  0.5448 -0.2804 -0.5623
 5958SOL    HW229337   2.376   3.963  13.726  1.2086  0.8804  0.9762
 5959SOL     OW29338   1.689   2.527   3.458  0.3323 -0.0569 -0.5414
 5959SOL    HW129339   1.684   2.497   3.548  1.1787 -0.0917 -0.5071
 5959SOL    HW229340   1.753   2.464   3.426  0.4667 -2.1018  3.7277
 5960SOL     OW29341   1.745   3.880   5.966  0.6635 -0.1073 -0.0889
 5960SOL    HW129342   1.761   3.897   6.059 -1.4567 -3.8577  0.9705
 5960SOL    HW229343   1.769   3.788   5.955 -0.0656 -0.4477  1.1900
 5961SOL     OW29344   1.234   1.050   7.338 -0.0724  0.3998  0.2336
 5961SOL    HW129345   1.270   0.967   7.308  0.9070  0.3838  1.4826
 5961SOL    HW229346   1.305   1.114   7.339 -0.9978  1.4389 -0.3553
 5962SOL     OW29347   1.694   4.692   6.420  0.0116  0.5193  0.2018
 5962SOL    HW129348   1.705   4.627   6.490  0.0625 -2.7910 -2.8787
 5962SOL    HW229349   1.721   0.053   6.459 -1.1198  0.2770  1.4932
 5963SOL     OW29350   2.899   4.511   9.032  0.1574 -0.1664  0.2249
 5963SOL    HW129351   2.838   4.487   9.102 -1.5942  2.2851 -0.4690
 5963SOL    HW229352   2.962   4.440   9.027 -0.4161 -0.9221  3.4200
 5964SOL     OW29353   1.384   2.818   4.252  0.5370 -0.1059 -0.0499
 5964SOL    HW129354   1.455   2.765   4.214  0.4421  0.8972 -1.6305
 5964SOL    HW229355   1.325   2.821   4.177 -0.1514  0.7570  0.5381
 5965SOL     OW29356   2.795   2.487  13.644  0.2273 -0.2090 -0.0797
 5965SOL    HW129357   2.756   2.438  13.716  1.0485  0.0035  0.5029
 5965SOL    HW229358   2.838   2.563  13.683  0.5309  0.7987 -2.3404
 5966SOL     OW29359   0.385   1.029  17.671 -0.1630 -0.0693 -0.0764
 5966SOL    HW129360   0.361   1.094  17.605 -1.4735  0.2409  0.6953
 5966SOL    HW229361   0.381   0.948  17.620  2.1206 -1.2440  1.6411
 5967SOL     OW29362   2.509   2.913   7.634  0.1602  0.2644 -0.3245
 5967SOL    HW129363   2.497   2.927   7.540  0.5816 -1.2718 -0.5976
 5967SOL    HW229364   2.572   2.842   7.624 -1.1571 -1.1438  1.6315
 5968SOL     OW29365   1.014   4.388  15.669 -0.2136 -0.7448  0.6309
 5968SOL    HW129366   0.995   4.336  15.591 -0.6358 -0.0064  0.2441
 5968SOL    HW229367   1.108   4.373  15.678 -0.1059 -0.3369  0.1259
 5969SOL     OW29368   2.669   3.355  10.689  0.4902  0.0800  0.0868
 5969SOL    HW129369   2.667   3.449  10.675  1.0956  0.2835  1.4420
 5969SOL    HW229370   2.592   3.320  10.642  0.3906  0.0137  0.2990
 5970SOL     OW29371   1.722   2.474   2.043  0.0410  0.4166 -0.4669
 5970SOL    HW129372   1.816   2.462   2.061  0.2798  0.3305 -1.7882
 5970SOL    HW229373   1.729   2.539   1.973 -0.7936  0.6152 -0.3598
 5971SOL     OW29374   0.156   3.506   5.035 -0.0232 -0.1649  0.7725
 5971SOL    HW129375   0.119   3.420   5.020  1.0770 -0.6478  0.8177
 5971SOL    HW229376   0.182   3.489   5.125 -1.4922  1.9300  1.6010
 5972SOL     OW29377   4.581   2.793   6.021  0.2216 -0.0957 -0.3216
 5972SOL    HW129378   4.583   2.787   6.117  0.0807 -0.6038 -0.3517
 5972SOL    HW229379   4.628   2.874   6.003  0.9496  0.3606  3.6458
 5973SOL     OW29380   1.403   1.084   2.902  0.4636 -0.5089 -0.3355
 5973SOL    HW129381   1.356   1.160   2.934  0.7815  0.2845 -1.7468
 5973SOL    HW229382   1.385   1.009   2.959 -0.4330  0.7420  1.0052
 5974SOL     OW29383   3.786   1.710   7.930  0.1267 -0.6189 -0.4154
 5974SOL    HW129384   3.769   1.730   8.022 -0.0481 -0.2656 -0.5265
 5974SOL    HW229385   3.703   1.742   7.895  0.9243  0.5468 -1.2448
 5975SOL     OW29386   0.575   0.666  12.705 -0.2747 -0.2124 -0.7214
 5975SOL    HW129387   0.514   0.608  12.751 -0.3847 -0.4445 -1.1571
 5975SOL    HW229388   0.645   0.606  12.679 -1.5798 -2.2807  0.5563
 5976SOL     OW29389   1.600   0.861   6.193 -1.0851 -0.0106 -0.6838
 5976SOL    HW129390   1.609   0.777   6.148 -1.4479  0.5257 -1.7476
 5976SOL    HW229391   1.505   0.867   6.190 -1.0880 -0.7323 -1.9296
 5977SOL     OW29392   1.367   4.564  11.395  0.4296  0.1467 -0.2190
 5977SOL    HW129393   1.323   4.626  11.454  0.8279  0.5510 -0.3465
 5977SOL    HW229394   1.334   4.586  11.308  0.9545 -1.4015 -0.8172
 5978SOL     OW29395   1.694   2.711   9.083 -0.4256 -0.4241 -0.0101
 5978SOL    HW129396   1.660   2.622   9.092  0.5942 -0.8403 -0.3717
 5978SOL    HW229397   1.786   2.690   9.098 -1.1860 -1.9643  2.3396
 5979SOL     OW29398   0.339   0.447   0.866 -0.0619 -0.8560  0.1296
 5979SOL    HW129399   0.350   0.539   0.842  2.9504 -0.9265  1.3004
 5979SOL    HW229400   0.258   0.428   0.818 -1.2059  1.5099  1.1639
 5980SOL     OW29401   1.097   3.175   5.992 -0.4019  0.2288 -0.0420
 5980SOL    HW129402   1.188   3.199   5.974  0.7288 -1.5637  3.1759
 5980SOL    HW229403   1.090   3.106   5.926  0.5902 -1.7585  1.8968
 5981SOL     OW29404   0.532   0.991   1.352 -0.0652  1.1281  0.2808
 5981SOL    HW129405   0.480   1.028   1.423 -2.0432 -1.7757  0.3352
 5981SOL    HW229406   0.565   1.075   1.319 -0.7319  0.8234 -1.1717
 5982SOL     OW29407   2.492   2.715  10.964  0.6118 -0.1905 -0.2577
 5982SOL    HW129408   2.579   2.697  10.927  0.4002  0.5570 -1.1049
 5982SOL    HW229409   2.524   2.732  11.052  1.3851  1.4314 -0.8546
 5983SOL     OW29410   3.100   4.483   8.587 -0.4159  0.3952 -0.0853
 5983SOL    HW129411   3.163   4.525   8.529  1.8528 -2.5781  0.2439
 5983SOL    HW229412   3.045   4.558   8.611 -0.7885 -0.1593  0.8018
 5984SOL     OW29413   0.558   2.848  11.204 -0.0579  0.1230  0.2370
 5984SOL    HW129414   0.509   2.896  11.137  1.4698  2.9745  1.1727
 5984SOL    HW229415   0.507   2.862  11.284  0.1813 -0.9932  0.5914
 5985SOL     OW29416   2.574   2.862   0.363  0.1455 -0.4271  0.6795
 5985SOL    HW129417   2.608   2.844   0.275 -2.9447  2.5958 -1.1434
 5985SOL    HW229418   2.493   2.911   0.348  1.5811  2.0374  1.0567
 5986SOL     OW29419   3.743   0.081   2.739  0.2132 -0.4236 -0.0809
 5986SOL    HW129420   3.793   0.027   2.678  1.2150  2.2164 -1.5955
 5986SOL    HW229421   3.693   0.018   2.792 -1.7960  1.3725  0.1668
 5987SOL     OW29422   2.393   2.755   4.647 -0.5173 -0.1084 -0.2465
 5987SOL    HW129423   2.323   2.814   4.618 -0.7674  2.4509  5.4553
 5987SOL    HW229424   2.409   2.708   4.566  0.1895  0.0544 -0.1979
 5988SOL     OW29425   4.113   0.391  14.395 -0.7138  0.3401 -0.0355
 5988SOL    HW129426   4.030   0.351  14.370  0.3508 -2.2317  0.5068
 5988SOL    HW229427   4.076   0.464  14.444 -2.4920  0.0363 -0.9258
 5989SOL     OW29428   1.894   3.381   1.776  0.1215  0.2560  0.0402
 5989SOL    HW129429   1.828   3.312   1.768 -0.2563  0.4062  1.8558
 5989SOL    HW229430   1.844   3.462   1.787  0.6740  0.3283  2.1115
 5990SOL     OW29431   0.871   0.874   0.066  0.5807  0.0229 -0.4023
 5990SOL    HW129432   0.791   0.825   0.046  0.8460 -0.8907  0.8102
 5990SOL    HW229433   0.840   0.963   0.050  0.6113  0.4892  2.0211
 5991SOL     OW29434   3.461   4.425   5.873  0.1494  0.0726 -0.1049
 5991SOL    HW129435   3.507   4.368   5.935  0.1603  0.9970  0.7243
 5991SOL    HW229436   3.443   4.506   5.921  1.3395  0.2067  0.1030
 5992SOL     OW29437   0.763   4.445   8.390 -0.1384 -0.1394 -0.3272
 5992SOL    HW129438   0.695   4.418   8.328  0.3544  0.5303 -1.1633
 5992SOL    HW229439   0.728   4.528   8.422  1.2962 -0.0968  1.1018
 5993SOL     OW29440   0.468   3.531   6.855 -0.5463 -0.6692 -0.1211
 5993SOL    HW129441   0.474   3.490   6.769  1.1812  0.0132 -0.3142
 5993SOL    HW229442   0.376   3.556   6.846 -0.7572 -2.0877 -1.9931
 5994SOL     OW29443   3.185   2.166  14.605 -0.7758 -0.1543 -0.2597
 5994SOL    HW129444   3.188   2.074  14.581 -0.6749 -0.6814  1.7438
 5994SOL    HW229445   3.139   2.147  14.687  1.0316  0.6454  0.9592
 5995SOL     OW29446   3.658   2.971   1.967  0.3733  0.4942 -0.5562
 5995SOL    HW129447   3.667   2.972   2.063  3.4082 -0.4763 -0.8172
 5995SOL    HW229448   3.565   2.993   1.965 -0.0706 -1.2064  1.2731
 5996SOL     OW29449   0.038   0.498   5.846  0.1859 -0.4602 -0.4798
 5996SOL    HW129450   0.063   0.444   5.920  1.8092  1.9572  0.7293
 5996SOL    HW229451   4.675   0.463   5.817 -0.9822  0.6240  1.6151
 5997SOL     OW29452   3.239   3.177   8.175  0.2842  0.1150 -0.4139
 5997SOL    HW129453   3.163   3.221   8.213  1.0025  1.3873 -0.4661
 5997SOL    HW229454   3.300   3.216   8.237 -0.4807 -0.9828  1.0365
 5998SOL     OW29455   4.028   3.513   8.021  0.2492  0.6405  0.0649
 5998SOL    HW129456   3.965   3.563   7.970 -0.5778 -0.5229 -0.0446
 5998SOL    HW229457   3.996   3.509   8.111  1.5081  0.9907  0.5352
 5999SOL     OW29458   3.133   2.576  14.456 -0.3913  0.3390 -0.3199
 5999SOL    HW129459   3.085   2.543  14.532  1.6579 -0.7574  0.4930
 5999SOL    HW229460   3.127   2.671  14.465  1.0472  0.1855  2.3575
 6000SOL     OW29461   3.464   1.847   8.650 -0.3505  0.1968  0.2755
 6000SOL    HW129462   3.453   1.754   8.632  1.2089  0.3101 -1.2923
 6000SOL    HW229463   3.557   1.859   8.633 -0.0041 -0.1876  1.9488
 6001SOL     OW29464   4.119   3.764   2.860  0.1237  0.5685 -0.1096
 6001SOL    HW129465   4.084   3.848   2.829 -2.2306 -0.7657 -1.0832
 6001SOL    HW229466   4.036   3.716   2.857  0.5803 -0.1853 -0.7185
 6002SOL     OW29467   1.696   0.238   0.475  0.3641  0.2153  0.0793
 6002SOL    HW129468   1.723   0.191   0.554 -0.9611 -0.9949 -0.1901
 6002SOL    HW229469   1.775   0.225   0.422  0.0813  0.6743 -0.4587
 6003SOL     OW29470   3.057   3.228  10.957  0.6981  0.2180 -0.2085
 6003SOL    HW129471   2.979   3.229  10.902  0.4325  1.9338  0.2050
 6003SOL    HW229472   3.110   3.179  10.894 -0.7800 -1.0980 -0.4162
 6004SOL     OW29473   3.551   0.930   0.239  0.4947  0.0699 -0.2119
 6004SOL    HW129474   3.620   0.921   0.173  0.7250  2.1967 -0.2502
 6004SOL    HW229475   3.591   0.892   0.318  0.9461  0.0210 -0.4618
 6005SOL     OW29476   4.488   3.616   1.181 -0.5578  0.6534  0.5850
 6005SOL    HW129477   4.451   3.530   1.201 -1.2472  0.4732 -1.3923
 6005SOL    HW229478   4.534   3.633   1.263  1.0116  1.6624 -0.4963
 6006SOL     OW29479   1.621   1.178  14.148  0.2149 -0.2631  0.4272
 6006SOL    HW129480   1.557   1.250  14.156  1.0708  0.5505 -0.0427
 6006SOL    HW229481   1.672   1.215  14.077  2.7675 -0.3508  2.2228
 6007SOL     OW29482   1.294   4.375  14.886  0.2947 -0.0462 -0.3234
 6007SOL    HW129483   1.349   4.412  14.956 -0.3236 -1.1712  0.7625
 6007SOL    HW229484   1.289   4.447  14.824 -0.9957  1.1796  1.1981
 6008SOL     OW29485   2.285   3.598   6.644  0.1270 -0.2740 -0.0290
 6008SOL    HW129486   2.218   3.552   6.694  1.6669 -0.6461  1.6668
 6008SOL    HW229487   2.223   3.657   6.599  0.2498  0.3059  0.5658
 6009SOL     OW29488   1.626   2.685   8.475  0.2760  0.2769 -0.6301
 6009SOL    HW129489   1.695   2.711   8.536 -0.0317 -1.0425  0.2698
 6009SOL    HW229490   1.637   2.594   8.449 -0.4272  0.0639 -0.1612
 6010SOL     OW29491   0.707   1.126   7.324 -0.2262  0.4243  0.4352
 6010SOL    HW129492   0.788   1.158   7.283 -0.3996  1.0487  0.5741
 6010SOL    HW229493   0.672   1.206   7.364  3.3392  1.6021  1.2004
 6011SOL     OW29494   3.580   1.369   1.794 -0.8170 -0.1105 -0.0017
 6011SOL    HW129495   3.543   1.284   1.816  0.7691 -0.7180  0.3406
 6011SOL    HW229496   3.658   1.379   1.849 -0.0868  0.8635 -1.1999
 6012SOL     OW29497   3.371   2.562   3.049  0.1660 -0.1435 -0.1274
 6012SOL    HW129498   3.278   2.583   3.055  0.6299  1.8864 -0.2048
 6012SOL    HW229499   3.364   2.485   2.993 -0.8981 -2.2651  2.9544
 6013SOL     OW29500   4.652   3.372   2.711 -0.0039 -0.2991 -0.4568
 6013SOL    HW129501   4.637   3.466   2.721 -3.0702 -0.6798 -1.5463
 6013SOL    HW229502   4.584   3.341   2.770  1.4403  2.2136  2.4751
 6014SOL     OW29503   0.652   2.001   1.831  0.1297  0.3525  0.4641
 6014SOL    HW129504   0.654   1.986   1.926 -0.1107  0.0442  0.4185
 6014SOL    HW229505   0.564   2.036   1.818 -0.8774 -1.9646  0.9832
 6015SOL     OW29506   1.848   0.878   9.595 -0.3350 -0.4131 -0.5067
 6015SOL    HW129507   1.767   0.845   9.634 -0.7970 -0.2209 -1.3149
 6015SOL    HW229508   1.910   0.833   9.652  1.1610  0.9244 -1.0885
 6016SOL     OW29509   2.028   4.025   2.555  0.3988 -0.3605 -0.7485
 6016SOL    HW129510   1.976   3.964   2.609  1.5929 -2.1198 -1.6047
 6016SOL    HW229511   2.012   3.995   2.466 -0.2564  0.3954 -0.8868
 6017SOL     OW29512   2.304   0.539   1.123 -0.1614 -1.0783 -0.1416
 6017SOL    HW129513   2.333   0.629   1.139 -0.5702 -1.0879  0.6438
 6017SOL    HW229514   2.383   0.499   1.161  1.1104  0.1677 -1.4760
 6018SOL     OW29515   4.263   0.356  16.282 -0.0752  0.0798  0.9005
 6018SOL    HW129516   4.245   0.267  16.312  2.0312  0.3626  2.9814
 6018SOL    HW229517   4.233   0.363  16.191 -1.2101  3.1721  1.5157
 6019SOL     OW29518   2.372   4.037   6.740 -0.1843  0.0285  0.2877
 6019SOL    HW129519   2.386   3.957   6.790 -1.9417 -0.9777 -0.8185
 6019SOL    HW229520   2.455   4.021   6.697 -0.3306 -0.1255  0.0612
 6020SOL     OW29521   1.557   1.434   5.226 -0.0601  0.0511 -0.1445
 6020SOL    HW129522   1.566   1.357   5.282  1.0741  1.8225  2.1772
 6020SOL    HW229523   1.465   1.456   5.238 -0.1529 -0.4846  0.1403
 6021SOL     OW29524   3.733   1.843   5.404  0.2796  0.0011 -0.2940
 6021SOL    HW129525   3.773   1.872   5.322  0.7533 -0.9337 -0.4021
 6021SOL    HW229526   3.681   1.921   5.422  0.3756 -0.4315  1.8343
 6022SOL     OW29527   2.631   2.410   0.447 -0.2739 -0.1985  0.2454
 6022SOL    HW129528   2.599   2.492   0.484 -0.2654 -0.0512 -0.0807
 6022SOL    HW229529   2.702   2.438   0.390 -0.5995 -0.1940 -0.1631
 6023SOL     OW29530   4.323   3.807   5.838  0.9844 -0.6186 -0.1268
 6023SOL    HW129531   4.382   3.858   5.782  0.6963  0.3694  0.4576
 6023SOL    HW229532   4.239   3.809   5.792  0.8283 -0.4853  0.1645
 6024SOL     OW29533   0.532   3.489   5.087  0.4699 -0.3093  0.5546
 6024SOL    HW129534   0.586   3.499   5.165  1.1108 -4.1120  0.5896
 6024SOL    HW229535   0.564   3.571   5.049  1.2208 -1.2455 -0.8503
 6025SOL     OW29536   2.983   0.174   8.347 -0.1951  0.0166  0.1663
 6025SOL    HW129537   2.995   0.257   8.301 -0.0536  0.0070  0.1857
 6025SOL    HW229538   2.898   0.187   8.388 -1.1678  0.2870 -1.9573
 6026SOL     OW29539   4.262   1.536   4.876 -0.0177 -0.0348  0.3837
 6026SOL    HW129540   4.179   1.531   4.923 -0.3630 -1.5854 -0.3808
 6026SOL    HW229541   4.247   1.487   4.795  0.6945  0.5314 -0.0866
 6027SOL     OW29542   0.888   2.932  14.270  0.1260 -0.2315  0.1986
 6027SOL    HW129543   0.811   2.911  14.323  0.6599 -0.8152  0.7308
 6027SOL    HW229544   0.843   2.956  14.188 -1.8732 -1.5921  0.8937
 6028SOL     OW29545   0.096   3.077   3.116  0.3662  0.1364 -0.4206
 6028SOL    HW129546   0.018   3.134   3.117  1.1307  1.1784 -0.1610
 6028SOL    HW229547   0.171   3.119   3.158  0.3180  0.5511 -0.7473
 6029SOL     OW29548   2.693   4.144   0.507  0.5774  0.1043  0.1751
 6029SOL    HW129549   2.768   4.114   0.455  0.6844 -0.3156  0.5716
 6029SOL    HW229550   2.703   4.235   0.480 -2.1197  0.3056 -0.1124
 6030SOL     OW29551   3.166   0.862   7.833 -0.4776  0.5703  0.0086
 6030SOL    HW129552   3.230   0.910   7.781  0.0567 -2.1786 -1.9059
 6030SOL    HW229553   3.113   0.934   7.865 -2.3484 -0.8606  0.1470
 6031SOL     OW29554   2.241   0.336   5.366  0.6764  0.2980  0.1612
 6031SOL    HW129555   2.283   0.250   5.366 -0.3146 -0.1743 -2.1964
 6031SOL    HW229556   2.305   0.385   5.419 -0.8397 -0.4744  2.7326
 6032SOL     OW29557   1.731   1.216   3.280 -0.2802  0.7192  0.0288
 6032SOL    HW129558   1.685   1.133   3.267  1.9198 -0.7619  1.8669
 6032SOL    HW229559   1.820   1.184   3.291 -0.7982 -0.4195  0.8455
 6033SOL     OW29560   2.445   3.663   8.082 -0.3256 -0.2205  0.1900
 6033SOL    HW129561   2.349   3.655   8.082 -0.2679 -0.7977 -2.0596
 6033SOL    HW229562   2.473   3.578   8.048  0.1640  0.4602 -1.1086
 6034SOL     OW29563   2.203   1.761   4.174  0.5036  0.2066 -0.0981
 6034SOL    HW129564   2.236   1.764   4.264 -1.5257 -2.0498  0.7311
 6034SOL    HW229565   2.162   1.674   4.164  1.9573 -0.6180  1.0681
 6035SOL     OW29566   3.111   3.843   5.315  0.2841  0.6265  0.9394
 6035SOL    HW129567   3.100   3.918   5.257 -1.6595 -0.5734 -0.2297
 6035SOL    HW229568   3.198   3.822   5.280 -0.1656  1.1258 -0.4582
 6036SOL     OW29569   2.459   3.592  11.976  0.6218  0.4901 -0.0596
 6036SOL    HW129570   2.509   3.673  11.979  2.2265 -0.6087  2.7295
 6036SOL    HW229571   2.398   3.597  12.049  1.5772 -1.3244  0.8678
 6037SOL     OW29572   0.659   3.996   7.645 -0.2859 -0.7197  0.5162
 6037SOL    HW129573   0.673   3.930   7.577  0.1101 -1.4220  1.2763
 6037SOL    HW229574   0.648   3.946   7.725  0.2208  0.0884  1.0974
 6038SOL     OW29575   3.288   0.004   4.868 -0.6336 -0.6109 -0.0658
 6038SOL    HW129576   3.281   0.006   4.773  1.4160  1.6626 -0.1476
 6038SOL    HW229577   3.258   0.090   4.896 -1.5638 -1.6822  2.2247
 6039SOL     OW29578   4.384   1.915   8.797  0.0515  0.3618  0.2371
 6039SOL    HW129579   4.404   1.828   8.829  1.6935  1.1296  1.2808
 6039SOL    HW229580   4.471   1.955   8.789  0.0662  0.0002 -1.4268
 6040SOL     OW29581   2.037   2.247   2.990  0.2889  0.0220  0.2627
 6040SOL    HW129582   2.079   2.326   3.022 -2.4663  2.2007 -1.5289
 6040SOL    HW229583   2.050   2.241   2.896 -1.6056  0.5597 -0.0251
 6041SOL     OW29584   1.373   0.055   2.143  0.6849 -0.6599 -0.0208
 6041SOL    HW129585   1.299   4.717   2.129  1.5144 -1.6678 -0.1604
 6041SOL    HW229586   1.380   0.064   2.238 -2.9149 -2.3387  0.4090
 6042SOL     OW29587   4.403   4.715   7.588  0.5260 -0.1580  0.2354
 6042SOL    HW129588   4.474   0.012   7.527 -0.1637 -2.6233 -1.3132
 6042SOL    HW229589   4.354   0.075   7.573  1.7861  0.3177 -1.2599
 6043SOL     OW29590   1.745   2.055   4.527 -0.3046  0.2860  0.2287
 6043SOL    HW129591   1.674   2.009   4.482 -0.4895  0.9316 -0.1392
 6043SOL    HW229592   1.808   1.983   4.537 -0.8342 -0.3653 -1.0678
 6044SOL     OW29593   2.573   1.009   1.782  0.4277  0.1599  0.7768
 6044SOL    HW129594   2.524   1.054   1.713  0.4496 -0.3917  0.4030
 6044SOL    HW229595   2.506   0.997   1.849  1.4836  0.5278  1.8817
 6045SOL     OW29596   4.499   1.973  11.496 -0.6799 -0.0598  0.2160
 6045SOL    HW129597   4.477   2.004  11.584  1.2159 -1.5179  1.2012
 6045SOL    HW229598   4.424   1.913  11.488 -2.1032  1.7036  0.4028
 6046SOL     OW29599   1.230   2.141   7.437  0.0732  0.1843  0.5207
 6046SOL    HW129600   1.185   2.182   7.510 -1.8301  0.5093 -0.8449
 6046SOL    HW229601   1.235   2.054   7.478  0.2514  1.5960  3.5140
 6047SOL     OW29602   0.846   3.121   3.778 -0.4150  0.1530  0.2123
 6047SOL    HW129603   0.823   3.093   3.866 -1.7499 -1.7703 -0.7425
 6047SOL    HW229604   0.919   3.063   3.760 -0.1465  0.6593 -0.3124
 6048SOL     OW29605   2.837   3.315  17.650  0.3700  0.1739 -0.2868
 6048SOL    HW129606   2.764   3.293  17.592 -0.5758  2.9425 -0.1441
 6048SOL    HW229607   2.788   3.316   0.045  0.2473 -0.2194 -0.3540
 6049SOL     OW29608   1.462   2.674   7.153  0.3018 -0.9430 -0.0267
 6049SOL    HW129609   1.478   2.762   7.189 -0.8948 -0.7726  0.1007
 6049SOL    HW229610   1.532   2.617   7.184  0.7799 -0.1483  0.3598
 6050SOL     OW29611   2.092   1.629   2.445  0.4624  0.3299  0.6962
 6050SOL    HW129612   2.050   1.714   2.432 -2.7951 -1.5103 -0.8069
 6050SOL    HW229613   2.111   1.621   2.538 -0.6630 -0.6874  0.8419
 6051SOL     OW29614   1.988   2.454   5.840  0.1200  0.1554  0.4107
 6051SOL    HW129615   1.939   2.488   5.765  0.4392 -0.3024 -0.0124
 6051SOL    HW229616   2.063   2.412   5.798  0.2973  0.0071  0.8738
 6052SOL     OW29617   2.673   3.611   8.399  0.1430  0.2815  0.1848
 6052SOL    HW129618   2.725   3.571   8.469  0.6893  0.4732 -0.1125
 6052SOL    HW229619   2.587   3.614   8.440 -0.2555  1.0347 -0.7136
 6053SOL     OW29620   0.621   1.104   4.411 -0.6822 -0.5919  0.2267
 6053SOL    HW129621   0.609   1.197   4.426  2.1749  0.0312 -1.2844
 6053SOL    HW229622   0.716   1.101   4.404 -0.6876  3.2871 -1.3670
 6054SOL     OW29623   1.601   1.844   6.090 -0.2228 -0.0504  0.2881
 6054SOL    HW129624   1.515   1.804   6.079  0.6598 -1.2937 -2.0229
 6054SOL    HW229625   1.661   1.770   6.100  1.4594  1.1663 -0.5981
 6055SOL     OW29626   1.882   2.694  16.279  0.0194  0.2472  0.0825
 6055SOL    HW129627   1.802   2.655  16.245  1.0457 -0.8715 -1.0652
 6055SOL    HW229628   1.896   2.649  16.363  0.2186  1.0059  0.4516
 6056SOL     OW29629   0.665   3.314   3.712 -0.1200  0.0861 -0.3273
 6056SOL    HW129630   0.728   3.385   3.697  1.8500 -1.6412 -0.2718
 6056SOL    HW229631   0.721   3.242   3.741  2.3005  0.9281 -2.8809
 6057SOL     OW29632   0.471   2.070   4.862  0.0944 -0.2305  0.5931
 6057SOL    HW129633   0.418   2.127   4.806 -1.3752 -0.8440  1.3841
 6057SOL    HW229634   0.504   2.127   4.931 -1.9091  2.0270 -0.2902
 6058SOL     OW29635   4.491   2.616   2.104  0.1402 -0.1737 -0.4520
 6058SOL    HW129636   4.567   2.673   2.095 -2.0097  2.7342 -0.0276
 6058SOL    HW229637   4.522   2.541   2.155 -0.9275  1.2955  2.3593
 6059SOL     OW29638   2.404   4.249   2.297 -0.1806  0.4069 -0.6670
 6059SOL    HW129639   2.308   4.251   2.295 -0.2596 -2.2864  0.1012
 6059SOL    HW229640   2.418   4.211   2.384  0.3284  0.1253 -0.8771
 6060SOL     OW29641   1.066   3.040  17.664  0.0480 -0.2855  0.8136
 6060SOL    HW129642   1.089   3.122   0.021 -0.2504 -0.1600  0.7348
 6060SOL    HW229643   1.040   2.987   0.051 -2.2060  1.2928  1.1578
 6061SOL     OW29644   3.201   4.187  13.456 -0.4653  0.5613 -0.1556
 6061SOL    HW129645   3.276   4.228  13.413 -1.5247 -0.6659 -3.1424
 6061SOL    HW229646   3.226   4.204  13.547 -0.2375  0.1167 -0.1312
 6062SOL     OW29647   3.519   4.163  13.605  0.2170 -0.1597 -0.2338
 6062SOL    HW129648   3.567   4.150  13.524 -0.2800 -2.2188 -0.2000
 6062SOL    HW229649   3.546   4.078  13.641 -0.4751  0.0758  0.8566
 6063SOL     OW29650   3.534   0.220   3.579 -0.3698 -0.2963  0.2869
 6063SOL    HW129651   3.559   0.238   3.670  2.4592 -0.2795 -0.4973
 6063SOL    HW229652   3.558   0.302   3.537 -3.3696 -0.7291 -2.3234
 6064SOL     OW29653   3.950   3.531   8.676 -0.0484 -0.0960 -0.4625
 6064SOL    HW129654   3.974   3.462   8.739  0.0426  1.2417  0.9827
 6064SOL    HW229655   3.905   3.598   8.728 -2.1423 -1.4777 -0.4820
 6065SOL     OW29656   3.314   0.052   3.513  0.1064 -0.0260  0.4690
 6065SOL    HW129657   3.366   4.707   3.466  0.8599 -0.2971  1.6845
 6065SOL    HW229658   3.388   0.104   3.544  0.7527 -1.6228  1.6233
 6066SOL     OW29659   0.858   0.132   7.604  0.0820 -0.7212  0.5058
 6066SOL    HW129660   0.830   0.045   7.632 -0.7931 -0.0916  1.5855
 6066SOL    HW229661   0.798   0.192   7.648 -0.6507 -0.1956 -1.2490
 6067SOL     OW29662   2.653   0.996   8.438 -0.0886 -0.9642 -0.3901
 6067SOL    HW129663   2.633   0.909   8.473 -2.1166 -0.5981 -0.6166
 6067SOL    HW229664   2.617   0.983   8.350 -0.6224  0.5113 -0.3942
 6068SOL     OW29665   1.097   2.114   8.608 -0.5102 -0.0236  0.2034
 6068SOL    HW129666   1.004   2.122   8.627 -1.0186 -1.5552 -1.7224
 6068SOL    HW229667   1.125   2.206   8.613 -0.3418 -0.1052  0.7346
 6069SOL     OW29668   3.598   1.395  14.081 -0.2413  0.3158 -0.0739
 6069SOL    HW129669   3.636   1.454  14.146 -2.0028  1.1424  0.2204
 6069SOL    HW229670   3.683   1.363  14.050 -0.5820 -0.3657 -0.3042
 6070SOL     OW29671   1.515   0.907   4.548  0.1115  0.0308  0.0228
 6070SOL    HW129672   1.477   0.823   4.521  0.2109  0.1261 -0.4193
 6070SOL    HW229673   1.438   0.963   4.557 -0.6408 -1.0274  0.1771
 6071SOL     OW29674   3.012   2.813   0.665 -0.1822 -0.3864  0.3158
 6071SOL    HW129675   2.951   2.843   0.598  2.9406  0.0392 -2.2916
 6071SOL    HW229676   3.061   2.744   0.620 -0.5418 -0.7719  0.5140
 6072SOL     OW29677   1.432   0.859  15.946 -0.2651  0.1506  0.0897
 6072SOL    HW129678   1.465   0.780  15.902  0.5923  0.1555  0.7228
 6072SOL    HW229679   1.462   0.929  15.888 -1.0521  1.0724  0.8181
 6073SOL     OW29680   1.151   4.301   7.454 -0.3413  0.5985  0.0618
 6073SOL    HW129681   1.221   4.335   7.510 -1.0145 -0.3862  1.5018
 6073SOL    HW229682   1.199   4.247   7.392  0.2532  0.6906  0.4438
 6074SOL     OW29683   2.799   0.184   7.999 -0.4891 -0.5068  0.0865
 6074SOL    HW129684   2.780   0.191   8.092 -1.1614 -1.5954  0.0283
 6074SOL    HW229685   2.808   0.277   7.976 -0.1047 -0.5490  0.0724
 6075SOL     OW29686   1.121   0.319   1.681 -0.0065  0.3351 -0.4893
 6075SOL    HW129687   1.214   0.341   1.680 -0.3199  1.6650 -0.0202
 6075SOL    HW229688   1.116   0.274   1.596 -2.0253  0.2819 -0.3333
 6076SOL     OW29689   0.758   2.374  17.389 -0.1119  0.2371 -0.4587
 6076SOL    HW129690   0.667   2.347  17.376  0.2207 -1.1513  0.0188
 6076SOL    HW229691   0.755   2.417  17.474 -1.0220 -1.6684  0.4818
 6077SOL     OW29692   0.787   1.037   7.940 -0.0362 -0.4233 -0.2949
 6077SOL    HW129693   0.810   1.128   7.961  0.4006 -0.9977  1.8083
 6077SOL    HW229694   0.791   1.027   7.845 -3.5733 -3.4013 -0.1120
 6078SOL     OW29695   2.912   4.126   0.329 -0.6931 -0.2857  0.3661
 6078SOL    HW129696   2.998   4.095   0.302  0.1768  2.9990 -0.5833
 6078SOL    HW229697   2.922   4.221   0.326 -1.8869 -0.2249 -1.4983
 6079SOL     OW29698   4.005   2.944   1.654  0.1909 -0.0028  0.7838
 6079SOL    HW129699   4.059   2.865   1.651 -1.0044 -0.7985  0.1057
 6079SOL    HW229700   4.054   3.005   1.599 -1.0895 -1.0978 -1.6035
 6080SOL     OW29701   2.180   2.600  12.396 -0.3904 -0.7053 -0.4461
 6080SOL    HW129702   2.214   2.686  12.422  0.4473 -0.6977 -1.5837
 6080SOL    HW229703   2.240   2.551  12.453  1.8492  1.3473 -1.0105
 6081SOL     OW29704   1.620   1.626   4.259  0.1540 -0.3981  0.0723
 6081SOL    HW129705   1.675   1.568   4.311  1.1726  1.3827  0.9834
 6081SOL    HW229706   1.680   1.701   4.255 -1.4344  0.8047 -1.2643
 6082SOL     OW29707   0.107   0.468   0.745  0.4143  0.1693  0.0207
 6082SOL    HW129708   0.017   0.497   0.761 -1.2665 -3.8177 -2.3980
 6082SOL    HW229709   0.130   0.500   0.657  1.1760 -0.8015 -0.1268
 6083SOL     OW29710   2.674   2.843   9.239 -0.2985 -0.0153  0.2800
 6083SOL    HW129711   2.586   2.851   9.276 -0.4072  0.5051 -0.0924
 6083SOL    HW229712   2.652   2.858   9.147  1.5627  0.8707 -0.0087
 6084SOL     OW29713   0.120   1.643   8.397  0.5924  0.1893  0.2611
 6084SOL    HW129714   0.122   1.708   8.327 -0.7995 -1.0777 -0.9333
 6084SOL    HW229715   0.026   1.630   8.409  0.3638  1.2602 -0.3961
 6085SOL     OW29716   1.849   0.239  15.754  0.3331 -0.3605  0.4584
 6085SOL    HW129717   1.786   0.241  15.682 -1.2890 -0.1204  1.8839
 6085SOL    HW229718   1.887   0.325  15.738 -0.3893  0.1351  1.3552
 6086SOL     OW29719   2.187   4.152  12.989  0.3642 -0.1909 -0.4707
 6086SOL    HW129720   2.230   4.084  13.042  1.2881  1.7172  1.2433
 6086SOL    HW229721   2.221   4.131  12.902  0.2347 -0.4127 -0.4693
 6087SOL     OW29722   4.020   4.259   2.817  0.3975  0.3743 -0.1041
 6087SOL    HW129723   3.954   4.326   2.837  0.0104  0.4028 -1.4505
 6087SOL    HW229724   4.085   4.320   2.783 -0.5564  1.4613 -0.0033
 6088SOL     OW29725   4.039   4.437   0.502 -0.0992  0.5751  0.4970
 6088SOL    HW129726   3.999   4.376   0.564 -1.9301 -1.1409 -2.3937
 6088SOL    HW229727   4.012   4.520   0.541  1.3907  1.1414  0.3204
 6089SOL     OW29728   0.833   3.526   3.642  0.0754  0.0870 -0.2433
 6089SOL    HW129729   0.896   3.468   3.598 -1.4670 -0.6262 -1.5189
 6089SOL    HW229730   0.871   3.528   3.730 -2.1534  1.1252  0.7051
 6090SOL     OW29731   1.966   3.216   3.301 -0.1567  0.0940 -0.5945
 6090SOL    HW129732   1.873   3.230   3.320  0.3630  1.0930  1.2196
 6090SOL    HW229733   1.964   3.138   3.245  0.2111  0.6854 -1.4349
 6091SOL     OW29734   3.298   0.433   3.053 -0.4490 -0.5754 -0.4661
 6091SOL    HW129735   3.297   0.396   2.964  3.0188  2.0390 -1.5607
 6091SOL    HW229736   3.207   0.452   3.077  0.3189  1.2130  1.0020
 6092SOL     OW29737   0.772   1.327   9.533  0.1654  0.0728  0.1083
 6092SOL    HW129738   0.853   1.276   9.525 -0.2605 -0.6069  0.1444
 6092SOL    HW229739   0.783   1.395   9.467  0.1308  0.5013  0.5484
 6093SOL     OW29740   1.477   2.318   3.063 -0.4183 -0.2177 -0.3967
 6093SOL    HW129741   1.519   2.266   3.131 -0.8596 -0.5769 -0.3977
 6093SOL    HW229742   1.387   2.313   3.096 -1.1340  1.0979 -2.1605
 6094SOL     OW29743   0.051   0.274   8.876  0.1924 -0.2092  0.7332
 6094SOL    HW129744   0.021   0.308   8.792  0.8452  0.0865  0.6229
 6094SOL    HW229745   0.045   0.347   8.937 -0.9950 -1.1257  1.7146
 6095SOL     OW29746   2.416   3.153  14.089  1.2621  0.4412  0.0864
 6095SOL    HW129747   2.350   3.218  14.064  0.7825  0.6396  1.8363
 6095SOL    HW229748   2.448   3.185  14.173 -1.7324  1.1301  0.9477
 6096SOL     OW29749   0.252   1.234   9.317  0.5453  0.3507  0.4134
 6096SOL    HW129750   0.181   1.223   9.381  0.0618 -2.1506 -0.5592
 6096SOL    HW229751   0.246   1.328   9.297 -1.5254 -0.3357 -2.1428
 6097SOL     OW29752   2.976   4.315   6.261 -0.6371 -0.6177 -0.4252
 6097SOL    HW129753   3.030   4.307   6.340 -2.6404 -0.3953  0.9546
 6097SOL    HW229754   3.047   4.311   6.197  0.0829 -0.7819  0.3867
 6098SOL     OW29755   2.100   1.439   8.365  0.4669 -0.2533  0.1717
 6098SOL    HW129756   2.091   1.362   8.309  0.5455  0.0054 -0.1931
 6098SOL    HW229757   2.190   1.466   8.353 -0.2519  1.9936 -0.0849
 6099SOL     OW29758   2.374   4.652   6.864 -0.5670  0.2421 -0.5906
 6099SOL    HW129759   2.438   0.000   6.880 -0.3705  0.1231 -0.8716
 6099SOL    HW229760   2.428   4.575   6.880  1.3048  1.2893 -1.8469
 6100SOL     OW29761   0.498   4.007   8.541  0.4730 -0.2584 -0.1087
 6100SOL    HW129762   0.573   3.951   8.563 -0.4880 -0.6128  2.2406
 6100SOL    HW229763   0.426   3.945   8.555  0.4224 -0.1932 -0.0828
 6101SOL     OW29764   2.132   2.175   7.055 -0.6034  0.3586  0.3328
 6101SOL    HW129765   2.224   2.159   7.036 -0.3608  1.8184  0.2351
 6101SOL    HW229766   2.103   2.198   6.966  0.6456  1.0649  0.1140
 6102SOL     OW29767   2.303   1.287   4.440 -0.3973 -0.2441  0.7422
 6102SOL    HW129768   2.324   1.228   4.513 -2.2763 -0.2855  1.2565
 6102SOL    HW229769   2.379   1.271   4.384  1.4025  1.1004  2.8089
 6103SOL     OW29770   2.214   1.064   4.098  0.5310  0.9079 -0.3856
 6103SOL    HW129771   2.128   1.045   4.136  0.5028  0.6019 -0.5956
 6103SOL    HW229772   2.214   1.015   4.015 -3.4415  0.2383  0.0141
 6104SOL     OW29773   0.991   4.428   2.507  0.0752  0.9655 -0.1007
 6104SOL    HW129774   0.940   4.471   2.438 -0.0073 -1.7988 -1.7950
 6104SOL    HW229775   0.924   4.374   2.550  2.1543 -0.8710  0.8062
 6105SOL     OW29776   2.503   0.255   2.778 -0.0268  0.4811 -0.2350
 6105SOL    HW129777   2.584   0.254   2.725  1.9149 -2.7912  2.8175
 6105SOL    HW229778   2.540   0.305   2.851 -3.5374  0.5782  1.4424
 6106SOL     OW29779   0.742   3.772   6.033 -0.0183 -0.1356 -0.3432
 6106SOL    HW129780   0.836   3.765   6.018 -0.3394 -1.4518 -1.7427
 6106SOL    HW229781   0.746   3.721   6.114  0.5529  0.5953  0.0849
 6107SOL     OW29782   0.764   0.017   2.620  0.0837 -0.0863 -0.3609
 6107SOL    HW129783   0.829   0.045   2.556 -1.1477  0.4188 -1.3920
 6107SOL    HW229784   0.809   4.664   2.662 -0.7068  0.8608  2.1426
 6108SOL     OW29785   2.045   0.803   6.931  0.2834 -0.4346 -0.3400
 6108SOL    HW129786   2.115   0.766   6.876  0.9969 -1.1324  1.0502
 6108SOL    HW229787   1.965   0.769   6.891  1.7190  0.0877 -3.6635
 6109SOL     OW29788   1.909   3.346   9.351  0.3973  0.2700  0.0419
 6109SOL    HW129789   1.938   3.419   9.296 -2.5472  0.9433 -0.6375
 6109SOL    HW229790   1.955   3.272   9.312 -0.0459  0.9804 -1.7988
 6110SOL     OW29791   3.925   3.097   6.040  0.1915  0.7076 -0.0638
 6110SOL    HW129792   3.917   3.035   5.967 -0.5272 -1.8986  2.2587
 6110SOL    HW229793   4.016   3.088   6.067  0.5903  1.9480 -0.9954
 6111SOL     OW29794   1.988   2.142  12.163  0.2813 -0.3361  0.7006
 6111SOL    HW129795   2.055   2.211  12.162 -1.1270  1.0118 -0.5403
 6111SOL    HW229796   2.031   2.083  12.100  0.8980  1.4680 -0.5828
 6112SOL     OW29797   1.290   4.482   3.121 -0.3169 -0.3168 -0.7935
 6112SOL    HW129798   1.361   4.507   3.063 -1.2343 -1.3759 -2.3655
 6112SOL    HW229799   1.321   4.400   3.159  2.0759 -0.2872 -2.6937
 6113SOL     OW29800   3.771   1.977  14.060  0.8310  0.2461  0.1669
 6113SOL    HW129801   3.863   1.995  14.043  0.2075  2.0230 -1.3688
 6113SOL    HW229802   3.734   1.944  13.977  0.0906 -0.0154  0.5984
 6114SOL     OW29803   2.171   1.147   4.989  0.1667  0.5684 -0.1398
 6114SOL    HW129804   2.102   1.213   4.998  0.2163  0.6619 -0.4643
 6114SOL    HW229805   2.147   1.090   4.917  0.1782  0.6914 -0.2411
 6115SOL     OW29806   0.363   1.283  17.583  1.3564  0.1975 -0.7393
 6115SOL    HW129807   0.302   1.314  17.650  3.5090 -1.1425  1.8322
 6115SOL    HW229808   0.315   1.291  17.500  2.4031 -2.1566 -1.5770
 6116SOL     OW29809   0.179   2.078   9.032  0.2801  0.0902 -0.4730
 6116SOL    HW129810   0.193   2.084   9.126 -2.7006  2.9258 -0.2109
 6116SOL    HW229811   0.240   2.147   9.006  2.8120 -1.4587  1.3005
 6117SOL     OW29812   4.275   2.641   0.213  0.2728 -0.2757  0.4773
 6117SOL    HW129813   4.320   2.567   0.174  0.3692 -0.6342  1.2626
 6117SOL    HW229814   4.185   2.617   0.189 -0.7426 -0.0313  4.0635
 6118SOL     OW29815   4.498   2.248   5.873  0.3385  0.1554  0.0768
 6118SOL    HW129816   4.452   2.317   5.825 -1.6748  1.4356  3.8491
 6118SOL    HW229817   4.578   2.289   5.904  0.6272 -0.4611  0.1422
 6119SOL     OW29818   2.479   0.446   0.629  0.3119 -0.1767  0.3648
 6119SOL    HW129819   2.488   0.469   0.722 -2.1610 -3.2474  1.3397
 6119SOL    HW229820   2.392   0.483   0.612 -0.1528 -1.3765  0.1507
 6120SOL     OW29821   0.747   3.627  11.120  0.2370 -0.2820  0.2647
 6120SOL    HW129822   0.838   3.605  11.099  1.0576  1.7790  1.6600
 6120SOL    HW229823   0.699   3.582  11.051 -0.1547  0.2538  0.1925
 6121SOL     OW29824   1.847   2.459   7.508 -0.2622  0.0443  0.2323
 6121SOL    HW129825   1.939   2.457   7.537 -0.4417  2.0191  0.9284
 6121SOL    HW229826   1.824   2.370   7.480  3.6421 -0.8161 -0.2437
 6122SOL     OW29827   1.656   4.686  15.431  0.0185 -0.3614  0.7938
 6122SOL    HW129828   1.709   0.043  15.420 -3.3895  1.7008 -0.8128
 6122SOL    HW229829   1.601   4.701  15.355 -0.2677  1.1076  1.2903
 6123SOL     OW29830   1.071   3.942  14.967  0.3204  0.0832 -0.0904
 6123SOL    HW129831   1.137   4.002  14.933  0.8719 -0.7645 -0.5101
 6123SOL    HW229832   1.009   3.946  14.895  0.6507  0.4406 -0.3540
 6124SOL     OW29833   4.303   1.831   7.232 -0.3056  0.2121  0.6658
 6124SOL    HW129834   4.388   1.873   7.240  1.3525 -2.6947 -1.9044
 6124SOL    HW229835   4.296   1.768   7.304  1.4306 -0.9834 -0.2129
 6125SOL     OW29836   1.931   3.474  16.796 -0.8948  0.1156 -0.2938
 6125SOL    HW129837   1.947   3.538  16.727 -0.3132  1.4582  1.0773
 6125SOL    HW229838   2.001   3.413  16.775 -0.4403  1.6041 -3.0715
 6126SOL     OW29839   1.290   2.207   2.535  0.3051 -0.4414 -0.1895
 6126SOL    HW129840   1.271   2.225   2.443  1.7519  1.4636 -0.1158
 6126SOL    HW229841   1.224   2.139   2.550  1.1770 -1.2591 -0.0851
 6127SOL     OW29842   2.328   0.896  17.183 -0.2241 -0.0286 -0.2486
 6127SOL    HW129843   2.246   0.894  17.133 -0.6212 -1.3791  0.4781
 6127SOL    HW229844   2.330   0.989  17.206 -0.9591  0.1518 -0.9159
 6128SOL     OW29845   2.042   2.461   4.074  0.3868  0.1801 -0.0422
 6128SOL    HW129846   2.007   2.538   4.119  1.7101  1.4051 -1.0845
 6128SOL    HW229847   2.030   2.492   3.984  2.9224 -0.6594 -0.6748
 6129SOL     OW29848   0.098   3.152   5.746  0.0818 -0.1643  0.0852
 6129SOL    HW129849   0.170   3.168   5.807  0.5598 -2.8279  0.2161
 6129SOL    HW229850   0.039   3.106   5.807  0.3888 -0.3792  0.2189
 6130SOL     OW29851   2.045   3.984   6.044 -0.5330  0.3822 -0.1687
 6130SOL    HW129852   2.083   3.956   5.961  0.1402 -0.6804  0.5001
 6130SOL    HW229853   2.030   3.901   6.088  1.6180  0.7253  1.2386
 6131SOL     OW29854   1.292   0.293   2.032 -0.3132 -0.5963 -0.0641
 6131SOL    HW129855   1.330   0.205   2.040 -2.4753 -1.6508 -1.2179
 6131SOL    HW229856   1.208   0.275   1.988  0.1585  1.4358 -1.8020
 6132SOL     OW29857   0.630   0.438   7.335 -0.0296 -0.5067 -0.5210
 6132SOL    HW129858   0.704   0.444   7.396  0.3949  2.2879 -1.3492
 6132SOL    HW229859   0.647   0.509   7.274  0.7567 -0.1559  0.1065
 6133SOL     OW29860   4.710   4.043   4.895  0.2584 -0.1067 -0.1849
 6133SOL    HW129861   0.069   3.998   4.869  0.7412  0.0923  0.9308
 6133SOL    HW229862   4.692   3.993   4.975 -1.3674  0.1115 -0.4205
 6134SOL     OW29863   3.283   2.547   5.885  0.2762 -0.2833  0.5615
 6134SOL    HW129864   3.268   2.608   5.958  2.6893  1.6594 -0.5710
 6134SOL    HW229865   3.220   2.569   5.817 -0.8388 -0.5844  1.4938
 6135SOL     OW29866   1.939   4.479   6.410 -0.8490  0.0060  0.2903
 6135SOL    HW129867   1.874   4.418   6.446  2.2766 -1.7916  2.8578
 6135SOL    HW229868   1.905   4.561   6.445  2.3733  1.2890  0.3356
 6136SOL     OW29869   3.453   2.144   4.522 -0.0108  0.4105 -0.3695
 6136SOL    HW129870   3.506   2.212   4.481  0.5474 -0.3409 -0.9046
 6136SOL    HW229871   3.371   2.187   4.542 -0.1421 -0.7488  1.5774
 6137SOL     OW29872   4.354   0.167   8.112  0.4416 -0.5651  0.6785
 6137SOL    HW129873   4.437   0.122   8.098  2.3505  2.4894  2.2231
 6137SOL    HW229874   4.354   0.181   8.207 -0.5646 -0.2034  0.6329
 6138SOL     OW29875   3.166   4.573   6.237 -0.3918 -0.2047 -0.2501
 6138SOL    HW129876   3.150   4.535   6.151 -2.2699 -1.0376  0.4684
 6138SOL    HW229877   3.140   4.501   6.294  3.2641 -1.7934 -0.6325
 6139SOL     OW29878   1.248   1.527  16.120 -0.3608 -0.1177  0.2594
 6139SOL    HW129879   1.336   1.544  16.086 -0.2352 -0.4440  0.4254
 6139SOL    HW229880   1.269   1.485  16.204 -0.0850 -1.2718 -0.3905
 6140SOL     OW29881   3.108   2.922   3.367  0.4802 -0.2003 -0.8852
 6140SOL    HW129882   3.153   2.913   3.450  2.0464  2.3148 -1.4766
 6140SOL    HW229883   3.065   2.837   3.351 -1.7344  0.9760 -1.3058
 6141SOL     OW29884   0.832   2.674  15.608  0.3550 -0.3982 -0.6138
 6141SOL    HW129885   0.904   2.646  15.553 -0.8660 -2.8043 -0.9872
 6141SOL    HW229886   0.849   2.767  15.617 -1.3862 -0.0369 -0.9472
 6142SOL     OW29887   1.669   4.494   2.185  0.3307 -0.1589  0.2036
 6142SOL    HW129888   1.737   4.518   2.246  2.6164 -1.1484 -1.9530
 6142SOL    HW229889   1.582   4.513   2.220  0.4277 -0.9801  0.8948
 6143SOL     OW29890   2.229   3.892   2.225  0.3712 -0.3085  0.0990
 6143SOL    HW129891   2.296   3.828   2.199  3.6127  2.3584  1.8185
 6143SOL    HW229892   2.170   3.872   2.152  0.2976 -0.8849  0.3120
 6144SOL     OW29893   1.831   1.025   7.749  0.2445 -0.0969 -0.1409
 6144SOL    HW129894   1.765   0.970   7.706  1.4570 -0.5340 -1.4651
 6144SOL    HW229895   1.908   0.971   7.728  1.5675  0.7871  2.4002
 6145SOL     OW29896   3.822   2.378  10.115  0.3893  0.2836 -0.6493
 6145SOL    HW129897   3.820   2.286  10.141 -2.2105  0.3485 -0.5433
 6145SOL    HW229898   3.890   2.414  10.171  1.4799  1.0401 -2.4386
 6146SOL     OW29899   3.371   0.174  14.151  0.4256  0.1274  0.2467
 6146SOL    HW129900   3.389   0.197  14.243  0.7921  0.0700  0.1896
 6146SOL    HW229901   3.376   0.079  14.146  1.1162  0.2115 -0.7555
 6147SOL     OW29902   1.908   4.589   2.916  0.3646 -0.1529 -0.1109
 6147SOL    HW129903   1.976   4.582   2.849  0.7378  1.8199  0.0647
 6147SOL    HW229904   1.895   4.683   2.922 -1.6821 -0.3417 -1.4560
 6148SOL     OW29905   3.641   0.985   8.979 -0.0222 -0.1557  0.3328
 6148SOL    HW129906   3.593   1.037   9.044  1.6768  1.0674  0.6145
 6148SOL    HW229907   3.571   0.926   8.949 -0.7206  1.1918 -0.7183
 6149SOL     OW29908   4.418   0.679   4.533  0.0894 -0.1237  0.2677
 6149SOL    HW129909   4.381   0.685   4.621 -0.7932 -0.0151 -0.1167
 6149SOL    HW229910   4.503   0.720   4.550  0.3150 -0.2546 -0.5800
 6150SOL     OW29911   1.566   3.410   7.272  0.5590 -0.3591 -0.3726
 6150SOL    HW129912   1.585   3.317   7.285  0.9866 -0.6130 -2.7661
 6150SOL    HW229913   1.519   3.431   7.353  0.3540 -1.8713 -0.0882
 6151SOL     OW29914   3.748   3.428   1.913 -0.1259  0.0861  0.5277
 6151SOL    HW129915   3.724   3.393   1.827 -1.6692 -0.6173  1.2540
 6151SOL    HW229916   3.700   3.368   1.969 -1.0544 -0.6783 -1.0968
 6152SOL     OW29917   3.105   2.308  13.277 -0.6027  0.1829  0.6366
 6152SOL    HW129918   3.020   2.352  13.272 -0.3579  0.2743 -2.7387
 6152SOL    HW229919   3.140   2.310  13.188 -3.6484  1.2625 -0.5479
 6153SOL     OW29920   1.582   3.153   6.448 -0.2200  0.2819 -0.0529
 6153SOL    HW129921   1.612   3.125   6.534  0.1039  1.0970  0.0926
 6153SOL    HW229922   1.646   3.105   6.395  0.7198  0.6936  0.7305
 6154SOL     OW29923   1.834   0.543   1.756 -0.2432 -0.5403  0.2471
 6154SOL    HW129924   1.817   0.546   1.661  1.1401 -2.4194 -0.0809
 6154SOL    HW229925   1.780   0.466   1.776 -1.7180  0.8624  1.5649
 6155SOL     OW29926   0.595   0.993  14.933  0.2701 -0.5255 -0.7019
 6155SOL    HW129927   0.547   0.971  15.013 -0.4002  1.9673 -0.4177
 6155SOL    HW229928   0.544   1.064  14.894  0.4381 -0.2220 -0.3784
 6156SOL     OW29929   0.244   2.148   6.894 -0.1102  0.2973  0.1246
 6156SOL    HW129930   0.174   2.185   6.946 -1.4251 -3.7051  1.1919
 6156SOL    HW229931   0.316   2.208   6.912  1.5127 -1.4728 -0.3948
 6157SOL     OW29932   2.125   3.036  13.117 -0.0234  0.2488 -0.0141
 6157SOL    HW129933   2.100   3.066  13.030 -2.2850  0.9613  0.8965
 6157SOL    HW229934   2.049   2.996  13.158  0.9906 -1.2534  0.3990
 6158SOL     OW29935   0.848   4.073   3.759  0.0864  0.1656 -0.3958
 6158SOL    HW129936   0.769   4.049   3.712 -1.8527  0.7639  2.5644
 6158SOL    HW229937   0.826   4.042   3.847 -1.2546 -1.9213 -1.4711
 6159SOL     OW29938   0.614   1.141   8.634  0.2083  0.3542 -0.1677
 6159SOL    HW129939   0.597   1.227   8.596 -1.4419  0.2087  0.2534
 6159SOL    HW229940   0.545   1.087   8.595 -0.3681  1.3947 -0.5698
 6160SOL     OW29941   0.743   0.250   8.058  0.3148  0.1784  0.5559
 6160SOL    HW129942   0.772   0.308   8.128 -1.7199  1.4460  0.3423
 6160SOL    HW229943   0.753   0.160   8.091  2.0207  0.0542 -0.3341
 6161SOL     OW29944   4.322   3.465   8.600  0.1993 -0.0963  0.6332
 6161SOL    HW129945   4.293   3.435   8.686  0.2105 -0.1959  0.6033
 6161SOL    HW229946   4.385   3.397   8.576 -0.2181  0.5595 -2.3108
 6162SOL     OW29947   4.209   0.546   7.222  0.5010  0.1233  0.1693
 6162SOL    HW129948   4.285   0.502   7.259  0.0797  0.2854  1.2198
 6162SOL    HW229949   4.139   0.487   7.250  0.4532  0.1327  0.0695
 6163SOL     OW29950   4.451   1.243   6.409  0.1671 -0.9736  0.0541
 6163SOL    HW129951   4.486   1.219   6.495  2.6950 -1.7658 -1.1908
 6163SOL    HW229952   4.420   1.156   6.383 -2.1764 -0.6061  1.5900
 6164SOL     OW29953   1.203   4.321   1.080 -0.0421 -0.2779  0.2514
 6164SOL    HW129954   1.193   4.409   1.044 -3.0356 -0.8833 -0.4218
 6164SOL    HW229955   1.224   4.275   0.999 -1.6518  1.6444 -1.2534
 6165SOL     OW29956   1.563   3.205   9.819  0.2206 -0.4153 -0.6157
 6165SOL    HW129957   1.521   3.264   9.756 -0.2188 -1.5336 -1.3737
 6165SOL    HW229958   1.653   3.194   9.789  1.0228  3.0007  0.5320
 6166SOL     OW29959   4.321   3.433  11.727  0.4647 -0.2815 -0.1105
 6166SOL    HW129960   4.230   3.423  11.754  0.8087  0.0109  1.1535
 6166SOL    HW229961   4.335   3.528  11.730  1.0883 -0.3414 -0.9038
 6167SOL     OW29962   3.371   2.862  14.110 -0.4962  0.6290 -0.2038
 6167SOL    HW129963   3.287   2.857  14.155  1.5523 -1.8811  3.2941
 6167SOL    HW229964   3.401   2.949  14.138 -2.5799  0.0292  3.8669
 6168SOL     OW29965   0.170   2.083   2.456 -0.3176 -0.3015 -0.0273
 6168SOL    HW129966   0.081   2.052   2.442 -1.0267  0.6599  2.3158
 6168SOL    HW229967   0.216   2.015   2.506 -2.8043 -3.1894 -1.6600
 6169SOL     OW29968   2.710   2.685   7.671  0.1101  0.3020 -0.3258
 6169SOL    HW129969   2.649   2.615   7.648 -2.0400  2.3201 -0.7523
 6169SOL    HW229970   2.768   2.643   7.736 -0.4037 -0.9109 -0.6454
 6170SOL     OW29971   1.454   0.419   8.987 -0.5460 -0.3057 -0.2995
 6170SOL    HW129972   1.496   0.500   8.958  1.3079 -1.2440 -0.2397
 6170SOL    HW229973   1.522   0.353   8.979  0.1710  0.2811  0.8651
 6171SOL     OW29974   1.746   3.126  10.040  0.1047  0.5177 -0.0591
 6171SOL    HW129975   1.666   3.130   9.988  0.1754 -1.0906 -0.2652
 6171SOL    HW229976   1.789   3.208  10.013 -1.1512  1.2685  0.1885
 6172SOL     OW29977   3.758   2.477   4.657  0.0770  0.2670  0.2025
 6172SOL    HW129978   3.757   2.567   4.624 -0.7676  0.3571  0.4793
 6172SOL    HW229979   3.690   2.447   4.597  0.1372 -4.0925  2.3314
 6173SOL     OW29980   3.313   3.081   2.806 -0.1035 -0.7451  0.2460
 6173SOL    HW129981   3.335   3.174   2.796 -0.6858 -0.4832  1.4006
 6173SOL    HW229982   3.317   3.078   2.902 -1.3374 -1.6452  0.2592
 6174SOL     OW29983   1.722   4.370   8.604  0.3459 -0.4635 -0.1229
 6174SOL    HW129984   1.647   4.328   8.560 -0.4715 -0.3414  1.1529
 6174SOL    HW229985   1.788   4.355   8.536  0.0752  1.6241 -0.8519
 6175SOL     OW29986   0.114   1.066   2.990  0.4485 -0.5409 -0.5198
 6175SOL    HW129987   0.119   1.089   3.083  2.6926  1.3589 -1.1226
 6175SOL    HW229988   0.077   0.978   2.992  2.1047 -1.2656 -1.3967
 6176SOL     OW29989   4.186   3.934   1.531  0.5869 -0.4631 -0.1869
 6176SOL    HW129990   4.214   3.847   1.502 -1.5918 -1.3429  0.3663
 6176SOL    HW229991   4.127   3.910   1.602  1.7629 -1.1642  0.5634
 6177SOL     OW29992   4.509   2.092  11.186 -0.6289 -0.0804  0.0469
 6177SOL    HW129993   4.418   2.063  11.184 -0.8606  0.6532 -0.0223
 6177SOL    HW229994   4.508   2.171  11.132 -0.5990  0.1011  0.3121
 6178SOL     OW29995   3.877   4.367   8.235 -0.1188 -0.1326  0.0499
 6178SOL    HW129996   3.830   4.350   8.153  0.6915  3.6818 -1.1813
 6178SOL    HW229997   3.805   4.359   8.298  0.2792 -1.3057  0.3447
 6179SOL     OW29998   0.890   4.206   1.948  0.3696 -0.3389  0.1024
 6179SOL    HW129999   0.955   4.155   1.997 -1.4532 -1.9015  0.9326
 6179SOL    HW230000   0.903   4.165   1.863 -0.0143 -0.0779 -0.0811
 6180SOL     OW30001   0.824   2.422   2.805 -0.0373 -0.7046  0.2438
 6180SOL    HW130002   0.759   2.477   2.763 -0.3695  0.7848  2.7157
 6180SOL    HW230003   0.836   2.353   2.740 -0.6108 -0.0291 -0.5634
 6181SOL     OW30004   0.862   2.797   5.210 -0.0290  0.5151 -0.3954
 6181SOL    HW130005   0.821   2.743   5.278  1.2894  1.2175  0.9550
 6181SOL    HW230006   0.784   2.849   5.190 -1.1416 -1.3600 -0.9475
 6182SOL     OW30007   1.589   2.011  11.716 -0.3878  0.4845 -0.2942
 6182SOL    HW130008   1.607   2.069  11.641  2.4475 -0.4273 -0.3344
 6182SOL    HW230009   1.511   2.051  11.755 -1.1358  0.5030 -1.8067
 6183SOL     OW30010   0.111   1.488  15.473  0.2366 -0.3086  0.0244
 6183SOL    HW130011   0.204   1.464  15.477  0.1853 -0.3466  1.0867
 6183SOL    HW230012   0.108   1.582  15.486 -0.2456 -0.3337  0.0976
 6184SOL     OW30013   4.653   1.407   3.102  0.6465 -0.1179  0.1185
 6184SOL    HW130014   4.649   1.414   3.007 -1.5000 -0.4166  0.2003
 6184SOL    HW230015   4.577   1.355   3.126  0.9794 -0.1132  1.1818
 6185SOL     OW30016   0.123   2.899   6.569 -0.2082  0.5159  0.1096
 6185SOL    HW130017   0.077   2.896   6.653  0.4048 -2.6831  0.3127
 6185SOL    HW230018   0.161   2.987   6.569 -1.6481  1.1512 -0.8131
 6186SOL     OW30019   2.231   2.853   3.616  0.5140 -0.1165  0.0804
 6186SOL    HW130020   2.171   2.798   3.566 -0.4188 -0.6083  1.7451
 6186SOL    HW230021   2.220   2.934   3.566  1.2896 -1.4651 -2.2731
 6187SOL     OW30022   2.405   4.373  13.483 -0.3747  0.4154 -0.0431
 6187SOL    HW130023   2.485   4.424  13.493  1.2400 -2.5228  2.1690
 6187SOL    HW230024   2.415   4.341  13.394  0.8995  1.6486 -0.3367
 6188SOL     OW30025   1.376   0.179  15.451 -0.1548  0.1949 -0.3252
 6188SOL    HW130026   1.315   0.241  15.491 -0.4557 -1.0247  1.0768
 6188SOL    HW230027   1.337   0.094  15.469  0.8991 -0.5241 -1.4075
 6189SOL     OW30028   0.920   1.471   5.122 -0.0943  0.0609 -0.4344
 6189SOL    HW130029   0.975   1.548   5.109  1.7396 -1.1154  0.3544
 6189SOL    HW230030   0.866   1.501   5.195 -0.5672  1.6496 -1.4310
 6190SOL     OW30031   3.153   0.230  13.267  0.2219 -0.7927 -0.1041
 6190SOL    HW130032   3.222   0.237  13.201  0.8380 -2.3385  0.3797
 6190SOL    HW230033   3.202   0.272  13.338 -1.0640  1.0050 -0.2808
 6191SOL     OW30034   3.613   2.730   4.124 -0.5193 -0.5474 -0.1304
 6191SOL    HW130035   3.576   2.647   4.095  1.6529 -1.0580 -1.4925
 6191SOL    HW230036   3.575   2.744   4.210 -1.3370 -0.4123 -0.5100
 6192SOL     OW30037   3.688   4.670   8.098  0.2072  0.3898 -0.1480
 6192SOL    HW130038   3.601   4.709   8.096 -0.3341 -0.8458 -0.7601
 6192SOL    HW230039   3.671   4.577   8.086  1.5092  0.1116  0.2224
 6193SOL     OW30040   1.326   2.395  11.629  0.1149 -0.2826 -0.3350
 6193SOL    HW130041   1.348   2.447  11.552  1.2832 -2.3514 -1.4099
 6193SOL    HW230042   1.398   2.332  11.630  0.0804 -0.3356 -1.0363
 6194SOL     OW30043   1.622   0.088   2.058 -0.0498  0.4865 -0.0100
 6194SOL    HW130044   1.532   0.066   2.082 -0.1543 -0.6140 -1.4295
 6194SOL    HW230045   1.652   0.123   2.142 -1.4757 -1.7047  1.4523
 6195SOL     OW30046   3.103   4.392   6.469 -0.1406 -0.3334  0.2018
 6195SOL    HW130047   3.063   4.406   6.555  1.8079  0.6877  0.9398
 6195SOL    HW230048   3.192   4.419   6.495  0.0944 -2.6748  1.8384
 6196SOL     OW30049   1.814   3.520   7.103  0.5308  0.2680  0.0265
 6196SOL    HW130050   1.798   3.613   7.116 -0.5933  0.1484 -0.5210
 6196SOL    HW230051   1.736   3.487   7.147  0.9463  0.1352  0.6551
 6197SOL     OW30052   4.220   0.451   0.726 -0.2717 -0.0298  0.3507
 6197SOL    HW130053   4.248   0.492   0.644 -0.8221 -1.6554 -0.6542
 6197SOL    HW230054   4.158   0.380   0.707 -1.7732  0.6105  2.9206
 6198SOL     OW30055   0.004   0.584  14.456 -0.1595  0.0721  0.0699
 6198SOL    HW130056   4.684   0.498  14.466 -0.8040  0.1409 -1.8502
 6198SOL    HW230057   4.649   0.630  14.420 -0.8296 -0.8527  0.3133
 6199SOL     OW30058   0.214   2.219   8.193 -0.4798 -0.4031  0.1747
 6199SOL    HW130059   0.292   2.249   8.241 -0.1117  0.5747 -1.0330
 6199SOL    HW230060   0.164   2.299   8.178  0.3434  0.5388  2.4669
 6200SOL     OW30061   0.797   1.445   4.802 -1.0100 -0.1177 -0.4571
 6200SOL    HW130062   0.878   1.452   4.853 -0.7544 -1.0865 -0.7364
 6200SOL    HW230063   0.790   1.531   4.760 -0.5702 -0.5436 -1.3937
 6201SOL     OW30064   0.419   4.043  13.458  0.0972 -0.3121  0.0408
 6201SOL    HW130065   0.483   4.096  13.411 -0.2500  0.5098  0.4938
 6201SOL    HW230066   0.437   3.950  13.446 -1.8662 -0.9616  2.2451
 6202SOL     OW30067   3.608   4.324   8.396 -0.6974  0.7727 -0.2236
 6202SOL    HW130068   3.520   4.362   8.394 -0.3364  1.6824  1.5895
 6202SOL    HW230069   3.590   4.230   8.395 -2.7523  1.1793 -1.6660
 6203SOL     OW30070   0.908   4.468   9.571 -0.2423  0.1979  0.0625
 6203SOL    HW130071   0.852   4.457   9.495  2.2321 -0.3786 -1.6749
 6203SOL    HW230072   0.847   4.508   9.634 -0.1861  1.0404 -0.4278
 6204SOL     OW30073   3.724   1.256   1.438  0.6229  0.2135 -0.0233
 6204SOL    HW130074   3.665   1.180   1.441  0.3569  0.4246  0.1546
 6204SOL    HW230075   3.712   1.293   1.351  2.0323 -2.1495 -1.2315
 6205SOL     OW30076   4.030   1.177   0.820  0.5054 -0.3166 -0.1192
 6205SOL    HW130077   4.077   1.257   0.847  1.3708 -0.9342  0.2137
 6205SOL    HW230078   4.088   1.120   0.770 -1.1104 -0.7795 -1.4442
 6206SOL     OW30079   2.248   0.455   0.311 -0.4673  0.3474  0.3579
 6206SOL    HW130080   2.227   0.548   0.300  1.1097  0.9200  2.1545
 6206SOL    HW230081   2.273   0.450   0.403  2.3552  0.6913 -0.4008
 6207SOL     OW30082   0.230   3.402   5.736 -0.0126  0.6798  0.0818
 6207SOL    HW130083   0.176   3.325   5.751 -0.3116  1.0305  0.8191
 6207SOL    HW230084   0.194   3.463   5.801  1.0349  0.9804  0.3906
 6208SOL     OW30085   1.611   4.524   7.104 -0.2416  0.4134 -0.1504
 6208SOL    HW130086   1.686   4.584   7.105 -0.5195  0.7662 -0.9128
 6208SOL    HW230087   1.548   4.568   7.161 -0.3727  0.8183 -0.6075
 6209SOL     OW30088   3.645   4.045   9.725  0.4058 -0.2343  0.5617
 6209SOL    HW130089   3.645   4.070   9.817 -2.9752 -2.7702  1.2597
 6209SOL    HW230090   3.571   4.094   9.688  1.4437  0.6949 -0.2774
 6210SOL     OW30091   3.808   2.426   8.003 -0.3514  0.6890 -0.1629
 6210SOL    HW130092   3.816   2.520   8.021  0.5823  0.6452 -0.3479
 6210SOL    HW230093   3.712   2.423   8.006 -0.2810  0.5495  1.6180
 6211SOL     OW30094   2.065   2.492   8.076 -0.6255  0.0896 -0.1367
 6211SOL    HW130095   2.048   2.405   8.041 -0.8810 -0.2508  0.8362
 6211SOL    HW230096   2.000   2.544   8.029 -0.1842  2.4985  1.9113
 6212SOL     OW30097   0.463   2.731   4.494  0.4389 -0.2295 -0.5545
 6212SOL    HW130098   0.450   2.671   4.568 -1.3406  1.9196  0.8804
 6212SOL    HW230099   0.555   2.714   4.475  0.8420  0.4587  0.7857
 6213SOL     OW30100   0.730   4.716  16.738 -0.5945  0.3802 -0.5681
 6213SOL    HW130101   0.735   4.640  16.680  0.7328 -0.1050  0.1931
 6213SOL    HW230102   0.695   0.059  16.677 -0.4397 -0.6662 -1.7693
 6214SOL     OW30103   2.249   1.758  15.963 -0.7099  0.3338 -0.2458
 6214SOL    HW130104   2.275   1.689  15.901  1.0891 -0.8372  1.7947
 6214SOL    HW230105   2.259   1.834  15.905  0.6992 -0.4268 -1.0208
 6215SOL     OW30106   2.498   3.937   4.128  0.4098  0.1318 -0.0476
 6215SOL    HW130107   2.492   3.921   4.034 -0.8660  1.8472 -0.2583
 6215SOL    HW230108   2.494   3.846   4.158 -1.3370  0.2384  0.0303
 6216SOL     OW30109   3.503   2.715  17.398 -0.1311 -0.2226 -0.1648
 6216SOL    HW130110   3.475   2.764  17.475  1.0905 -0.2220  0.2850
 6216SOL    HW230111   3.590   2.755  17.395  0.1691 -0.8393  0.3778
 6217SOL     OW30112   0.691   3.556   5.309  0.4199  0.0716 -0.0037
 6217SOL    HW130113   0.768   3.533   5.361 -0.1725 -1.7520  0.0757
 6217SOL    HW230114   0.641   3.597   5.380 -0.6351  0.6068 -1.0458
 6218SOL     OW30115   4.120   3.054   6.665 -0.5831 -0.5264  0.8803
 6218SOL    HW130116   4.043   2.998   6.663 -0.2139 -1.0482  1.0528
 6218SOL    HW230117   4.150   3.062   6.575 -0.2490  0.8822  1.1201
 6219SOL     OW30118   3.237   3.996  10.055 -0.0766  0.4799 -0.4163
 6219SOL    HW130119   3.314   4.051  10.066 -0.6960  0.9693  1.5782
 6219SOL    HW230120   3.201   4.008  10.143 -2.6159  0.0288 -1.3884
 6220SOL     OW30121   3.555   0.010   2.406  0.0540 -0.5394  0.3176
 6220SOL    HW130122   3.511   0.037   2.325 -0.0294 -0.9172  0.2380
 6220SOL    HW230123   3.511   0.069   2.468  0.1297 -1.7922  1.5659
 6221SOL     OW30124   0.032   3.850  10.113  1.2879  0.3808  0.5028
 6221SOL    HW130125   4.673   3.818  10.154  0.7874 -1.2475 -1.7112
 6221SOL    HW230126   0.007   3.900  10.035  2.8331 -1.8849 -1.4711
 6222SOL     OW30127   2.588   0.833  17.110 -0.0568  0.3870 -1.0566
 6222SOL    HW130128   2.595   0.768  17.179 -0.4292  1.8205  0.3165
 6222SOL    HW230129   2.501   0.867  17.130 -0.8012 -2.9917  1.3885
 6223SOL     OW30130   2.910   3.543   0.193 -0.0416 -0.5673 -0.0544
 6223SOL    HW130131   2.839   3.550   0.130  0.8346 -2.7788 -1.2821
 6223SOL    HW230132   2.872   3.569   0.277  2.2381 -0.3598  0.9315
 6224SOL     OW30133   1.433   0.422  15.319 -0.1517 -0.3123 -0.1687
 6224SOL    HW130134   1.402   0.332  15.320 -0.5674 -0.1353  2.0114
 6224SOL    HW230135   1.377   0.457  15.389 -0.4445  1.2172 -1.1501
 6225SOL     OW30136   1.966   3.300  13.869 -0.4068 -0.0471 -0.3462
 6225SOL    HW130137   1.964   3.214  13.828 -1.3252 -0.1962  0.0064
 6225SOL    HW230138   1.872   3.320  13.871 -0.6149 -1.2464  1.6035
 6226SOL     OW30139   0.764   0.891   1.971 -0.0980 -0.5888 -0.3532
 6226SOL    HW130140   0.786   0.857   1.885  0.8340  1.4713 -0.9242
 6226SOL    HW230141   0.825   0.964   1.976 -0.0073 -0.8240  2.2408
 6227SOL     OW30142   0.375   3.954   8.150  0.4025 -0.0327 -0.7684
 6227SOL    HW130143   0.376   3.922   8.060 -0.7382  0.0121 -0.7940
 6227SOL    HW230144   0.289   3.917   8.168 -0.6722  1.8530 -2.0139
 6228SOL     OW30145   2.237   0.713   6.738  0.3705 -0.0153 -0.2807
 6228SOL    HW130146   2.288   0.794   6.736  0.3887 -0.0270 -0.2873
 6228SOL    HW230147   2.192   0.723   6.654 -1.0391  0.7200  0.5585
 6229SOL     OW30148   1.074   3.165   2.303  0.4716 -0.1511  0.4051
 6229SOL    HW130149   1.012   3.174   2.231  0.2432  0.8673  0.7297
 6229SOL    HW230150   1.010   3.179   2.374  0.0279  1.2823 -0.2730
 6230SOL     OW30151   4.259   0.244   8.844 -0.8270  0.5674 -0.7606
 6230SOL    HW130152   4.312   0.304   8.791  1.4591 -0.6124  0.2063
 6230SOL    HW230153   4.317   0.168   8.847  2.1615  2.9029  1.3455
 6231SOL     OW30154   3.522   1.759  16.680 -0.0614 -0.0463  0.3166
 6231SOL    HW130155   3.463   1.816  16.632 -2.3207 -2.8245 -0.1819
 6231SOL    HW230156   3.511   1.794  16.769  0.5170 -1.6162  1.0188
 6232SOL     OW30157   3.539   0.079  13.549  0.0768 -0.1419 -0.1865
 6232SOL    HW130158   3.531   0.149  13.485  0.1562  1.1990  1.2584
 6232SOL    HW230159   3.634   0.077  13.557  0.0653  0.0817 -0.0081
 6233SOL     OW30160   1.347   4.444   6.314  0.3100  0.5297  0.4252
 6233SOL    HW130161   1.263   4.399   6.319  0.8661 -0.5731 -0.2056
 6233SOL    HW230162   1.392   4.409   6.238  0.6265  2.2749 -0.1887
 6234SOL     OW30163   3.817   1.047   3.557  0.1357 -0.0925 -0.4397
 6234SOL    HW130164   3.758   1.023   3.629  3.2122 -4.1845  0.7535
 6234SOL    HW230165   3.906   1.050   3.591 -0.9817  0.4887  2.4145
 6235SOL     OW30166   1.409   0.887   7.834 -0.3723  0.6146  0.1629
 6235SOL    HW130167   1.315   0.904   7.839 -0.3099  0.8924  0.4045
 6235SOL    HW230168   1.407   0.807   7.781 -0.2620  0.2111  0.7590
 6236SOL     OW30169   2.107   2.639   3.529 -0.2121  0.1089 -0.3865
 6236SOL    HW130170   2.118   2.564   3.470 -0.7778 -0.4321  0.2008
 6236SOL    HW230171   2.012   2.635   3.540 -0.1110  1.7126  1.0724
 6237SOL     OW30172   0.326   3.765   2.358  0.5647 -0.3118  0.6038
 6237SOL    HW130173   0.294   3.675   2.368  0.5741 -0.4960 -0.9771
 6237SOL    HW230174   0.389   3.760   2.286  0.8162  0.8110  0.7480
 6238SOL     OW30175   1.045   1.386   2.058  0.4788 -0.4249  0.1744
 6238SOL    HW130176   1.040   1.468   2.009  2.1311 -0.5924 -0.2644
 6238SOL    HW230177   1.137   1.398   2.080  0.4030  0.1041  0.2105
 6239SOL     OW30178   1.115   2.392   7.045  0.0534  0.2020  0.2378
 6239SOL    HW130179   1.098   2.298   7.034  1.8719  0.0884 -1.7649
 6239SOL    HW230180   1.108   2.389   7.141 -0.0465  0.0667  0.2271
 6240SOL     OW30181   2.684   2.743  11.174  0.0277 -0.2012 -0.3701
 6240SOL    HW130182   2.773   2.777  11.180 -0.6429  1.5672 -0.5725
 6240SOL    HW230183   2.698   2.649  11.183 -0.9325 -0.5300 -2.3242
 6241SOL     OW30184   0.821   2.891   9.550 -0.2854 -0.2318  0.1955
 6241SOL    HW130185   0.917   2.900   9.554 -0.0825 -1.4482 -2.4098
 6241SOL    HW230186   0.812   2.984   9.571 -0.3533 -0.8710  3.0194
 6242SOL     OW30187   3.174   1.254   1.282  0.0346  0.1339 -0.5584
 6242SOL    HW130188   3.182   1.168   1.241  1.7216  1.1234 -2.2935
 6242SOL    HW230189   3.172   1.318   1.211  0.1356 -0.1062 -0.7737
 6243SOL     OW30190   1.016   2.682  12.114 -0.4747 -0.1477 -0.0977
 6243SOL    HW130191   1.019   2.598  12.069  0.7728  0.0500 -0.3924
 6243SOL    HW230192   1.075   2.669  12.188  1.2979 -0.4527 -1.5566
 6244SOL     OW30193   0.591   2.893   7.313  0.2457 -0.8267  0.2357
 6244SOL    HW130194   0.531   2.820   7.325  1.6035 -1.9545  0.1748
 6244SOL    HW230195   0.673   2.845   7.314  0.4818 -0.4341  0.0555
 6245SOL     OW30196   3.830   4.062   8.542  0.5142  0.2335 -0.2508
 6245SOL    HW130197   3.864   4.138   8.495  0.5161 -0.6687 -1.7347
 6245SOL    HW230198   3.871   4.062   8.628  2.0951  0.7705 -1.0027
 6246SOL     OW30199   3.526   3.486   4.927 -0.2021 -0.0092 -0.4411
 6246SOL    HW130200   3.551   3.570   4.887  0.5577 -0.3433 -0.6649
 6246SOL    HW230201   3.607   3.460   4.971 -0.6967  0.3148  0.6602
 6247SOL     OW30202   0.252   2.959   0.427 -0.1750 -0.2309  0.5704
 6247SOL    HW130203   0.159   2.942   0.443 -0.5035 -0.5738 -1.6944
 6247SOL    HW230204   0.246   2.999   0.340  0.6173 -0.2890  0.4908
 6248SOL     OW30205   4.197   0.143   8.540 -0.0957  0.4715 -0.0997
 6248SOL    HW130206   4.259   0.164   8.470  1.2245  0.7186  1.1342
 6248SOL    HW230207   4.192   0.050   8.517  1.4266  0.4312 -0.3214
 6249SOL     OW30208   1.381   4.624  14.316 -0.2169 -0.1096  0.3902
 6249SOL    HW130209   1.406   4.543  14.361  0.9700  1.2001  2.0658
 6249SOL    HW230210   1.365   4.684  14.388 -1.5917 -1.0965  0.8952
 6250SOL     OW30211   2.836   3.929  16.270  0.0715 -0.4305  0.2525
 6250SOL    HW130212   2.821   4.022  16.283  0.0210 -0.5859  1.3795
 6250SOL    HW230213   2.748   3.900  16.294  0.2578 -2.0530 -0.9826
 6251SOL     OW30214   3.788   3.934   6.549  0.3489  0.2061 -0.6240
 6251SOL    HW130215   3.871   3.953   6.593  0.4070 -3.3206  0.7660
 6251SOL    HW230216   3.802   3.960   6.458  0.3132 -0.7755 -0.9138
 6252SOL     OW30217   1.402   1.833   9.926  0.0390  0.2184 -1.2213
 6252SOL    HW130218   1.367   1.785   9.851 -0.7867 -0.7557 -0.2094
 6252SOL    HW230219   1.471   1.883   9.882  0.8609  3.4177  3.7335
 6253SOL     OW30220   4.703   2.393   5.124  0.3145  0.0189  0.3243
 6253SOL    HW130221   4.609   2.377   5.118  0.7433 -2.4925  0.1915
 6253SOL    HW230222   4.715   2.392   5.219  0.9734  3.1219  0.2760
 6254SOL     OW30223   4.388   3.495   1.856 -0.0110 -0.5373  0.4948
 6254SOL    HW130224   4.439   3.533   1.785 -1.4284  2.2814  0.9940
 6254SOL    HW230225   4.373   3.561   1.923  2.2105 -1.2935  1.7245
 6255SOL     OW30226   2.005   0.310  12.975 -0.3274 -0.7969 -0.2029
 6255SOL    HW130227   1.917   0.340  12.950 -0.1122  2.1160  2.5462
 6255SOL    HW230228   2.009   0.337  13.067 -0.4609 -0.1526 -0.3790
 6256SOL     OW30229   1.422   1.908   3.237  0.1571 -0.2633  0.1847
 6256SOL    HW130230   1.361   1.873   3.172  0.9240  1.5353 -1.4762
 6256SOL    HW230231   1.482   1.951   3.177 -0.0748  0.2130  0.2881
 6257SOL     OW30232   0.135   2.100   5.579 -0.1716  0.0085 -0.2002
 6257SOL    HW130233   0.066   2.130   5.519 -0.4935 -0.5465 -0.1124
 6257SOL    HW230234   0.102   2.010   5.577  1.1362 -0.4803  1.1108
 6258SOL     OW30235   2.665   0.672   7.769  0.6919  0.3852  0.1079
 6258SOL    HW130236   2.751   0.646   7.736  0.5193  0.5435 -0.4638
 6258SOL    HW230237   2.616   0.713   7.698 -1.4273 -1.3601  0.5677
 6259SOL     OW30238   4.617   3.159  16.023  0.5854 -0.1101  0.1281
 6259SOL    HW130239   4.682   3.227  16.035  0.2256  0.0412  1.2550
 6259SOL    HW230240   4.543   3.195  16.072  0.4145  1.0756 -0.9979
 6260SOL     OW30241   1.804   3.942   2.689  0.2615  0.2783  0.8452
 6260SOL    HW130242   1.746   3.923   2.615 -0.8704  1.9993  1.2969
 6260SOL    HW230243   1.743   3.943   2.763 -1.4859 -0.4499 -0.5823
 6261SOL     OW30244   3.773   0.609   8.011  0.5404 -0.2291 -0.1795
 6261SOL    HW130245   3.859   0.589   7.975  0.9752 -2.1220  1.9157
 6261SOL    HW230246   3.779   0.704   8.022  0.9934 -0.3722  0.8907
 6262SOL     OW30247   0.119   2.152   5.850  0.6583  0.7073 -0.0077
 6262SOL    HW130248   0.132   2.123   5.759 -0.5878  0.4582 -0.1067
 6262SOL    HW230249   0.148   2.243   5.851  1.7020  0.3375  1.9416
 6263SOL     OW30250   4.068   4.646  14.427  0.4408 -0.1969 -0.1135
 6263SOL    HW130251   4.158   4.653  14.395  0.2406  1.8250 -0.2686
 6263SOL    HW230252   4.030   4.574  14.377 -1.8768  1.0358 -0.1412
 6264SOL     OW30253   3.412   1.377   2.638 -0.3926  0.2213  0.4375
 6264SOL    HW130254   3.470   1.452   2.625  0.0207 -0.1692  0.0328
 6264SOL    HW230255   3.465   1.312   2.684  0.7097 -0.2392 -1.4818
 6265SOL     OW30256   3.460   2.147   7.799  0.2856 -0.5698 -0.3111
 6265SOL    HW130257   3.482   2.235   7.770 -0.7304  0.4600  2.0268
 6265SOL    HW230258   3.380   2.126   7.751 -0.9916 -1.8268  2.3948
 6266SOL     OW30259   0.269   2.893  16.263  0.5471 -0.7715  0.7960
 6266SOL    HW130260   0.231   2.815  16.303 -0.6233 -0.3808  0.4483
 6266SOL    HW230261   0.299   2.855  16.181 -1.1213  1.8783 -1.0609
 6267SOL     OW30262   2.100   1.161  16.683  0.6105  0.4390  0.2799
 6267SOL    HW130263   2.107   1.177  16.777  0.2653  0.0377  0.3743
 6267SOL    HW230264   2.190   1.186  16.661  1.4164 -3.5252 -0.9124
 6268SOL     OW30265   1.883   2.745  17.386 -0.1864  0.4407  0.1839
 6268SOL    HW130266   1.948   2.734  17.457  0.4453 -1.3114 -0.6530
 6268SOL    HW230267   1.916   2.819  17.335 -1.1127  0.6401 -0.1192
 6269SOL     OW30268   3.702   1.023   9.804 -0.1191 -0.0427  0.5348
 6269SOL    HW130269   3.659   1.034   9.720 -0.3700 -1.3858  0.4870
 6269SOL    HW230270   3.652   0.949   9.838  0.7159 -0.8639 -0.0408
 6270SOL     OW30271   4.290   3.353   2.519 -0.5680 -0.3650  0.0329
 6270SOL    HW130272   4.199   3.334   2.542  0.1535 -0.3441  2.8806
 6270SOL    HW230273   4.303   3.446   2.538  1.5275 -0.3847 -1.3536
 6271SOL     OW30274   0.253   1.800   3.889  0.2757 -0.6753 -0.0266
 6271SOL    HW130275   0.277   1.835   3.803 -0.5095 -2.9744 -1.1458
 6271SOL    HW230276   0.338   1.779   3.929 -0.0867  1.0520  1.7125
 6272SOL     OW30277   2.372   2.776  10.743  0.1001  0.5370  0.1111
 6272SOL    HW130278   2.294   2.830  10.754  0.7005  0.8476  2.7069
 6272SOL    HW230279   2.410   2.751  10.827 -1.3725 -3.8529 -0.5170
 6273SOL     OW30280   4.063   2.279   3.276  1.0852  0.0659 -0.5328
 6273SOL    HW130281   4.014   2.253   3.198 -0.2066  0.4253  0.1620
 6273SOL    HW230282   4.058   2.199   3.328  1.0143  1.1475  1.1242
 6274SOL     OW30283   4.338   4.100   8.329  0.2349 -0.7359  0.1000
 6274SOL    HW130284   4.306   4.014   8.299 -1.4270 -0.2829  0.6184
 6274SOL    HW230285   4.253   4.144   8.332 -1.3333 -3.6640 -1.4828
 6275SOL     OW30286   1.591   2.906   0.264  0.4029 -0.8020  0.1704
 6275SOL    HW130287   1.638   2.849   0.203  3.0581 -1.4301  2.7709
 6275SOL    HW230288   1.593   2.988   0.216 -0.7360  0.5574  2.4394
 6276SOL     OW30289   1.877   1.511   4.046  0.3384 -0.0807 -0.2341
 6276SOL    HW130290   1.856   1.574   4.116  3.2635  0.4826  0.1490
 6276SOL    HW230291   1.825   1.537   3.970  1.1719  1.1563 -0.3798
 6277SOL     OW30292   0.463   3.680  12.735 -0.2655  0.5443 -0.2771
 6277SOL    HW130293   0.536   3.699  12.677  0.0786 -1.5046 -0.5266
 6277SOL    HW230294   0.432   3.769  12.749 -0.1610  0.5569 -0.1322
 6278SOL     OW30295   2.408   4.231   8.378  0.4754  0.2001 -0.4101
 6278SOL    HW130296   2.318   4.209   8.402  1.8239 -1.8072  2.8689
 6278SOL    HW230297   2.420   4.181   8.297 -1.2819 -1.8752  0.6223
 6279SOL     OW30298   3.779   4.055   1.759 -0.5119 -0.3381  0.4653
 6279SOL    HW130299   3.723   4.108   1.815 -0.9045  0.5572 -0.7679
 6279SOL    HW230300   3.716   3.997   1.717 -1.1096  1.5571 -1.2814
 6280SOL     OW30301   2.837   3.637  15.466  0.1476  0.2536  0.2851
 6280SOL    HW130302   2.860   3.592  15.385 -0.8305 -0.9842  0.7111
 6280SOL    HW230303   2.925   3.622  15.503  0.3785  2.0895  0.4894
 6281SOL     OW30304   2.203   2.831   5.958 -0.6522 -0.2364 -0.3596
 6281SOL    HW130305   2.153   2.765   6.006 -0.4542  0.0767  0.2765
 6281SOL    HW230306   2.182   2.820   5.865  2.9628  1.5824 -1.3744
 6282SOL     OW30307   3.127   0.360  14.949  0.0186  0.3585  0.5365
 6282SOL    HW130308   3.103   0.268  14.952 -0.0048  0.2869 -1.7962
 6282SOL    HW230309   3.217   0.356  14.918  0.1366  0.6894  0.8273
 6283SOL     OW30310   0.824   0.679   8.285 -0.6733 -0.2398  0.4180
 6283SOL    HW130311   0.787   0.633   8.210  0.4475 -1.7091  0.7559
 6283SOL    HW230312   0.821   0.764   8.240  0.7507 -0.3150  0.1740
 6284SOL     OW30313   0.259   2.069   5.337  0.0250  0.0765  0.0612
 6284SOL    HW130314   0.166   2.083   5.321  0.1072  1.6618  0.9359
 6284SOL    HW230315   0.265   2.113   5.423  1.1088  2.7880 -1.3946
 6285SOL     OW30316   3.096   1.935   6.186 -0.3612  0.1518  0.6837
 6285SOL    HW130317   3.086   1.853   6.137  2.2263 -1.5460  2.9909
 6285SOL    HW230318   3.166   1.984   6.143 -0.9496 -1.3004 -1.9255
 6286SOL     OW30319   3.758   4.584   5.226 -0.0660 -0.0787 -0.1802
 6286SOL    HW130320   3.805   4.651   5.175  1.1930 -0.6832  0.1764
 6286SOL    HW230321   3.673   4.624   5.241  0.2403  0.8074 -0.7933
 6287SOL     OW30322   4.657   4.131  11.701 -0.3045  0.3937  0.4567
 6287SOL    HW130323   4.589   4.077  11.741  0.4162  0.0280  1.1898
 6287SOL    HW230324   4.719   4.059  11.691 -0.8282  0.4702 -3.2820
 6288SOL     OW30325   0.097   0.936   7.441  0.0314 -0.0595  0.0797
 6288SOL    HW130326   0.111   0.892   7.357 -3.0334  0.7315 -0.8347
 6288SOL    HW230327   0.104   0.850   7.483  0.0430 -0.3564 -0.5261
 6289SOL     OW30328   2.253   3.834   8.792 -0.2077  0.0040  0.1851
 6289SOL    HW130329   2.303   3.843   8.710 -2.9736  1.2395 -1.3643
 6289SOL    HW230330   2.255   3.928   8.814 -2.0435 -0.3683  1.9420
 6290SOL     OW30331   1.679   1.033  13.046 -0.0267 -0.6601 -0.2270
 6290SOL    HW130332   1.672   0.946  13.086 -0.3726 -1.0324 -1.1134
 6290SOL    HW230333   1.669   1.083  13.127 -1.0222  1.0654 -1.4108
 6291SOL     OW30334   0.509   1.003   4.993  0.1743 -0.1714 -0.0005
 6291SOL    HW130335   0.554   1.028   4.912  1.5680 -0.1538  0.7693
 6291SOL    HW230336   0.430   1.057   4.998 -0.8404 -1.5139 -1.3446
 6292SOL     OW30337   3.720   2.280   4.036 -0.0280 -0.7897  0.0258
 6292SOL    HW130338   3.788   2.285   3.969 -0.4960  0.5817 -0.3321
 6292SOL    HW230339   3.699   2.186   4.039  0.0872 -0.8261 -0.3243
 6293SOL     OW30340   0.594   4.373   8.178  0.1581 -0.0009 -0.2913
 6293SOL    HW130341   0.527   4.319   8.221 -0.1675  1.6205  1.2297
 6293SOL    HW230342   0.551   4.459   8.180  1.5998  0.7810 -3.1076
 6294SOL     OW30343   1.690   2.868  13.470  0.3400 -0.5567 -0.9532
 6294SOL    HW130344   1.598   2.871  13.444 -0.1637 -0.6306  0.8446
 6294SOL    HW230345   1.682   2.844  13.562 -0.3835  1.6037 -0.4636
 6295SOL     OW30346   4.508   2.474   8.618  0.1697 -0.7188  0.1076
 6295SOL    HW130347   4.478   2.552   8.665 -0.5833 -0.9020 -0.0740
 6295SOL    HW230348   4.487   2.412   8.689  0.7954 -1.8276 -0.6718
 6296SOL     OW30349   3.975   0.664   6.884 -0.2001  0.0591  0.4523
 6296SOL    HW130350   3.958   0.758   6.872 -0.4063  0.4230  3.5695
 6296SOL    HW230351   4.067   0.666   6.910 -0.6410 -0.9233  2.0600
 6297SOL     OW30352   1.968   1.878  11.532 -0.6630  0.3880 -0.2006
 6297SOL    HW130353   1.928   1.806  11.483  1.4507 -1.2012  0.3966
 6297SOL    HW230354   1.904   1.869  11.602  0.3451 -1.6515  0.4667
 6298SOL     OW30355   2.174   2.316   6.032  0.3274  0.3845  0.1933
 6298SOL    HW130356   2.213   2.394   6.072  0.1538 -0.3291  1.7398
 6298SOL    HW230357   2.113   2.362   5.974 -1.4438  0.2295  1.9332
 6299SOL     OW30358   4.118   2.240  13.960  0.5377  0.0849  0.5571
 6299SOL    HW130359   4.094   2.150  13.981 -0.5142  0.7502  2.1625
 6299SOL    HW230360   4.062   2.281  14.025 -0.3039 -2.1600  1.2659
 6300SOL     OW30361   0.733   0.433   2.952 -0.2400  0.3675 -0.4619
 6300SOL    HW130362   0.698   0.345   2.940 -2.1521  1.2436 -1.1754
 6300SOL    HW230363   0.712   0.486   2.875 -2.0347  0.2635 -0.0280
 6301SOL     OW30364   0.227   0.435  10.736 -0.1939 -0.4051 -0.2055
 6301SOL    HW130365   0.215   0.430  10.830  0.7365 -2.0419 -0.1913
 6301SOL    HW230366   0.188   0.523  10.729 -0.8304 -0.4710  2.6064
 6302SOL     OW30367   1.100   3.584   1.734  0.1451 -0.3797  0.8000
 6302SOL    HW130368   1.031   3.583   1.667  0.5531 -1.6228  0.4033
 6302SOL    HW230369   1.107   3.678   1.749  1.8713 -0.4651  0.4191
 6303SOL     OW30370   4.089   2.689   1.945  0.4388  0.0070  0.3277
 6303SOL    HW130371   4.111   2.663   1.856  1.8906 -2.1036  1.3015
 6303SOL    HW230372   4.005   2.645   1.952  0.7623 -0.7791 -0.7101
 6304SOL     OW30373   3.646   2.749  13.571 -0.0650 -0.1283 -0.4888
 6304SOL    HW130374   3.667   2.781  13.483  0.9259 -1.0816 -0.5835
 6304SOL    HW230375   3.655   2.830  13.622  2.7701 -0.2739 -0.7547
 6305SOL     OW30376   2.120   3.778  14.805  0.6120 -0.9434 -0.3776
 6305SOL    HW130377   2.116   3.733  14.889 -1.6880  0.4881  0.2960
 6305SOL    HW230378   2.170   3.851  14.840 -0.7592  0.4741 -1.3506
 6306SOL     OW30379   0.540   0.964   2.092  0.5150  0.1559  0.2360
 6306SOL    HW130380   0.525   1.043   2.040  3.6399  1.1362  0.8149
 6306SOL    HW230381   0.627   0.937   2.063  1.6092 -0.0276  3.7987
 6307SOL     OW30382   1.311   1.089   4.626 -0.1115  0.6347  0.4273
 6307SOL    HW130383   1.217   1.080   4.607  0.6447  1.7018 -3.9955
 6307SOL    HW230384   1.338   1.156   4.562 -1.0348 -0.9589 -1.6333
 6308SOL     OW30385   1.065   0.451   1.272 -0.4731  0.0101 -0.1974
 6308SOL    HW130386   1.024   0.419   1.192 -0.5321 -0.6369  0.0972
 6308SOL    HW230387   1.078   0.369   1.320  5.4003  1.5793  0.8415
 6309SOL     OW30388   4.524   3.202   2.501  0.0257  0.2691 -0.5094
 6309SOL    HW130389   4.549   3.181   2.591  1.0682  0.5671 -0.7361
 6309SOL    HW230390   4.454   3.266   2.513  0.1319  0.5318 -1.2831
 6310SOL     OW30391   2.699   2.201  15.168 -0.0863  0.0418  0.2806
 6310SOL    HW130392   2.738   2.243  15.091 -2.3832  0.3593 -0.7159
 6310SOL    HW230393   2.658   2.127  15.122 -2.2069  1.1543  0.3972
 6311SOL     OW30394   0.093   0.766   5.732  0.4929 -0.0678 -0.0338
 6311SOL    HW130395   0.073   0.685   5.779  0.1689  1.5441  2.6660
 6311SOL    HW230396   0.178   0.740   5.696  0.8591  1.3229 -0.1611
 6312SOL     OW30397   4.315   0.563   1.338  0.4708  0.2030 -0.4135
 6312SOL    HW130398   4.391   0.613   1.367  1.3304 -1.9375  1.0332
 6312SOL    HW230399   4.259   0.641   1.327  1.8744  1.1789 -0.6150
 6313SOL     OW30400   0.273   1.763   2.980 -0.2611 -0.9192 -0.2768
 6313SOL    HW130401   0.262   1.857   2.988 -0.8412 -1.0765  0.8476
 6313SOL    HW230402   0.185   1.736   3.006 -0.1402  0.5505  1.6406
 6314SOL     OW30403   2.713   4.340   9.455  0.0918 -0.2845  0.0514
 6314SOL    HW130404   2.661   4.261   9.469  0.4427 -0.6150 -0.4887
 6314SOL    HW230405   2.653   4.410   9.479 -0.5807 -0.9685  0.3499
 6315SOL     OW30406   0.649   0.638   2.779  0.1061 -0.7966 -0.3636
 6315SOL    HW130407   0.570   0.635   2.725 -0.3077 -1.1765  0.2509
 6315SOL    HW230408   0.702   0.694   2.723 -0.1106  0.0694  0.2853
 6316SOL     OW30409   2.370   4.018  15.816  0.4685  0.7543 -0.5505
 6316SOL    HW130410   2.423   3.960  15.762  1.2390 -1.0747  2.1156
 6316SOL    HW230411   2.287   4.013  15.769 -1.1999 -0.4059  2.4382
 6317SOL     OW30412   4.638   2.094   6.119 -0.2329  0.0636 -0.3733
 6317SOL    HW130413   4.679   2.164   6.067 -0.2879  0.5478  0.2337
 6317SOL    HW230414   4.560   2.133   6.158  2.0692  2.6034  1.6625
 6318SOL     OW30415   0.919   0.702   7.358 -0.0766 -0.4329  0.8418
 6318SOL    HW130416   0.928   0.797   7.347  2.4161 -0.7170  0.4525
 6318SOL    HW230417   1.011   0.678   7.367  0.0267 -1.2012 -2.4041
 6319SOL     OW30418   4.117   2.175   5.727 -0.0565  0.3055  0.3745
 6319SOL    HW130419   4.180   2.184   5.655  1.5245 -1.0549  1.5931
 6319SOL    HW230420   4.063   2.103   5.695 -3.9843  2.6078  1.8617
 6320SOL     OW30421   3.923   4.550  11.969 -0.0546 -0.1465 -0.0026
 6320SOL    HW130422   3.873   4.501  12.034  0.6401 -1.8553 -0.7671
 6320SOL    HW230423   3.999   4.494  11.952  1.6480  1.2336  2.8633
 6321SOL     OW30424   0.942   1.383   3.446  0.4940 -0.2197  0.3370
 6321SOL    HW130425   0.878   1.453   3.428  0.7917 -0.7828 -2.9807
 6321SOL    HW230426   0.920   1.310   3.388 -3.7953  1.9836 -0.8825
 6322SOL     OW30427   1.612   2.750   3.649  0.0350 -0.0551  0.1862
 6322SOL    HW130428   1.521   2.749   3.621  0.4205  0.9159 -1.1041
 6322SOL    HW230429   1.649   2.670   3.610  0.4029  0.9503 -1.5395
 6323SOL     OW30430   4.356   2.796   2.978 -0.0232  0.0521  0.1646
 6323SOL    HW130431   4.365   2.746   3.059 -2.3989 -0.9195 -0.1850
 6323SOL    HW230432   4.307   2.872   3.008  4.1375  2.9657 -0.4083
 6324SOL     OW30433   2.848   0.277   7.019 -0.1455 -0.0575 -0.3630
 6324SOL    HW130434   2.824   0.196   7.066  0.6437 -0.8653 -1.3572
 6324SOL    HW230435   2.771   0.334   7.022 -0.6268 -0.6769 -0.9424
 6325SOL     OW30436   2.295   0.314   0.830 -0.4221 -0.6087 -0.3747
 6325SOL    HW130437   2.374   0.305   0.882 -2.1641  0.2462  2.4185
 6325SOL    HW230438   2.280   0.225   0.798 -0.0796 -0.4210 -1.0723
 6326SOL     OW30439   1.812   2.455   4.647 -1.0395  0.1164 -0.0668
 6326SOL    HW130440   1.863   2.422   4.573 -1.0846 -2.4935  1.0799
 6326SOL    HW230441   1.880   2.446   4.715 -1.5881 -1.4110  0.2786
 6327SOL     OW30442   4.164   4.449   8.591 -0.1782  0.2155 -0.5253
 6327SOL    HW130443   4.116   4.482   8.667  1.3549  3.0299 -0.7847
 6327SOL    HW230444   4.109   4.375   8.566 -0.2973 -0.1200  0.7795
 6328SOL     OW30445   1.634   0.647  12.127 -0.3159  0.1688  0.0048
 6328SOL    HW130446   1.662   0.696  12.050 -0.1784 -1.1608 -0.7809
 6328SOL    HW230447   1.718   0.628  12.168  0.0036 -1.8184 -1.6064
 6329SOL     OW30448   1.234   4.186   5.709 -0.1771  0.3356  0.5652
 6329SOL    HW130449   1.225   4.098   5.674 -1.5651  1.1420 -1.0903
 6329SOL    HW230450   1.146   4.223   5.715  0.1139  0.2421  5.3148
 6330SOL     OW30451   4.109   1.742   6.751  0.0478 -0.2514  0.7188
 6330SOL    HW130452   4.169   1.744   6.826  0.0421  0.2123  0.7116
 6330SOL    HW230453   4.030   1.779   6.792  0.1115 -1.0573  1.5622
 6331SOL     OW30454   4.091   2.714   3.317 -0.1739  0.0285  0.3794
 6331SOL    HW130455   4.028   2.653   3.356 -0.3296 -0.7228 -1.0586
 6331SOL    HW230456   4.083   2.693   3.224 -0.3132 -0.3516  0.4774
 6332SOL     OW30457   0.047   0.132  13.812 -0.2006 -0.2553  0.5423
 6332SOL    HW130458   0.021   0.107  13.901 -1.5523  2.2412  0.8532
 6332SOL    HW230459   4.689   0.180  13.788  0.0549 -0.0302  0.1436
 6333SOL     OW30460   3.448   4.037   5.539  0.3228 -0.4234 -0.0310
 6333SOL    HW130461   3.370   4.002   5.582  0.6437 -2.1989 -0.8927
 6333SOL    HW230462   3.512   3.995   5.597 -0.6871  0.4853  1.7429
 6334SOL     OW30463   0.175   1.447   7.920  0.6123 -0.2944  0.5728
 6334SOL    HW130464   0.263   1.414   7.906  0.0272 -0.6216 -2.3570
 6334SOL    HW230465   0.187   1.542   7.929 -0.2527 -0.0212 -1.0912
 6335SOL     OW30466   3.204   2.778   9.423  0.5653  0.2697  0.4164
 6335SOL    HW130467   3.299   2.787   9.416  0.3268  2.9434  0.5775
 6335SOL    HW230468   3.187   2.800   9.332 -1.7257  2.4798  1.3899
 6336SOL     OW30469   1.563   0.514  13.113 -0.2876 -0.2688  0.2293
 6336SOL    HW130470   1.485   0.487  13.064 -0.8359 -1.1707  1.5756
 6336SOL    HW230471   1.535   0.468  13.192  0.4864  1.8735  1.7447
 6337SOL     OW30472   1.091   1.552  10.138 -0.1282 -0.2788 -0.0363
 6337SOL    HW130473   1.060   1.607  10.065  0.5829 -0.8755 -0.7908
 6337SOL    HW230474   1.184   1.570  10.154 -0.1307 -1.8861  1.7833
 6338SOL     OW30475   4.229   3.616   7.418  0.0923 -0.4658 -0.5039
 6338SOL    HW130476   4.140   3.603   7.386 -0.0884  0.5941 -0.4485
 6338SOL    HW230477   4.283   3.671   7.360 -0.1062 -0.5583 -0.7724
 6339SOL     OW30478   2.756   1.127   2.041 -0.2992 -0.3463  0.2985
 6339SOL    HW130479   2.778   1.094   2.128  2.4075 -0.8200 -0.5799
 6339SOL    HW230480   2.667   1.093   2.029  0.2172 -1.4518 -0.2922
 6340SOL     OW30481   0.007   3.561   3.997  0.0298  0.2602  0.0287
 6340SOL    HW130482   4.708   3.496   3.930  0.9766 -1.1452  1.1147
 6340SOL    HW230483   0.085   3.515   4.029 -2.0400 -2.2315  1.5547
 6341SOL     OW30484   3.418   3.964   7.796  0.1219  0.6463 -0.1543
 6341SOL    HW130485   3.378   4.046   7.766 -2.4061 -0.4870  0.1206
 6341SOL    HW230486   3.346   3.926   7.846  0.7005  0.5733  0.6193
 6342SOL     OW30487   1.668   3.270   8.658  0.0329  0.1193  0.2232
 6342SOL    HW130488   1.651   3.176   8.651  0.2910 -0.0633  1.8512
 6342SOL    HW230489   1.763   3.282   8.655 -0.3828  2.4736 -2.7434
 6343SOL     OW30490   3.915   4.320   1.343 -0.1426 -0.3448  0.0861
 6343SOL    HW130491   3.849   4.258   1.375 -0.3013 -0.9602 -1.4643
 6343SOL    HW230492   3.993   4.296   1.394  0.5656  3.7927  0.9667
 6344SOL     OW30493   1.718   1.112   6.094 -0.0462 -0.5418 -0.3003
 6344SOL    HW130494   1.629   1.146   6.089  0.9716  1.8860 -1.8645
 6344SOL    HW230495   1.706   1.020   6.117  0.3793 -0.9417 -1.7037
 6345SOL     OW30496   3.872   3.781   8.476 -0.1829 -0.3422 -0.0642
 6345SOL    HW130497   3.966   3.781   8.491 -0.2490  0.0163  0.3323
 6345SOL    HW230498   3.851   3.873   8.492  1.5894 -0.2119  1.4330
 6346SOL     OW30499   4.312   1.759   9.541 -0.7475 -0.1754 -0.5302
 6346SOL    HW130500   4.241   1.822   9.530 -1.4568 -1.2637 -2.2045
 6346SOL    HW230501   4.393   1.807   9.560 -1.4440  0.9713 -0.4261
 6347SOL     OW30502   1.947   1.265   7.832 -0.0608  0.0894 -0.0425
 6347SOL    HW130503   1.881   1.208   7.791  0.6125 -1.6879  1.3269
 6347SOL    HW230504   1.997   1.205   7.888 -0.2010 -1.3279 -1.4285
 6348SOL     OW30505   2.832   3.024   6.215  0.2515 -0.1622 -0.2507
 6348SOL    HW130506   2.817   3.014   6.121 -2.4266  0.7489  0.0558
 6348SOL    HW230507   2.748   3.045   6.256 -0.5483 -1.5712 -1.1831
 6349SOL     OW30508   2.720   4.516   1.672 -0.4255  0.1583 -0.0076
 6349SOL    HW130509   2.742   4.456   1.743  0.7484 -0.4302 -0.8962
 6349SOL    HW230510   2.630   4.540   1.697 -0.2951  0.3729  0.2614
 6350SOL     OW30511   1.971   2.644   9.010  0.3922  0.2038 -0.3182
 6350SOL    HW130512   2.001   2.558   9.039  2.7052  1.2581  0.4090
 6350SOL    HW230513   1.966   2.634   8.915 -2.7209 -0.8138 -0.0540
 6351SOL     OW30514   2.359   4.002   9.583  0.0596 -0.4639 -0.1039
 6351SOL    HW130515   2.353   3.912   9.613 -5.0153 -0.1445 -0.1474
 6351SOL    HW230516   2.268   4.014   9.555 -0.2627 -1.5255  0.4846
 6352SOL     OW30517   1.905   2.083   8.253 -0.3316  0.1828 -0.1100
 6352SOL    HW130518   1.925   2.046   8.167  1.2405 -2.7383  1.5175
 6352SOL    HW230519   1.810   2.073   8.250 -0.3065 -0.6784  2.5664
 6353SOL     OW30520   3.811   0.114   7.452 -0.0190 -0.5137  0.4740
 6353SOL    HW130521   3.785   0.205   7.446 -0.0437 -0.5260  0.3998
 6353SOL    HW230522   3.904   0.128   7.470  0.1032 -0.8708  0.1255
 6354SOL     OW30523   2.344   0.752   3.705  0.3348 -0.4258 -0.4562
 6354SOL    HW130524   2.429   0.767   3.662  1.3630 -0.7430  1.4504
 6354SOL    HW230525   2.360   0.658   3.715  1.1312 -0.0941  1.3806
 6355SOL     OW30526   3.834   1.094   7.034  0.3823 -0.1240 -0.0041
 6355SOL    HW130527   3.849   1.174   7.084  0.9719  1.8336 -3.2860
 6355SOL    HW230528   3.922   1.084   6.998  0.3676 -0.9953  0.2017
 6356SOL     OW30529   3.872   0.518   5.768  0.1988 -0.0759 -0.0020
 6356SOL    HW130530   3.839   0.550   5.683  0.6967  2.5042  0.7915
 6356SOL    HW230531   3.887   0.602   5.811  1.6175 -0.3628  0.0513
 6357SOL     OW30532   4.687   2.145   5.311 -0.0447  0.7922  0.1609
 6357SOL    HW130533   4.699   2.236   5.338  1.7720  0.8768 -0.9471
 6357SOL    HW230534   4.592   2.141   5.314  0.0222 -0.6127  0.8256
 6358SOL     OW30535   3.231   3.735   2.106  0.1881 -0.0171  0.0602
 6358SOL    HW130536   3.266   3.742   2.017 -0.9059  1.3661 -0.2589
 6358SOL    HW230537   3.167   3.664   2.100 -1.3269  1.3766 -0.2577
 6359SOL     OW30538   0.014   0.170   4.747  0.0849  0.2124  0.0322
 6359SOL    HW130539   4.654   0.120   4.760  0.7182 -0.7254  0.4159
 6359SOL    HW230540   0.076   0.107   4.783  2.2957  0.9918 -2.4295
 6360SOL     OW30541   1.466   2.194   4.608  0.6291  0.3970 -0.6949
 6360SOL    HW130542   1.486   2.120   4.665 -2.4915 -0.0734 -0.1904
 6360SOL    HW230543   1.373   2.171   4.599  1.8505 -4.4362 -0.7963
 6361SOL     OW30544   2.904   0.025   9.818  0.3616  0.0538 -0.1080
 6361SOL    HW130545   2.989   0.022   9.774 -0.5822 -0.5541 -1.8591
 6361SOL    HW230546   2.909   0.118   9.842 -1.0737  0.8408 -2.8631
 6362SOL     OW30547   1.466   3.320   8.435  1.1007 -0.2226  0.3368
 6362SOL    HW130548   1.531   3.282   8.493  0.4021 -0.9860  0.6236
 6362SOL    HW230549   1.422   3.394   8.478 -0.8259 -0.6549 -0.8555
 6363SOL     OW30550   0.291   2.206   4.470  0.2363  0.0734 -0.3852
 6363SOL    HW130551   0.325   2.118   4.486 -0.5344 -0.2275 -0.4175
 6363SOL    HW230552   0.372   2.255   4.483  1.3472 -1.5119 -1.3272
 6364SOL     OW30553   1.206   0.860   5.225  0.3007 -0.2449 -0.0567
 6364SOL    HW130554   1.219   0.827   5.136  0.6712  1.5812 -0.6822
 6364SOL    HW230555   1.269   0.931   5.241 -1.0546  0.9299  0.0842
 6365SOL     OW30556   2.027   2.915   9.162 -0.0094  0.2993 -0.3913
 6365SOL    HW130557   2.046   2.848   9.096 -2.3253 -0.3238 -0.4178
 6365SOL    HW230558   2.041   2.856   9.236 -0.0171  0.4566 -0.2638
 6366SOL     OW30559   1.067   2.603   8.504 -0.1193 -0.2758  0.7521
 6366SOL    HW130560   1.057   2.599   8.409  0.8477 -0.1047  0.6386
 6366SOL    HW230561   1.105   2.690   8.521 -1.4631  0.2760  1.0031
 6367SOL     OW30562   1.316   2.409   3.497  0.0786 -0.2150  0.8195
 6367SOL    HW130563   1.230   2.439   3.466  0.5929 -0.7225 -1.1209
 6367SOL    HW230564   1.330   2.356   3.418 -0.5776  0.6974  0.0828
 6368SOL     OW30565   2.689   1.268  12.902  0.5904  0.1245  0.4614
 6368SOL    HW130566   2.684   1.326  12.978 -0.3495  1.9763 -1.0355
 6368SOL    HW230567   2.782   1.244  12.900  0.2964 -1.0608  0.5917
 6369SOL     OW30568   2.114   0.552   9.980 -0.0449 -0.5098  0.4447
 6369SOL    HW130569   2.117   0.456   9.977 -1.4757 -0.4769 -1.7968
 6369SOL    HW230570   2.091   0.555   9.887 -2.0242  0.3197  0.9751
 6370SOL     OW30571   2.903   1.786   7.631 -0.2119  0.2831 -0.0094
 6370SOL    HW130572   2.908   1.779   7.536 -0.1738  1.4076 -0.0948
 6370SOL    HW230573   2.991   1.760   7.657 -0.2346  0.9861  0.7584
 6371SOL     OW30574   4.549   2.236  10.963  0.4593  0.4027 -0.2339
 6371SOL    HW130575   4.635   2.253  11.001  1.0252 -1.2553 -0.8021
 6371SOL    HW230576   4.572   2.244  10.871 -0.8617  2.6261 -0.3664
 6372SOL     OW30577   3.036   3.288   4.721  0.3891 -0.0317 -0.6684
 6372SOL    HW130578   3.079   3.347   4.783 -0.4373 -0.7271  0.5795
 6372SOL    HW230579   3.056   3.207   4.767 -2.2744 -0.7890 -0.8283
 6373SOL     OW30580   3.043   2.154   3.571 -0.0832  0.0418  0.3605
 6373SOL    HW130581   2.962   2.106   3.588 -1.1047  1.3407 -0.8544
 6373SOL    HW230582   3.020   2.206   3.493 -0.6997 -0.1404  0.4159
 6374SOL     OW30583   4.081   3.043   1.251 -0.4204 -0.2600 -0.4470
 6374SOL    HW130584   4.129   3.114   1.209 -0.0809  0.1448  0.6248
 6374SOL    HW230585   4.093   3.061   1.344 -0.5680 -0.2523 -0.4303
 6375SOL     OW30586   3.216   0.883   0.605  0.0553 -0.1113  0.1156
 6375SOL    HW130587   3.190   0.813   0.665 -0.4524 -0.3643 -0.4039
 6375SOL    HW230588   3.131   0.889   0.561  0.8268 -0.7688 -1.4199
 6376SOL     OW30589   0.751   2.642   8.043 -0.2201 -0.0420 -0.6104
 6376SOL    HW130590   0.706   2.608   7.966  0.6464  2.0234 -2.0235
 6376SOL    HW230591   0.842   2.648   8.015 -0.1936 -3.4367 -1.2582
 6377SOL     OW30592   0.301   0.617   7.990  0.0564  0.1782 -0.5387
 6377SOL    HW130593   0.361   0.680   7.949  0.3277  0.1870 -0.1238
 6377SOL    HW230594   0.359   0.549   8.023  1.2723  1.5008  0.0776
 6378SOL     OW30595   0.848   3.369  11.334 -0.7558 -0.0075  0.0614
 6378SOL    HW130596   0.922   3.350  11.277 -0.6832 -0.8893  0.4478
 6378SOL    HW230597   0.802   3.287  11.316  0.5189 -0.6958 -0.0747
 6379SOL     OW30598   1.245   4.571  11.099  1.0133  0.5551 -0.1118
 6379SOL    HW130599   1.246   4.656  11.055 -0.9619  0.2029 -0.8360
 6379SOL    HW230600   1.298   4.521  11.037  0.9698  2.2753 -1.5370
 6380SOL     OW30601   2.721   4.641   3.384 -0.4451  0.0798  0.2374
 6380SOL    HW130602   2.634   4.650   3.345 -0.5137 -1.5759  0.0142
 6380SOL    HW230603   2.771   4.611   3.309 -2.4849 -0.0121 -1.0952
 6381SOL     OW30604   1.937   4.338   5.603  0.1230 -0.4021 -0.2769
 6381SOL    HW130605   2.010   4.296   5.556  1.1367  1.3579 -0.2683
 6381SOL    HW230606   1.905   4.264   5.655 -2.0719 -0.6963 -2.0421
 6382SOL     OW30607   2.650   4.469  11.700 -0.1466 -0.1502  0.4706
 6382SOL    HW130608   2.732   4.489  11.744 -0.9555  1.6456  1.1847
 6382SOL    HW230609   2.648   4.374  11.710  1.1480 -0.1882  0.3667
 6383SOL     OW30610   2.823   2.657   5.427  0.7909 -0.1787  0.4088
 6383SOL    HW130611   2.768   2.695   5.495 -1.4284  0.6389 -1.8570
 6383SOL    HW230612   2.852   2.738   5.384  0.2011 -0.0231  0.3127
 6384SOL     OW30613   2.790   1.689   4.584  0.2454 -0.2656  0.3394
 6384SOL    HW130614   2.706   1.682   4.538 -0.0369 -1.6507  1.0664
 6384SOL    HW230615   2.841   1.748   4.528 -2.4844  2.7711  1.0262
 6385SOL     OW30616   2.972   2.500   5.127  0.0157  0.2522 -0.1513
 6385SOL    HW130617   2.990   2.465   5.214 -0.1789  0.0684 -0.1834
 6385SOL    HW230618   2.909   2.431   5.107  0.2971  0.0082 -0.1832
 6386SOL     OW30619   0.152   1.358   3.370 -0.1740  0.1621 -0.3048
 6386SOL    HW130620   0.085   1.423   3.390 -1.1887 -0.9876  0.1077
 6386SOL    HW230621   0.175   1.377   3.279 -0.4865 -0.6408 -0.5515
 6387SOL     OW30622   1.906   2.434   5.298  0.4146  0.0712  0.0944
 6387SOL    HW130623   1.933   2.355   5.253 -1.2805 -2.1566  2.9846
 6387SOL    HW230624   1.837   2.460   5.237  0.8709 -0.4492 -0.6359
 6388SOL     OW30625   1.015   0.725   4.230  0.1608 -0.3256  0.0208
 6388SOL    HW130626   1.060   0.726   4.145 -0.4424  1.9369 -0.2695
 6388SOL    HW230627   0.931   0.684   4.208 -0.9669  2.1998 -0.4570
 6389SOL     OW30628   1.623   2.228  15.198  0.1777 -0.1890  0.5671
 6389SOL    HW130629   1.545   2.173  15.198  0.2600 -0.2974  1.3686
 6389SOL    HW230630   1.651   2.203  15.286 -0.7966 -0.2963  0.8487
 6390SOL     OW30631   4.570   3.770   7.535  0.3439 -0.0586  0.2583
 6390SOL    HW130632   4.660   3.802   7.523  0.2159  0.4537  0.6798
 6390SOL    HW230633   4.528   3.850   7.567  0.2147  0.0107 -0.0839
 6391SOL     OW30634   1.840   2.283   3.468  0.4536  0.3791 -0.5453
 6391SOL    HW130635   1.901   2.224   3.424 -1.3294 -1.4531 -0.5881
 6391SOL    HW230636   1.876   2.299   3.555  2.5483  1.9597 -1.7217
 6392SOL     OW30637   3.229   3.972   8.298 -0.4587  0.2700  0.1347
 6392SOL    HW130638   3.293   4.012   8.239 -0.1452  1.2913  1.1719
 6392SOL    HW230639   3.271   3.992   8.382  0.9289 -3.0590  0.2285
 6393SOL     OW30640   4.188   2.692  12.236 -0.0440  0.4741 -0.3453
 6393SOL    HW130641   4.228   2.779  12.242  1.7467 -0.3843  0.0311
 6393SOL    HW230642   4.096   2.717  12.236 -0.3511 -0.6550  0.3890
 6394SOL     OW30643   3.172   3.728   4.645 -0.3437 -0.2588 -0.3077
 6394SOL    HW130644   3.168   3.658   4.579  0.6760 -0.3601 -0.2663
 6394SOL    HW230645   3.079   3.751   4.645 -0.1839  0.3895  0.0531
 6395SOL     OW30646   0.025   0.110  13.476  0.3807  0.0075 -0.0960
 6395SOL    HW130647   0.115   0.119  13.508  0.4768  0.1250 -0.3989
 6395SOL    HW230648   0.018   0.180  13.412 -1.9230 -1.2197 -1.1815
 6396SOL     OW30649   4.381   0.861   8.571 -0.2120 -0.0596  0.0847
 6396SOL    HW130650   4.338   0.860   8.656  3.2529 -0.7705  1.8322
 6396SOL    HW230651   4.468   0.854   8.610 -0.2442 -1.3333 -0.0767
 6397SOL     OW30652   1.916   2.649   6.018  1.5458  0.4138  0.7306
 6397SOL    HW130653   1.947   2.582   5.956 -0.1109 -0.3794  0.7779
 6397SOL    HW230654   1.903   2.722   5.957  1.8960  0.0185  0.1806
 6398SOL     OW30655   1.049   2.393   5.719 -0.2666  0.0747 -0.0237
 6398SOL    HW130656   1.043   2.432   5.631  0.7814  0.3733  0.0414
 6398SOL    HW230657   1.070   2.471   5.771  0.9020 -0.7590  0.7457
 6399SOL     OW30658   3.275   0.269   4.960 -0.0798  1.2759 -0.0446
 6399SOL    HW130659   3.326   0.334   4.911  2.0743 -1.0805 -0.9253
 6399SOL    HW230660   3.187   0.307   4.959 -0.5770  0.1102 -0.1204
 6400SOL     OW30661   2.714   1.408   5.536 -0.0328  0.5030 -0.0350
 6400SOL    HW130662   2.806   1.384   5.525 -0.2708 -0.0761 -0.7544
 6400SOL    HW230663   2.709   1.392   5.630  1.1251  0.0796 -0.0439
 6401SOL     OW30664   2.005   2.261   9.105  0.0123 -0.1826 -0.1919
 6401SOL    HW130665   2.096   2.261   9.077 -0.0356 -0.6257 -0.3374
 6401SOL    HW230666   1.986   2.186   9.048 -1.0746  0.5375 -0.7931
 6402SOL     OW30667   1.906   0.539   4.736  0.3086 -0.4703 -0.2649
 6402SOL    HW130668   1.897   0.446   4.755 -2.0544 -0.2905 -0.5893
 6402SOL    HW230669   1.928   0.527   4.644 -1.2455 -0.8871 -0.5777
 6403SOL     OW30670   3.757   3.574   1.261  0.0381  0.1554 -0.8481
 6403SOL    HW130671   3.720   3.575   1.349  0.7015  1.9065 -0.5860
 6403SOL    HW230672   3.816   3.649   1.262  0.4311 -0.2354  3.1085
 6404SOL     OW30673   2.015   4.217   3.459  0.0391  0.1655  0.2344
 6404SOL    HW130674   1.952   4.157   3.418  0.2701 -0.7389  1.1825
 6404SOL    HW230675   2.014   4.292   3.401 -1.7555 -0.5113 -0.5993
 6405SOL     OW30676   0.801   3.262  15.043 -0.2250  0.1091  0.1506
 6405SOL    HW130677   0.886   3.241  15.083 -0.7194  0.3338  1.3022
 6405SOL    HW230678   0.827   3.330  14.980 -1.7159 -0.9758 -1.6400
 6406SOL     OW30679   3.469   0.636   2.122  0.3335 -1.0507 -0.0238
 6406SOL    HW130680   3.428   0.689   2.190 -0.0201 -0.6988 -0.5138
 6406SOL    HW230681   3.516   0.572   2.175  2.1210 -0.7704 -1.2328
 6407SOL     OW30682   4.577   0.148   2.973 -0.0690 -0.2391  0.0075
 6407SOL    HW130683   4.539   0.061   2.985  0.8064 -0.6095  0.1248
 6407SOL    HW230684   4.518   0.168   2.900  0.4989  3.9793  0.7039
 6408SOL     OW30685   0.520   2.670   7.598 -0.3631 -0.0290 -0.3795
 6408SOL    HW130686   0.517   2.578   7.627  0.4405  1.1277  3.3083
 6408SOL    HW230687   0.512   2.665   7.503 -0.2662 -2.9316 -0.2513
 6409SOL     OW30688   3.641   2.099   5.456 -0.5413  0.0732  0.0582
 6409SOL    HW130689   3.677   2.157   5.390  1.5103  0.8553  1.8758
 6409SOL    HW230690   3.552   2.084   5.423 -0.2504  1.2996 -1.2718
 6410SOL     OW30691   2.757   2.291  13.452 -0.0412 -0.2977  0.0606
 6410SOL    HW130692   2.787   2.367  13.501 -1.0867 -0.4293  0.9015
 6410SOL    HW230693   2.662   2.301  13.461  0.1919  1.5234  0.4795
 6411SOL     OW30694   2.832   1.371   4.474 -0.3326 -0.0444 -0.7201
 6411SOL    HW130695   2.909   1.427   4.479  0.9178 -1.8055 -0.6233
 6411SOL    HW230696   2.809   1.353   4.565 -1.7104 -1.2078 -1.3013
 6412SOL     OW30697   2.876   2.017  12.478  0.0474  0.2225 -0.1007
 6412SOL    HW130698   2.837   2.051  12.559  0.9527  2.9499 -0.8004
 6412SOL    HW230699   2.815   2.047  12.411  0.8804  1.0298 -0.4976
 6413SOL     OW30700   0.046   2.873  10.103  0.2723  0.5691 -0.0458
 6413SOL    HW130701   4.679   2.876  10.140  0.4494 -1.5023  0.5297
 6413SOL    HW230702   0.095   2.823  10.169  0.8362  1.7637  0.4483
 6414SOL     OW30703   2.565   1.940   5.362 -0.0541 -0.0595 -0.2372
 6414SOL    HW130704   2.578   1.934   5.267 -2.9720  0.3627 -0.6450
 6414SOL    HW230705   2.577   1.847   5.383 -1.5650  0.1379  1.4426
 6415SOL     OW30706   0.584   3.170   7.993  0.6179  0.3349  0.6840
 6415SOL    HW130707   0.635   3.198   7.917  1.3855  0.1608  1.1335
 6415SOL    HW230708   0.633   3.110   8.048  0.6329 -0.7392 -0.5089
 6416SOL     OW30709   2.892   0.787   8.277 -0.1741 -0.4500 -0.1736
 6416SOL    HW130710   2.857   0.854   8.219  1.5156 -0.1995 -0.8904
 6416SOL    HW230711   2.966   0.762   8.221 -1.3901  0.1416 -2.0187
 6417SOL     OW30712   1.620   0.655   6.595  0.5493 -0.1739 -0.2584
 6417SOL    HW130713   1.602   0.652   6.689  2.0573 -1.9625 -0.0372
 6417SOL    HW230714   1.620   0.747   6.570  0.0616  0.5754  2.4577
 6418SOL     OW30715   2.587   2.054   2.349  0.3124 -0.6339 -0.0824
 6418SOL    HW130716   2.507   2.093   2.313  2.0983 -0.7790 -4.1598
 6418SOL    HW230717   2.558   2.007   2.427  0.2423 -1.0890 -0.3847
 6419SOL     OW30718   0.250   2.776  11.557 -0.2076  0.0906  0.0858
 6419SOL    HW130719   0.241   2.742  11.646 -0.3509  1.3956  0.5595
 6419SOL    HW230720   0.167   2.772  11.510 -1.6379  0.8082  2.5911
 6420SOL     OW30721   2.918   3.584   3.912 -0.3002  0.7239 -0.3105
 6420SOL    HW130722   2.882   3.505   3.871  3.7362 -1.5264  0.4690
 6420SOL    HW230723   2.850   3.648   3.893 -1.0452 -0.4257 -1.5334
 6421SOL     OW30724   3.267   4.461   9.567  0.1394 -0.0691 -0.2606
 6421SOL    HW130725   3.230   4.463   9.655  0.0263  0.8612 -0.3343
 6421SOL    HW230726   3.188   4.454   9.515 -0.6965 -3.1775  1.3819
 6422SOL     OW30727   1.349   0.725  17.557  0.4615  0.3311 -0.3708
 6422SOL    HW130728   1.284   0.701  17.623  0.4187  0.9152 -0.2033
 6422SOL    HW230729   1.403   0.787  17.606 -1.5480  1.1474  0.7719
 6423SOL     OW30730   3.231   3.588   3.871  0.0331 -0.1330  0.3266
 6423SOL    HW130731   3.198   3.508   3.913  0.2519 -0.3541  0.0794
 6423SOL    HW230732   3.185   3.584   3.787 -0.1894 -0.6863  0.4707
 6424SOL     OW30733   0.373   1.014   8.819  0.5355  0.4324 -0.0450
 6424SOL    HW130734   0.462   0.980   8.830  1.3395  1.9299 -1.9371
 6424SOL    HW230735   0.363   0.987   8.727  1.6382  1.2606 -0.4000
 6425SOL     OW30736   3.267   1.868   3.559  0.2741  0.1329  0.0431
 6425SOL    HW130737   3.193   1.908   3.513  1.0518 -0.4242 -1.7020
 6425SOL    HW230738   3.269   1.790   3.504  0.0798  1.2744 -1.6063
 6426SOL     OW30739   4.525   3.757  11.248 -0.2811  0.5836  0.6733
 6426SOL    HW130740   4.456   3.691  11.243 -0.3161  0.7313 -0.8667
 6426SOL    HW230741   4.538   3.784  11.157 -1.1913 -3.4532 -0.6636
 6427SOL     OW30742   3.477   4.308   5.587 -0.7625  0.2784 -0.5895
 6427SOL    HW130743   3.492   4.317   5.682 -2.2877 -0.0658 -0.3138
 6427SOL    HW230744   3.463   4.214   5.579  1.3861 -0.1625  0.7217
 6428SOL     OW30745   0.548   0.614   9.290  0.0665  0.3676  0.2686
 6428SOL    HW130746   0.544   0.616   9.385 -1.0923  0.4946  0.2207
 6428SOL    HW230747   0.609   0.686   9.281 -1.3815  1.0802 -3.9284
 6429SOL     OW30748   3.364   3.142   6.589  0.2543 -0.1043 -0.2822
 6429SOL    HW130749   3.405   3.200   6.653 -2.9551  1.7382  0.1218
 6429SOL    HW230750   3.435   3.148   6.525 -0.9286  1.7190 -1.4137
 6430SOL     OW30751   0.946   3.627   5.400  0.3243 -0.2989  0.7784
 6430SOL    HW130752   1.029   3.581   5.388  2.1014  2.8526  0.9969
 6430SOL    HW230753   0.971   3.699   5.343 -2.4639  0.1613  0.1671
 6431SOL     OW30754   2.894   4.484   5.648  0.7152 -0.6359 -0.1827
 6431SOL    HW130755   2.865   4.430   5.721  0.6772  0.8201  0.8956
 6431SOL    HW230756   2.814   4.531   5.625  0.4335 -0.8493  0.3607
 6432SOL     OW30757   4.492   2.362   1.658 -0.2888 -0.3779  0.2350
 6432SOL    HW130758   4.545   2.340   1.735  1.0913 -0.8682 -0.8658
 6432SOL    HW230759   4.423   2.415   1.698  2.4354  2.1101  1.7155
 6433SOL     OW30760   4.526   3.892   6.118  0.3305 -0.0373 -0.3069
 6433SOL    HW130761   4.505   3.937   6.199 -0.0430  0.4031 -0.6434
 6433SOL    HW230762   4.466   3.928   6.053  1.9706 -0.1637 -1.9001
 6434SOL     OW30763   1.064   3.229  10.820 -0.2389  0.3194  0.6818
 6434SOL    HW130764   1.013   3.286  10.878  1.3183  1.2852  1.0972
 6434SOL    HW230765   0.995   3.168  10.795  1.8673 -0.6115 -2.8104
 6435SOL     OW30766   4.155   1.035  15.996  0.5892 -0.2399 -0.3620
 6435SOL    HW130767   4.158   0.988  16.080 -0.3108 -1.9598 -1.3118
 6435SOL    HW230768   4.062   1.021  15.980  0.1382  2.9156 -0.5049
 6436SOL     OW30769   1.868   2.667   6.863 -0.4154  0.1236  0.0827
 6436SOL    HW130770   1.932   2.596   6.862  0.8735  1.2895  0.0553
 6436SOL    HW230771   1.923   2.745   6.855  3.6894 -2.4189  3.9758
 6437SOL     OW30772   3.129   1.374  12.049  0.4340  0.1558 -0.7334
 6437SOL    HW130773   3.185   1.406  11.978  2.0491 -0.2693  0.3787
 6437SOL    HW230774   3.109   1.455  12.096 -0.0168 -0.9624  1.0044
 6438SOL     OW30775   1.670   0.800   2.596 -0.2265 -0.8471  0.2363
 6438SOL    HW130776   1.700   0.860   2.528  0.2039 -0.7494  0.5151
 6438SOL    HW230777   1.582   0.832   2.616  0.0630 -0.0318  0.1935
 6439SOL     OW30778   1.347   3.968   6.251 -0.1939 -0.2371 -0.3558
 6439SOL    HW130779   1.395   4.040   6.211  1.2492  0.2620  2.2684
 6439SOL    HW230780   1.323   4.006   6.335  0.2543  0.9054 -0.7452
 6440SOL     OW30781   2.264   3.174   3.825 -0.5496 -0.8018  0.2339
 6440SOL    HW130782   2.270   3.262   3.862  0.6545 -1.1517  0.8875
 6440SOL    HW230783   2.171   3.153   3.826 -0.7940  0.2661 -1.1918
 6441SOL     OW30784   3.813   4.675   2.347  0.5176 -0.0215  0.2371
 6441SOL    HW130785   3.859   0.037   2.359  2.5075 -1.0588 -0.0993
 6441SOL    HW230786   3.724   4.693   2.376  0.3118 -0.2296 -0.2558
 6442SOL     OW30787   0.143   0.370   3.230 -0.1419 -0.7360 -0.3203
 6442SOL    HW130788   0.220   0.346   3.178  0.9542  2.6087 -0.2142
 6442SOL    HW230789   0.160   0.332   3.316  1.7728  0.3600 -0.2167
 6443SOL     OW30790   3.184   3.937  13.382  0.0472 -0.5367 -0.2553
 6443SOL    HW130791   3.173   4.029  13.406 -2.3640 -0.5729 -1.2782
 6443SOL    HW230792   3.278   3.937  13.368  0.1225  3.1821  0.2495
 6444SOL     OW30793   1.398   1.027   3.649  0.0718  0.3768  0.2381
 6444SOL    HW130794   1.459   1.088   3.610 -1.6507  1.1922 -1.1749
 6444SOL    HW230795   1.308   1.053   3.631  0.7242  1.5108 -1.3424
 6445SOL     OW30796   0.805   2.184   1.079 -0.0177  0.4215 -0.1640
 6445SOL    HW130797   0.819   2.183   0.984 -0.1986 -2.5437 -0.1471
 6445SOL    HW230798   0.709   2.179   1.081 -0.0201  1.6404  2.2130
 6446SOL     OW30799   3.835   1.369   6.222  0.3194  0.1484  0.7953
 6446SOL    HW130800   3.836   1.299   6.157  0.7623 -0.4557  1.4505
 6446SOL    HW230801   3.760   1.344   6.276  0.4919 -0.5298  0.7293
 6447SOL     OW30802   3.763   0.710   4.461  0.0662  0.0535  0.0397
 6447SOL    HW130803   3.823   0.674   4.397  1.0506 -0.5653  1.3105
 6447SOL    HW230804   3.687   0.656   4.440 -1.1681  1.4335  0.9099
 6448SOL     OW30805   3.530   1.518   0.219 -0.0340 -0.0906  0.3657
 6448SOL    HW130806   3.458   1.519   0.282 -0.3566  2.8876 -0.0648
 6448SOL    HW230807   3.573   1.433   0.223  0.0589 -0.0299  0.7404
 6449SOL     OW30808   0.925   0.661   5.530  0.1515  0.0063 -0.3741
 6449SOL    HW130809   0.866   0.620   5.593 -0.1127 -1.3392 -1.5051
 6449SOL    HW230810   0.988   0.682   5.598 -0.8386 -1.1336  0.9023
 6450SOL     OW30811   2.631   0.060   5.120 -0.2067 -0.0148  0.1604
 6450SOL    HW130812   2.544   0.094   5.098  0.6195  1.9549 -0.0372
 6450SOL    HW230813   2.625   4.698   5.073 -0.4888  1.1802 -1.9035
 6451SOL     OW30814   3.343   0.871  12.443  0.6200 -0.0129  0.0459
 6451SOL    HW130815   3.356   0.963  12.419 -0.0096 -0.4022 -1.8083
 6451SOL    HW230816   3.434   0.849  12.460  0.3989  0.1551  1.3862
 6452SOL     OW30817   0.174   2.660   3.052  1.1124 -0.4954 -0.4523
 6452SOL    HW130818   0.162   2.713   3.130  1.1383  0.9171 -1.4019
 6452SOL    HW230819   0.187   2.736   2.994  1.6046 -0.6348 -0.5229
 6453SOL     OW30820   1.746   3.903  15.098  0.2045 -0.1548 -0.0221
 6453SOL    HW130821   1.793   3.917  15.180 -0.5637  1.8093  0.0907
 6453SOL    HW230822   1.764   3.815  15.064  0.2676  0.1584 -0.7922
 6454SOL     OW30823   0.842   1.391   1.243  0.1377 -0.0523 -0.3238
 6454SOL    HW130824   0.913   1.348   1.291 -0.4632 -1.0643 -0.3539
 6454SOL    HW230825   0.869   1.482   1.252  1.9337 -0.5038 -1.1035
 6455SOL     OW30826   0.838   3.035   5.560 -0.6831 -0.2188 -0.5474
 6455SOL    HW130827   0.756   3.058   5.517  1.1069  2.5588 -2.5557
 6455SOL    HW230828   0.872   3.125   5.559  0.3895 -0.5976  0.7924
 6456SOL     OW30829   4.089   2.441  13.767 -0.3457 -0.1467 -0.3023
 6456SOL    HW130830   4.083   2.368  13.827  0.6508  0.8507  1.0170
 6456SOL    HW230831   3.998   2.444  13.739 -0.4833 -0.5319  0.1189
 6457SOL     OW30832   3.892   2.865   9.305 -0.1400 -0.2973 -0.1115
 6457SOL    HW130833   3.987   2.880   9.309  0.1129 -1.8691 -0.0151
 6457SOL    HW230834   3.885   2.775   9.337 -1.9501  0.0255  0.3742
 6458SOL     OW30835   2.437   2.942   7.384  0.3788 -0.3708  0.6951
 6458SOL    HW130836   2.422   2.890   7.305 -0.7698  0.3936  0.4114
 6458SOL    HW230837   2.370   3.010   7.391  1.3505  0.6290  0.2524
 6459SOL     OW30838   3.272   3.871   3.883  0.0899 -0.4428 -0.1339
 6459SOL    HW130839   3.282   3.780   3.912  0.1557 -0.5335 -0.4333
 6459SOL    HW230840   3.322   3.918   3.950 -0.5747 -2.8509  2.0203
 6460SOL     OW30841   0.096   2.922   2.329 -0.3335 -0.4116 -0.2099
 6460SOL    HW130842   0.037   2.889   2.396 -0.8195 -0.9035 -0.8715
 6460SOL    HW230843   0.070   3.014   2.327  1.5321  0.1225  0.0500
 6461SOL     OW30844   2.851   0.797  11.970  0.0176  0.1503 -0.2627
 6461SOL    HW130845   2.794   0.735  12.015 -0.4456  1.1992  0.6018
 6461SOL    HW230846   2.856   0.750  11.887  0.8914 -0.0575 -0.1022
 6462SOL     OW30847   3.811   1.453  11.301 -0.6912  0.3679  0.0345
 6462SOL    HW130848   3.824   1.525  11.363  1.5951  0.1673 -0.2172
 6462SOL    HW230849   3.894   1.453  11.254  0.6664 -1.0920  2.4204
 6463SOL     OW30850   0.114   2.311   4.647 -0.2307 -0.3501 -0.0508
 6463SOL    HW130851   0.185   2.328   4.709 -1.3341 -2.8435  1.8884
 6463SOL    HW230852   0.164   2.262   4.580  0.5147 -1.6217  1.4254
 6464SOL     OW30853   2.976   2.162   9.093  0.0448  0.7229 -0.3638
 6464SOL    HW130854   2.915   2.100   9.131 -2.3102  2.9187 -0.5405
 6464SOL    HW230855   2.971   2.138   9.001  0.1101 -4.3728  0.9558
 6465SOL     OW30856   0.818   1.838  15.462 -0.0429  0.0298  0.3125
 6465SOL    HW130857   0.817   1.797  15.376  1.3447 -0.8169  0.7040
 6465SOL    HW230858   0.832   1.930  15.443  0.0531 -0.2711 -1.0531
 6466SOL     OW30859   0.867   4.699   5.520  0.0803  0.2712 -0.1650
 6466SOL    HW130860   0.962   4.698   5.520  0.0862  1.0486 -0.8835
 6466SOL    HW230861   0.840   4.667   5.434 -0.1423 -2.7452  1.0279
 6467SOL     OW30862   2.901   2.006   3.284  0.3930 -0.1806 -0.5611
 6467SOL    HW130863   2.882   2.017   3.191 -2.0416 -0.9053 -0.1652
 6467SOL    HW230864   2.978   2.063   3.285 -0.1981  0.6228 -0.9398
 6468SOL     OW30865   3.424   1.693  14.873  0.0321 -0.5094  0.1580
 6468SOL    HW130866   3.346   1.688  14.819 -0.2965  0.4268  0.5449
 6468SOL    HW230867   3.468   1.768  14.833  0.3425 -0.2872  0.9136
 6469SOL     OW30868   1.072   3.068   2.004 -0.1019 -0.1856  0.3775
 6469SOL    HW130869   0.979   3.067   2.023  0.1785  0.5762  1.7549
 6469SOL    HW230870   1.077   3.105   1.916  0.1188 -1.4444 -0.1446
 6470SOL     OW30871   1.912   3.513   3.667 -0.4142  0.0391  0.4284
 6470SOL    HW130872   1.865   3.522   3.584 -1.3245 -1.2413  0.8148
 6470SOL    HW230873   1.997   3.553   3.646 -0.3915  0.0583  0.5597
 6471SOL     OW30874   3.190   1.211   5.013 -0.3277  0.2008  0.3644
 6471SOL    HW130875   3.174   1.243   4.925 -0.4118  2.1018  1.0816
 6471SOL    HW230876   3.256   1.273   5.044  0.5375  0.5364 -2.1583
 6472SOL     OW30877   3.363   1.148   7.888  0.4325  0.1114 -0.5534
 6472SOL    HW130878   3.391   1.236   7.865  0.6172  0.8630  2.5937
 6472SOL    HW230879   3.431   1.112   7.945  1.9469  0.6164 -2.0441
 6473SOL     OW30880   4.662   4.529   1.906  0.7165  0.7519  0.1789
 6473SOL    HW130881   4.589   4.590   1.907  1.5068  1.6902  0.1484
 6473SOL    HW230882   0.018   4.585   1.895 -0.6953  2.5610 -0.4484
 6474SOL     OW30883   0.541   3.085  10.244  0.2746  0.1871 -0.0452
 6474SOL    HW130884   0.461   3.135  10.261  0.1355 -0.1839  0.3885
 6474SOL    HW230885   0.557   3.109  10.153  1.4047 -1.7953 -0.3715
 6475SOL     OW30886   4.385   3.256  16.121  0.6665 -0.1552 -0.8353
 6475SOL    HW130887   4.300   3.223  16.092 -0.2431  1.1365  0.3227
 6475SOL    HW230888   4.362   3.321  16.188  0.5900 -1.5573  0.4852
 6476SOL     OW30889   3.679   2.408   3.698 -0.1203 -0.2201  0.0003
 6476SOL    HW130890   3.635   2.325   3.717  0.2811 -0.0427  1.7655
 6476SOL    HW230891   3.691   2.389   3.605  1.8062  1.4876 -0.1231
 6477SOL     OW30892   4.385   2.809   4.353 -0.2464  0.3613 -0.1449
 6477SOL    HW130893   4.353   2.883   4.404 -0.9551  0.4012 -0.6423
 6477SOL    HW230894   4.453   2.767   4.406 -0.4202 -1.4894 -1.3710
 6478SOL     OW30895   3.779   3.701   1.865  0.8120  0.0067  0.1011
 6478SOL    HW130896   3.831   3.660   1.796  0.1971  0.3135 -0.5410
 6478SOL    HW230897   3.751   3.628   1.921  1.5326 -2.4081 -2.7088
 6479SOL     OW30898   0.125   1.435   5.748 -0.1646  0.4411 -0.1414
 6479SOL    HW130899   0.073   1.490   5.807  0.7435  1.9340 -0.7260
 6479SOL    HW230900   0.048   1.393   5.710 -0.0094  0.0461 -0.0154
 6480SOL     OW30901   3.200   1.542   8.190  0.3313  0.0741  0.8995
 6480SOL    HW130902   3.139   1.499   8.131 -1.2335  1.6678  1.3371
 6480SOL    HW230903   3.280   1.502   8.156 -1.2301 -1.5308 -0.8239
 6481SOL     OW30904   4.328   0.608  15.902  0.4101  0.5758  0.0080
 6481SOL    HW130905   4.402   0.587  15.959  0.3151  2.2519  0.7293
 6481SOL    HW230906   4.360   0.569  15.821 -0.5960 -0.5425  0.1364
 6482SOL     OW30907   4.028   4.363   7.012 -0.4639  0.1045 -0.3646
 6482SOL    HW130908   4.056   4.449   7.044 -1.9700  0.9199 -1.2698
 6482SOL    HW230909   4.024   4.383   6.918  2.9668  1.6307 -0.1902
 6483SOL     OW30910   1.351   1.694   4.286  0.2115  0.6063  0.0450
 6483SOL    HW130911   1.386   1.783   4.279  0.9010  0.1993 -1.7571
 6483SOL    HW230912   1.431   1.643   4.274  0.0580  0.4534 -0.3490
 6484SOL     OW30913   4.176   1.137   6.164  0.0759 -0.0310 -0.3803
 6484SOL    HW130914   4.214   1.100   6.244  3.6586  1.8444 -1.2306
 6484SOL    HW230915   4.143   1.221   6.197  0.6884  0.0587  0.0043
 6485SOL     OW30916   0.972   2.466   0.417  0.0932  0.2278  0.0257
 6485SOL    HW130917   0.932   2.525   0.481  0.0606 -1.2901  1.4015
 6485SOL    HW230918   1.060   2.502   0.414  0.8100 -1.5506 -0.0555
 6486SOL     OW30919   2.377   4.702  15.177  0.0219  0.1116  0.0463
 6486SOL    HW130920   2.288   4.721  15.146  0.3356  1.8643  0.2070
 6486SOL    HW230921   2.426   0.012  15.101 -0.6100 -0.6103 -0.6557
 6487SOL     OW30922   4.631   4.237   8.243 -0.0709 -0.4091 -0.6096
 6487SOL    HW130923   4.654   4.213   8.333  1.7129  1.1279 -0.6754
 6487SOL    HW230924   4.627   4.153   8.196  1.6497 -0.7328 -0.1964
 6488SOL     OW30925   3.966   0.309   8.208  0.3452  0.1460 -0.0924
 6488SOL    HW130926   3.922   0.326   8.124 -2.4252 -2.1997  0.8826
 6488SOL    HW230927   4.044   0.364   8.201 -0.9097  1.9750  0.2287
 6489SOL     OW30928   1.645   2.779  17.516 -0.5414  0.2726 -0.1979
 6489SOL    HW130929   1.587   2.720  17.469 -0.8862  0.2529  0.2545
 6489SOL    HW230930   1.720   2.771  17.456 -0.2917 -1.7487  0.3934
 6490SOL     OW30931   3.615   0.170  16.593  0.3280  0.1744 -0.2422
 6490SOL    HW130932   3.656   0.113  16.658 -2.4432 -2.4282 -0.7682
 6490SOL    HW230933   3.686   0.231  16.577 -0.1405  1.0910  1.1634
 6491SOL     OW30934   1.270   0.147  11.076 -0.1667  0.0220 -0.0894
 6491SOL    HW130935   1.354   0.118  11.039  0.1670  0.6018  0.2268
 6491SOL    HW230936   1.304   0.214  11.135 -4.0200  1.9000  0.0108
 6492SOL     OW30937   0.604   2.861   0.167 -0.0942 -0.6797  0.0292
 6492SOL    HW130938   0.614   2.951   0.200  2.8355 -1.4244  1.1618
 6492SOL    HW230939   0.697   2.841   0.177 -0.4373 -2.1587  0.1616
 6493SOL     OW30940   2.321   2.472  13.340 -0.5071  0.4861  0.3237
 6493SOL    HW130941   2.386   2.485  13.271 -0.0246 -3.3611  0.0231
 6493SOL    HW230942   2.351   2.526  13.414 -0.3894  0.2957  0.4168
 6494SOL     OW30943   0.851   3.655   7.174  0.0085  0.6967  0.2527
 6494SOL    HW130944   0.925   3.595   7.179 -0.7397 -0.0426  2.1641
 6494SOL    HW230945   0.792   3.593   7.132 -0.3500  1.1748  0.0446
 6495SOL     OW30946   0.435   3.267   4.508  0.1123 -0.2691 -0.1235
 6495SOL    HW130947   0.347   3.280   4.544 -0.3415  0.1706 -1.3741
 6495SOL    HW230948   0.463   3.353   4.474  1.8194 -1.5363 -1.9309
 6496SOL     OW30949   3.623   1.201   0.433 -0.3797  0.2149  0.2891
 6496SOL    HW130950   3.643   1.239   0.347  0.9034 -3.1836 -0.9326
 6496SOL    HW230951   3.623   1.108   0.411  0.0673  0.4132 -0.5774
 6497SOL     OW30952   1.256   3.208  17.180 -0.2604 -0.1650 -0.7778
 6497SOL    HW130953   1.302   3.290  17.160  0.8424 -0.4377  0.6026
 6497SOL    HW230954   1.309   3.182  17.256 -0.9731 -0.5305 -0.4043
 6498SOL     OW30955   4.069   2.648   5.431  0.1158 -0.2748  0.4742
 6498SOL    HW130956   4.149   2.607   5.399  0.5586  1.7115 -0.9202
 6498SOL    HW230957   4.039   2.705   5.360  0.8594  1.1724  1.3212
 6499SOL     OW30958   2.665   2.025  13.629  0.4189  0.1411  0.3269
 6499SOL    HW130959   2.729   2.025  13.558 -0.9415 -0.9206 -0.8919
 6499SOL    HW230960   2.600   1.961  13.601 -1.2103  1.7369  0.4862
 6500SOL     OW30961   3.557   1.432  17.261 -0.2008  0.4259 -0.1611
 6500SOL    HW130962   3.636   1.380  17.274 -0.6015 -0.4901 -1.4003
 6500SOL    HW230963   3.590   1.512  17.302 -2.2835  0.5965  1.1876
 6501SOL     OW30964   3.273   2.677  12.693 -0.1193  0.6994 -0.3163
 6501SOL    HW130965   3.245   2.659  12.603  0.5211 -0.4175 -0.2940
 6501SOL    HW230966   3.232   2.607  12.744  0.3211 -0.0999 -1.0524
 6502SOL     OW30967   1.669   1.200  12.803 -0.0980  0.5949 -0.5877
 6502SOL    HW130968   1.668   1.127  12.865  0.1704  1.4204  0.3876
 6502SOL    HW230969   1.689   1.271  12.863 -1.7483  0.2507  0.3748
 6503SOL     OW30970   2.021   0.858   0.448  0.7141  0.2473  0.7576
 6503SOL    HW130971   1.998   0.942   0.409  0.5459 -0.6269 -1.0002
 6503SOL    HW230972   1.993   0.789   0.388  1.3049  1.0014 -0.3636
 6504SOL     OW30973   1.601   3.911   2.515 -0.4271  0.6554 -0.0161
 6504SOL    HW130974   1.575   3.969   2.443  1.2205  1.0576 -0.2826
 6504SOL    HW230975   1.519   3.872   2.546 -1.3187  1.4412 -1.3649
 6505SOL     OW30976   3.869   0.984  12.116 -0.1061 -0.1138 -0.2234
 6505SOL    HW130977   3.898   1.071  12.088  1.2128 -0.4008  0.2516
 6505SOL    HW230978   3.956   0.943  12.116 -1.2995 -2.6489  1.5997
 6506SOL     OW30979   1.427   4.706   7.189 -0.1957 -0.5849 -0.2051
 6506SOL    HW130980   1.413   0.045   7.116 -0.5436  0.3510  0.6326
 6506SOL    HW230981   1.336   4.694   7.218 -0.3923  0.3698 -0.4529
 6507SOL     OW30982   3.064   0.579  14.797  0.2454 -0.4003  0.4038
 6507SOL    HW130983   3.088   0.543  14.711 -1.1788 -1.2253  0.3393
 6507SOL    HW230984   3.106   0.516  14.856  0.1918 -1.3610 -0.5890
 6508SOL     OW30985   2.017   2.582  11.527  0.0972 -0.3632  0.6250
 6508SOL    HW130986   2.002   2.662  11.576 -1.9144  0.8091 -1.8949
 6508SOL    HW230987   2.107   2.594  11.496 -1.0948  0.5945 -2.5071
 6509SOL     OW30988   4.207   4.620   3.015  0.0908 -0.5151  0.1294
 6509SOL    HW130989   4.116   4.591   3.016  0.0643 -0.5018 -1.7904
 6509SOL    HW230990   4.201   4.710   2.985 -0.3845 -0.9719 -1.1216
 6510SOL     OW30991   3.114   4.138  16.137  0.6714  0.2984  0.2608
 6510SOL    HW130992   3.147   4.098  16.056 -1.3359 -1.3636  0.2870
 6510SOL    HW230993   3.159   4.099  16.212  1.7440  0.5020 -0.2720
 6511SOL     OW30994   0.828   4.599   5.008  0.3017  0.1031  0.0208
 6511SOL    HW130995   0.776   4.679   4.995 -1.0533 -1.0558 -1.6772
 6511SOL    HW230996   0.910   4.617   4.963 -0.7152 -1.1310 -2.3694
 6512SOL     OW30997   2.198   3.511   5.419 -0.2831  0.4496  0.0712
 6512SOL    HW130998   2.254   3.460   5.360 -0.5214 -0.1148  0.3338
 6512SOL    HW230999   2.260   3.572   5.460 -0.2864  0.3860  0.1709
 6513SOL     OW31000   3.673   3.245   7.576 -0.0809  0.4004  0.5945
 6513SOL    HW131001   3.610   3.309   7.610  0.5761  1.1162  0.4707
 6513SOL    HW231002   3.620   3.191   7.518 -1.0652  2.2487 -0.2202
 6514SOL     OW31003   2.441   2.417  10.799 -0.1318 -0.1038 -0.4301
 6514SOL    HW131004   2.420   2.336  10.753  3.0883 -1.1965  0.1030
 6514SOL    HW231005   2.451   2.472  10.721  1.5035  1.4929  0.8964
 6515SOL     OW31006   2.698   0.430   7.888  0.0953 -0.2745  0.0720
 6515SOL    HW131007   2.757   0.398   7.820 -0.2056 -1.4637  0.3738
 6515SOL    HW231008   2.661   0.508   7.846 -1.9311 -0.4633  1.5581
 6516SOL     OW31009   3.575   0.499   4.422 -0.7294 -0.1839 -0.0268
 6516SOL    HW131010   3.540   0.474   4.336 -1.7210 -2.1372  0.9401
 6516SOL    HW231011   3.493   0.490   4.470 -1.4657  0.4248 -1.1860
 6517SOL     OW31012   1.315   2.038   5.644  0.6202 -0.3967  0.0452
 6517SOL    HW131013   1.324   2.128   5.673  0.5540 -1.0636  2.1037
 6517SOL    HW231014   1.307   2.049   5.549  0.0057 -0.7840  0.0511
 6518SOL     OW31015   3.960   1.598   3.928  0.6531  0.9669 -0.2340
 6518SOL    HW131016   4.047   1.606   3.888 -0.0417  2.1716 -1.5221
 6518SOL    HW231017   3.955   1.687   3.964 -0.6374  1.0481 -0.6286
 6519SOL     OW31018   1.464   0.705   1.117 -0.1365  0.8279  0.2060
 6519SOL    HW131019   1.503   0.655   1.045  1.7967 -0.9714  2.5295
 6519SOL    HW231020   1.377   0.665   1.118  0.4978 -0.6812 -3.1465
 6520SOL     OW31021   3.806   2.502   6.031  0.4150  0.5310  0.1869
 6520SOL    HW131022   3.844   2.442   5.967  1.7153 -0.2512  1.6840
 6520SOL    HW231023   3.887   2.517   6.080  1.1585 -0.1981 -0.8159
 6521SOL     OW31024   1.239   0.359  13.435 -0.2418  0.6080  0.6619
 6521SOL    HW131025   1.314   0.398  13.390 -0.7185 -0.7918 -1.3543
 6521SOL    HW231026   1.167   0.409  13.396 -0.4560  1.3707  2.0179
 6522SOL     OW31027   4.310   1.480   6.467  0.2969 -0.2909 -0.0134
 6522SOL    HW131028   4.374   1.426   6.422 -1.6572  0.1485 -3.2940
 6522SOL    HW231029   4.352   1.496   6.552 -0.0192  0.0667  0.0766
 6523SOL     OW31030   0.850   2.253   2.606  0.2322  0.5646 -0.6453
 6523SOL    HW131031   0.868   2.159   2.608  1.3276  0.7138 -3.1299
 6523SOL    HW231032   0.832   2.259   2.512 -0.1172  2.6241 -0.4546
 6524SOL     OW31033   2.651   0.293  11.693 -0.0320 -0.5624 -1.1463
 6524SOL    HW131034   2.719   0.331  11.637 -0.1526 -0.8656 -1.5030
 6524SOL    HW231035   2.631   0.205  11.661 -1.2771 -0.0712 -1.7338
 6525SOL     OW31036   3.942   1.318   7.398  0.4062 -0.1833  0.6550
 6525SOL    HW131037   3.970   1.226   7.399  1.4898  0.1572  1.7166
 6525SOL    HW231038   3.854   1.304   7.363  0.4553  3.1018 -0.7835
 6526SOL     OW31039   4.310   4.456   2.671 -0.1516 -0.7075 -0.1150
 6526SOL    HW131040   4.354   4.531   2.710  0.6416 -0.5200 -1.3842
 6526SOL    HW231041   4.349   4.384   2.721 -0.9620 -0.4083  0.9495
 6527SOL     OW31042   3.056   2.562   4.330 -0.4759 -0.1164  0.2119
 6527SOL    HW131043   3.089   2.639   4.284 -2.6768  0.7782  0.1364
 6527SOL    HW231044   3.132   2.505   4.317 -0.3858  0.1843 -0.5630
 6528SOL     OW31045   3.300   2.301  10.531  0.0727 -0.2947 -1.3957
 6528SOL    HW131046   3.211   2.324  10.505 -0.9397 -3.1290 -0.4078
 6528SOL    HW231047   3.310   2.331  10.622 -2.9176 -0.8858 -0.8712
 6529SOL     OW31048   4.550   0.948  13.164 -0.2514 -0.4222 -0.4853
 6529SOL    HW131049   4.619   1.010  13.141 -0.1012  0.0606  1.2945
 6529SOL    HW231050   4.473   0.972  13.112 -1.3605  0.5036  1.5791
 6530SOL     OW31051   2.127   2.197   9.377  0.4431  0.1893 -0.4715
 6530SOL    HW131052   2.151   2.109   9.349  1.6030 -0.6066  3.0267
 6530SOL    HW231053   2.081   2.239   9.304 -1.1225  1.1969  1.1097
 6531SOL     OW31054   2.274   3.479   8.269 -0.1806  0.2439 -0.0074
 6531SOL    HW131055   2.343   3.545   8.274 -0.2488  0.3325 -0.2574
 6531SOL    HW231056   2.307   3.426   8.197  2.2581  0.7610  0.7531
 6532SOL     OW31057   2.163   1.654  16.275  0.1698 -0.3283 -0.5708
 6532SOL    HW131058   2.141   1.568  16.312 -1.3265 -0.1710 -1.0943
 6532SOL    HW231059   2.116   1.713  16.334  1.4666 -0.0081  0.1417
 6533SOL     OW31060   2.932   2.154   2.310  0.1778 -0.1734 -0.1591
 6533SOL    HW131061   2.860   2.180   2.368  1.8520  1.2945  1.2770
 6533SOL    HW231062   2.920   2.210   2.234 -0.0669  0.9125  0.6760
 6534SOL     OW31063   0.316   0.650   1.797  0.0916 -0.3986 -0.0035
 6534SOL    HW131064   0.302   0.559   1.769  0.9026  0.2033 -2.3200
 6534SOL    HW231065   0.231   0.682   1.826 -0.4750 -0.3796 -1.6981
 6535SOL     OW31066   4.617   2.863   9.397 -0.2129 -0.4940  0.3999
 6535SOL    HW131067   4.619   2.949   9.356  1.7580 -1.1938 -0.9712
 6535SOL    HW231068   4.607   2.877   9.491 -0.4391  0.7415  0.1853
 6536SOL     OW31069   2.130   0.274  10.003  0.7639 -0.0204 -0.1940
 6536SOL    HW131070   2.131   0.185   9.970  2.5991 -0.1473  0.1584
 6536SOL    HW231071   2.048   0.280  10.052  0.4878  0.5789 -0.7338
 6537SOL     OW31072   3.972   2.874   2.965  0.3458 -0.0637  0.2121
 6537SOL    HW131073   4.010   2.889   2.878  1.3216  0.1644  0.6731
 6537SOL    HW231074   3.889   2.837   2.937  0.8267 -0.7949 -0.2475
 6538SOL     OW31075   0.714   0.916   5.396  0.3734 -0.3024 -0.4700
 6538SOL    HW131076   0.800   0.887   5.364 -0.2940 -0.2941 -2.2604
 6538SOL    HW231077   0.656   0.852   5.355  1.2601 -0.9737 -0.6713
 6539SOL     OW31078   3.865   1.884   2.299  0.5839  0.1167  0.4541
 6539SOL    HW131079   3.959   1.884   2.313  0.6098 -2.3639  0.2833
 6539SOL    HW231080   3.846   1.964   2.250  0.0178  0.3456  1.0560
 6540SOL     OW31081   3.011   4.388   7.682  0.3094  0.3116 -0.0542
 6540SOL    HW131082   3.032   4.369   7.590  0.4011  0.1308  0.0043
 6540SOL    HW231083   3.063   4.317   7.719 -0.5354 -0.9950 -1.3848
 6541SOL     OW31084   2.306   0.741   4.149  0.1144  0.1746 -0.0555
 6541SOL    HW131085   2.263   0.707   4.071 -1.4914  2.1867 -0.0334
 6541SOL    HW231086   2.258   0.691   4.216  1.6651  1.4133  1.9948
 6542SOL     OW31087   1.571   2.005  12.095  0.4421 -1.0125  0.1075
 6542SOL    HW131088   1.536   2.019  12.007  0.5492  1.6221  0.5069
 6542SOL    HW231089   1.547   1.912  12.098 -0.7192 -0.7535 -1.2844
 6543SOL     OW31090   3.513   1.374   3.164 -0.4049 -0.2872 -0.4271
 6543SOL    HW131091   3.584   1.364   3.100  0.6085 -0.8871  0.7981
 6543SOL    HW231092   3.472   1.288   3.178 -0.3175 -0.3534 -0.5800
 6544SOL     OW31093   0.212   2.135   7.631  0.4181 -0.0579 -0.0627
 6544SOL    HW131094   0.291   2.166   7.676 -0.0148  2.1422 -0.8043
 6544SOL    HW231095   0.170   2.216   7.604  0.0244 -0.5628 -0.9568
 6545SOL     OW31096   2.577   2.550  17.128 -0.8058  0.4741 -0.0850
 6545SOL    HW131097   2.556   2.484  17.062 -0.9232 -0.2590  0.6782
 6545SOL    HW231098   2.573   2.635  17.085 -0.8618  0.7468  0.4528
 6546SOL     OW31099   0.945   4.175   0.291 -0.0264  0.0376  0.1760
 6546SOL    HW131100   0.988   4.121   0.358  0.8454 -0.6560 -0.9494
 6546SOL    HW231101   0.916   4.251   0.341  1.7325  0.7236  0.1818
 6547SOL     OW31102   1.069   3.473   6.967 -0.3948 -0.5324 -0.0526
 6547SOL    HW131103   1.082   3.568   6.958  0.6763 -0.6363  0.5075
 6547SOL    HW231104   1.067   3.466   7.062  0.6919 -2.2439 -0.1734
 6548SOL     OW31105   1.515   2.069   6.625 -0.0277 -0.4397  0.4051
 6548SOL    HW131106   1.538   2.159   6.604 -3.0431  0.6056  1.6289
 6548SOL    HW231107   1.559   2.065   6.710  0.9773  1.7806 -0.0187
 6549SOL     OW31108   3.050   1.810   3.403  0.0115 -0.0322 -0.2965
 6549SOL    HW131109   2.993   1.874   3.360  1.0192  0.4372 -0.9240
 6549SOL    HW231110   3.093   1.774   3.326  0.4582  0.6800 -0.3724
 6550SOL     OW31111   0.025   0.371   2.822 -0.0108 -0.0816 -0.0243
 6550SOL    HW131112   4.675   0.328   2.774  0.0704 -1.4487  1.0536
 6550SOL    HW231113   4.698   0.418   2.890 -1.9492  0.8141 -2.0311
 6551SOL     OW31114   3.568   3.832   3.998 -0.3527 -0.3535 -0.0940
 6551SOL    HW131115   3.513   3.909   3.985  0.9553  0.1178 -2.7243
 6551SOL    HW231116   3.550   3.832   4.092 -0.4213 -1.0956 -0.1058
 6552SOL     OW31117   3.162   0.112   5.592 -0.2592 -0.0682  0.9563
 6552SOL    HW131118   3.128   0.046   5.653  0.3571 -0.8116  0.5000
 6552SOL    HW231119   3.225   0.055   5.546 -0.0539 -0.1689  1.3632
 6553SOL     OW31120   2.324   0.691   9.110  0.0065  0.5417  0.4012
 6553SOL    HW131121   2.398   0.674   9.052 -0.5330 -2.5374  0.6248
 6553SOL    HW231122   2.355   0.671   9.199 -1.5949 -0.6533  0.7037
 6554SOL     OW31123   3.848   2.532   7.320 -0.4105  0.1971  0.6926
 6554SOL    HW131124   3.817   2.529   7.411  1.2228 -0.5595  1.2154
 6554SOL    HW231125   3.839   2.625   7.299 -1.2326 -0.2150 -0.7689
 6555SOL     OW31126   1.970   4.673  13.158  0.4315  0.1010  0.1900
 6555SOL    HW131127   2.050   4.630  13.129 -0.7679 -1.0344 -1.4358
 6555SOL    HW231128   1.903   4.612  13.127  0.5289 -0.2353  0.6423
 6556SOL     OW31129   3.962   4.565   2.838 -0.3300  0.4571 -0.3463
 6556SOL    HW131130   3.894   4.541   2.775  0.1377  1.5446 -1.2589
 6556SOL    HW231131   4.021   4.613   2.780  1.7139  0.2523  1.5551
 6557SOL     OW31132   3.313   4.678   4.568 -0.2734 -1.0210  0.1810
 6557SOL    HW131133   3.391   0.010   4.555  0.2534 -2.2223 -1.6075
 6557SOL    HW231134   3.330   4.609   4.504  0.7685 -2.5852  2.1539
 6558SOL     OW31135   0.106   0.207   7.455 -0.1909 -0.0722 -0.1325
 6558SOL    HW131136   0.085   0.299   7.436  0.5839  0.0554 -0.3591
 6558SOL    HW231137   0.041   0.163   7.400  0.9528 -1.0648 -0.6860
 6559SOL     OW31138   3.387   3.627  17.476 -0.1989 -0.1675  0.3320
 6559SOL    HW131139   3.348   3.632  17.563 -0.8170 -1.9722  0.1531
 6559SOL    HW231140   3.402   3.718  17.451 -1.1117  0.0391  0.5385
 6560SOL     OW31141   3.644   3.350   9.145 -0.3456 -0.2731  0.3809
 6560SOL    HW131142   3.628   3.429   9.196 -0.4006  0.3917 -0.6603
 6560SOL    HW231143   3.559   3.338   9.104 -0.1616 -0.6843  0.1150
 6561SOL     OW31144   0.561   0.556   4.533  0.0586 -0.1671  0.2753
 6561SOL    HW131145   0.541   0.647   4.553  0.8973  0.3904 -1.4266
 6561SOL    HW231146   0.536   0.544   4.441  1.2887 -0.5892 -0.0105
 6562SOL     OW31147   4.297   1.036   5.010  0.2088 -0.7701 -0.1485
 6562SOL    HW131148   4.337   1.112   5.052  0.5449 -0.0729 -1.7211
 6562SOL    HW231149   4.264   1.060   4.923  0.2100 -1.6574 -0.3908
 6563SOL     OW31150   1.651   4.027   1.570  0.2975  0.3726 -0.2260
 6563SOL    HW131151   1.631   4.107   1.618 -0.2876 -0.1674  0.4211
 6563SOL    HW231152   1.692   4.064   1.491 -0.6913  2.1293  0.0801
 6564SOL     OW31153   0.780   3.214   8.722 -0.7167 -0.4433  0.4136
 6564SOL    HW131154   0.822   3.146   8.670  1.6554  0.0158  1.7493
 6564SOL    HW231155   0.793   3.286   8.661 -0.6678  1.4219  2.6107
 6565SOL     OW31156   2.974   0.251  11.023 -0.5875  0.4708  0.2382
 6565SOL    HW131157   2.897   0.302  11.001 -0.4242 -0.0043 -1.4158
 6565SOL    HW231158   2.975   0.186  10.953  1.9734  0.1774  0.5642
 6566SOL     OW31159   0.432   0.921   4.395 -0.3645 -0.0836 -0.0130
 6566SOL    HW131160   0.506   0.982   4.387 -2.2537  1.9748 -1.5913
 6566SOL    HW231161   0.434   0.887   4.484 -1.1066 -1.0789 -0.3718
 6567SOL     OW31162   2.069   3.833   3.879  0.2284 -0.3913 -0.8718
 6567SOL    HW131163   2.094   3.762   3.937  0.9109  0.4266 -0.1764
 6567SOL    HW231164   2.124   3.896   3.924  0.2651 -0.2341 -1.1397
 6568SOL     OW31165   0.965   0.069  14.434  0.1472 -0.1064 -0.1004
 6568SOL    HW131166   1.056   0.099  14.425  0.2336 -0.1205  0.6633
 6568SOL    HW231167   0.955   0.007  14.363  1.7664 -0.4298 -0.0558
 6569SOL     OW31168   0.276   0.460   2.253 -0.1018  0.1183  0.0101
 6569SOL    HW131169   0.276   0.474   2.158  0.8297 -2.3099 -0.3647
 6569SOL    HW231170   0.225   0.379   2.264  0.7967 -0.2475  1.3775
 6570SOL     OW31171   3.007   0.045  12.515 -0.3106 -0.1549  0.0264
 6570SOL    HW131172   3.072   0.075  12.451  0.7956  0.6821  1.5255
 6570SOL    HW231173   2.939   0.031  12.450 -0.4903  0.1403  0.1464
 6571SOL     OW31174   1.108   0.681   0.029  0.1371 -0.3822  0.4442
 6571SOL    HW131175   1.026   0.730   0.039 -0.5910 -1.9168  2.1314
 6571SOL    HW231176   1.073   0.618  17.653  1.4074  1.2704 -1.9231
 6572SOL     OW31177   3.229   4.632  10.053  0.5646 -0.3144  0.3881
 6572SOL    HW131178   3.252   4.599  10.139  1.5654  0.6429  0.4930
 6572SOL    HW231179   3.135   4.618  10.048  0.4582  0.3154  0.6197
 6573SOL     OW31180   4.534   1.013   3.672 -0.4694  0.5157  0.2976
 6573SOL    HW131181   4.614   1.053   3.706 -0.0671 -1.0398  1.1809
 6573SOL    HW231182   4.568   0.951   3.607 -1.0980  1.3420 -0.8281
 6574SOL     OW31183   2.501   3.266   7.251 -0.1152 -0.5566  0.3981
 6574SOL    HW131184   2.475   3.343   7.301  2.4326  0.8740 -0.5062
 6574SOL    HW231185   2.571   3.223   7.301  0.5307  0.4036  0.3078
 6575SOL     OW31186   0.485   4.658  17.043 -0.1286 -0.2833 -0.2522
 6575SOL    HW131187   0.467   4.610  17.123 -1.1173  0.0791 -0.2619
 6575SOL    HW231188   0.411   4.645  16.984 -0.4584  2.2113 -0.4134
 6576SOL     OW31189   3.684   0.813  14.599 -0.5469  0.3078 -0.1359
 6576SOL    HW131190   3.663   0.888  14.543 -1.3370  0.1592 -0.0496
 6576SOL    HW231191   3.605   0.803  14.653 -0.5317 -0.4060 -0.2480
 6577SOL     OW31192   3.221   1.218  16.367  0.0045  0.0322  0.6014
 6577SOL    HW131193   3.273   1.223  16.286 -0.7981  0.2727  0.0974
 6577SOL    HW231194   3.131   1.232  16.337 -0.2464  0.2217  1.4397
 6578SOL     OW31195   3.850   4.129   8.016 -0.1730 -0.2797  0.1183
 6578SOL    HW131196   3.767   4.081   8.015  0.3936 -1.2648  0.0585
 6578SOL    HW231197   3.901   4.061   8.059 -0.5066 -0.8010 -0.3160
 6579SOL     OW31198   4.509   3.555   8.105  0.0098  0.0021 -0.2165
 6579SOL    HW131199   4.468   3.501   8.172  2.7288 -1.2379  0.4260
 6579SOL    HW231200   4.437   3.605   8.065 -2.3618 -0.8206  2.9952
 6580SOL     OW31201   3.111   0.752  14.579  0.3631  0.4395 -0.8157
 6580SOL    HW131202   3.178   0.724  14.516  1.3235  0.5405  0.1676
 6580SOL    HW231203   3.045   0.745  14.509 -2.4146 -1.8453  2.0500
 6581SOL     OW31204   1.462   3.152   5.287  0.6136  0.0897  0.4441
 6581SOL    HW131205   1.412   3.233   5.275 -0.4050 -0.7828 -1.3047
 6581SOL    HW231206   1.512   3.145   5.206  1.3007 -0.4467  0.9217
 6582SOL     OW31207   2.030   1.043   2.707 -0.7584  0.3647  0.4755
 6582SOL    HW131208   1.972   0.983   2.753 -1.5562 -0.1741 -1.2262
 6582SOL    HW231209   1.972   1.080   2.640  0.6244 -0.1554 -1.0092
 6583SOL     OW31210   1.340   2.767  10.227  0.2205  0.4376  0.2633
 6583SOL    HW131211   1.349   2.682  10.270  1.2364  0.3155 -0.1982
 6583SOL    HW231212   1.390   2.818  10.291 -0.2761  0.9920  0.2108
 6584SOL     OW31213   0.372   1.823   4.806  0.9138 -0.4334 -0.5803
 6584SOL    HW131214   0.402   1.908   4.839 -1.1351  0.3467 -0.7052
 6584SOL    HW231215   0.427   1.760   4.851  0.1742 -0.1155  0.7892
 6585SOL     OW31216   3.806   4.556   9.529  0.2503  0.3662  0.4359
 6585SOL    HW131217   3.808   4.648   9.505  0.6875  0.5635  1.2450
 6585SOL    HW231218   3.711   4.543   9.535  0.2667 -1.2875 -2.7417
 6586SOL     OW31219   1.062   0.182   5.673  0.0102 -0.7930  0.3713
 6586SOL    HW131220   1.064   0.161   5.580  1.7938  2.1888 -0.2577
 6586SOL    HW231221   0.982   0.136   5.698 -0.1255 -1.5589 -1.4862
 6587SOL     OW31222   2.087   3.766   9.002  0.7622 -0.1784  0.3297
 6587SOL    HW131223   2.135   3.788   8.922  0.9890  1.1384  0.8142
 6587SOL    HW231224   2.014   3.716   8.965  0.9317  0.5510 -1.0061
 6588SOL     OW31225   3.203   1.624  10.228  0.5122 -0.4601 -0.2389
 6588SOL    HW131226   3.242   1.595  10.310 -2.3597  0.3763  1.4226
 6588SOL    HW231227   3.121   1.665  10.258  0.6581  0.3367 -0.9154
 6589SOL     OW31228   3.598   4.012   2.186  0.4024  0.1885 -0.3920
 6589SOL    HW131229   3.536   4.074   2.223  0.3721  0.8202 -1.4972
 6589SOL    HW231230   3.628   4.056   2.107 -0.4648 -0.3606 -1.0172
 6590SOL     OW31231   4.643   0.023   5.264 -0.0151  0.7931  0.5745
 6590SOL    HW131232   4.569   4.711   5.315  0.0428  1.8207  1.3228
 6590SOL    HW231233   4.712   4.687   5.296 -0.6358  0.1668  0.7947
 6591SOL     OW31234   2.959   0.231  17.460  0.1310  0.3478  0.0598
 6591SOL    HW131235   2.932   0.183  17.381 -1.1770 -0.6783  1.1336
 6591SOL    HW231236   2.915   0.314  17.444 -1.7754 -0.8649 -1.0952
 6592SOL     OW31237   1.946   1.045  12.114  0.4183 -0.1642 -0.9126
 6592SOL    HW131238   1.939   1.128  12.160  2.7212 -1.3275  1.5435
 6592SOL    HW231239   2.032   1.014  12.141  0.7215  0.5848 -1.0475
 6593SOL     OW31240   0.598   1.031  13.034 -0.2676 -0.6530 -0.5211
 6593SOL    HW131241   0.647   0.949  13.028  0.3222 -0.2014 -1.9140
 6593SOL    HW231242   0.655   1.091  12.986  0.1147  0.0607  0.8278
 6594SOL     OW31243   1.438   2.252  13.874  0.7757  0.5806  0.3230
 6594SOL    HW131244   1.482   2.234  13.957  0.7826  2.3944  0.7244
 6594SOL    HW231245   1.431   2.346  13.889 -1.4056  0.4050  0.3384
 6595SOL     OW31246   2.315   2.737   8.074 -0.0750 -0.5869 -0.0996
 6595SOL    HW131247   2.280   2.821   8.044  0.9727  0.0782  0.5610
 6595SOL    HW231248   2.388   2.707   8.021 -0.1681 -0.2777 -0.4034
 6596SOL     OW31249   1.076   3.633  11.412  0.2053  0.3515 -0.1822
 6596SOL    HW131250   1.170   3.615  11.402  0.4607  1.3386  0.5390
 6596SOL    HW231251   1.070   3.717  11.367 -0.1706  0.8470  0.7911
 6597SOL     OW31252   1.785   2.306  14.088 -0.5257  0.3037 -0.2426
 6597SOL    HW131253   1.766   2.256  14.167 -0.4936 -1.4435 -1.3268
 6597SOL    HW231254   1.852   2.258  14.039 -1.8985 -0.7980 -1.0354
 6598SOL     OW31255   1.998   1.056   3.007  0.1567 -0.3496  0.4529
 6598SOL    HW131256   2.013   1.139   2.963 -1.2703  0.6121  1.7881
 6598SOL    HW231257   2.083   1.051   3.051  1.9835  0.3204 -2.9749
 6599SOL     OW31258   2.345   2.115   7.778  0.4873  0.1275 -0.1520
 6599SOL    HW131259   2.295   2.186   7.738 -0.6127 -1.0229 -0.8170
 6599SOL    HW231260   2.380   2.058   7.709 -1.7546 -0.7203 -0.5729
 6600SOL     OW31261   1.933   0.981  17.189  0.3333 -0.3109  0.0552
 6600SOL    HW131262   1.964   0.973  17.280 -2.8820 -1.5533  1.0482
 6600SOL    HW231263   2.006   0.951  17.135 -1.5427 -3.5119 -0.6881
 6601SOL     OW31264   0.874   1.285   7.972 -0.0416  1.2470 -0.4064
 6601SOL    HW131265   0.917   1.294   7.887 -1.2373  0.3453 -1.1010
 6601SOL    HW231266   0.899   1.367   8.016  1.4142 -0.0318  1.1416
 6602SOL     OW31267   2.081   0.558   1.904  0.0981 -0.4174 -0.1882
 6602SOL    HW131268   1.995   0.544   1.866 -0.2155 -0.5451  0.5681
 6602SOL    HW231269   2.128   0.509   1.836  1.2481 -0.5129  0.6686
 6603SOL     OW31270   1.803   3.043   6.296 -0.1660 -0.0457  0.2963
 6603SOL    HW131271   1.856   3.116   6.264 -1.0344  0.8408  0.8825
 6603SOL    HW231272   1.872   2.977   6.306 -0.7813 -0.3812  2.2633
 6604SOL     OW31273   0.507   4.656  16.326  1.3109 -0.0509 -0.4322
 6604SOL    HW131274   0.457   4.628  16.403  0.8265 -2.3141 -1.5893
 6604SOL    HW231275   0.589   4.695  16.357  0.7280 -0.7658  2.0675
 6605SOL     OW31276   3.748   3.014   3.542 -0.3044 -0.1592 -0.3932
 6605SOL    HW131277   3.801   3.094   3.546  0.9676 -1.0452  0.5159
 6605SOL    HW231278   3.755   2.981   3.632  1.4209  0.6133 -0.2527
 6606SOL     OW31279   1.790   0.778   7.138  0.4910  0.6255 -0.2742
 6606SOL    HW131280   1.794   0.699   7.083  1.4851  1.1537 -0.9768
 6606SOL    HW231281   1.775   0.851   7.078  1.7665 -0.7888 -2.3413
 6607SOL     OW31282   1.092   2.825   0.261 -0.8349 -0.1087 -0.3312
 6607SOL    HW131283   1.154   2.896   0.276 -0.4569 -0.3669 -0.6558
 6607SOL    HW231284   1.147   2.747   0.256  3.3187  2.9001 -1.0488
 6608SOL     OW31285   0.828   0.871   2.279  0.7301 -0.0853  0.3855
 6608SOL    HW131286   0.910   0.908   2.246 -1.1218  1.3105 -2.5906
 6608SOL    HW231287   0.783   0.842   2.200  0.7968  0.3649  0.1810
 6609SOL     OW31288   1.020   1.568   0.188 -0.2435 -0.1312  0.1183
 6609SOL    HW131289   1.015   1.595   0.280  1.3595 -0.1219  0.2089
 6609SOL    HW231290   0.991   1.477   0.190  3.8211 -1.4601 -0.3604
 6610SOL     OW31291   2.791   1.494   0.497 -0.0493 -0.4770 -0.2007
 6610SOL    HW131292   2.775   1.542   0.578 -0.1361 -0.2385 -0.3608
 6610SOL    HW231293   2.887   1.488   0.494 -0.1051 -1.5103  0.0714
 6611SOL     OW31294   2.225   4.498   9.078 -0.1109 -0.6041 -0.6241
 6611SOL    HW131295   2.290   4.545   9.027  2.1515 -2.8512  0.1914
 6611SOL    HW231296   2.181   4.570   9.124 -0.4746 -2.2925  1.6896
 6612SOL     OW31297   1.678   3.043   5.409 -0.3668 -0.4230 -0.5527
 6612SOL    HW131298   1.608   3.078   5.356 -1.8715 -1.6861  0.5954
 6612SOL    HW231299   1.740   3.116   5.407 -2.6882  1.5702  1.2401
 6613SOL     OW31300   3.696   3.343  10.216 -0.4687 -0.2434 -0.4329
 6613SOL    HW131301   3.772   3.321  10.163  0.1356  0.0094  0.3393
 6613SOL    HW231302   3.648   3.261  10.201 -1.6961  0.5019 -0.5313
 6614SOL     OW31303   2.267   0.714  13.835  0.5952 -0.6385  0.2185
 6614SOL    HW131304   2.175   0.699  13.812  1.0252 -0.3241 -1.6738
 6614SOL    HW231305   2.315   0.670  13.765 -1.2367 -2.7836  0.2900
 6615SOL     OW31306   4.007   1.837   4.072 -0.1796 -0.2482 -0.2896
 6615SOL    HW131307   3.931   1.895   4.064  0.9218  1.5649  2.4560
 6615SOL    HW231308   4.069   1.877   4.010 -0.1875  1.3209  0.7243
 6616SOL     OW31309   0.058   4.597   3.336  0.3374 -0.3918 -0.6572
 6616SOL    HW131310   0.020   4.684   3.348 -1.2135 -1.1074 -0.4530
 6616SOL    HW231311   0.135   4.611   3.391 -0.4499 -0.8442  0.5562
 6617SOL     OW31312   3.438   0.516  15.082  0.3135  0.0245 -0.0512
 6617SOL    HW131313   3.424   0.559  14.998  2.1780 -3.8145 -2.2881
 6617SOL    HW231314   3.525   0.477  15.076  0.5916  0.2554  2.4250
 6618SOL     OW31315   0.799   4.627   9.798 -0.2371 -0.1601  0.1221
 6618SOL    HW131316   0.721   4.578   9.825 -0.3261  0.3041  0.7012
 6618SOL    HW231317   0.874   4.581   9.835  1.1000  1.8895 -0.0743
 6619SOL     OW31318   1.252   4.496   5.015 -0.1446  0.2129 -0.1488
 6619SOL    HW131319   1.347   4.484   5.019 -0.3610 -1.1370  0.9136
 6619SOL    HW231320   1.250   4.585   5.052  0.9013  0.4988 -0.7775
 6620SOL     OW31321   3.100   2.642   3.012 -0.0541 -0.5860 -0.2445
 6620SOL    HW131322   3.040   2.581   2.970  0.3095 -1.9825  1.2599
 6620SOL    HW231323   3.058   2.727   2.998 -0.2544 -0.6591 -0.0823
 6621SOL     OW31324   0.522   2.358   4.497 -0.0092 -0.1164 -0.4280
 6621SOL    HW131325   0.598   2.387   4.446 -1.2298  2.0039 -1.0688
 6621SOL    HW231326   0.520   2.426   4.565  1.9954 -0.5512  0.0843
 6622SOL     OW31327   2.389   1.617   8.234  0.0737 -0.1927  0.3421
 6622SOL    HW131328   2.363   1.525   8.233 -1.2995  0.1872  1.1507
 6622SOL    HW231329   2.421   1.623   8.324  0.1280 -0.4737  0.3419
 6623SOL     OW31330   2.921   4.017   8.796 -0.4901 -0.0482  0.0376
 6623SOL    HW131331   2.922   4.009   8.891  1.9077  0.2772  0.0334
 6623SOL    HW231332   3.009   3.983   8.776  0.1478  1.8002 -0.2495
 6624SOL     OW31333   2.628   3.757   5.164 -0.6355 -0.2348 -0.4669
 6624SOL    HW131334   2.687   3.823   5.127  0.8737 -0.8292  0.8996
 6624SOL    HW231335   2.610   3.791   5.251 -0.9212 -1.7058  0.0367
 6625SOL     OW31336   1.396   1.205  13.381  0.2082 -0.1189  0.0317
 6625SOL    HW131337   1.323   1.260  13.409 -0.3566 -0.8246 -0.0380
 6625SOL    HW231338   1.443   1.256  13.316  1.4783  0.3555  1.3094
 6626SOL     OW31339   2.093   3.495   1.608  0.4206 -0.0395 -0.7245
 6626SOL    HW131340   2.050   3.421   1.652 -2.0744  1.7574 -0.1093
 6626SOL    HW231341   2.040   3.568   1.641 -1.6611 -1.8455 -0.0424
 6627SOL     OW31342   0.970   3.630   1.479  0.6247 -0.2011 -0.0679
 6627SOL    HW131343   0.885   3.623   1.435  1.3196 -1.1422 -1.2769
 6627SOL    HW231344   1.029   3.649   1.406  1.3710  0.7567  0.7876
 6628SOL     OW31345   2.958   4.461   8.003 -0.2843  0.5103 -0.1443
 6628SOL    HW131346   2.876   4.427   8.039  1.2954 -2.6613  0.4484
 6628SOL    HW231347   2.935   4.538   7.951 -0.3324  0.1985 -0.5742
 6629SOL     OW31348   1.591   4.332   9.987 -0.4043 -0.5580  0.7250
 6629SOL    HW131349   1.599   4.345   9.892  0.4405  1.8072  1.1161
 6629SOL    HW231350   1.666   4.277  10.011  2.3352  1.9021 -2.1813
 6630SOL     OW31351   4.321   2.482   1.812  0.0539  0.4587  0.0127
 6630SOL    HW131352   4.340   2.489   1.905 -1.4174 -2.2370  0.5216
 6630SOL    HW231353   4.227   2.496   1.806  0.0100 -1.2727 -3.1877
 6631SOL     OW31354   1.976   4.707  13.883 -0.2937 -0.5655 -0.3297
 6631SOL    HW131355   2.008   4.654  13.957  3.0744 -0.0309 -1.4220
 6631SOL    HW231356   2.053   0.043  13.880 -0.4167 -0.3909 -0.1630
 6632SOL     OW31357   3.234   1.892   5.107 -0.7108  0.2890  0.3599
 6632SOL    HW131358   3.329   1.906   5.098 -0.3129 -2.3954  0.4114
 6632SOL    HW231359   3.204   1.929   5.024 -0.1048  1.5919  0.7199
 6633SOL     OW31360   3.978   0.400   7.315  0.1053 -0.3181  0.0663
 6633SOL    HW131361   3.894   0.392   7.360 -0.8450  0.0517 -1.6330
 6633SOL    HW231362   4.028   0.338   7.368  1.1874  0.4830 -0.0149
 6634SOL     OW31363   3.337   2.117  10.988 -0.0451 -0.2835  0.1457
 6634SOL    HW131364   3.412   2.073  11.028  0.6541 -0.4770 -1.3794
 6634SOL    HW231365   3.348   2.109  10.894  2.2356 -0.2432  0.4053
 6635SOL     OW31366   1.181   4.677   6.969 -0.0261 -0.1883  0.1099
 6635SOL    HW131367   1.122   4.708   7.037  0.3317 -1.1139  0.8411
 6635SOL    HW231368   1.148   4.588   6.959 -0.3730  0.0798 -1.2355
 6636SOL     OW31369   2.933   2.050   3.953 -0.7646  0.4143  0.0565
 6636SOL    HW131370   2.893   2.044   3.867 -0.1498  1.2009 -0.2944
 6636SOL    HW231371   2.865   2.014   4.009 -1.6799  2.5621  0.3345
 6637SOL     OW31372   3.246   1.583   4.761  0.2603  0.0168 -0.2955
 6637SOL    HW131373   3.336   1.596   4.790  0.1963  0.1742 -0.1676
 6637SOL    HW231374   3.195   1.538   4.828  2.6997 -1.2758  0.6867
 6638SOL     OW31375   3.296   0.990   0.173  0.3334  0.0581  0.0813
 6638SOL    HW131376   3.289   1.085   0.168  0.4146  0.0102 -0.9563
 6638SOL    HW231377   3.386   0.973   0.202  0.4769  0.5887 -0.0571
 6639SOL     OW31378   3.850   0.940   8.331  0.3220  0.5649  0.3838
 6639SOL    HW131379   3.940   0.946   8.297  0.0622  1.4935 -0.1593
 6639SOL    HW231380   3.866   0.868   8.391 -0.6893 -0.4030 -0.5148
 6640SOL     OW31381   0.081   0.749   1.895 -0.2333  0.4147 -0.2047
 6640SOL    HW131382   4.719   0.781   1.860  0.3052  0.0897 -1.7724
 6640SOL    HW231383   0.053   0.670   1.941  1.1698 -1.2593 -2.2296
 6641SOL     OW31384   2.793   1.863   7.159  0.4864  0.5675 -0.1656
 6641SOL    HW131385   2.769   1.834   7.071 -1.2363  0.7108  0.2558
 6641SOL    HW231386   2.708   1.905   7.170  0.2206 -0.0137  0.0090
 6642SOL     OW31387   3.643   2.275   4.979  0.2383 -0.1998  0.4330
 6642SOL    HW131388   3.565   2.330   4.975  0.4518  0.0622 -0.0390
 6642SOL    HW231389   3.649   2.265   5.074 -0.9612  2.0643  0.7394
 6643SOL     OW31390   0.519   0.361   9.472 -0.7178 -0.2180 -0.0977
 6643SOL    HW131391   0.572   0.328   9.545 -2.3760  0.5335  1.4457
 6643SOL    HW231392   0.539   0.454   9.480 -0.2814 -0.1825 -1.5461
 6644SOL     OW31393   3.399   2.205   5.102 -0.5505 -0.0294  0.2226
 6644SOL    HW131394   3.425   2.297   5.111 -1.5690 -0.1037  3.7349
 6644SOL    HW231395   3.327   2.204   5.039  0.7401  3.3947 -1.3375
 6645SOL     OW31396   4.081   1.479   6.701  0.1246 -0.1286 -0.3440
 6645SOL    HW131397   4.096   1.470   6.607 -0.4897 -2.8877 -0.1509
 6645SOL    HW231398   4.094   1.573   6.719 -0.7729  0.0309 -0.5262
 6646SOL     OW31399   0.051   4.576  16.430  0.1951  0.3698 -0.3745
 6646SOL    HW131400   0.008   4.509  16.484 -0.7035  0.4220 -1.0451
 6646SOL    HW231401   4.699   4.629  16.401 -0.9097 -1.3723 -0.7477
 6647SOL     OW31402   2.217   0.485   0.597  0.0910 -0.4326 -0.7720
 6647SOL    HW131403   2.192   0.575   0.616  1.2719 -0.5443  1.2156
 6647SOL    HW231404   2.204   0.436   0.678  0.7318 -0.7723 -0.8775
 6648SOL     OW31405   1.972   1.389   1.335 -0.1872  0.2685  0.5096
 6648SOL    HW131406   1.886   1.423   1.313  0.0879  0.0441 -0.9065
 6648SOL    HW231407   1.981   1.314   1.277 -0.2170  0.5738  0.1151
 6649SOL     OW31408   2.698   3.303   3.387 -0.3803 -0.3034 -0.2960
 6649SOL    HW131409   2.767   3.236   3.392  1.0230  1.3253  2.1228
 6649SOL    HW231410   2.615   3.256   3.397 -0.3546 -0.1600  0.6020
 6650SOL     OW31411   2.987   4.431  13.183  0.8024  0.0583  0.0508
 6650SOL    HW131412   3.025   4.363  13.127 -0.9899 -0.7971 -0.1451
 6650SOL    HW231413   2.981   4.498  13.115 -3.0341 -0.6086 -0.2990
 6651SOL     OW31414   3.459   1.645   1.657  0.3140 -0.9406 -0.1646
 6651SOL    HW131415   3.399   1.570   1.655 -1.7989  0.7766 -1.0410
 6651SOL    HW231416   3.509   1.631   1.738 -0.7362 -1.0165  0.4695
 6652SOL     OW31417   0.604   3.461   3.132  0.3789  0.1547  0.1306
 6652SOL    HW131418   0.530   3.479   3.189  0.9869  2.6106  0.1233
 6652SOL    HW231419   0.656   3.539   3.150 -0.1584  0.0035  2.3185
 6653SOL     OW31420   3.819   4.379   8.842 -0.6180  0.2830 -0.0929
 6653SOL    HW131421   3.840   4.326   8.919  1.7601  1.5432  0.1308
 6653SOL    HW231422   3.868   4.332   8.775 -0.1492  0.4904  0.1051
 6654SOL     OW31423   0.327   1.229   2.831  0.0538  0.6400 -0.1438
 6654SOL    HW131424   0.301   1.225   2.739  3.0889  1.5447 -1.0298
 6654SOL    HW231425   0.367   1.142   2.843 -2.3153 -0.1489  2.2424
 6655SOL     OW31426   1.725   0.325  14.719 -0.5305 -0.6212  0.6002
 6655SOL    HW131427   1.732   0.327  14.814 -0.9960 -0.6755  0.6322
 6655SOL    HW231428   1.652   0.381  14.691  1.2100  1.0194 -0.6878
 6656SOL     OW31429   0.455   2.424   7.657  0.4070  0.3182 -0.5162
 6656SOL    HW131430   0.456   2.333   7.687  0.1587  0.3319 -0.4697
 6656SOL    HW231431   0.380   2.419   7.599  0.4975 -0.8183 -0.5290
 6657SOL     OW31432   0.394   4.122   7.795 -0.3362 -0.1967 -0.2235
 6657SOL    HW131433   0.379   4.172   7.876  2.3866 -1.7313  1.2470
 6657SOL    HW231434   0.483   4.147   7.770 -0.8402  1.1563 -0.6977
 6658SOL     OW31435   1.164   1.025  11.198 -0.0363 -0.3652  0.2371
 6658SOL    HW131436   1.180   1.098  11.139 -0.5606 -0.5634 -0.1512
 6658SOL    HW231437   1.227   0.963  11.160  1.7306  2.2732 -1.0986
 6659SOL     OW31438   1.450   4.665   2.386 -0.2796  0.3571  0.1684
 6659SOL    HW131439   1.365   4.623   2.396  0.1809 -0.5605  0.2293
 6659SOL    HW231440   1.452   4.717   2.466 -2.2135 -0.2313  0.6020
 6660SOL     OW31441   3.446   1.799   8.168 -1.0116  0.5808 -0.0523
 6660SOL    HW131442   3.428   1.738   8.240 -1.9064  2.6477  1.4871
 6660SOL    HW231443   3.539   1.781   8.158 -1.8047 -3.4951 -0.1176
 6661SOL     OW31444   2.408   3.760   9.676 -0.4137 -0.3043  0.2048
 6661SOL    HW131445   2.421   3.695   9.607 -3.6572 -1.8234  1.0272
 6661SOL    HW231446   2.327   3.734   9.721 -0.3868 -3.0460 -1.3376
 6662SOL     OW31447   0.705   1.491   8.836 -0.4034  0.0031 -0.1165
 6662SOL    HW131448   0.787   1.536   8.813 -0.0867  0.0907  1.1820
 6662SOL    HW231449   0.675   1.550   8.905 -0.7053  0.3265 -0.5214
 6663SOL     OW31450   0.552   2.839   5.973 -0.7190  0.1071 -0.2048
 6663SOL    HW131451   0.596   2.767   6.017 -1.7318 -1.3128 -1.5231
 6663SOL    HW231452   0.464   2.817   6.004 -0.8504  0.9430  0.0278
 6664SOL     OW31453   0.739   1.222   8.887  0.0134 -0.1634  0.1984
 6664SOL    HW131454   0.728   1.316   8.874  0.3621 -0.2553 -0.8001
 6664SOL    HW231455   0.719   1.188   8.799 -1.4299 -0.1389  0.5254
 6665SOL     OW31456   1.930   1.310   0.541 -0.1391  1.2935 -0.2363
 6665SOL    HW131457   2.016   1.287   0.577  0.0895  1.5926 -0.5921
 6665SOL    HW231458   1.923   1.231   0.488 -0.0461  1.2893 -0.2425
 6666SOL     OW31459   0.691   2.546   2.557  0.5250  0.3650 -0.1628
 6666SOL    HW131460   0.763   2.575   2.501 -1.1657  0.3010 -2.3693
 6666SOL    HW231461   0.622   2.599   2.519 -1.0189 -1.3677  0.1773
 6667SOL     OW31462   0.368   2.982   4.974  0.0315 -0.1256  0.2384
 6667SOL    HW131463   0.298   2.917   4.979 -1.4351  1.5099  0.6805
 6667SOL    HW231464   0.366   3.000   4.880  1.7961 -1.0514  0.0067
 6668SOL     OW31465   3.513   0.634  17.324 -0.1121  0.0435  0.1212
 6668SOL    HW131466   3.538   0.546  17.297  1.1005  0.7616 -1.1073
 6668SOL    HW231467   3.443   0.647  17.260  0.7831  0.5275 -0.7623
 6669SOL     OW31468   4.381   2.186  13.949 -0.1719  0.5494  0.3196
 6669SOL    HW131469   4.386   2.091  13.955  0.6438  0.6989  2.1146
 6669SOL    HW231470   4.286   2.203  13.951 -0.9407 -3.7928 -0.1591
 6670SOL     OW31471   4.488   0.628   7.819 -0.5338  0.4226 -0.6257
 6670SOL    HW131472   4.548   0.698   7.846  1.1223 -1.9807  1.8818
 6670SOL    HW231473   4.439   0.624   7.901  2.0409  1.3252  0.9496
 6671SOL     OW31474   1.251   0.200   3.503 -0.0157  0.0924 -0.1847
 6671SOL    HW131475   1.297   0.123   3.470 -0.9804 -1.5481  2.2580
 6671SOL    HW231476   1.162   0.168   3.519  0.5277 -0.5546  1.6286
 6672SOL     OW31477   0.166   0.692   3.976 -0.0482 -0.9154 -0.5779
 6672SOL    HW131478   0.106   0.766   3.964 -2.9197 -2.9940  0.8755
 6672SOL    HW231479   0.249   0.736   3.988 -1.2672  0.6951  1.7295
 6673SOL     OW31480   2.565   1.677   4.418  0.3071  0.1736 -0.5287
 6673SOL    HW131481   2.573   1.641   4.329  2.3613  0.3524 -0.4096
 6673SOL    HW231482   2.478   1.714   4.402  1.1121  1.7592 -1.2530
 6674SOL     OW31483   0.502   3.285   6.952 -0.1720  0.4268 -0.9141
 6674SOL    HW131484   0.409   3.263   6.948 -0.0161 -0.2495 -0.8003
 6674SOL    HW231485   0.493   3.376   6.924  0.7609  0.6400 -0.5332
 6675SOL     OW31486   3.162   0.273   3.418  0.1498  0.2934 -0.2090
 6675SOL    HW131487   3.229   0.206   3.432 -0.1113  0.7621  3.3089
 6675SOL    HW231488   3.080   0.228   3.395  0.1476  1.1245 -1.8694
 6676SOL     OW31489   3.112   2.740   0.304  0.1987  0.0789 -0.6491
 6676SOL    HW131490   3.048   2.737   0.234  0.7016  3.4216 -1.2878
 6676SOL    HW231491   3.113   2.653   0.342  2.3042 -0.0243 -0.9135
 6677SOL     OW31492   0.173   3.851   6.110 -0.3338  0.3829 -0.1404
 6677SOL    HW131493   0.181   3.779   6.173 -1.0564 -0.2131 -0.7211
 6677SOL    HW231494   0.086   3.886   6.128  0.0896  1.6851 -0.6254
 6678SOL     OW31495   2.489   1.031   0.671 -0.1581  0.5335 -0.3193
 6678SOL    HW131496   2.511   0.942   0.643 -2.8792 -0.6016  1.1866
 6678SOL    HW231497   2.426   1.058   0.605 -0.1030  2.5131  0.4316
 6679SOL     OW31498   2.679   2.232  13.820  0.3253  0.6019  0.0939
 6679SOL    HW131499   2.670   2.170  13.748 -0.3681  0.4047  0.3525
 6679SOL    HW231500   2.605   2.289  13.797 -0.8135 -1.2114 -0.6832
 6680SOL     OW31501   3.791   3.542  16.802  0.1710 -0.1150  0.1375
 6680SOL    HW131502   3.761   3.470  16.746  2.7929  0.1539 -1.5905
 6680SOL    HW231503   3.772   3.623  16.756  0.9958  0.2082  0.3716
 6681SOL     OW31504   4.277   2.648   7.742 -0.2502  0.5450 -0.2268
 6681SOL    HW131505   4.282   2.621   7.834 -1.2129 -0.9510 -0.6234
 6681SOL    HW231506   4.272   2.743   7.756  1.1925  0.4167  1.2103
 6682SOL     OW31507   0.047   3.400  17.048  0.1020 -0.4527 -0.1000
 6682SOL    HW131508   0.121   3.345  17.075  0.1388  0.2263  1.2123
 6682SOL    HW231509   0.063   3.394  16.954 -0.7802  0.1397 -0.2867
 6683SOL     OW31510   0.842   0.498   7.538 -0.0470 -0.4629  0.4663
 6683SOL    HW131511   0.872   0.515   7.627  1.2126 -3.9026  0.6968
 6683SOL    HW231512   0.898   0.551   7.481 -2.2123 -0.8758 -2.0138
 6684SOL     OW31513   0.481   3.997   6.215  0.3356  0.1557 -0.2083
 6684SOL    HW131514   0.444   3.921   6.170 -1.7321  0.3215  1.2031
 6684SOL    HW231515   0.535   3.950   6.279 -0.1900 -0.2564 -0.0645
 6685SOL     OW31516   0.446   3.669  10.965 -0.6899 -0.1227  0.4218
 6685SOL    HW131517   0.426   3.752  10.922  0.2718 -1.4257 -2.5533
 6685SOL    HW231518   0.445   3.701  11.055 -0.3699  1.5283 -0.1705
 6686SOL     OW31519   0.892   2.743   8.661 -0.3885 -0.2815  0.1893
 6686SOL    HW131520   0.939   2.673   8.616  0.5813  0.9350 -0.6805
 6686SOL    HW231521   0.843   2.688   8.722 -0.7250 -0.2536 -0.0579
 6687SOL     OW31522   3.171   0.977   5.747  0.1392  0.4010  0.5035
 6687SOL    HW131523   3.123   0.958   5.666 -2.4732  0.2010  2.0971
 6687SOL    HW231524   3.234   0.905   5.743 -0.0332  0.2276  0.8924
 6688SOL     OW31525   0.091   0.301   6.996  0.2306  0.1330  0.1027
 6688SOL    HW131526   0.002   0.331   7.012  0.6972  0.1115  2.7490
 6688SOL    HW231527   0.147   0.370   7.029  0.6662 -0.0212 -0.3068
 6689SOL     OW31528   2.578   1.816   9.511  0.4877 -0.5347 -0.2606
 6689SOL    HW131529   2.500   1.850   9.554  0.5177  0.4530 -0.9810
 6689SOL    HW231530   2.642   1.869   9.560 -1.2092 -0.2876  1.6990
 6690SOL     OW31531   1.412   2.465   2.621 -0.2170 -0.3876  0.2887
 6690SOL    HW131532   1.488   2.463   2.564 -0.8762  0.9255 -0.6533
 6690SOL    HW231533   1.367   2.388   2.586  2.8255 -2.3404  0.6895
 6691SOL     OW31534   2.514   0.442  16.190 -0.7595 -0.2584  0.1551
 6691SOL    HW131535   2.544   0.475  16.274 -0.7558  2.6202 -0.9934
 6691SOL    HW231536   2.419   0.445  16.198 -0.9613  0.6318 -2.4678
 6692SOL     OW31537   0.250   2.307   5.031  0.0365  0.4147  0.2790
 6692SOL    HW131538   0.164   2.348   5.033  0.4454  1.2637  0.2960
 6692SOL    HW231539   0.286   2.335   5.115 -1.1870 -0.6474  1.1553
 6693SOL     OW31540   1.226   2.013   1.889  0.1607 -0.2759  0.2812
 6693SOL    HW131541   1.194   2.103   1.896  1.4429  0.0542  1.8779
 6693SOL    HW231542   1.291   2.012   1.959  0.0032  3.6344  0.5246
 6694SOL     OW31543   2.340   3.740   4.658  0.3381 -0.7300 -0.7808
 6694SOL    HW131544   2.285   3.805   4.616  0.7334  1.3178  1.8490
 6694SOL    HW231545   2.282   3.714   4.730  1.1349 -0.8108 -0.1617
 6695SOL     OW31546   1.004   1.837   1.857  0.2984 -0.0041  0.8333
 6695SOL    HW131547   0.978   1.866   1.945 -1.3105  1.9583 -0.3243
 6695SOL    HW231548   1.074   1.901   1.845  0.1042  0.2308  0.9549
 6696SOL     OW31549   4.296   1.075   7.779 -0.4166 -0.7908 -0.0362
 6696SOL    HW131550   4.246   1.156   7.768 -0.3564 -0.8199 -0.5291
 6696SOL    HW231551   4.381   1.111   7.754  0.3467 -2.3676  0.3407
 6697SOL     OW31552   1.547   3.696   5.663  0.0480  0.0845  0.2446
 6697SOL    HW131553   1.572   3.645   5.586 -1.5579  1.2870 -1.0841
 6697SOL    HW231554   1.563   3.630   5.731  0.6868 -0.2952 -0.2783
 6698SOL     OW31555   0.659   3.576   3.449  0.7108 -0.5431  0.3380
 6698SOL    HW131556   0.715   3.552   3.522  1.1314 -0.4373  0.0462
 6698SOL    HW231557   0.589   3.614   3.503  0.0720  0.2657 -1.0711
 6699SOL     OW31558   4.173   3.641   6.729  0.2507 -0.1240  0.2823
 6699SOL    HW131559   4.261   3.655   6.694  0.4682 -1.4027  0.3307
 6699SOL    HW231560   4.190   3.599   6.813 -1.8851 -1.6844 -0.0442
 6700SOL     OW31561   3.803   2.251   6.368  0.1023  0.1276  0.0327
 6700SOL    HW131562   3.749   2.308   6.423  0.5872  2.4798 -1.9006
 6700SOL    HW231563   3.872   2.240   6.434 -0.5585 -1.2281  0.4729
 6701SOL     OW31564   4.222   3.977   8.779  0.1842  0.4229  0.4080
 6701SOL    HW131565   4.305   4.020   8.801 -0.0101  0.7289  0.5571
 6701SOL    HW231566   4.248   3.886   8.783 -0.0795  0.3850  1.2687
 6702SOL     OW31567   0.125   2.171  12.488  0.3659 -0.1971 -0.6506
 6702SOL    HW131568   0.204   2.221  12.506  0.5611 -0.9062  0.4401
 6702SOL    HW231569   0.051   2.232  12.482 -0.1065 -0.7979 -1.0032
 6703SOL     OW31570   0.277   0.084   8.001 -0.2413 -0.0566  0.1057
 6703SOL    HW131571   0.231   0.011   8.044 -1.1007 -0.9630 -2.3408
 6703SOL    HW231572   0.309   0.119   8.084  0.5529 -3.7458  1.3675
 6704SOL     OW31573   0.335   2.970  16.781  0.0569  0.6776  0.3179
 6704SOL    HW131574   0.354   3.026  16.705  0.0975  0.3125  0.0624
 6704SOL    HW231575   0.403   2.998  16.843 -0.9912  1.4319  1.1346
 6705SOL     OW31576   3.993   0.146  13.074  0.3520  0.2781  0.4789
 6705SOL    HW131577   3.905   0.161  13.110  1.7965 -1.0453  4.5600
 6705SOL    HW231578   4.038   0.227  13.100 -1.6834  0.2027  4.1587
 6706SOL     OW31579   1.183   0.457  11.304  0.0793 -0.2725 -0.8372
 6706SOL    HW131580   1.172   0.376  11.354 -0.1777 -0.6784 -1.5548
 6706SOL    HW231581   1.094   0.459  11.269  0.1924 -0.9640 -1.1744
 6707SOL     OW31582   2.537   4.028   7.757 -0.4728  0.6271 -0.1669
 6707SOL    HW131583   2.478   4.034   7.682  0.3739  0.2257 -0.8543
 6707SOL    HW231584   2.508   4.105   7.807  1.4217  0.2068  1.5864
 6708SOL     OW31585   4.184   0.606  16.175  0.2823 -0.2037 -0.2545
 6708SOL    HW131586   4.233   0.599  16.094  0.3005  2.6475 -0.5041
 6708SOL    HW231587   4.124   0.532  16.166  0.2469 -0.5087  2.2593
 6709SOL     OW31588   2.492   0.174   0.537 -0.1890  0.4009 -0.4451
 6709SOL    HW131589   2.583   0.179   0.507 -0.7242  0.2351 -2.0584
 6709SOL    HW231590   2.485   0.265   0.567  3.6192 -0.1982  2.2879
 6710SOL     OW31591   2.546   0.373   5.127 -0.2197 -0.2560  0.4424
 6710SOL    HW131592   2.487   0.309   5.087  1.3752 -1.0552 -0.6357
 6710SOL    HW231593   2.493   0.453   5.127  1.3787  0.7933  0.2457
 6711SOL     OW31594   2.556   0.863  13.662 -0.6120  0.1396 -0.5971
 6711SOL    HW131595   2.601   0.884  13.580  0.1078  0.6759 -0.0609
 6711SOL    HW231596   2.465   0.864  13.630 -0.9298 -0.2302  0.2872
 6712SOL     OW31597   3.977   2.892   8.756 -0.0079 -0.4705  0.6578
 6712SOL    HW131598   3.894   2.849   8.740 -0.7796  1.9357 -1.8078
 6712SOL    HW231599   3.966   2.914   8.848 -1.2744  0.5028  0.2763
 6713SOL     OW31600   3.538   0.749   2.921 -0.3187  0.2254  0.6428
 6713SOL    HW131601   3.594   0.715   2.851 -0.6519 -0.5701  0.7721
 6713SOL    HW231602   3.599   0.807   2.967 -1.5127  0.7473  1.5584
 6714SOL     OW31603   3.685   2.955  13.725  0.2071  0.4157 -0.3782
 6714SOL    HW131604   3.608   2.978  13.777 -0.2362 -1.8391 -0.0050
 6714SOL    HW231605   3.747   3.026  13.739  2.1642 -1.7043  1.7315
 6715SOL     OW31606   2.785   4.236   7.803 -0.3529  0.3802 -0.2508
 6715SOL    HW131607   2.808   4.317   7.756  0.6786  0.1934 -0.0638
 6715SOL    HW231608   2.754   4.270   7.887 -1.1262  1.6955 -1.0720
 6716SOL     OW31609   4.209   3.904   2.153 -0.2384  0.2811  0.0850
 6716SOL    HW131610   4.122   3.885   2.116 -0.2520 -1.4213  1.0086
 6716SOL    HW231611   4.186   3.968   2.220 -1.4227  0.5566 -0.5603
 6717SOL     OW31612   1.651   0.781  13.154  0.7031 -0.0685 -0.1717
 6717SOL    HW131613   1.625   0.689  13.152 -1.9155  0.6717  0.3762
 6717SOL    HW231614   1.684   0.797  13.243 -0.9655  1.4689  0.1684
 6718SOL     OW31615   2.183   2.712   2.655  0.2606  0.4136  0.0195
 6718SOL    HW131616   2.237   2.781   2.618  2.1970 -1.4124 -0.5494
 6718SOL    HW231617   2.177   2.652   2.580  0.8594  0.0669  0.2474
 6719SOL     OW31618   1.939   2.213   6.401  0.1786 -0.1527 -0.9557
 6719SOL    HW131619   2.028   2.178   6.390  0.6136  0.5874  0.2534
 6719SOL    HW231620   1.916   2.155   6.474  1.5972  2.8997  1.9274
 6720SOL     OW31621   2.033   1.496   3.754 -0.7197 -0.3282  0.5442
 6720SOL    HW131622   2.019   1.401   3.747 -1.2515 -0.4145  2.8878
 6720SOL    HW231623   2.127   1.509   3.742 -0.8552  0.8567  0.7681
 6721SOL     OW31624   0.475   2.257   2.309 -0.2286 -0.4232  0.3049
 6721SOL    HW131625   0.403   2.213   2.263  0.1820 -0.7656 -0.0123
 6721SOL    HW231626   0.426   2.334   2.338 -1.3442  0.1646 -3.2709
 6722SOL     OW31627   3.343   0.473  13.744 -0.7038 -0.9179 -0.0902
 6722SOL    HW131628   3.381   0.559  13.762 -2.0966 -0.4879  0.8480
 6722SOL    HW231629   3.394   0.412  13.798  2.6069  2.5164  0.6702
 6723SOL     OW31630   1.247   4.628   2.680 -0.4211  0.4558  0.2442
 6723SOL    HW131631   1.214   4.648   2.768  1.7406  2.4870  0.5885
 6723SOL    HW231632   1.246   4.532   2.687  3.1581  0.5238  1.4043
 6724SOL     OW31633   1.502   4.107   6.956  0.7078 -0.3979  0.3117
 6724SOL    HW131634   1.486   4.091   6.863  0.7681 -1.5119  0.4875
 6724SOL    HW231635   1.532   4.197   6.945 -0.5156 -0.3451 -2.7309
 6725SOL     OW31636   2.794   2.963   0.232 -0.1467  0.1406 -0.1702
 6725SOL    HW131637   2.742   3.035   0.267 -1.0249 -0.4577 -0.2379
 6725SOL    HW231638   2.871   3.019   0.221  0.7056 -1.1464 -0.8221
 6726SOL     OW31639   1.633   2.406   8.418 -0.4739 -0.1765  0.0281
 6726SOL    HW131640   1.699   2.370   8.357 -0.7032  1.9324 -1.4610
 6726SOL    HW231641   1.677   2.383   8.500  0.3014 -3.3013 -1.2443
 6727SOL     OW31642   2.012   2.923   2.728 -0.3668  0.2795 -0.3808
 6727SOL    HW131643   1.956   2.940   2.652 -3.8895 -1.9070  1.7312
 6727SOL    HW231644   2.075   2.859   2.695  0.3399  0.4677  0.6313
 6728SOL     OW31645   4.490   2.220   4.986  0.0978 -0.2205 -0.1421
 6728SOL    HW131646   4.411   2.231   5.039 -0.6528 -2.8799 -0.7076
 6728SOL    HW231647   4.448   2.256   4.908 -1.5965 -1.4665  0.2094
 6729SOL     OW31648   0.177   2.670   0.972 -0.0366  0.4488 -0.5366
 6729SOL    HW131649   0.124   2.687   0.894 -3.2710 -1.0214  1.3466
 6729SOL    HW231650   0.197   2.762   0.990  0.9329  0.4355 -1.5293
 6730SOL     OW31651   2.708   1.165   2.659 -0.5436  0.3401 -0.5040
 6730SOL    HW131652   2.664   1.151   2.575 -2.8811 -2.2141  1.1539
 6730SOL    HW231653   2.724   1.075   2.686  0.0100  1.0491  1.5008
 6731SOL     OW31654   1.702   0.719   5.701 -0.6412 -0.2973  0.3480
 6731SOL    HW131655   1.790   0.736   5.667 -0.7982  0.4823  0.3316
 6731SOL    HW231656   1.651   0.774   5.641  0.6005 -0.8108 -1.1890
 6732SOL     OW31657   0.384   0.928  10.974  0.2589 -0.0869 -0.2822
 6732SOL    HW131658   0.306   0.898  11.021 -0.8760 -0.1101 -2.1705
 6732SOL    HW231659   0.356   1.015  10.949 -0.6139  0.0214  1.0902
 6733SOL     OW31660   4.450   2.762   9.706  0.1683  0.7070 -0.1598
 6733SOL    HW131661   4.527   2.744   9.760  1.0835  0.5068 -1.5513
 6733SOL    HW231662   4.449   2.684   9.651 -2.5142 -0.0309  0.9060
 6734SOL     OW31663   3.633   3.717  13.120 -0.4806  0.2707  0.3145
 6734SOL    HW131664   3.624   3.791  13.059 -1.0451 -1.0073 -1.1456
 6734SOL    HW231665   3.710   3.741  13.172  2.1801 -3.2095 -1.9735
 6735SOL     OW31666   2.195   4.306  12.687  0.3591  0.1831  0.1239
 6735SOL    HW131667   2.249   4.374  12.728 -0.5836  0.0311  1.6571
 6735SOL    HW231668   2.106   4.342  12.688  0.2979 -0.0504  3.0180
 6736SOL     OW31669   4.520   4.331  15.676 -0.2011  0.5576  0.4473
 6736SOL    HW131670   4.440   4.288  15.704 -0.6432  0.8979 -0.2794
 6736SOL    HW231671   4.510   4.337  15.581 -1.1981 -0.3852  0.4977
 6737SOL     OW31672   1.238   0.924   8.656  0.3838 -0.0884  0.1371
 6737SOL    HW131673   1.236   0.949   8.563  0.1600  0.7645  0.3713
 6737SOL    HW231674   1.146   0.939   8.674  0.1309  0.2274 -1.4307
 6738SOL     OW31675   2.116   4.333   6.603  0.0112  0.0274  0.0661
 6738SOL    HW131676   2.132   4.258   6.546 -1.7374 -0.7547  0.5868
 6738SOL    HW231677   2.070   4.399   6.550 -1.6265  0.1820  1.6490
 6739SOL     OW31678   3.342   2.542  13.694 -0.0649 -0.4696 -0.1202
 6739SOL    HW131679   3.288   2.480  13.742  0.4885  0.3643  1.5698
 6739SOL    HW231680   3.343   2.613  13.758  0.5239 -1.1005  0.5623
 6740SOL     OW31681   2.349   1.380   9.621 -0.0100 -0.6693  0.2800
 6740SOL    HW131682   2.368   1.358   9.530  2.2045  0.3732  0.4880
 6740SOL    HW231683   2.303   1.307   9.663 -2.7856  1.5290  1.0948
 6741SOL     OW31684   2.081   3.415   6.714 -0.4260 -0.1129  0.5439
 6741SOL    HW131685   2.008   3.447   6.768 -1.0294 -2.4414  1.0978
 6741SOL    HW231686   2.043   3.448   6.633  1.1888  1.9170  0.6086
 6742SOL     OW31687   1.836   4.188  15.708  0.1384 -0.5570 -0.0234
 6742SOL    HW131688   1.891   4.163  15.782 -0.0220  2.5760  1.1444
 6742SOL    HW231689   1.829   4.283  15.719  0.7189 -0.2866 -1.9103
 6743SOL     OW31690   4.094   3.273   6.801 -0.0252  0.1311 -0.6821
 6743SOL    HW131691   4.098   3.195   6.746 -2.1576  0.5734 -1.4545
 6743SOL    HW231692   4.152   3.236   6.867 -0.1403  0.9196 -0.1374
 6744SOL     OW31693   2.476   3.924   5.494 -0.0217  0.1179  0.1863
 6744SOL    HW131694   2.563   3.891   5.471  0.0025  0.8833 -0.8147
 6744SOL    HW231695   2.504   4.015   5.502  1.8726 -0.1873 -2.8669
 6745SOL     OW31696   0.621   4.641   6.881  0.4202  0.2098 -0.5957
 6745SOL    HW131697   0.619   4.566   6.821  2.7049  0.8922 -1.5054
 6745SOL    HW231698   0.647   4.609   6.968  0.7027  1.0150 -0.3928
 6746SOL     OW31699   0.032   0.465   7.354 -0.2989 -0.9870  0.0030
 6746SOL    HW131700   0.078   0.513   7.286 -1.3370  0.2146  0.1447
 6746SOL    HW231701   0.027   0.533   7.421  0.1612 -1.0075  0.0540
 6747SOL     OW31702   3.151   1.266  16.644 -0.2739  0.1441 -0.4867
 6747SOL    HW131703   3.177   1.221  16.563 -0.5842 -1.5880  0.3748
 6747SOL    HW231704   3.204   1.345  16.633  0.0068  0.4219  2.9619
 6748SOL     OW31705   4.694   2.306  13.937 -0.3816 -0.3771  0.1192
 6748SOL    HW131706   4.689   2.213  13.958  1.2566 -0.1213  1.5797
 6748SOL    HW231707   0.064   2.327  13.920 -0.8572  1.7200  0.0964
 6749SOL     OW31708   0.497   1.432   4.220  0.1261 -0.0521  0.3760
 6749SOL    HW131709   0.480   1.384   4.301 -0.3525 -0.7680 -0.1518
 6749SOL    HW231710   0.592   1.437   4.230  0.1720  0.5409 -0.3171
 6750SOL     OW31711   0.713   0.790  14.355 -0.0094  0.4416 -0.0978
 6750SOL    HW131712   0.619   0.789  14.339  0.2795 -0.6158 -1.6502
 6750SOL    HW231713   0.738   0.699  14.372 -1.6244  0.0177 -0.0355
 6751SOL     OW31714   3.744   2.488   4.230 -0.2419 -0.5067  0.2883
 6751SOL    HW131715   3.721   2.563   4.174 -0.1452 -0.7136 -0.0289
 6751SOL    HW231716   3.755   2.419   4.165  0.0111 -0.1315 -0.0709
 6752SOL     OW31717   2.514   3.434   7.947 -0.2563  0.0896  0.2780
 6752SOL    HW131718   2.547   3.359   7.997 -1.2571 -1.1123 -0.8686
 6752SOL    HW231719   2.515   3.401   7.857  0.6564  0.3675  0.1905
 6753SOL     OW31720   0.720   1.943   6.649  0.1236  0.7656 -0.2377
 6753SOL    HW131721   0.697   1.851   6.659  0.0024  0.8759  0.4879
 6753SOL    HW231722   0.692   1.976   6.735 -0.6237  1.0024 -0.5686
 6754SOL     OW31723   0.730   0.059  14.167  0.1748  0.4766 -0.2476
 6754SOL    HW131724   0.782   0.120  14.114 -0.0653  0.0304 -0.9801
 6754SOL    HW231725   0.798   4.713  14.176 -0.2249 -0.1041 -1.5759
 6755SOL     OW31726   0.960   1.806   4.410 -0.4400 -0.3019  0.9423
 6755SOL    HW131727   0.988   1.772   4.326  0.1679  1.9868  0.2193
 6755SOL    HW231728   1.025   1.757   4.461  1.3202  0.6471 -0.3875
 6756SOL     OW31729   3.373   2.919   7.831 -0.3817 -0.0642 -0.6067
 6756SOL    HW131730   3.295   2.880   7.871  0.0697 -2.4066 -2.0704
 6756SOL    HW231731   3.409   2.965   7.907 -0.5445 -2.6131  1.0195
 6757SOL     OW31732   3.888   1.870   3.751  0.0628  0.3335 -0.3518
 6757SOL    HW131733   3.975   1.873   3.711  0.4454  0.6254  0.5172
 6757SOL    HW231734   3.845   1.788   3.726 -1.4708  1.9838 -3.1909
 6758SOL     OW31735   2.541   2.515   4.207  0.0266 -0.1074 -0.1588
 6758SOL    HW131736   2.527   2.536   4.115  0.7661 -0.2749 -0.3102
 6758SOL    HW231737   2.629   2.551   4.217  0.0961  0.2240 -2.1143
 6759SOL     OW31738   2.690   3.997  14.843 -0.0841  0.4029 -0.0318
 6759SOL    HW131739   2.636   4.065  14.803 -0.7192 -0.8322 -1.2675
 6759SOL    HW231740   2.640   3.924  14.808  0.2891  0.9843 -1.7614
 6760SOL     OW31741   0.753   4.376   7.280  0.6111 -0.3217  0.3776
 6760SOL    HW131742   0.725   4.364   7.370 -0.5761 -1.2229 -0.1125
 6760SOL    HW231743   0.764   4.286   7.249 -1.6021 -0.0125 -1.3638
 6761SOL     OW31744   2.762   0.454  16.058 -0.3812 -0.5035 -0.4184
 6761SOL    HW131745   2.689   0.440  16.119  0.3515 -0.2604  0.5180
 6761SOL    HW231746   2.722   0.468  15.973 -1.1832  0.5715  0.1266
 6762SOL     OW31747   2.805   0.686   2.862 -0.0714 -0.1146 -0.4150
 6762SOL    HW131748   2.889   0.694   2.907 -0.0016  1.2429 -0.7776
 6762SOL    HW231749   2.833   0.682   2.771 -1.2962 -1.8421 -0.7117
 6763SOL     OW31750   3.892   0.842  16.400 -0.1028  0.5454 -0.4173
 6763SOL    HW131751   3.832   0.775  16.432  0.6242 -0.4468 -1.1205
 6763SOL    HW231752   3.821   0.905  16.395  1.0824  1.9273  0.0216
 6764SOL     OW31753   0.484   2.371   4.129 -0.1879 -0.1208 -0.2212
 6764SOL    HW131754   0.576   2.354   4.147 -0.5651 -1.9397 -0.0104
 6764SOL    HW231755   0.442   2.349   4.213 -1.5909 -0.7976 -1.1019
 6765SOL     OW31756   0.184   0.300   0.401 -0.0554  0.4496 -0.0718
 6765SOL    HW131757   0.279   0.297   0.389  0.1628  0.6084  1.5790
 6765SOL    HW231758   0.165   0.394   0.403 -1.3736  0.1913 -0.5350
 6766SOL     OW31759   2.348   0.712   8.259 -0.1253 -0.3370  0.4341
 6766SOL    HW131760   2.300   0.677   8.334  0.5739 -0.4107  0.8423
 6766SOL    HW231761   2.366   0.625   8.224  1.0332 -0.2945  0.9433
 6767SOL     OW31762   3.544   3.880   7.574 -0.5395 -0.7532  0.4637
 6767SOL    HW131763   3.490   3.889   7.653 -0.5098 -1.0377  0.5191
 6767SOL    HW231764   3.635   3.886   7.603 -0.6203 -0.3593  0.6399
 6768SOL     OW31765   2.306   4.100   4.182  0.3128 -0.0925 -0.1900
 6768SOL    HW131766   2.388   4.057   4.157  0.2133  0.0767 -0.8008
 6768SOL    HW231767   2.276   4.100   4.092 -1.3233 -2.7860  0.3729
 6769SOL     OW31768   2.679   1.655  13.256 -0.3774 -0.0566 -0.3461
 6769SOL    HW131769   2.735   1.656  13.334  1.1867 -0.1314 -1.4693
 6769SOL    HW231770   2.609   1.717  13.275 -0.6207  0.5633 -3.3253
 6770SOL     OW31771   2.267   0.689  12.322  0.0653 -0.0705 -0.4968
 6770SOL    HW131772   2.273   0.750  12.396 -1.6949 -1.0936  0.4929
 6770SOL    HW231773   2.208   0.724  12.256 -0.8365  0.8783  0.8026
 6771SOL     OW31774   2.170   0.686  14.173 -0.3654  0.1705  0.4394
 6771SOL    HW131775   2.109   0.615  14.193  0.0197  0.0250  1.1091
 6771SOL    HW231776   2.117   0.762  14.149 -1.6200 -0.0469  2.5483
 6772SOL     OW31777   0.651   0.582   9.932 -0.0237 -0.2502 -0.2200
 6772SOL    HW131778   0.701   0.574   9.851  1.8551 -1.7529  1.0880
 6772SOL    HW231779   0.610   0.495   9.935  1.4498 -0.8969  1.0301
 6773SOL     OW31780   1.970   0.768  10.857 -0.2713  0.2329  0.1145
 6773SOL    HW131781   1.896   0.730  10.809 -0.7524  0.9499  0.2740
 6773SOL    HW231782   2.046   0.733  10.811 -0.5936 -0.6795  0.2850
 6774SOL     OW31783   2.784   4.008   2.193 -0.1385 -0.2540  0.9660
 6774SOL    HW131784   2.870   3.969   2.205 -0.6260 -1.7327 -0.3838
 6774SOL    HW231785   2.794   4.072   2.123  2.3613 -2.1515 -0.4020
 6775SOL     OW31786   1.010   1.993   3.785 -0.5342  0.2030  0.9445
 6775SOL    HW131787   1.026   1.926   3.851  1.9960  0.9152  1.0745
 6775SOL    HW231788   1.062   1.968   3.709 -0.5971 -1.7318  1.5417
 6776SOL     OW31789   1.990   0.206   9.109 -0.2079  0.0677 -0.3398
 6776SOL    HW131790   1.965   0.122   9.070  2.8816 -2.2798  2.6876
 6776SOL    HW231791   2.021   0.264   9.040  0.8831  1.5945  1.4386
 6777SOL     OW31792   4.021   1.910   9.759 -0.3261 -0.1406  0.0493
 6777SOL    HW131793   4.031   1.819   9.734 -0.3195  0.4563 -2.1089
 6777SOL    HW231794   3.954   1.919   9.827  0.9195 -0.6632  1.3247
 6778SOL     OW31795   4.385   0.046   3.313 -0.0747  0.1343  0.3717
 6778SOL    HW131796   4.305   0.095   3.330 -0.5168 -0.6070  0.4417
 6778SOL    HW231797   4.441   0.118   3.286  2.0490 -0.8817  2.0172
 6779SOL     OW31798   3.072   0.797  15.013  0.4196 -0.8752  0.4933
 6779SOL    HW131799   3.145   0.813  15.073 -2.1205  0.0592  3.3179
 6779SOL    HW231800   3.028   0.728  15.062 -1.0026 -0.1952  0.1683
 6780SOL     OW31801   1.635   0.285  17.535 -0.3716  0.1098 -0.2462
 6780SOL    HW131802   1.651   0.342  17.611 -0.0955 -2.0004  1.2614
 6780SOL    HW231803   1.622   0.346  17.462 -4.8981 -0.8576 -0.2345
 6781SOL     OW31804   1.174   0.198   2.676  0.1130  0.1640  0.3017
 6781SOL    HW131805   1.180   0.226   2.585 -0.3578 -3.1127 -0.7142
 6781SOL    HW231806   1.093   0.149   2.670 -0.5903  1.2823  0.6098
 6782SOL     OW31807   2.292   1.815   3.803 -0.2323  0.2718 -0.2387
 6782SOL    HW131808   2.354   1.821   3.876 -0.4587 -0.2031 -0.0069
 6782SOL    HW231809   2.273   1.721   3.810 -0.7477  0.4891  1.4580
 6783SOL     OW31810   2.480   1.047   2.070  0.2483 -0.4056  0.5027
 6783SOL    HW131811   2.478   1.142   2.063  0.0353 -0.4032  0.5761
 6783SOL    HW231812   2.393   1.036   2.109  0.3533 -0.8100  0.6232
 6784SOL     OW31813   0.118   3.350   5.363  0.2902 -0.4604 -0.0116
 6784SOL    HW131814   0.200   3.308   5.338  0.0605  0.1457 -1.7573
 6784SOL    HW231815   0.144   3.442   5.363 -2.2745  0.2826 -1.6738
 6785SOL     OW31816   2.109   4.291   0.653  0.1439 -0.0695 -0.5985
 6785SOL    HW131817   2.058   4.210   0.645  1.3542 -0.8273 -0.5856
 6785SOL    HW231818   2.061   4.348   0.593 -1.1083 -0.1442  0.3310
 6786SOL     OW31819   0.401   1.581   9.960  0.2675 -0.0295 -0.3695
 6786SOL    HW131820   0.342   1.651   9.933  0.7078 -0.2120 -1.8036
 6786SOL    HW231821   0.484   1.606   9.919 -1.0238  0.1684 -2.8741
 6787SOL     OW31822   3.683   3.155  13.457  0.1037  0.5860 -0.6103
 6787SOL    HW131823   3.739   3.129  13.384  1.2866 -1.6969  1.1219
 6787SOL    HW231824   3.658   3.080  13.511  2.3894 -0.4050 -0.9247
 6788SOL     OW31825   1.039   2.609   1.480 -0.2878  0.1635 -0.0372
 6788SOL    HW131826   0.952   2.571   1.481  0.4111 -1.4375  0.1735
 6788SOL    HW231827   1.076   2.561   1.406 -0.0433  0.4042 -0.0749
 6789SOL     OW31828   0.650   4.170   5.137  0.3370  0.0162 -0.3391
 6789SOL    HW131829   0.636   4.172   5.042 -2.3333 -1.8751  0.0317
 6789SOL    HW231830   0.740   4.138   5.144 -0.0247 -0.9205  0.0140
 6790SOL     OW31831   1.645   0.241   7.700 -0.5810  0.1744  0.0510
 6790SOL    HW131832   1.713   0.225   7.634 -0.7846  0.5788 -0.2580
 6790SOL    HW231833   1.698   0.227   7.778  0.9832 -0.4087 -1.1063
 6791SOL     OW31834   0.954   2.102  15.886 -0.6731 -0.4759  0.1559
 6791SOL    HW131835   0.932   2.195  15.883  1.6241  0.0517 -1.3305
 6791SOL    HW231836   0.867   2.066  15.897  0.1940 -2.1875  1.3202
 6792SOL     OW31837   2.334   4.020  15.417  0.1847  0.3258 -0.2230
 6792SOL    HW131838   2.424   3.990  15.432  0.9347  2.7618  0.1009
 6792SOL    HW231839   2.341   4.093  15.355 -1.6200  2.0961  1.6822
 6793SOL     OW31840   3.876   4.561   7.715  0.0452  0.2036 -0.1825
 6793SOL    HW131841   3.901   4.481   7.761 -0.0979  0.9650  1.2234
 6793SOL    HW231842   3.931   4.560   7.637  1.2709  1.5191  0.6636
 6794SOL     OW31843   0.509   0.360   9.988 -0.2029 -0.3207 -0.2234
 6794SOL    HW131844   0.427   0.312   9.975 -0.2365 -0.0589 -0.9882
 6794SOL    HW231845   0.565   0.284   9.971 -1.8263 -1.7594  0.9874
 6795SOL     OW31846   3.941   0.717   8.478  0.0639  0.0973 -0.1367
 6795SOL    HW131847   3.986   0.727   8.562  1.8018  0.0504 -1.0739
 6795SOL    HW231848   3.905   0.629   8.491  1.4925 -0.6349 -1.1912
 6796SOL     OW31849   4.404   1.973  13.755  0.1324 -0.4032  0.1886
 6796SOL    HW131850   4.498   1.994  13.754 -0.1666  0.8361 -0.8383
 6796SOL    HW231851   4.390   1.878  13.754 -0.1208 -0.3541 -0.7779
 6797SOL     OW31852   4.197   2.310   7.488  0.0141 -0.8035  0.2471
 6797SOL    HW131853   4.171   2.223   7.457 -0.1476 -0.9823  0.8897
 6797SOL    HW231854   4.170   2.352   7.407  2.5257 -2.4963 -1.4746
 6798SOL     OW31855   0.686   3.571   2.375  0.8706 -0.1273  0.4518
 6798SOL    HW131856   0.634   3.537   2.303  3.5480 -0.9619 -1.0831
 6798SOL    HW231857   0.613   3.606   2.425 -1.2378  0.6120 -3.1568
 6799SOL     OW31858   3.739   3.846   3.786 -0.3519  0.0683  0.1731
 6799SOL    HW131859   3.825   3.879   3.814 -0.1669  0.9553 -1.4396
 6799SOL    HW231860   3.698   3.824   3.869  0.2694 -2.5468 -0.2412
 6800SOL     OW31861   0.330   4.388   7.147  0.0944  0.0554 -0.1570
 6800SOL    HW131862   0.271   4.381   7.072 -0.7950 -1.1866  0.6566
 6800SOL    HW231863   0.395   4.321   7.127 -1.3496 -1.3104 -0.3188
 6801SOL     OW31864   2.702   1.454   4.717  0.2997 -0.2105  0.1530
 6801SOL    HW131865   2.637   1.499   4.770  1.7392  0.1129  1.6272
 6801SOL    HW231866   2.725   1.528   4.661  2.0010  1.0815  2.5557
 6802SOL     OW31867   0.630   1.718  14.579 -0.8123  0.6889  0.2742
 6802SOL    HW131868   0.602   1.687  14.666 -1.7869 -1.7370 -0.8846
 6802SOL    HW231869   0.628   1.634  14.532 -2.5315  0.8724  0.0472
 6803SOL     OW31870   3.937   2.204   6.132  0.7021  0.1149  0.2178
 6803SOL    HW131871   3.994   2.258   6.187  0.2589 -0.5586  1.3299
 6803SOL    HW231872   3.883   2.182   6.208  2.9171 -2.9262  0.8874
 6804SOL     OW31873   2.585   0.560  16.422 -0.2461  1.1481  0.4750
 6804SOL    HW131874   2.539   0.643  16.434 -2.2994 -0.1154  1.3336
 6804SOL    HW231875   2.608   0.535  16.512 -0.7568  1.8733  0.7998
 6805SOL     OW31876   0.578   4.432  14.469 -0.2479 -0.5964 -0.0638
 6805SOL    HW131877   0.607   4.400  14.383 -1.1994 -1.2094 -0.1578
 6805SOL    HW231878   0.545   4.518  14.445 -3.7581 -1.6635  0.9544
 6806SOL     OW31879   4.348   4.311   8.099 -0.3031 -0.1196  0.3236
 6806SOL    HW131880   4.370   4.398   8.131  1.0401 -0.2554 -0.2012
 6806SOL    HW231881   4.426   4.267   8.133 -0.1242 -1.5401 -1.8480
 6807SOL     OW31882   3.481   3.316   8.739 -1.7404  0.4610  0.1169
 6807SOL    HW131883   3.553   3.254   8.752 -2.2642 -0.3142 -0.8050
 6807SOL    HW231884   3.411   3.253   8.723 -0.9749 -0.3312 -0.1329
 6808SOL     OW31885   4.288   1.010   3.074 -0.8100  0.6271 -0.4415
 6808SOL    HW131886   4.231   0.965   3.136 -1.0050  0.1706 -0.9585
 6808SOL    HW231887   4.244   0.995   2.991 -1.5447 -0.4292  0.1477
 6809SOL     OW31888   2.633   0.640  17.299  0.3692  0.0629  0.2345
 6809SOL    HW131889   2.612   0.550  17.323 -1.2644  0.3914  0.0121
 6809SOL    HW231890   2.728   0.633  17.294  0.4508  1.3904 -0.0760
 6810SOL     OW31891   2.498   0.168   9.334  0.1080  0.2919  0.1453
 6810SOL    HW131892   2.461   0.143   9.249 -0.7662  1.6180  0.1297
 6810SOL    HW231893   2.518   0.078   9.358  2.0157  0.5983 -0.3218
 6811SOL     OW31894   2.914   2.643   2.210  0.1963 -0.6487  0.0486
 6811SOL    HW131895   2.903   2.583   2.284  2.6512 -0.6756  0.3881
 6811SOL    HW231896   2.935   2.578   2.143 -0.4640 -1.7621  0.9190
 6812SOL     OW31897   0.340   4.360   3.961  0.3295  0.6112  0.8845
 6812SOL    HW131898   0.377   4.276   3.986  1.0399  0.4115 -0.8533
 6812SOL    HW231899   0.250   4.336   3.981  0.7993 -2.0845 -0.2203
 6813SOL     OW31900   1.739   3.750  15.652 -0.1447 -0.0911 -0.0727
 6813SOL    HW131901   1.659   3.800  15.635  0.7055  0.2264 -3.0586
 6813SOL    HW231902   1.711   3.670  15.696  0.5842  0.5890  1.6326
 6814SOL     OW31903   1.660   1.585   3.881  0.0670 -0.2828  0.5916
 6814SOL    HW131904   1.642   1.578   3.787 -1.6572  0.6521  0.8642
 6814SOL    HW231905   1.610   1.666   3.887  1.5830  0.5526  1.9144
 6815SOL     OW31906   2.803   1.552  12.902  0.9250 -0.8884  0.3429
 6815SOL    HW131907   2.724   1.548  12.956 -1.0184  0.2856 -2.3826
 6815SOL    HW231908   2.874   1.516  12.956 -0.6562 -2.6250  1.2571
 6816SOL     OW31909   0.096   1.655  10.568 -0.2133  0.0117  0.1618
 6816SOL    HW131910   0.016   1.637  10.518 -1.3603  1.6787  1.4256
 6816SOL    HW231911   0.158   1.635  10.497 -0.3913  0.5558 -0.1459
 6817SOL     OW31912   4.569   3.193  17.026  0.0071 -0.3303 -0.2758
 6817SOL    HW131913   4.502   3.205  17.094 -1.3288  1.4386 -1.9212
 6817SOL    HW231914   4.637   3.252  17.060 -0.1453 -1.1911  1.5583
 6818SOL     OW31915   1.278   2.479   8.262  0.2479  0.1984  0.0865
 6818SOL    HW131916   1.364   2.512   8.233  1.4485 -0.9045  2.3731
 6818SOL    HW231917   1.299   2.389   8.287  0.8463  0.0793 -0.8195
 6819SOL     OW31918   3.773   3.131   6.565  0.4321  0.0949 -0.3437
 6819SOL    HW131919   3.701   3.125   6.502  0.9679 -0.5215 -0.8952
 6819SOL    HW231920   3.757   3.211   6.615 -0.4665 -1.6843  2.1987
 6820SOL     OW31921   3.442   2.973   8.342  0.1950 -0.2000 -0.1049
 6820SOL    HW131922   3.537   2.960   8.352  0.1410 -0.1105  0.5289
 6820SOL    HW231923   3.418   3.043   8.403  2.5391 -0.1426  0.7581
 6821SOL     OW31924   2.436   4.315   8.718  0.1108  0.4200 -0.1500
 6821SOL    HW131925   2.524   4.316   8.757  0.4691 -2.0348 -0.8487
 6821SOL    HW231926   2.441   4.249   8.649  2.1488 -0.4423  0.8003
 6822SOL     OW31927   0.820   1.824   1.668  0.4572  0.6142  0.1034
 6822SOL    HW131928   0.903   1.830   1.716 -0.0044 -3.8561  1.4632
 6822SOL    HW231929   0.763   1.871   1.728  0.0242 -0.0125  0.1773
 6823SOL     OW31930   0.382   2.300   5.277 -0.1572  0.7792  0.3966
 6823SOL    HW131931   0.359   2.319   5.368 -0.1217 -0.7943  0.7340
 6823SOL    HW231932   0.334   2.219   5.258  0.1810  0.6307  0.1800
 6824SOL     OW31933   0.828   0.639   9.100  1.0322  0.2438  0.6929
 6824SOL    HW131934   0.766   0.706   9.129  0.8482  1.6783 -2.9217
 6824SOL    HW231935   0.784   0.601   9.024  1.8910  0.4614  0.0786
 6825SOL     OW31936   2.585   2.204  10.052 -0.0554 -0.1812  0.1530
 6825SOL    HW131937   2.492   2.205  10.075 -0.3855 -0.1283 -1.1837
 6825SOL    HW231938   2.576   2.206   9.957 -0.1515  2.0479  0.2109
 6826SOL     OW31939   0.136   4.428   4.823  0.2679 -0.2253 -0.0067
 6826SOL    HW131940   0.137   4.359   4.890  1.7776  2.2296  2.4702
 6826SOL    HW231941   0.074   4.382   4.767  2.0158 -0.5297 -1.7045
 6827SOL     OW31942   2.355   1.957  11.604 -0.6193 -0.5152  0.0472
 6827SOL    HW131943   2.431   2.006  11.638 -1.4001 -0.0110  1.0525
 6827SOL    HW231944   2.379   1.869  11.634 -0.9355 -0.4552  0.4710
 6828SOL     OW31945   3.871   4.409  15.294  0.0588  0.9457 -0.3878
 6828SOL    HW131946   3.928   4.459  15.353 -1.0400  1.1278  0.5259
 6828SOL    HW231947   3.927   4.335  15.270  0.6752  0.9743  0.9489
 6829SOL     OW31948   3.729   2.884   3.769  0.2584 -0.4330 -0.1684
 6829SOL    HW131949   3.752   2.901   3.860  0.2064 -1.5605  0.0630
 6829SOL    HW231950   3.642   2.845   3.778  1.6250 -3.0951  1.6892
 6830SOL     OW31951   2.766   1.357   7.166  0.2615  0.8164  0.0017
 6830SOL    HW131952   2.828   1.285   7.178  0.4438  0.8530 -0.7109
 6830SOL    HW231953   2.794   1.423   7.229  0.2264  2.2069 -1.4324
 6831SOL     OW31954   0.780   4.693  10.714 -0.0924 -0.1038 -0.1209
 6831SOL    HW131955   0.860   4.665  10.669 -0.6292 -1.9969  0.0934
 6831SOL    HW231956   0.807   0.063  10.720 -0.9025  0.2198 -1.2281
 6832SOL     OW31957   0.231   1.219  15.592  0.0276  0.2405 -0.3824
 6832SOL    HW131958   0.161   1.218  15.657 -0.0927 -0.4104 -0.5268
 6832SOL    HW231959   0.309   1.227  15.647 -0.5033  0.8590  0.2756
 6833SOL     OW31960   0.546   2.988   5.184 -0.3053  0.3532 -0.4808
 6833SOL    HW131961   0.608   3.049   5.143 -0.2040  0.0023 -0.8426
 6833SOL    HW231962   0.471   2.999   5.126 -0.5735  1.3334  0.0453
 6834SOL     OW31963   0.004   3.383   6.650  0.3212 -0.3792 -0.1754
 6834SOL    HW131964   4.661   3.333   6.700  0.1104  1.1211  1.0635
 6834SOL    HW231965   0.040   3.434   6.722 -1.1997  0.1075  0.2551
 6835SOL     OW31966   1.557   1.540   5.718 -0.5387  0.4178 -0.1547
 6835SOL    HW131967   1.523   1.616   5.671 -0.1998  0.0818 -0.9460
 6835SOL    HW231968   1.480   1.485   5.730 -0.9971  0.9715 -0.5695
 6836SOL     OW31969   2.898   2.780   8.740  0.7438 -0.4386 -0.5514
 6836SOL    HW131970   2.905   2.858   8.686 -0.2796 -0.7996 -1.1909
 6836SOL    HW231971   2.990   2.753   8.751  0.0275 -2.0279  1.4588
 6837SOL     OW31972   2.208   4.272   5.893 -0.1327  0.1880  0.1561
 6837SOL    HW131973   2.300   4.253   5.909  0.9218  0.9508 -5.0585
 6837SOL    HW231974   2.189   4.205   5.828 -2.1122 -1.1533  2.1217
 6838SOL     OW31975   2.618   2.251  11.634 -0.3549  1.0961  0.0406
 6838SOL    HW131976   2.594   2.209  11.717  0.7440 -0.4965 -0.4366
 6838SOL    HW231977   2.598   2.343  11.651  2.8863  1.3983  2.2783
 6839SOL     OW31978   3.219   4.435   9.829 -1.0542 -0.0607  0.3278
 6839SOL    HW131979   3.312   4.412   9.824 -1.2411 -0.3348 -1.7979
 6839SOL    HW231980   3.216   4.466   9.920  0.4574  0.2946  0.2572
 6840SOL     OW31981   2.304   1.349   6.533  0.0505 -0.7321 -0.1889
 6840SOL    HW131982   2.379   1.289   6.533  2.8814  2.7499  2.9273
 6840SOL    HW231983   2.277   1.353   6.442 -1.9302 -1.9430  0.3341
 6841SOL     OW31984   3.312   1.517   3.027 -0.0859 -0.4439  0.2633
 6841SOL    HW131985   3.339   1.565   2.949 -0.1633  0.0128  0.5159
 6841SOL    HW231986   3.392   1.470   3.051  1.2533  1.5974 -0.1768
 6842SOL     OW31987   0.947   0.529  12.372  0.5128 -0.2678 -0.2926
 6842SOL    HW131988   0.890   0.498  12.302 -0.0027  0.0183 -0.0023
 6842SOL    HW231989   1.024   0.563  12.327  0.0210 -1.4335 -1.9944
 6843SOL     OW31990   1.859   2.569  12.103 -0.4023  0.0432  0.6263
 6843SOL    HW131991   1.872   2.608  12.189  1.3230 -0.3389  0.5286
 6843SOL    HW231992   1.771   2.601  12.081 -1.3730 -3.0211  0.0437
 6844SOL     OW31993   0.933   3.028  11.882 -0.0042  0.1817  0.7526
 6844SOL    HW131994   0.871   2.979  11.829  0.1684 -0.1392  0.8486
 6844SOL    HW231995   0.907   3.116  11.854 -0.4134 -0.4082 -0.7156
 6845SOL     OW31996   1.809   3.883   4.518  0.3174 -0.0991  0.1924
 6845SOL    HW131997   1.875   3.952   4.534  0.6936  0.2054 -2.6519
 6845SOL    HW231998   1.866   3.807   4.528 -0.6781 -0.9656 -0.7902
 6846SOL     OW31999   3.464   0.689  16.180  0.4069  0.1644 -0.4157
 6846SOL    HW132000   3.374   0.665  16.204  0.4987  0.4546  0.2228
 6846SOL    HW232001   3.482   0.629  16.107 -0.6097 -0.8351  0.1362
 6847SOL     OW32002   3.726   4.082   9.990  0.4885  0.1900  0.2594
 6847SOL    HW132003   3.805   4.127  10.020  2.5248 -1.0504 -3.2184
 6847SOL    HW232004   3.746   3.989  10.003 -0.2298  0.1026  0.7291
 6848SOL     OW32005   4.607   0.603  10.310 -0.0826  0.0660  0.0625
 6848SOL    HW132006   4.533   0.645  10.266  0.8322  0.0550 -1.4782
 6848SOL    HW232007   4.657   0.580  10.232 -0.4050  2.7609 -0.9290
 6849SOL     OW32008   3.715   2.158  11.499  0.0905 -0.5275  0.3637
 6849SOL    HW132009   3.681   2.123  11.581 -0.6152  0.6938  0.5949
 6849SOL    HW232010   3.803   2.183  11.528  0.8283 -0.4113 -2.0220
 6850SOL     OW32011   2.155   0.819   2.155 -0.4390  0.1032  0.0320
 6850SOL    HW132012   2.216   0.828   2.082 -0.9931 -1.4989 -0.6088
 6850SOL    HW232013   2.076   0.843   2.107 -0.5942  0.2209  0.3470
 6851SOL     OW32014   1.312   2.769   2.516 -0.2469 -0.0911 -0.2669
 6851SOL    HW132015   1.249   2.815   2.571 -0.2551 -2.1495  1.4927
 6851SOL    HW232016   1.391   2.762   2.570  0.2415 -0.6038 -1.0351
 6852SOL     OW32017   0.798   2.378  11.591  0.2150 -0.1456  0.9434
 6852SOL    HW132018   0.835   2.290  11.583  1.5123  0.4464  0.4215
 6852SOL    HW232019   0.772   2.376  11.683 -1.8017  1.4984  0.4046
 6853SOL     OW32020   0.729   2.601  13.574 -0.1191  0.1303 -0.4902
 6853SOL    HW132021   0.641   2.584  13.542 -0.1432  2.2737 -1.5545
 6853SOL    HW232022   0.717   2.552  13.655 -0.4158  0.7393 -0.1685
 6854SOL     OW32023   0.747   3.051   7.810 -0.2052 -0.0969  0.2127
 6854SOL    HW132024   0.677   2.991   7.784  0.9788 -0.4186 -2.1983
 6854SOL    HW232025   0.793   3.003   7.879 -1.4027 -2.7721 -0.8403
 6855SOL     OW32026   2.951   4.590   2.623 -0.0740 -0.0376 -0.2757
 6855SOL    HW132027   2.946   4.677   2.662 -1.4166 -0.3853  0.3226
 6855SOL    HW232028   3.030   4.600   2.570 -0.3794  1.0464 -0.5276
 6856SOL     OW32029   2.231   4.606   2.808 -0.2795 -0.5203 -0.1353
 6856SOL    HW132030   2.246   4.671   2.876  1.7351 -0.7603 -0.3529
 6856SOL    HW232031   2.312   4.622   2.760  0.1673  1.1146  1.1400
 6857SOL     OW32032   2.148   3.734  15.265  0.2331  0.0706  0.1999
 6857SOL    HW132033   2.136   3.662  15.327 -1.7863  0.9968  0.8705
 6857SOL    HW232034   2.185   3.802  15.322  2.1100  0.4903 -1.5095
 6858SOL     OW32035   4.692   3.546   5.634 -0.0403 -0.2516 -0.0995
 6858SOL    HW132036   4.617   3.517   5.582 -0.2034 -0.4543  0.2498
 6858SOL    HW232037   0.036   3.480   5.612  0.2295  0.7764 -2.3676
 6859SOL     OW32038   2.656   0.481  15.251  0.2781 -0.0337  0.0626
 6859SOL    HW132039   2.568   0.443  15.251  0.9394 -1.5820  0.5861
 6859SOL    HW232040   2.635   0.572  15.229 -0.4284  0.1938  1.6047
 6860SOL     OW32041   0.957   3.757  15.124 -0.2350 -0.1799 -0.7436
 6860SOL    HW132042   1.035   3.709  15.150  0.5710  0.3645 -2.1124
 6860SOL    HW232043   0.997   3.812  15.057 -1.6179 -1.1478 -2.3663
 6861SOL     OW32044   0.263   0.791   5.980  0.1936 -0.2483 -0.2079
 6861SOL    HW132045   0.198   0.823   5.918 -0.6246 -0.4633  0.5492
 6861SOL    HW232046   0.253   0.861   6.043  0.4532 -0.6765  0.3053
 6862SOL     OW32047   2.859   2.835  10.451  0.4217 -0.2765 -0.3565
 6862SOL    HW132048   2.789   2.867  10.394  1.3617 -1.3188 -2.0888
 6862SOL    HW232049   2.928   2.801  10.394  0.3674  2.1300 -1.8233
 6863SOL     OW32050   3.078   3.115   5.464  0.9982 -0.2214  0.3734
 6863SOL    HW132051   2.999   3.162   5.435 -0.5907 -2.7545  0.5904
 6863SOL    HW232052   3.121   3.095   5.381 -0.7473  0.2962 -0.6575
 6864SOL     OW32053   1.747   4.079  12.329 -0.3521  0.0369  0.2410
 6864SOL    HW132054   1.826   4.038  12.365 -0.0650 -0.8909 -1.4690
 6864SOL    HW232055   1.716   4.135  12.400 -1.5467 -0.9408  0.4862
 6865SOL     OW32056   0.329   4.716   1.671  0.0679  0.2542 -0.0111
 6865SOL    HW132057   0.368   4.668   1.598 -1.6423  0.2188 -0.8963
 6865SOL    HW232058   0.400   4.709   1.735 -1.3754  0.4382  1.6308
 6866SOL     OW32059   4.397   1.565   3.703 -0.0239  0.0460  0.3680
 6866SOL    HW132060   4.423   1.596   3.616  3.2950  0.8575  1.6680
 6866SOL    HW232061   4.428   1.475   3.694 -0.0592 -0.0312  1.0021
 6867SOL     OW32062   4.117   3.997   8.529 -0.2915  0.3550 -0.5392
 6867SOL    HW132063   4.150   3.922   8.480  0.3760  0.3873 -0.1445
 6867SOL    HW232064   4.161   3.996   8.614 -2.2488 -0.9266  0.4428
 6868SOL     OW32065   1.619   0.805   3.527 -0.7063 -0.2522  0.4732
 6868SOL    HW132066   1.587   0.887   3.489  1.2950  0.2935 -0.0711
 6868SOL    HW232067   1.617   0.740   3.456  0.9585 -0.5172  0.6525
 6869SOL     OW32068   1.920   1.169   9.542  0.0151 -0.8379  0.0246
 6869SOL    HW132069   1.927   1.148   9.449  0.2179 -1.3761  0.1624
 6869SOL    HW232070   1.868   1.094   9.570  1.3975 -2.3255 -1.3878
 6870SOL     OW32071   1.929   2.110   2.652 -0.2435  0.2302 -0.3372
 6870SOL    HW132072   1.871   2.170   2.700  0.4314  1.3089 -0.8810
 6870SOL    HW232073   1.871   2.034   2.655  1.3186 -0.8369  3.3448
 6871SOL     OW32074   0.720   0.295   4.235  0.2988  0.5111  0.5425
 6871SOL    HW132075   0.750   0.376   4.276  1.0391  0.0978  0.8203
 6871SOL    HW232076   0.662   0.252   4.298 -0.3268  0.1721 -0.2661
 6872SOL     OW32077   1.216   0.942   3.095  0.0239  0.3187  0.0270
 6872SOL    HW132078   1.233   0.934   3.188  2.8531 -0.2352 -0.5429
 6872SOL    HW232079   1.127   0.977   3.085  0.0294  0.2104 -0.3950
 6873SOL     OW32080   3.347   1.905   3.820 -0.2629  0.3057  0.0700
 6873SOL    HW132081   3.428   1.856   3.807  1.0906  2.2563  1.1404
 6873SOL    HW232082   3.320   1.911   3.729 -1.9274 -1.9616  0.3914
 6874SOL     OW32083   1.054   3.303   0.366 -0.4053 -0.8665  0.4299
 6874SOL    HW132084   1.059   3.372   0.431 -1.9178 -1.1216  0.8089
 6874SOL    HW232085   1.040   3.356   0.287  2.1965  0.1423  0.6505
 6875SOL     OW32086   0.542   1.784   1.441 -0.3862  0.0162 -0.2807
 6875SOL    HW132087   0.607   1.855   1.446 -0.9664  0.4768  0.6451
 6875SOL    HW232088   0.513   1.799   1.351 -2.4234  0.5106  0.4572
 6876SOL     OW32089   0.451   1.159   0.417  0.3411 -0.5399  0.4485
 6876SOL    HW132090   0.506   1.236   0.431 -0.8726  0.5807 -1.0094
 6876SOL    HW232091   0.461   1.142   0.323 -0.5793 -1.3215  0.4903
 6877SOL     OW32092   2.591   3.673   4.675  0.4576  0.2197 -0.5646
 6877SOL    HW132093   2.605   3.766   4.692 -0.9951  0.5206 -0.9655
 6877SOL    HW232094   2.496   3.681   4.662  0.4212 -0.4130 -0.6527
 6878SOL     OW32095   1.550   2.603   8.146  0.3557  0.1387 -0.0860
 6878SOL    HW132096   1.627   2.559   8.182 -0.5654 -1.6625 -0.2854
 6878SOL    HW232097   1.587   2.673   8.094 -0.6254  0.8846  0.2187
 6879SOL     OW32098   2.001   4.256   9.422  0.2677 -0.4987 -0.8452
 6879SOL    HW132099   2.013   4.170   9.463 -3.6222 -1.5474 -1.8913
 6879SOL    HW232100   2.088   4.275   9.388  1.2862 -1.1966  1.3973
 6880SOL     OW32101   0.484   3.172   5.778  0.0685 -0.1737  0.1405
 6880SOL    HW132102   0.506   3.225   5.855  0.2012  0.4303 -0.3091
 6880SOL    HW232103   0.475   3.245   5.717 -3.3032 -0.3899  0.3786
 6881SOL     OW32104   1.161   0.786   2.353  0.0709 -0.5247 -0.1002
 6881SOL    HW132105   1.138   0.836   2.275  0.7994 -0.3748 -0.2171
 6881SOL    HW232106   1.248   0.820   2.369  0.5168 -2.0177  0.6457
 6882SOL     OW32107   2.425   0.478   8.159 -0.3347 -0.1904 -0.3471
 6882SOL    HW132108   2.388   0.392   8.180  0.1977 -0.4731 -0.5503
 6882SOL    HW232109   2.517   0.468   8.184 -0.7779 -0.3011  1.2769
 6883SOL     OW32110   2.489   2.602   7.882 -0.0438  0.0378  0.2483
 6883SOL    HW132111   2.447   2.616   7.797 -0.8551  1.0634  0.8167
 6883SOL    HW232112   2.582   2.609   7.862 -0.5209 -0.2144 -2.0380
 6884SOL     OW32113   4.082   0.469   1.112  0.5410  0.4924 -0.2479
 6884SOL    HW132114   4.093   0.393   1.056 -0.4327  0.2609 -0.1277
 6884SOL    HW232115   4.069   0.428   1.197  3.4983  3.9379  1.8521
 6885SOL     OW32116   2.376   0.180  14.162 -0.3125 -0.1706  0.5811
 6885SOL    HW132117   2.441   0.116  14.134 -0.7764 -0.6479  0.5784
 6885SOL    HW232118   2.365   0.144  14.250 -1.8032  0.0028  0.4781
 6886SOL     OW32119   4.147   4.539   1.474 -0.2848 -0.3746 -0.3617
 6886SOL    HW132120   4.126   4.527   1.567  0.7588 -1.0759 -0.2226
 6886SOL    HW232121   4.204   4.616   1.479 -2.3129  1.0403  0.7571
 6887SOL     OW32122   2.960   3.924   8.319  0.0666 -0.0394  0.4386
 6887SOL    HW132123   2.942   3.865   8.393  1.8173  0.1570  1.0060
 6887SOL    HW232124   3.053   3.946   8.321  0.3659 -1.1323 -1.6085
 6888SOL     OW32125   2.098   1.493   8.644 -0.4856 -0.5076  0.1986
 6888SOL    HW132126   2.068   1.462   8.558  1.4257  1.5346 -1.2032
 6888SOL    HW232127   2.188   1.461   8.655 -0.1070  0.1270 -0.9997
 6889SOL     OW32128   1.402   1.559   3.380 -0.0149 -0.2159 -0.0570
 6889SOL    HW132129   1.360   1.475   3.361 -0.1670 -0.0932 -0.2688
 6889SOL    HW232130   1.327   1.617   3.394 -1.3047 -1.6199 -1.0605
 6890SOL     OW32131   4.694   1.375   7.733  0.0494  0.0901 -0.0420
 6890SOL    HW132132   0.044   1.364   7.796 -1.3382  0.0906  1.5427
 6890SOL    HW232133   4.688   1.468   7.758  1.9034 -0.3729  2.1461
 6891SOL     OW32134   0.359   1.276  11.516  0.1087 -0.3917 -0.7997
 6891SOL    HW132135   0.454   1.269  11.516  0.1020 -0.3686  1.2156
 6891SOL    HW232136   0.330   1.280  11.607  2.1658 -2.5059 -0.0671
 6892SOL     OW32137   0.661   0.906  17.397  0.6928 -0.8486 -0.5466
 6892SOL    HW132138   0.654   0.823  17.349  0.5366  0.0064 -1.9924
 6892SOL    HW232139   0.587   0.901  17.457  0.3405  0.1061 -0.9045
 6893SOL     OW32140   0.646   1.538  14.385 -0.4811  0.3886 -0.3706
 6893SOL    HW132141   0.682   1.578  14.305  2.0992  0.1755  0.7063
 6893SOL    HW232142   0.705   1.466  14.404  1.2756  2.5412  2.2051
 6894SOL     OW32143   2.905   1.922  11.894 -0.4527  0.1281 -0.3768
 6894SOL    HW132144   2.910   1.828  11.911  1.1814  0.4041  0.6308
 6894SOL    HW232145   2.891   1.931  11.799 -1.6369 -1.3488 -0.3503
 6895SOL     OW32146   1.028   0.629   6.252 -0.7649  0.4655 -0.2459
 6895SOL    HW132147   0.970   0.640   6.328 -1.7742  0.3058 -0.9996
 6895SOL    HW232148   1.100   0.690   6.269  1.8415 -2.6828 -0.0870
 6896SOL     OW32149   4.601   1.822   8.582  0.0612  0.0519  0.2508
 6896SOL    HW132150   4.506   1.816   8.590  0.1281 -1.8024 -0.2859
 6896SOL    HW232151   4.628   1.744   8.630  2.0485 -0.8055 -2.2518
 6897SOL     OW32152   0.003   2.055  14.011  0.6315  0.1619 -0.0937
 6897SOL    HW132153   0.086   2.042  14.056  0.5228 -1.0160 -0.2330
 6897SOL    HW232154   4.674   1.978  14.036 -0.9667  1.0994 -0.4198
 6898SOL     OW32155   2.290   1.656   6.335  0.7719  0.0320 -0.4581
 6898SOL    HW132156   2.201   1.640   6.305 -0.3926  2.2454  1.8313
 6898SOL    HW232157   2.306   1.582   6.394  0.4850  0.1226 -0.2677
 6899SOL     OW32158   3.421   0.049  13.797  0.6823 -0.0369  0.1247
 6899SOL    HW132159   3.464   0.071  13.714  2.4262  0.0384  1.0439
 6899SOL    HW232160   3.433   0.138  13.830 -0.4488 -0.9573  3.0397
 6900SOL     OW32161   2.630   0.583   5.624  0.2670 -0.1137  0.0812
 6900SOL    HW132162   2.678   0.632   5.558  0.1096  1.8934  1.4605
 6900SOL    HW232163   2.700   0.566   5.687  1.9815  0.6543 -1.6183
 6901SOL     OW32164   2.973   3.880  14.773 -0.0563 -0.1845  0.0642
 6901SOL    HW132165   3.012   3.966  14.779  0.4762 -0.4214 -0.0496
 6901SOL    HW232166   2.878   3.888  14.785 -0.0470  0.1431 -0.0970
 6902SOL     OW32167   0.391   4.676   0.128  0.4592 -0.2460  0.1894
 6902SOL    HW132168   0.485   4.671   0.146  0.6490 -0.8573 -0.9698
 6902SOL    HW232169   0.392   0.040   0.085 -0.6556 -0.8203 -0.9618
 6903SOL     OW32170   3.552   1.499  12.429  0.1809  0.3569 -0.2304
 6903SOL    HW132171   3.477   1.471  12.377  1.3019 -0.3762 -1.4926
 6903SOL    HW232172   3.596   1.555  12.364  0.5534 -0.5811 -0.7885
 6904SOL     OW32173   3.147   2.824  14.243  0.1753  0.1962 -0.0664
 6904SOL    HW132174   3.178   2.811  14.333 -0.1789  1.2033  0.2035
 6904SOL    HW232175   3.066   2.872  14.256 -1.1342 -2.3406  1.0815
 6905SOL     OW32176   0.692   0.498   8.888  0.2622 -0.0083 -0.0535
 6905SOL    HW132177   0.610   0.470   8.928  0.6842 -0.7856  0.2614
 6905SOL    HW232178   0.667   0.482   8.798  1.0955  0.1557 -0.3189
 6906SOL     OW32179   3.220   4.518   8.156  0.1901  0.4004  0.3007
 6906SOL    HW132180   3.167   4.508   8.077  0.6531 -0.9659  0.1673
 6906SOL    HW232181   3.160   4.560   8.218 -0.6881  0.3832 -0.5402
 6907SOL     OW32182   0.928   3.054   2.646  0.3106 -0.2847  0.0468
 6907SOL    HW132183   0.920   2.991   2.574 -1.8338  0.6847 -0.5582
 6907SOL    HW232184   0.892   3.128   2.596  0.7991  0.7742  1.2464
 6908SOL     OW32185   1.480   0.012  14.926  0.3866  0.6035 -0.4733
 6908SOL    HW132186   1.470   0.106  14.910 -0.5939  0.5129 -0.3733
 6908SOL    HW232187   1.411   4.709  14.864 -1.1861  1.6935  0.8539
 6909SOL     OW32188   2.624   4.315  15.090  0.4378  0.1435  0.5712
 6909SOL    HW132189   2.703   4.293  15.042  0.5008  1.8196 -0.1232
 6909SOL    HW232190   2.625   4.411  15.090  2.2551  0.1123 -0.7114
 6910SOL     OW32191   0.953   0.294   9.948  0.2597  0.3054  0.0558
 6910SOL    HW132192   0.952   0.382   9.911 -2.4408 -0.1996 -1.0476
 6910SOL    HW232193   0.989   0.255   9.868  2.3310 -2.2660  2.2388
 6911SOL     OW32194   0.481   1.294   6.361  0.0308 -0.1696  0.1515
 6911SOL    HW132195   0.523   1.224   6.310  0.1212 -0.6161  0.8383
 6911SOL    HW232196   0.438   1.346   6.293 -1.9728 -1.6715  0.2416
 6912SOL     OW32197   1.212   2.100   4.674 -0.6103 -0.6669  0.5362
 6912SOL    HW132198   1.142   2.148   4.719 -1.5379 -2.2182  0.7485
 6912SOL    HW232199   1.247   2.043   4.743  0.3870  0.5831  1.0457
 6913SOL     OW32200   3.742   1.067   4.315  0.5115  0.0787  0.8377
 6913SOL    HW132201   3.777   0.990   4.360 -1.0071  0.2812  2.3752
 6913SOL    HW232202   3.811   1.096   4.255  0.1605 -1.3752 -0.2567
 6914SOL     OW32203   3.473   4.168  17.447 -1.0059 -0.2407  0.0759
 6914SOL    HW132204   3.486   4.252  17.402  0.5209 -0.8336 -0.5669
 6914SOL    HW232205   3.509   4.194  17.532 -0.3261  2.4005 -1.0145
 6915SOL     OW32206   0.838   3.250   8.138  0.0118  0.5576  0.5194
 6915SOL    HW132207   0.755   3.283   8.173  0.1423  2.4531 -0.9366
 6915SOL    HW232208   0.850   3.170   8.190  0.0473  0.1681 -0.0927
 6916SOL     OW32209   0.365   3.260   5.267 -0.2903  0.5662  0.4899
 6916SOL    HW132210   0.443   3.215   5.298 -1.2108 -0.2455  1.6495
 6916SOL    HW232211   0.404   3.317   5.201 -2.0250  0.2702 -0.7875
 6917SOL     OW32212   0.004   2.537   3.292  0.0520 -0.2071  0.2273
 6917SOL    HW132213   0.008   2.624   3.252 -0.3881 -0.8786 -1.2577
 6917SOL    HW232214   4.690   2.484   3.220 -1.3847 -0.3179  1.0076
 6918SOL     OW32215   2.908   1.633   3.122 -0.1156 -0.5445 -0.1071
 6918SOL    HW132216   2.981   1.685   3.155 -0.9924 -0.2455  1.3677
 6918SOL    HW232217   2.879   1.681   3.044 -1.8049 -1.6073 -0.1475
 6919SOL     OW32218   2.725   2.680  16.093 -0.3205 -0.6461 -0.2115
 6919SOL    HW132219   2.813   2.718  16.090 -0.4116 -0.5489 -1.9211
 6919SOL    HW232220   2.716   2.643  16.181  1.6381  2.5070  1.3287
 6920SOL     OW32221   1.322   0.608   6.028  0.5047  0.9163  0.5294
 6920SOL    HW132222   1.378   0.560   5.966 -0.3150  0.9980 -0.2722
 6920SOL    HW232223   1.243   0.581   5.981 -0.5441  2.1092  1.6260
 6921SOL     OW32224   3.722   4.342   2.436 -0.0448 -0.3998 -0.2033
 6921SOL    HW132225   3.665   4.267   2.455 -0.4539  0.3563  1.6141
 6921SOL    HW232226   3.685   4.412   2.383  1.6081  1.7623  1.4916
 6922SOL     OW32227   2.064   2.098  13.165 -0.2431 -0.4126  0.0686
 6922SOL    HW132228   2.106   2.094  13.251  1.5020  3.0041 -0.6543
 6922SOL    HW232229   2.009   2.020  13.164 -1.8541  0.7053  0.6127
 6923SOL     OW32230   0.677   2.992  17.230 -0.2853  0.6901 -0.2278
 6923SOL    HW132231   0.715   2.904  17.241  0.4071  1.0286  0.0654
 6923SOL    HW232232   0.667   2.993  17.134 -4.0543 -0.7562  0.1387
 6924SOL     OW32233   0.798   2.209   6.256 -0.5119  0.3999  0.0401
 6924SOL    HW132234   0.767   2.255   6.178 -2.3060  0.2273  0.6512
 6924SOL    HW232235   0.726   2.214   6.319 -0.5569  2.6311 -0.1872
 6925SOL     OW32236   0.816   2.462   2.199  0.4195 -0.1635  0.1457
 6925SOL    HW132237   0.764   2.543   2.201  0.1193 -0.3073 -1.8361
 6925SOL    HW232238   0.892   2.494   2.150 -0.0570  0.2549 -0.3255
 6926SOL     OW32239   1.637   1.459   8.785 -0.1253  0.4178 -0.6724
 6926SOL    HW132240   1.650   1.382   8.730 -1.1738 -0.7244  0.6551
 6926SOL    HW232241   1.726   1.475   8.815 -0.3647 -0.1220  0.3334
 6927SOL     OW32242   4.532   3.433   6.077  0.5100 -0.2639 -0.1474
 6927SOL    HW132243   4.541   3.429   6.172 -2.4523  0.2437  0.1264
 6927SOL    HW232244   4.479   3.512   6.079 -0.8524 -1.2163  0.7143
 6928SOL     OW32245   1.861   1.591   8.211 -0.3715  0.1189 -0.1235
 6928SOL    HW132246   1.865   1.624   8.301  0.7523  1.5645 -0.7095
 6928SOL    HW232247   1.943   1.542   8.215 -1.4244 -1.2842  3.9758
 6929SOL     OW32248   0.628   3.570  15.917  0.1438  0.3198 -0.0910
 6929SOL    HW132249   0.620   3.665  15.920 -0.3050  0.2532  1.0211
 6929SOL    HW232250   0.694   3.563  15.986 -0.6623  0.2445  0.6802
 6930SOL     OW32251   2.097   1.512   9.021 -0.1067  0.0007  0.0878
 6930SOL    HW132252   2.184   1.550   9.015  0.0103 -0.3611 -0.5054
 6930SOL    HW232253   2.082   1.497   9.114 -2.1923 -0.4502 -0.3173
 6931SOL     OW32254   1.604   0.515   5.041  0.0129 -0.1279 -0.2450
 6931SOL    HW132255   1.697   0.539   5.047 -0.4696  1.4101  0.9405
 6931SOL    HW232256   1.589   0.486   5.131 -1.6500  0.5050 -0.3262
 6932SOL     OW32257   2.478   0.529  14.223 -0.0166  0.7037 -0.6934
 6932SOL    HW132258   2.445   0.518  14.312 -1.7136  2.3152 -1.1094
 6932SOL    HW232259   2.421   0.466  14.178  1.2738  0.1498 -1.5665
 6933SOL     OW32260   0.870   0.228  11.133  0.0138  0.1576  0.5013
 6933SOL    HW132261   0.941   0.173  11.163 -0.6841  0.2056  2.2175
 6933SOL    HW232262   0.835   0.271  11.211  1.3469  1.5220  0.3517
 6934SOL     OW32263   3.339   1.784   5.451 -0.2249  0.0571  0.0085
 6934SOL    HW132264   3.415   1.747   5.495 -1.8958  1.1811  3.8746
 6934SOL    HW232265   3.372   1.871   5.429  1.3250 -0.9252 -1.5148
 6935SOL     OW32266   4.075   3.720  16.257  0.0627 -0.4675 -0.9263
 6935SOL    HW132267   4.049   3.691  16.345  0.8599  3.9723  0.8007
 6935SOL    HW232268   4.036   3.647  16.209 -0.2995  0.4088 -1.9624
 6936SOL     OW32269   1.493   1.463  14.092 -0.7686 -0.3317  0.2006
 6936SOL    HW132270   1.583   1.480  14.120 -0.2928 -2.1226 -0.2669
 6936SOL    HW232271   1.481   1.539  14.035 -1.1033  0.2255  1.0190
 6937SOL     OW32272   0.559   2.811   2.450  0.7084  0.2230 -0.1967
 6937SOL    HW132273   0.579   2.793   2.542  1.4556 -1.1900 -0.6304
 6937SOL    HW232274   0.471   2.846   2.460  1.1518  0.3629  3.2684
 6938SOL     OW32275   3.780   0.368   5.132  0.5563  0.0355 -0.0921
 6938SOL    HW132276   3.732   0.290   5.159 -0.0498  0.2408 -0.5898
 6938SOL    HW232277   3.783   0.363   5.037  0.5096 -3.4386  0.0973
 6939SOL     OW32278   3.783   2.025   9.912  0.0388  0.6148 -0.5706
 6939SOL    HW132279   3.792   1.941   9.956 -1.5441  0.4397 -0.5688
 6939SOL    HW232280   3.704   2.061   9.953  0.9281  1.3606  0.4719
 6940SOL     OW32281   0.847   0.218   7.353 -0.0784  0.3897  0.6094
 6940SOL    HW132282   0.861   0.178   7.439 -0.2484 -0.4360  0.2475
 6940SOL    HW232283   0.761   0.181   7.336  0.1619  1.3350 -2.5351
 6941SOL     OW32284   3.718   2.991  14.068  0.6728 -0.1962  0.7784
 6941SOL    HW132285   3.813   2.977  14.070  0.9477  1.6612  1.1903
 6941SOL    HW232286   3.717   3.066  14.009  1.0544  0.1585  1.2259
 6942SOL     OW32287   2.064   0.727   4.864  0.5082 -0.2740 -0.5792
 6942SOL    HW132288   2.039   0.739   4.955 -0.9621  0.3405 -1.0568
 6942SOL    HW232289   2.024   0.644   4.839 -0.7028  0.0734  0.2184
 6943SOL     OW32290   4.060   2.247   7.079 -0.9415 -0.2240  0.2360
 6943SOL    HW132291   3.989   2.182   7.072 -1.0591 -0.0138 -0.6068
 6943SOL    HW232292   4.131   2.197   7.039 -0.8099  0.7103 -0.7122
 6944SOL     OW32293   0.043   0.531   4.416 -0.1832  0.3379 -0.2462
 6944SOL    HW132294   0.111   0.465   4.401  1.3682  2.1058 -1.0623
 6944SOL    HW232295   4.692   0.492   4.465  0.8422 -1.1756  0.0544
 6945SOL     OW32296   3.563   2.780   5.760  0.2532 -0.1749  0.2255
 6945SOL    HW132297   3.601   2.732   5.686 -0.8826 -1.0034  0.1828
 6945SOL    HW232298   3.588   2.871   5.746 -0.5171 -0.4308 -2.9390
 6946SOL     OW32299   0.805   2.892   9.144 -0.4358  0.0509 -0.7213
 6946SOL    HW132300   0.722   2.881   9.191 -1.6635 -0.3249 -2.9600
 6946SOL    HW232301   0.789   2.975   9.099 -0.6153  1.8101  2.6734
 6947SOL     OW32302   2.885   0.025  11.532 -0.0519 -0.7880 -0.1941
 6947SOL    HW132303   2.918   0.105  11.491 -2.2828 -0.0829 -0.5710
 6947SOL    HW232304   2.959   4.686  11.530 -0.6316 -1.4808 -0.6443
 6948SOL     OW32305   0.659   2.121  11.342 -0.0551 -0.1590  0.0290
 6948SOL    HW132306   0.734   2.145  11.287 -0.2019  1.3746  0.5065
 6948SOL    HW232307   0.692   2.052  11.400 -0.5778 -0.1583  0.3259
 6949SOL     OW32308   1.811   3.912   3.853  0.2844  0.0581  0.0240
 6949SOL    HW132309   1.807   3.854   3.776  0.5978  0.5014 -0.3282
 6949SOL    HW232310   1.901   3.911   3.883 -0.1529 -0.9332  1.2851
 6950SOL     OW32311   2.206   3.996  13.798  0.1250 -0.8438  0.6246
 6950SOL    HW132312   2.164   4.074  13.762 -0.0278 -1.4875 -0.5592
 6950SOL    HW232313   2.215   4.010  13.893  2.6254  0.7718  0.1509
 6951SOL     OW32314   2.312   0.871  13.520  0.2708  0.0358  0.1011
 6951SOL    HW132315   2.224   0.905  13.505  0.4520  0.1625 -0.6816
 6951SOL    HW232316   2.297   0.780  13.545  0.4191  0.1684  0.6646
 6952SOL     OW32317   3.235   4.476   3.978  0.0090 -0.6572  0.1325
 6952SOL    HW132318   3.269   4.439   3.897 -1.0478  1.8572 -1.4496
 6952SOL    HW232319   3.144   4.494   3.952  0.7866  1.5736 -1.0775
 6953SOL     OW32320   4.040   0.671   2.983 -0.3565 -0.2782 -0.2701
 6953SOL    HW132321   4.113   0.667   2.921 -0.7401  0.5212 -0.7793
 6953SOL    HW232322   3.967   0.653   2.924 -1.0620 -1.3129  0.9183
 6954SOL     OW32323   2.652   2.242  12.075 -0.3110 -0.1604 -0.0037
 6954SOL    HW132324   2.588   2.310  12.098 -1.7813 -0.6128 -2.8145
 6954SOL    HW232325   2.716   2.313  12.064  1.3877 -1.5448  0.8428
 6955SOL     OW32326   0.134   0.055   2.938 -0.1937  0.4651  0.3968
 6955SOL    HW132327   0.183   0.137   2.932 -1.2216  1.0810  0.5240
 6955SOL    HW232328   0.049   0.099   2.935 -0.3116  0.2881  1.0060
 6956SOL     OW32329   3.993   4.310   1.013  0.0806  0.4563  0.0240
 6956SOL    HW132330   4.000   4.304   1.109  2.3858 -4.0376 -0.3894
 6956SOL    HW232331   3.966   4.401   1.005  1.0062  0.8448  1.2318
 6957SOL     OW32332   3.120   2.794   2.485  0.0890  0.3633 -0.1761
 6957SOL    HW132333   3.159   2.752   2.409 -0.7345 -2.2657  0.8702
 6957SOL    HW232334   3.188   2.822   2.545 -0.7464  0.7829  0.5772
 6958SOL     OW32335   1.061   2.148   1.179 -0.8369 -0.5280 -0.6650
 6958SOL    HW132336   1.062   2.137   1.274  1.3333  1.8506 -0.4248
 6958SOL    HW232337   0.969   2.132   1.160 -1.1689 -2.2332  2.3158
 6959SOL     OW32338   0.070   1.726  14.098 -0.1019 -0.5638 -0.6228
 6959SOL    HW132339   0.123   1.740  14.176 -0.6300 -1.6146 -0.0725
 6959SOL    HW232340   4.707   1.733  14.144  0.7337  3.1910  0.2922
 6960SOL     OW32341   1.632   0.467   4.628 -0.2633 -0.0034  0.1704
 6960SOL    HW132342   1.710   0.412   4.620 -0.1444  0.4966 -2.0776
 6960SOL    HW232343   1.673   0.551   4.646  2.1975 -1.0000 -0.7470
 6961SOL     OW32344   0.484   1.823   1.187 -0.3599  0.2825 -0.1797
 6961SOL    HW132345   0.397   1.839   1.152 -0.6821  0.7893  0.8589
 6961SOL    HW232346   0.543   1.875   1.132 -0.1475  2.6686  2.3415
 6962SOL     OW32347   0.186   4.553  13.143 -0.1466  0.4393  0.1411
 6962SOL    HW132348   0.263   4.605  13.164 -0.2125  1.4425 -2.1506
 6962SOL    HW232349   0.125   4.607  13.192  0.9830  1.2938  0.5970
 6963SOL     OW32350   2.196   1.294  11.851 -0.0972  0.1381  0.0984
 6963SOL    HW132351   2.257   1.334  11.913 -0.3128  1.4523 -0.5294
 6963SOL    HW232352   2.243   1.285  11.769  1.3239  2.6275  0.6473
 6964SOL     OW32353   2.341   3.868  13.420 -0.2084 -0.3295  0.2616
 6964SOL    HW132354   2.288   3.802  13.465 -0.8405 -0.8048 -1.1818
 6964SOL    HW232355   2.391   3.904  13.493  0.4786 -2.5431  0.8805
 6965SOL     OW32356   0.758   1.255  12.966 -0.1874  0.1250 -0.5003
 6965SOL    HW132357   0.844   1.265  12.925  0.1379  0.7844  0.3375
 6965SOL    HW232358   0.786   1.229  13.053 -2.3158  1.9838  0.7495
 6966SOL     OW32359   1.739   4.417  11.621  0.0066 -0.3882 -0.2621
 6966SOL    HW132360   1.661   4.443  11.670 -0.1550 -1.1407 -0.1280
 6966SOL    HW232361   1.802   4.478  11.658  1.1173 -0.8397 -1.4238
 6967SOL     OW32362   0.846   3.976   4.087  0.3755  0.4705 -0.2134
 6967SOL    HW132363   0.855   4.063   4.125  3.6214  0.0623 -0.1044
 6967SOL    HW232364   0.752   3.959   4.101  0.5896 -0.5576  0.0166
 6968SOL     OW32365   3.993   1.616   9.698 -0.3392  0.3408  0.5415
 6968SOL    HW132366   3.953   1.548   9.753  2.1059 -2.4621 -1.1418
 6968SOL    HW232367   4.082   1.581   9.693 -0.0233  0.6961  3.4333
 6969SOL     OW32368   0.017   4.017  15.882  0.1811 -0.0712 -0.1203
 6969SOL    HW132369   0.056   4.096  15.846 -3.7004  1.4826 -0.9431
 6969SOL    HW232370   0.003   3.972  15.798  1.7883 -0.6258 -0.0821
 6970SOL     OW32371   0.302   0.425   9.650 -0.4383  0.6358 -0.7554
 6970SOL    HW132372   0.349   0.385   9.577 -1.8913 -0.6479 -0.9939
 6970SOL    HW232373   0.335   0.371   9.721  2.4326  1.6091 -1.3454
 6971SOL     OW32374   0.836   2.424   5.412  0.9656 -0.1991  0.0763
 6971SOL    HW132375   0.781   2.493   5.375  0.8166 -2.0305 -3.1136
 6971SOL    HW232376   0.898   2.477   5.461  1.3323  0.1941 -0.8022
 6972SOL     OW32377   3.180   0.582  15.778  0.6308 -0.4710  0.0136
 6972SOL    HW132378   3.180   0.674  15.805  1.0493 -0.3507 -0.3983
 6972SOL    HW232379   3.232   0.586  15.698  0.6517 -0.1950  0.0394
 6973SOL     OW32380   0.663   1.912   4.732 -0.1267 -0.1481  0.1844
 6973SOL    HW132381   0.725   1.943   4.797  0.2645 -0.0115 -0.2551
 6973SOL    HW232382   0.593   1.976   4.747  0.0561  0.0638  0.1338
 6974SOL     OW32383   0.236   1.301   8.247 -0.0705  0.5034  0.3701
 6974SOL    HW132384   0.290   1.356   8.304  0.8784 -0.5495  0.4985
 6974SOL    HW232385   0.261   1.342   8.164 -1.3947  2.9038  1.1628
 6975SOL     OW32386   3.060   4.123   3.003 -0.3578  1.2164 -0.2341
 6975SOL    HW132387   3.122   4.176   3.053  0.5405  2.2004 -2.3704
 6975SOL    HW232388   3.047   4.052   3.065 -1.6304  1.0069 -0.7502
 6976SOL     OW32389   3.897   2.861   0.054  0.3216  0.6549  0.3023
 6976SOL    HW132390   3.977   2.908   0.079  1.8117 -0.6763 -1.9900
 6976SOL    HW232391   3.919   2.842  17.650  0.5157 -1.2010  0.7367
 6977SOL     OW32392   3.102   3.928   5.990 -0.2620 -0.4457  0.5781
 6977SOL    HW132393   3.184   3.963   6.027 -0.3818 -0.0611  0.4731
 6977SOL    HW232394   3.091   3.848   6.043  0.7314 -0.6570  0.4841
 6978SOL     OW32395   1.145   4.544   6.127  0.0045  0.0445  0.0596
 6978SOL    HW132396   1.148   4.487   6.204 -2.7745  0.8054  0.7297
 6978SOL    HW232397   1.054   4.524   6.105 -0.5302  0.5517  1.7947
 6979SOL     OW32398   4.373   3.382   8.897  0.2945  0.5764 -0.2849
 6979SOL    HW132399   4.396   3.310   8.957  1.3397  0.4582 -0.8320
 6979SOL    HW232400   4.382   3.461   8.949  2.5237 -0.3261  0.7228
 6980SOL     OW32401   2.187   2.601  11.200  0.1577 -0.2111 -0.0893
 6980SOL    HW132402   2.250   2.633  11.264 -0.2933 -0.6060  0.5536
 6980SOL    HW232403   2.113   2.660  11.213  0.1677 -0.0789 -0.6139
 6981SOL     OW32404   1.989   0.624   3.416 -0.2587  0.5258 -0.4777
 6981SOL    HW132405   1.964   0.710   3.449  0.2172 -0.1146  1.6103
 6981SOL    HW232406   1.962   0.573   3.492  0.1907  1.6630  0.4544
 6982SOL     OW32407   3.104   2.893   3.986 -0.2767  0.3415  0.8014
 6982SOL    HW132408   3.137   2.826   3.926  1.0792  3.0044 -1.4528
 6982SOL    HW232409   3.147   2.867   4.068 -0.9457 -2.3644  0.2968
 6983SOL     OW32410   3.198   2.825   7.598 -0.0722  0.2666 -0.1151
 6983SOL    HW132411   3.260   2.894   7.573  0.6001 -0.4409 -0.3783
 6983SOL    HW232412   3.154   2.817   7.513  2.8685 -0.7662 -1.5086
 6984SOL     OW32413   4.046   1.690   5.555  0.0104  0.2840 -0.8930
 6984SOL    HW132414   4.099   1.770   5.559 -0.0283  0.3200 -1.0994
 6984SOL    HW232415   4.053   1.660   5.646 -0.3082  0.1191 -0.9241
 6985SOL     OW32416   1.444   4.251   3.246 -0.1957  0.0415  0.5975
 6985SOL    HW132417   1.483   4.165   3.232  2.4528  1.3775 -0.1341
 6985SOL    HW232418   1.503   4.309   3.197 -0.0642  1.2174  2.1300
 6986SOL     OW32419   1.479   4.235   2.771 -0.1238 -0.7229 -0.2056
 6986SOL    HW132420   1.465   4.257   2.679  0.3990  1.4823  0.2492
 6986SOL    HW232421   1.564   4.277   2.783 -0.9990  0.8755  0.4145
 6987SOL     OW32422   4.228   3.884   7.586 -0.0912  0.0964 -0.3506
 6987SOL    HW132423   4.232   3.791   7.564 -0.7646 -0.2016  0.7920
 6987SOL    HW232424   4.162   3.880   7.656 -2.0118 -1.3004 -2.2135
 6988SOL     OW32425   2.475   0.013   3.239  0.1225  0.5853 -0.3573
 6988SOL    HW132426   2.386   0.048   3.238 -0.5523 -1.1138  1.3664
 6988SOL    HW232427   2.460   4.662   3.178 -0.5080 -0.8811  1.5553
 6989SOL     OW32428   0.737   1.861   2.390 -0.0764  0.4908 -0.2421
 6989SOL    HW132429   0.675   1.930   2.414 -1.3464 -1.4017  1.9681
 6989SOL    HW232430   0.754   1.822   2.476 -0.9183 -0.4664 -0.5235
 6990SOL     OW32431   4.590   4.342   8.829  0.2422  0.4035  0.3635
 6990SOL    HW132432   4.628   4.393   8.901  0.0832  2.1246 -0.7688
 6990SOL    HW232433   4.500   4.320   8.854  1.1959 -1.5787  1.9692
 6991SOL     OW32434   4.184   3.012   3.093  0.1117 -0.3973  0.2565
 6991SOL    HW132435   4.196   3.077   3.163  1.6511 -0.1003 -0.2960
 6991SOL    HW232436   4.089   2.999   3.091  0.2485 -1.5431  1.3108
 6992SOL     OW32437   0.299   2.973   8.650  0.0390  0.3438 -0.0156
 6992SOL    HW132438   0.256   2.923   8.719  0.0508  1.2406  0.6457
 6992SOL    HW232439   0.378   2.921   8.631  0.5751  0.7212  1.2133
 6993SOL     OW32440   2.427   1.018   1.521  0.9572 -0.1873  0.4742
 6993SOL    HW132441   2.358   0.953   1.511 -0.1109  0.9492  0.4218
 6993SOL    HW232442   2.416   1.064   1.438  2.3532 -0.3909  0.1679
 6994SOL     OW32443   4.232   2.068   9.279 -0.3401  0.8877 -0.4043
 6994SOL    HW132444   4.177   2.053   9.203 -0.4035 -0.5243 -0.0766
 6994SOL    HW232445   4.298   2.001   9.258 -1.6235 -1.0628  1.7786
 6995SOL     OW32446   1.173   1.690   3.415  0.0587 -0.1054  0.0903
 6995SOL    HW132447   1.102   1.715   3.357  0.5869 -2.3393 -1.5265
 6995SOL    HW232448   1.162   1.758   3.482 -1.1837 -2.4645  2.3073
 6996SOL     OW32449   0.223   3.633  16.126 -0.2448 -0.1746 -0.2107
 6996SOL    HW132450   0.170   3.710  16.148 -0.5509 -1.3231  3.0513
 6996SOL    HW232451   0.170   3.581  16.065  0.5386 -1.2266  0.0137
 6997SOL     OW32452   4.270   1.245  11.372  0.1624  0.1314 -0.7402
 6997SOL    HW132453   4.279   1.340  11.383 -1.7170  0.4021 -1.5878
 6997SOL    HW232454   4.255   1.232  11.279 -1.2197 -0.2121 -0.4684
 6998SOL     OW32455   2.921   2.480   2.416  0.0522 -0.4729  0.2568
 6998SOL    HW132456   2.901   2.388   2.436 -1.3089 -0.9003 -2.9376
 6998SOL    HW232457   3.012   2.476   2.388  0.3640  1.6597  0.9553
 6999SOL     OW32458   1.885   1.504   3.397  0.4470 -0.2605 -0.2493
 6999SOL    HW132459   1.801   1.500   3.352 -0.4195 -0.8018  1.4209
 6999SOL    HW232460   1.945   1.471   3.330  0.7894 -0.0354 -0.0578
 7000SOL     OW32461   0.760   2.166  16.253 -0.1845 -0.1857 -0.8699
 7000SOL    HW132462   0.830   2.228  16.273 -0.3257 -0.8632  1.8109
 7000SOL    HW232463   0.810   2.089  16.223 -0.8721 -1.3292  0.8953
 7001SOL     OW32464   3.224   0.832   6.168 -0.5843 -0.2266 -0.0146
 7001SOL    HW132465   3.279   0.773   6.116 -1.8923 -2.5715  1.2503
 7001SOL    HW232466   3.255   0.812   6.257  2.2756 -2.1040 -1.4449
 7002SOL     OW32467   0.500   4.482   8.938  0.0921  0.0548 -0.8180
 7002SOL    HW132468   0.522   4.517   8.852 -0.2047  1.3984 -0.3510
 7002SOL    HW232469   0.446   4.407   8.911 -1.0943  0.0171  1.6545
 7003SOL     OW32470   2.894   4.557  12.188 -0.2824 -0.0246 -0.4035
 7003SOL    HW132471   2.856   4.497  12.253 -0.2810 -1.4848 -1.7276
 7003SOL    HW232472   2.954   4.492  12.151  0.9442  0.7128  0.3066
 7004SOL     OW32473   4.643   3.167  16.500 -0.0077  0.0113 -0.1614
 7004SOL    HW132474   4.651   3.236  16.435  0.9067 -0.8350 -0.9361
 7004SOL    HW232475   0.006   3.126  16.483  0.5277  0.6873  0.8271
 7005SOL     OW32476   2.812   3.897  15.986  0.1196  0.2078 -0.4117
 7005SOL    HW132477   2.876   3.827  15.971  0.8651  0.4304  1.7464
 7005SOL    HW232478   2.795   3.899  16.080  0.9745 -1.1899 -0.2236
 7006SOL     OW32479   4.414   4.361   7.082  0.8785 -0.0678 -0.1002
 7006SOL    HW132480   4.358   4.313   7.143  0.2636 -1.1218 -1.4833
 7006SOL    HW232481   4.391   4.452   7.098  1.5879  0.2486 -0.8472
 7007SOL     OW32482   1.252   4.378   4.672 -0.2385 -0.4309  0.0855
 7007SOL    HW132483   1.285   4.355   4.586  1.4005 -1.1768  0.9116
 7007SOL    HW232484   1.333   4.393   4.721 -0.2080  1.3632 -0.4867
 7008SOL     OW32485   4.537   0.387   5.746  0.2299  0.0562 -0.9094
 7008SOL    HW132486   4.449   0.381   5.709  0.4838 -3.3829 -0.8891
 7008SOL    HW232487   4.574   0.302   5.725  0.8376  0.7886 -2.8928
 7009SOL     OW32488   2.044   1.694   7.263 -0.1708  0.0158 -0.3147
 7009SOL    HW132489   1.969   1.682   7.320  0.3395 -2.3174 -0.1043
 7009SOL    HW232490   2.007   1.710   7.176 -1.1617 -3.9644 -0.6136
 7010SOL     OW32491   0.139   0.700   7.549 -0.0258  0.1214 -0.3151
 7010SOL    HW132492   0.109   0.690   7.640 -1.6729  0.6117 -0.7972
 7010SOL    HW232493   0.212   0.639   7.560 -0.1382  0.1826  0.7694
 7011SOL     OW32494   3.243   2.690   2.216 -0.1835  0.0635  0.3972
 7011SOL    HW132495   3.225   2.598   2.236  0.6084 -0.4139 -1.0424
 7011SOL    HW232496   3.338   2.693   2.200 -0.2222  0.3906  0.2269
 7012SOL     OW32497   3.642   3.642   3.614 -0.3409  0.3581 -0.4874
 7012SOL    HW132498   3.730   3.674   3.635 -0.1340 -1.8439  2.1368
 7012SOL    HW232499   3.599   3.639   3.700 -0.8773 -0.0631 -0.7707
 7013SOL     OW32500   2.659   1.117   5.911  0.0183  0.3698  0.0344
 7013SOL    HW132501   2.625   1.156   5.831 -0.2005  1.5020  0.6889
 7013SOL    HW232502   2.748   1.151   5.925  0.9054 -2.1799  0.5697
 7014SOL     OW32503   2.063   3.636  15.029 -0.1961 -0.2278  0.2401
 7014SOL    HW132504   2.122   3.640  15.104  0.4647  0.8306 -0.3459
 7014SOL    HW232505   1.974   3.650  15.063 -1.1868 -2.5251 -1.3669
 7015SOL     OW32506   4.498   1.726   4.490 -0.0232  0.5547  0.1612
 7015SOL    HW132507   4.547   1.688   4.563 -0.7852  0.1919  0.4783
 7015SOL    HW232508   4.541   1.811   4.480 -1.9308  1.2979 -1.6410
 7016SOL     OW32509   3.289   2.097   5.777  0.4348  0.3169  0.1738
 7016SOL    HW132510   3.371   2.134   5.809  0.9518 -1.2485  0.6375
 7016SOL    HW232511   3.287   2.020   5.834  0.4750  0.0851 -0.1419
 7017SOL     OW32512   1.072   0.974   6.141  0.1000 -0.0616  0.1065
 7017SOL    HW132513   1.123   1.029   6.082 -0.5799  0.4142 -0.0301
 7017SOL    HW232514   1.144   0.932   6.188  1.3595  0.9698 -0.8848
 7018SOL     OW32515   1.745   2.281   2.718 -0.7614 -0.0420 -0.5164
 7018SOL    HW132516   1.715   2.349   2.659  1.0283  0.9521 -0.2822
 7018SOL    HW232517   1.659   2.255   2.752  0.4853  1.9921  4.1857
 7019SOL     OW32518   1.523   0.037  10.979  0.3319  0.3792 -0.0144
 7019SOL    HW132519   1.594   0.095  11.006 -0.2030  0.1031  2.0015
 7019SOL    HW232520   1.560   4.675  11.008  1.5729  0.6075 -0.9820
 7020SOL     OW32521   4.632   4.672  13.661 -0.0208 -0.0622 -0.2123
 7020SOL    HW132522   4.714   4.699  13.703 -0.4505  0.1169  0.5305
 7020SOL    HW232523   4.637   4.711  13.574  0.7622 -0.5710 -0.3883
 7021SOL     OW32524   2.001   4.077   4.576 -0.0361  0.3539  0.7050
 7021SOL    HW132525   2.088   4.037   4.567  0.4902  1.3708  1.2630
 7021SOL    HW232526   2.017   4.130   4.654  1.8172  0.9317 -0.0594
 7022SOL     OW32527   0.802   0.531   0.286  0.1070 -0.2817 -0.2470
 7022SOL    HW132528   0.754   0.523   0.204 -2.2244 -0.6029  1.1644
 7022SOL    HW232529   0.883   0.483   0.269  0.4800  0.6655 -1.0929
 7023SOL     OW32530   2.085   2.705  10.729  0.1448  0.1859  0.4200
 7023SOL    HW132531   2.094   2.800  10.731  2.5684 -0.0310  0.0920
 7023SOL    HW232532   2.152   2.665  10.785  0.9195 -0.6025 -1.0681
 7024SOL     OW32533   2.299   2.335   9.080  0.5189 -0.0191 -0.8812
 7024SOL    HW132534   2.302   2.242   9.056 -0.9239 -0.4765  0.7387
 7024SOL    HW232535   2.348   2.363   9.002  0.6975  1.9015 -0.0726
 7025SOL     OW32536   3.787   0.340   3.670 -0.4710  0.3941  0.0966
 7025SOL    HW132537   3.853   0.341   3.600  0.6627  2.0004  1.1934
 7025SOL    HW232538   3.746   0.426   3.659  0.6851  0.7337 -1.6015
 7026SOL     OW32539   3.060   0.625   4.014  0.1171  0.0845  0.4198
 7026SOL    HW132540   2.965   0.629   4.025  0.1303  1.2142  0.0872
 7026SOL    HW232541   3.094   0.658   4.098 -2.1892  0.8163  1.0655
 7027SOL     OW32542   2.635   2.200  14.071  0.7998 -0.0424  0.2355
 7027SOL    HW132543   2.643   2.295  14.070 -1.7641  0.1597 -0.3068
 7027SOL    HW232544   2.626   2.191  13.976  1.3601 -1.2134  0.2811
 7028SOL     OW32545   1.411   0.511   4.777 -0.0255 -0.1360 -0.1149
 7028SOL    HW132546   1.428   0.469   4.861  2.4301 -0.5801 -0.8202
 7028SOL    HW232547   1.444   0.446   4.715  0.1749  1.3385 -1.5490
 7029SOL     OW32548   4.286   3.128   7.239  0.3557 -0.3709 -0.8274
 7029SOL    HW132549   4.332   3.212   7.234 -1.9565  0.8873 -0.8823
 7029SOL    HW232550   4.306   3.100   7.328  0.3966  0.2147 -0.6478
 7030SOL     OW32551   4.266   2.013  11.280  0.1820  0.4354 -0.3635
 7030SOL    HW132552   4.187   1.975  11.319  0.5664 -0.3118 -0.3196
 7030SOL    HW232553   4.330   1.969  11.335 -2.3770 -0.8672  1.5855
 7031SOL     OW32554   1.303   1.148   5.721 -0.0623 -0.7624 -0.1261
 7031SOL    HW132555   1.282   1.078   5.659  0.5860 -0.5639 -0.5601
 7031SOL    HW232556   1.381   1.191   5.686 -0.0124 -1.7084 -1.1832
 7032SOL     OW32557   0.303   1.383   0.655 -0.4149  0.2011  0.0989
 7032SOL    HW132558   0.268   1.300   0.684  1.7090 -0.7016  0.0899
 7032SOL    HW232559   0.310   1.423   0.742  3.8181 -1.0210  0.3288
 7033SOL     OW32560   4.025   0.970   6.854  0.0599  0.2353 -0.2122
 7033SOL    HW132561   4.103   1.012   6.816  1.8220 -1.3348  1.6530
 7033SOL    HW232562   3.956   0.991   6.791 -0.7697 -0.4111  0.4880
 7034SOL     OW32563   2.758   0.212   5.814 -0.1299 -0.5975 -0.0375
 7034SOL    HW132564   2.817   0.157   5.865  0.3017 -0.2343 -0.1476
 7034SOL    HW232565   2.807   0.230   5.734 -1.4639 -1.4655 -1.0433
 7035SOL     OW32566   4.324   4.668   4.504 -0.4188 -0.5395 -0.0087
 7035SOL    HW132567   4.275   0.029   4.506 -0.4389 -0.5335 -0.6158
 7035SOL    HW232568   4.353   4.653   4.414  1.2977 -0.4199  0.5257
 7036SOL     OW32569   0.737   2.222  17.057  0.2943  0.4253  0.1945
 7036SOL    HW132570   0.766   2.141  17.100 -1.9577  0.2228  1.3229
 7036SOL    HW232571   0.669   2.247  17.120  1.7358  3.2869  0.6315
 7037SOL     OW32572   0.782   2.511  10.312  0.1055 -0.1244  0.0167
 7037SOL    HW132573   0.877   2.526  10.313  0.2677 -1.1821 -0.4873
 7037SOL    HW232574   0.759   2.592  10.358  0.7171 -0.1682  0.4015
 7038SOL     OW32575   4.700   2.488   6.845  0.0811 -0.5248 -0.4841
 7038SOL    HW132576   4.623   2.540   6.870  1.4971  1.4444 -0.1800
 7038SOL    HW232577   0.040   2.558   6.821  1.6365 -1.3900  0.9809
 7039SOL     OW32578   3.488   0.069   3.894  0.0989  0.5997 -0.4130
 7039SOL    HW132579   3.400   0.032   3.885  0.3479  0.1945 -1.2142
 7039SOL    HW232580   3.476   0.161   3.873  0.8400  0.4987 -1.2827
 7040SOL     OW32581   0.252   2.750   9.112  0.1463 -0.7065 -0.3043
 7040SOL    HW132582   0.231   2.793   9.029  0.9992  1.5352  0.6346
 7040SOL    HW232583   0.174   2.757   9.168  0.2718  0.2871 -0.2611
 7041SOL     OW32584   1.695   4.671  16.561 -0.0502 -0.5381  0.0407
 7041SOL    HW132585   1.603   4.678  16.536 -0.2599 -1.4536  0.5519
 7041SOL    HW232586   1.713   0.043  16.575  2.3256 -1.3468  2.5114
 7042SOL     OW32587   1.035   3.888   6.590  0.2938 -0.1493 -0.1018
 7042SOL    HW132588   0.948   3.849   6.594  0.1142  0.3415  0.8405
 7042SOL    HW232589   1.045   3.919   6.681  0.2390  1.5031 -0.6467
 7043SOL     OW32590   2.232   4.524   3.145 -0.5369  0.2284  0.4789
 7043SOL    HW132591   2.308   4.502   3.091 -1.6483 -0.1729 -0.9221
 7043SOL    HW232592   2.241   4.619   3.137  0.6236  0.0383 -0.5123
 7044SOL     OW32593   2.930   0.389   4.183  0.5257 -0.6033 -0.1164
 7044SOL    HW132594   2.844   0.422   4.155  2.6873  2.1797 -3.4212
 7044SOL    HW232595   2.936   0.296   4.163  0.5793 -0.7840  0.7324
 7045SOL     OW32596   1.134   2.382   8.648 -0.5380  0.5672  0.6055
 7045SOL    HW132597   1.121   2.464   8.600  2.0141  1.7912  1.9518
 7045SOL    HW232598   1.084   2.414   8.723 -0.5910  2.0956 -0.0876
 7046SOL     OW32599   4.437   0.696   5.736  0.2805 -0.4725  0.1552
 7046SOL    HW132600   4.456   0.609   5.702 -1.1427  0.0882 -2.0360
 7046SOL    HW232601   4.459   0.757   5.666 -1.0852 -1.1155 -0.8388
 7047SOL     OW32602   4.116   0.134   3.375 -0.4789 -0.4660  0.8097
 7047SOL    HW132603   4.061   0.101   3.304  1.6142 -3.0886  0.3962
 7047SOL    HW232604   4.104   0.229   3.370  0.7554 -0.2824  1.2938
 7048SOL     OW32605   3.327   0.848   8.431 -0.1358  0.2205 -0.2352
 7048SOL    HW132606   3.276   0.776   8.394 -1.7409  0.8856  0.6471
 7048SOL    HW232607   3.411   0.804   8.437 -0.5003 -0.2774  1.2737
 7049SOL     OW32608   4.358   3.800   2.761 -0.2824  0.4438 -0.6057
 7049SOL    HW132609   4.274   3.756   2.775  0.0969 -0.7311 -1.9848
 7049SOL    HW232610   4.374   3.843   2.845  0.7589 -2.5643  0.7309
 7050SOL     OW32611   2.661   4.674   5.623 -0.6668  0.2991 -0.3622
 7050SOL    HW132612   2.588   4.680   5.684 -0.5498 -2.9833  0.1043
 7050SOL    HW232613   2.718   0.023   5.653 -1.1849  0.0293  1.2569
 7051SOL     OW32614   2.207   3.623   7.776 -0.7759  0.0817  0.3152
 7051SOL    HW132615   2.220   3.697   7.717  0.4775  0.0219  0.5287
 7051SOL    HW232616   2.162   3.564   7.715  0.0168 -0.5886  0.3874
 7052SOL     OW32617   1.921   0.374   4.290 -0.1373 -0.3078  0.2881
 7052SOL    HW132618   1.909   0.283   4.264 -1.0844  0.2129 -1.0965
 7052SOL    HW232619   1.849   0.418   4.245  0.1373  0.5446  0.6860
 7053SOL     OW32620   1.632   0.261  15.599  0.2181  0.0138  0.3140
 7053SOL    HW132621   1.674   0.283  15.516  3.3490 -1.1186  1.6104
 7053SOL    HW232622   1.550   0.230  15.560 -0.2191  0.5858  0.7739
 7054SOL     OW32623   1.490   3.791   3.938  0.0629  0.3479 -0.1786
 7054SOL    HW132624   1.517   3.758   3.853  1.4533 -0.1859  0.4645
 7054SOL    HW232625   1.452   3.875   3.914  1.8461  0.9845 -0.7728
 7055SOL     OW32626   0.233   2.178   2.206 -0.2740 -0.9366  0.3961
 7055SOL    HW132627   0.232   2.097   2.155 -1.1940 -1.6168  1.4903
 7055SOL    HW232628   0.201   2.141   2.289 -0.1692  0.5962  1.1168
 7056SOL     OW32629   2.718   4.490   2.551 -0.4114  0.2591  0.2301
 7056SOL    HW132630   2.808   4.511   2.576 -0.5170  2.4495 -1.1480
 7056SOL    HW232631   2.723   4.441   2.469  0.2769 -0.6131  0.8011
 7057SOL     OW32632   0.850   2.291  14.984  0.6734  0.0896 -0.4919
 7057SOL    HW132633   0.888   2.237  14.915 -1.3587 -0.0941 -1.4693
 7057SOL    HW232634   0.822   2.221  15.042 -0.5284  1.4550  0.5835
 7058SOL     OW32635   3.135   2.813   7.322 -0.0231 -0.1512 -0.3468
 7058SOL    HW132636   3.052   2.784   7.283  0.9264 -2.3686 -0.6801
 7058SOL    HW232637   3.140   2.907   7.302  0.3984  0.5612  3.0779
 7059SOL     OW32638   1.572   3.658  10.380  0.0348 -0.7809 -0.2936
 7059SOL    HW132639   1.579   3.751  10.359 -0.1130 -0.4295  1.2305
 7059SOL    HW232640   1.479   3.660  10.406  0.1913  1.0284  0.0879
 7060SOL     OW32641   0.801   3.256   3.320  0.2566 -0.1807  0.1090
 7060SOL    HW132642   0.727   3.277   3.377 -0.0965 -2.4811  0.4685
 7060SOL    HW232643   0.761   3.223   3.240 -1.6942  2.8147 -0.1540
 7061SOL     OW32644   1.577   4.085   5.294 -0.0581  0.8027 -0.1943
 7061SOL    HW132645   1.608   4.135   5.219 -1.4064  1.2706 -0.4472
 7061SOL    HW232646   1.547   4.155   5.353  2.4784  1.8237 -0.0948
 7062SOL     OW32647   2.476   3.472   6.020 -0.0531 -0.0145 -0.1924
 7062SOL    HW132648   2.420   3.401   6.050  1.2414 -0.5262  1.0597
 7062SOL    HW232649   2.440   3.492   5.934 -1.8128  0.1641  0.5986
 7063SOL     OW32650   1.897   2.197  10.684 -0.0675 -0.2025 -0.3009
 7063SOL    HW132651   1.837   2.183  10.758 -0.3827  0.8454 -0.3668
 7063SOL    HW232652   1.901   2.292  10.687 -1.0592 -0.1337 -1.3069
 7064SOL     OW32653   4.075   1.743  11.327 -0.0824 -0.0565 -0.1442
 7064SOL    HW132654   4.070   1.659  11.281  1.9306 -0.8130  1.0027
 7064SOL    HW232655   4.013   1.730  11.399 -1.3818  1.6705 -0.9565
 7065SOL     OW32656   3.315   2.601   0.676 -0.5728 -0.1398 -0.1313
 7065SOL    HW132657   3.310   2.553   0.593 -1.2121 -0.3062  0.0094
 7065SOL    HW232658   3.368   2.676   0.647 -2.2123  0.5544 -1.3568
 7066SOL     OW32659   2.814   3.081   0.626 -0.0295  0.2536 -0.1888
 7066SOL    HW132660   2.728   3.041   0.627  0.4525 -0.7908 -1.7890
 7066SOL    HW232661   2.860   3.060   0.708 -0.1612  0.8002  0.0292
 7067SOL     OW32662   3.453   0.525   4.137 -0.2913 -0.5094  0.0041
 7067SOL    HW132663   3.381   0.464   4.123  0.1553 -1.2142  0.7570
 7067SOL    HW232664   3.531   0.469   4.139  0.6651  0.7794 -1.1185
 7068SOL     OW32665   3.060   2.519   0.481  0.4404 -0.4963  0.2970
 7068SOL    HW132666   3.151   2.492   0.487  0.1946 -1.7287 -1.5350
 7068SOL    HW232667   3.023   2.472   0.556 -1.3575 -3.5156 -2.4441
 7069SOL     OW32668   1.610   4.460   5.543  0.2952  0.1968 -0.6845
 7069SOL    HW132669   1.613   4.555   5.544 -0.2843  0.2383 -2.2907
 7069SOL    HW232670   1.630   4.438   5.634 -0.3711  2.1994 -0.0447
 7070SOL     OW32671   1.780   0.031   4.661  0.0351  0.3414 -0.1903
 7070SOL    HW132672   1.768   4.687   4.591  1.0747 -0.9435  0.8206
 7070SOL    HW232673   1.715   0.004   4.725 -0.2436 -1.4010 -1.2024
 7071SOL     OW32674   2.094   1.428  16.446 -0.0067  0.3585  0.0476
 7071SOL    HW132675   2.031   1.356  16.435  2.7850 -1.7724 -1.8392
 7071SOL    HW232676   2.100   1.435  16.542 -1.6426 -1.7179  0.3310
 7072SOL     OW32677   1.320   3.782  12.113 -0.6923 -0.2543 -0.2913
 7072SOL    HW132678   1.274   3.842  12.172  1.0162 -1.1578  1.9481
 7072SOL    HW232679   1.388   3.840  12.080  0.5533 -1.2559  0.5204
 7073SOL     OW32680   0.228   1.861   8.255  0.4885 -0.0661 -0.5749
 7073SOL    HW132681   0.317   1.892   8.241 -0.1703  1.7382 -0.6812
 7073SOL    HW232682   0.179   1.930   8.298 -0.8872 -0.8696 -0.8476
 7074SOL     OW32683   0.944   1.353   7.343  0.0644 -0.3213  0.4789
 7074SOL    HW132684   1.026   1.315   7.374  0.2680  1.2220  1.8167
 7074SOL    HW232685   0.890   1.338   7.421 -0.2062 -0.4659  0.2640
 7075SOL     OW32686   0.246   4.324   2.665 -0.1396 -0.2790  0.3365
 7075SOL    HW132687   0.218   4.416   2.662  1.2666  0.1395  0.0862
 7075SOL    HW232688   0.256   4.318   2.570 -1.0037 -2.7126  0.4126
 7076SOL     OW32689   4.657   0.622   5.183  0.0192 -0.0034 -0.6265
 7076SOL    HW132690   0.000   0.686   5.213 -1.2864  0.6326  0.8612
 7076SOL    HW232691   4.635   0.653   5.095 -1.6235  0.9313  0.1158
 7077SOL     OW32692   2.187   3.152   9.560  0.4715  0.2402  0.0015
 7077SOL    HW132693   2.109   3.121   9.607  0.3191  0.5831 -0.0247
 7077SOL    HW232694   2.151   3.142   9.472 -2.3058  1.1391  1.0133
 7078SOL     OW32695   2.865   2.325   4.259  0.3027 -0.1087 -0.5534
 7078SOL    HW132696   2.897   2.409   4.291  1.9938 -0.6336 -0.8549
 7078SOL    HW232697   2.824   2.339   4.174  1.1833 -3.2321 -1.5108
 7079SOL     OW32698   4.151   1.628   8.739 -0.0330 -0.6813 -0.3506
 7079SOL    HW132699   4.097   1.690   8.788  1.7304  1.4902 -1.1966
 7079SOL    HW232700   4.085   1.561   8.723 -1.3246  0.4358  0.2707
 7080SOL     OW32701   3.833   1.076   6.704  0.3675  0.0998 -0.2685
 7080SOL    HW132702   3.780   0.996   6.711 -0.9273  0.7904 -2.1514
 7080SOL    HW232703   3.858   1.081   6.612 -0.7735 -3.0141 -0.7634
 7081SOL     OW32704   1.053   2.132   6.305  0.6071  0.2342 -0.1611
 7081SOL    HW132705   1.045   2.154   6.212 -0.8028 -2.4186 -0.6455
 7081SOL    HW232706   0.968   2.173   6.322  0.3343 -0.7822  0.9008
 7082SOL     OW32707   0.033   0.147   5.558 -0.0508 -0.4508  0.0852
 7082SOL    HW132708   0.049   0.215   5.493 -0.5441 -0.4287 -0.0112
 7082SOL    HW232709   4.662   0.151   5.583 -0.4787 -1.6431 -1.2485
 7083SOL     OW32710   1.743   1.321   3.605  0.5332  0.0955  0.2851
 7083SOL    HW132711   1.829   1.282   3.621 -0.1012 -1.6202 -0.4245
 7083SOL    HW232712   1.771   1.388   3.543  0.6050  1.5117  1.8561
 7084SOL     OW32713   0.386   2.459  16.224 -0.0671 -0.6033 -0.3305
 7084SOL    HW132714   0.330   2.476  16.300 -2.2351  0.6134 -2.1874
 7084SOL    HW232715   0.427   2.377  16.252 -0.4905 -0.9327 -0.6720
 7085SOL     OW32716   1.758   1.368   4.299 -0.5449  0.2761  0.2729
 7085SOL    HW132717   1.700   1.292   4.306  1.0086 -0.6844  2.5056
 7085SOL    HW232718   1.803   1.342   4.218 -0.2601  1.3039  0.1038
 7086SOL     OW32719   0.452   1.809   9.763  0.2408 -0.4502  0.1419
 7086SOL    HW132720   0.520   1.749   9.794 -0.4100 -0.8893  0.7083
 7086SOL    HW232721   0.501   1.869   9.707 -0.3823 -0.4357 -0.3837
 7087SOL     OW32722   1.295   1.929   6.805  0.1973  0.4807 -0.1091
 7087SOL    HW132723   1.285   1.959   6.714  1.8952 -0.3310 -0.5684
 7087SOL    HW232724   1.256   1.842   6.813 -0.0193  0.6224  0.3592
 7088SOL     OW32725   3.638   4.638   7.199  0.4371  0.5373  0.0618
 7088SOL    HW132726   3.680   4.553   7.197 -0.3790  0.1601 -0.9604
 7088SOL    HW232727   3.546   4.618   7.217 -0.1325  1.5892 -1.5960
 7089SOL     OW32728   3.138   4.014   3.391  0.1577  0.3851  0.6576
 7089SOL    HW132729   3.082   4.091   3.384  0.6877  0.7717  0.7238
 7089SOL    HW232730   3.078   3.974   3.454 -1.6264 -1.0838 -1.9415
 7090SOL     OW32731   3.340   0.036   2.617 -0.7206 -0.4243 -0.2848
 7090SOL    HW132732   3.297   0.024   2.532  1.5114  0.6340 -1.5443
 7090SOL    HW232733   3.264   0.045   2.674 -0.2657 -1.9979  0.5746
 7091SOL     OW32734   1.021   1.409  14.581  0.0534 -0.2306  0.1659
 7091SOL    HW132735   0.974   1.425  14.499 -1.0657 -1.1854  0.6113
 7091SOL    HW232736   1.113   1.425  14.562 -0.0353  2.7328  2.1985
 7092SOL     OW32737   4.186   1.320   5.634 -0.3550 -0.1017 -0.1621
 7092SOL    HW132738   4.134   1.268   5.696 -3.0040  2.0547 -0.5695
 7092SOL    HW232739   4.173   1.252   5.567  0.3179  0.4914 -0.8927
 7093SOL     OW32740   0.860   2.009  14.370 -0.3252 -0.1767  0.2169
 7093SOL    HW132741   0.951   2.007  14.340  0.2066  3.3179  1.5599
 7093SOL    HW232742   0.813   1.969  14.297  0.1023 -0.5180  0.1322
 7094SOL     OW32743   1.005   1.895   6.049  0.1346  0.3314  0.6115
 7094SOL    HW132744   1.016   1.905   5.954  0.4063 -0.2172  0.5821
 7094SOL    HW232745   0.950   1.817   6.041  0.5714 -0.0274  1.1461
 7095SOL     OW32746   0.990   1.268  12.812  0.4456  0.4969 -0.2927
 7095SOL    HW132747   0.958   1.215  12.740 -1.2506  2.0326 -0.6907
 7095SOL    HW232748   1.051   1.324  12.764  2.5179 -0.9435  0.6701
 7096SOL     OW32749   0.095   4.328   2.064  0.1243 -0.0378 -0.8414
 7096SOL    HW132750   0.025   4.266   2.084 -1.3860  1.9118 -0.1136
 7096SOL    HW232751   0.045   4.395   2.017  0.1091  1.2370  0.9798
 7097SOL     OW32752   0.369   1.473   0.311  0.0644 -0.4370 -0.2370
 7097SOL    HW132753   0.320   1.459   0.392 -0.8320  2.1132 -0.3306
 7097SOL    HW232754   0.406   1.559   0.327 -1.5220 -0.0199  1.2817
 7098SOL     OW32755   0.699   2.878  11.551  0.6565  0.1188  0.2953
 7098SOL    HW132756   0.617   2.867  11.502  0.2219  0.8986  0.8570
 7098SOL    HW232757   0.748   2.806  11.510 -0.2412 -0.3579  0.0606
 7099SOL     OW32758   3.436   2.199   3.357  0.3965 -1.0468 -0.1672
 7099SOL    HW132759   3.441   2.294   3.364  1.2581 -1.0198 -1.2050
 7099SOL    HW232760   3.462   2.192   3.266  0.9616  1.2577 -0.1758
 7100SOL     OW32761   2.009   3.092  12.870  0.1485 -0.0040  0.6280
 7100SOL    HW132762   1.938   3.031  12.853 -1.4550  1.6896  1.2014
 7100SOL    HW232763   1.967   3.178  12.858 -0.2258 -0.1920  0.6053
 7101SOL     OW32764   2.850   0.981   7.843 -0.0096  0.5425  0.3883
 7101SOL    HW132765   2.928   1.017   7.802  1.5220 -0.2628  2.5901
 7101SOL    HW232766   2.839   0.904   7.786  0.8065  1.8543 -1.5511
 7102SOL     OW32767   0.094   4.534   7.571 -0.4044  0.4395  0.6146
 7102SOL    HW132768   0.068   4.618   7.531 -0.7495 -0.7862 -1.7203
 7102SOL    HW232769   0.169   4.514   7.515 -0.8610 -1.2870  0.6333
 7103SOL     OW32770   0.039   3.256   4.986  0.4810  0.0188  0.0854
 7103SOL    HW132771   0.012   3.220   4.902 -2.1691 -0.1721  1.0133
 7103SOL    HW232772   0.092   3.185   5.021 -0.7773  0.6391  3.2995
 7104SOL     OW32773   2.291   4.281   3.562  0.4656 -0.1462 -0.4095
 7104SOL    HW132774   2.315   4.280   3.655 -1.2920  0.5511  0.0483
 7104SOL    HW232775   2.262   4.191   3.547 -0.3150 -0.0358  0.4043
 7105SOL     OW32776   1.860   2.145   5.689 -0.2139  0.3376 -0.4232
 7105SOL    HW132777   1.780   2.130   5.740 -1.5650  0.6685 -2.4338
 7105SOL    HW232778   1.858   2.241   5.683 -0.8784  0.2383 -1.8936
 7106SOL     OW32779   1.205   3.417  13.660 -0.2432  0.3223 -0.1859
 7106SOL    HW132780   1.163   3.501  13.681  3.1666  1.6568  1.2491
 7106SOL    HW232781   1.259   3.431  13.583  1.1402  0.1743  0.7453
 7107SOL     OW32782   4.509   0.598   0.438 -0.2509  0.1195 -0.2936
 7107SOL    HW132783   4.473   0.684   0.415 -1.4320 -0.6332 -1.2853
 7107SOL    HW232784   4.426   0.551   0.434 -1.1822  1.7301  0.5839
 7108SOL     OW32785   4.256   0.921   3.453 -0.1063  0.5478  0.2819
 7108SOL    HW132786   4.208   0.970   3.520  1.0605  1.8815  0.1473
 7108SOL    HW232787   4.199   0.844   3.454  0.7435 -0.0950 -1.5262
 7109SOL     OW32788   2.982   3.316   4.236  0.2315 -0.2608 -0.3132
 7109SOL    HW132789   2.888   3.331   4.250  0.1075  1.2789 -2.7806
 7109SOL    HW232790   2.976   3.221   4.249  1.4097 -0.2701  0.1511
 7110SOL     OW32791   4.302   4.300  13.315  0.2267  0.6999  0.6115
 7110SOL    HW132792   4.262   4.317  13.230  1.0176  1.6604  0.4302
 7110SOL    HW232793   4.277   4.209  13.329 -1.5554  1.0258 -0.4560
 7111SOL     OW32794   2.462   4.647  13.134 -0.0283  0.1736 -0.0764
 7111SOL    HW132795   2.554   4.618  13.132  0.7005  2.5952 -1.3165
 7111SOL    HW232796   2.470   0.012  13.173 -1.3411  0.2261  0.0509
 7112SOL     OW32797   4.623   1.200   5.915 -0.1011  0.2923 -0.4732
 7112SOL    HW132798   4.692   1.246   5.961  0.2473 -0.5164 -0.1790
 7112SOL    HW232799   4.662   1.138   5.854 -3.3584 -1.5456 -0.7169
 7113SOL     OW32800   0.297   2.647   3.360  0.5491  0.1168 -0.4313
 7113SOL    HW132801   0.224   2.588   3.377  1.1643 -1.0036 -1.6605
 7113SOL    HW232802   0.359   2.581   3.329 -0.9623 -1.3045 -0.4130
 7114SOL     OW32803   2.649   2.405   3.494  0.5755  0.0227 -0.3979
 7114SOL    HW132804   2.654   2.334   3.558  2.5439  0.9975  0.5397
 7114SOL    HW232805   2.593   2.362   3.430  0.5272 -0.4963 -0.0116
 7115SOL     OW32806   2.991   2.067  13.861  0.2287  0.3501 -0.1578
 7115SOL    HW132807   3.065   2.087  13.804  1.7610 -0.8543  1.4277
 7115SOL    HW232808   2.949   2.152  13.874  0.4698  0.1152  2.2426
 7116SOL     OW32809   4.259   1.463   4.269  0.4186 -0.9901 -0.4149
 7116SOL    HW132810   4.172   1.448   4.233  0.4649  0.9971 -1.4160
 7116SOL    HW232811   4.237   1.514   4.347  0.6680  2.2623 -2.4705
 7117SOL     OW32812   1.199   2.650   7.335  0.6090 -0.0986 -0.2212
 7117SOL    HW132813   1.228   2.660   7.245  0.8625  1.8364  0.0749
 7117SOL    HW232814   1.270   2.685   7.389 -0.3571 -0.0524  1.0362
 7118SOL     OW32815   2.234   4.164  16.463  0.4038  0.1314  0.1277
 7118SOL    HW132816   2.302   4.191  16.401 -1.5963 -0.4660 -2.3225
 7118SOL    HW232817   2.159   4.222  16.452 -0.1507 -0.5811  0.1872
 7119SOL     OW32818   0.658   2.642   5.353 -0.1910  0.6881  0.4061
 7119SOL    HW132819   0.590   2.683   5.407  0.0095  1.8836 -0.2374
 7119SOL    HW232820   0.606   2.615   5.277  1.4581  0.8889 -0.7905
 7120SOL     OW32821   2.418   3.166   6.979 -0.0788 -0.6269  0.0632
 7120SOL    HW132822   2.469   3.208   7.048  0.1197 -0.1828 -0.3566
 7120SOL    HW232823   2.491   3.157   6.917 -0.7070  1.4959 -0.9789
 7121SOL     OW32824   4.473   3.284   8.437  0.4188  0.3135  0.3900
 7121SOL    HW132825   4.505   3.202   8.398  0.8343  0.5008  0.3403
 7121SOL    HW232826   4.562   3.311   8.460  1.0516 -1.5979  0.2114
 7122SOL     OW32827   4.154   4.421  12.036  0.7532  0.3414 -0.2938
 7122SOL    HW132828   4.235   4.375  12.060 -1.4155 -2.4051  1.6273
 7122SOL    HW232829   4.176   4.468  11.955  2.3772  1.6306  0.8756
 7123SOL     OW32830   1.951   2.792   9.630  0.3969 -0.2355 -0.1561
 7123SOL    HW132831   1.890   2.724   9.660 -0.2458  0.9873  1.3232
 7123SOL    HW232832   1.925   2.806   9.539 -0.2403  0.5547  0.1507
 7124SOL     OW32833   4.505   4.264  15.424  0.6045  0.1183 -0.9966
 7124SOL    HW132834   4.428   4.224  15.383  3.0103 -1.6004 -3.8309
 7124SOL    HW232835   4.578   4.205  15.407 -0.1523 -0.6760 -1.5187
 7125SOL     OW32836   3.609   1.509  11.122  0.2623  0.0889 -0.1575
 7125SOL    HW132837   3.656   1.491  11.204  2.4075 -1.0424 -1.6395
 7125SOL    HW232838   3.686   1.490  11.069 -1.1640 -1.0975 -1.8319
 7126SOL     OW32839   4.593   1.850   9.577  0.1490 -0.2221  0.1974
 7126SOL    HW132840   4.663   1.822   9.518  1.1283  2.8678 -0.1442
 7126SOL    HW232841   4.650   1.897   9.637 -0.9076  1.4966 -0.1256
 7127SOL     OW32842   1.067   0.156   1.907 -0.1706 -0.0015  0.1792
 7127SOL    HW132843   1.087   0.219   1.837 -2.4959 -1.8106 -2.0833
 7127SOL    HW232844   0.984   0.118   1.880 -0.7866  1.3984  0.0957
 7128SOL     OW32845   2.973   2.454  15.084 -0.2705  0.0762 -0.1697
 7128SOL    HW132846   2.880   2.465  15.065 -0.3337 -1.1471 -0.5921
 7128SOL    HW232847   3.005   2.453  14.994 -0.8545 -0.7246 -0.3721
 7129SOL     OW32848   2.057   0.398   3.583  0.4054 -0.2653  0.1159
 7129SOL    HW132849   2.024   0.317   3.620  0.0732  0.2248  0.8974
 7129SOL    HW232850   2.082   0.447   3.661 -0.8226  0.4286  0.0677
 7130SOL     OW32851   0.018   2.158  15.215 -0.2413 -0.9684 -0.0339
 7130SOL    HW132852   0.052   2.236  15.258  1.6114 -1.4804 -0.5573
 7130SOL    HW232853   0.090   2.117  15.168  0.0956  3.4306 -3.3576
 7131SOL     OW32854   2.891   1.145   9.155  0.5771  0.1478  0.2246
 7131SOL    HW132855   2.922   1.176   9.070  0.6587  1.8125  0.8790
 7131SOL    HW232856   2.884   1.050   9.146  0.2769  0.0753  1.1683
 7132SOL     OW32857   2.143   3.792  13.064  0.5624  0.0663  0.2717
 7132SOL    HW132858   2.145   3.741  13.146 -0.7461  0.8515  0.7914
 7132SOL    HW232859   2.187   3.869  13.098 -0.5285  0.3553  1.0364
 7133SOL     OW32860   0.014   4.337   1.154  0.2432  0.0957 -0.1141
 7133SOL    HW132861   0.096   4.374   1.188  0.5725  0.9737 -1.8784
 7133SOL    HW232862   4.688   4.341   1.238 -1.5092  2.2309 -1.2075
 7134SOL     OW32863   3.603   2.799   3.116  0.2201  0.2248  0.1841
 7134SOL    HW132864   3.512   2.802   3.089  0.0877 -0.8240  0.4947
 7134SOL    HW232865   3.617   2.893   3.103 -2.9645  0.7495  0.7823
 7135SOL     OW32866   0.168   3.623   4.352  0.0229  0.5150  0.4442
 7135SOL    HW132867   0.097   3.654   4.296  0.0793  1.3623  0.8331
 7135SOL    HW232868   0.181   3.532   4.325  1.0547  0.5723  0.7308
 7136SOL     OW32869   0.501   2.109   0.646  0.5880 -0.6150 -0.0500
 7136SOL    HW132870   0.506   2.020   0.681 -0.5871 -0.4181  0.5997
 7136SOL    HW232871   0.542   2.095   0.560  0.8962  2.7446 -0.4572
 7137SOL     OW32872   4.012   2.924   2.427 -0.3780 -0.6039 -0.6355
 7137SOL    HW132873   4.081   2.990   2.429 -1.3424  0.3705  0.7489
 7137SOL    HW232874   4.038   2.865   2.357  1.0712 -0.4427 -0.2371
 7138SOL     OW32875   4.021   1.298   1.145  0.2236 -0.2168 -0.1718
 7138SOL    HW132876   4.055   1.209   1.147  1.7428  0.2327 -5.2398
 7138SOL    HW232877   4.066   1.340   1.072  1.5607 -0.7090  0.3696
 7139SOL     OW32878   0.894   0.996   5.121  0.7177 -0.0012  0.1712
 7139SOL    HW132879   0.937   0.939   5.184  1.2878  0.5899  0.3106
 7139SOL    HW232880   0.905   1.082   5.161 -2.0899  0.9855 -1.1641
 7140SOL     OW32881   1.958   1.304   5.053 -0.5903  0.2785 -0.1449
 7140SOL    HW132882   1.893   1.373   5.066  0.2470  0.7378  1.5218
 7140SOL    HW232883   1.888   1.252   5.014 -0.7469  1.5662 -1.5954
 7141SOL     OW32884   0.634   1.997   6.925 -0.0589  0.2347  0.1800
 7141SOL    HW132885   0.546   1.964   6.940  0.9346 -2.8716 -0.7925
 7141SOL    HW232886   0.679   1.922   6.966  1.5626  1.1078  0.0247
 7142SOL     OW32887   2.846   1.519   6.427  0.1413 -0.5082 -0.2018
 7142SOL    HW132888   2.916   1.463   6.463  0.2269 -1.1641 -1.3868
 7142SOL    HW232889   2.893   1.570   6.361  1.1073 -1.5369 -0.3171
 7143SOL     OW32890   0.482   1.538   7.437 -0.5469  0.1162 -0.5910
 7143SOL    HW132891   0.523   1.483   7.371 -1.7418 -0.1666 -1.0944
 7143SOL    HW232892   0.449   1.610   7.384 -0.8713  0.7405  0.4490
 7144SOL     OW32893   4.035   4.647   6.271 -0.3315  0.3947 -0.0540
 7144SOL    HW132894   4.101   4.595   6.225 -2.8122 -2.6794 -0.2193
 7144SOL    HW232895   3.982   4.693   6.206 -0.5826  0.4219  0.1702
 7145SOL     OW32896   0.382   4.388   6.817  0.0543  0.1899  0.3879
 7145SOL    HW132897   0.303   4.420   6.861 -0.3357 -1.5905  0.9763
 7145SOL    HW232898   0.356   4.371   6.727  1.9357  0.1330 -0.1511
 7146SOL     OW32899   0.547   0.656   6.914 -0.0453 -0.0641  0.0326
 7146SOL    HW132900   0.562   0.565   6.940 -1.7845  0.1330  1.7020
 7146SOL    HW232901   0.604   0.700   6.977 -0.1778 -0.0165  0.1214
 7147SOL     OW32902   1.424   2.966   6.654 -0.6098  0.2104 -0.1605
 7147SOL    HW132903   1.344   2.914   6.661  0.2283 -0.9794  0.5833
 7147SOL    HW232904   1.496   2.905   6.637 -2.9813 -1.7534 -3.0676
 7148SOL     OW32905   0.561   2.105   1.170  0.4916  0.0537 -0.0484
 7148SOL    HW132906   0.486   2.085   1.227  0.4507  0.9313  0.2039
 7148SOL    HW232907   0.515   2.111   1.086 -0.4266  1.1986  0.5347
 7149SOL     OW32908   1.909   1.360   6.806  0.6256 -0.1782 -0.3376
 7149SOL    HW132909   1.945   1.272   6.815 -1.0745 -1.0837 -2.4257
 7149SOL    HW232910   1.934   1.394   6.720  2.5861  0.9960  0.6927
 7150SOL     OW32911   1.424   2.111   7.790  0.2319 -0.2310 -0.3041
 7150SOL    HW132912   1.364   2.084   7.720  0.9463 -0.0483 -0.9779
 7150SOL    HW232913   1.481   2.036   7.806  1.1393  0.3889 -0.6241
 7151SOL     OW32914   2.582   3.214   4.050 -0.0276  0.8317 -0.3683
 7151SOL    HW132915   2.642   3.140   4.044  0.4542  1.2931 -1.0773
 7151SOL    HW232916   2.639   3.274   4.098 -0.7176  1.4075 -0.2638
 7152SOL     OW32917   3.659   2.597   6.915  0.2044  0.6566  0.3794
 7152SOL    HW132918   3.687   2.531   6.978  0.6375  1.9803  1.5821
 7152SOL    HW232919   3.580   2.557   6.881  0.4687 -1.7198  2.5810
 7153SOL     OW32920   0.677   0.363  14.040 -0.5446  0.1601  0.0173
 7153SOL    HW132921   0.721   0.341  13.958 -1.7811  1.9838 -1.1442
 7153SOL    HW232922   0.739   0.431  14.063  2.8603 -3.3630  1.2539
 7154SOL     OW32923   3.824   0.627   2.460  0.8506  0.2783 -0.3504
 7154SOL    HW132924   3.809   0.647   2.368 -0.6961 -2.6635 -0.7340
 7154SOL    HW232925   3.859   0.714   2.479  0.5381  0.3157  0.0355
 7155SOL     OW32926   1.203   2.569   0.300  0.1729  0.4728 -0.0538
 7155SOL    HW132927   1.232   2.547   0.389  0.8247  0.9644 -0.1458
 7155SOL    HW232928   1.220   2.490   0.250  0.9409  0.6729 -0.1132
 7156SOL     OW32929   3.134   1.567   2.425 -0.2798 -0.4218  0.3954
 7156SOL    HW132930   3.173   1.484   2.396 -0.2989 -0.7479  1.3005
 7156SOL    HW232931   3.113   1.552   2.517  0.2152 -1.8087  0.2784
 7157SOL     OW32932   1.709   2.331  12.835 -1.3192 -0.0195  0.2296
 7157SOL    HW132933   1.684   2.259  12.777  0.7545  0.2295 -0.9681
 7157SOL    HW232934   1.713   2.292  12.923 -0.5436 -0.5608 -0.0467
 7158SOL     OW32935   2.037   3.498  17.231 -0.1497  0.2687 -0.2862
 7158SOL    HW132936   2.120   3.522  17.190 -0.6828 -1.1105 -2.2033
 7158SOL    HW232937   1.980   3.574  17.217  0.6715  1.2419  1.7156
 7159SOL     OW32938   1.431   4.517  12.400  0.4918 -0.0954 -0.0643
 7159SOL    HW132939   1.506   4.498  12.343  1.1795 -0.0308  0.8206
 7159SOL    HW232940   1.480   4.509  12.482  0.9457  1.2138 -0.2082
 7160SOL     OW32941   2.775   2.301   5.874  0.0467 -0.2500 -0.2649
 7160SOL    HW132942   2.772   2.396   5.869  0.1124 -0.2865 -0.9356
 7160SOL    HW232943   2.684   2.272   5.864  0.2130 -1.0644  0.4994
 7161SOL     OW32944   0.164   4.029   6.564 -0.2271  0.4583  0.1690
 7161SOL    HW132945   0.245   4.050   6.519  1.1171 -0.5978  2.0993
 7161SOL    HW232946   0.196   4.051   6.652 -0.7319 -1.2825  0.8004
 7162SOL     OW32947   2.549   3.255   2.166 -0.0683  0.5367 -0.2953
 7162SOL    HW132948   2.638   3.223   2.186  0.7782  2.8452 -0.3667
 7162SOL    HW232949   2.559   3.315   2.092 -1.8687  3.0500  1.5220
 7163SOL     OW32950   4.390   0.491   8.739  0.6682  0.3054 -0.4229
 7163SOL    HW132951   4.471   0.486   8.689  1.0482 -2.0266  0.4161
 7163SOL    HW232952   4.422   0.544   8.812 -0.3250 -2.9782  2.4572
 7164SOL     OW32953   2.011   4.014  13.524 -0.2757 -0.3957  0.0023
 7164SOL    HW132954   1.969   4.094  13.556  1.0587  0.4647 -0.4127
 7164SOL    HW232955   2.100   4.050  13.521 -0.0261 -0.9110  0.9881
 7165SOL     OW32956   3.714   4.173   4.146 -0.4264 -0.2346  0.5078
 7165SOL    HW132957   3.680   4.206   4.063  2.1780  0.7631 -0.1582
 7165SOL    HW232958   3.800   4.139   4.121  0.0075  0.1685  1.4567
 7166SOL     OW32959   3.393   1.609   3.439  0.0067 -0.1477  0.6642
 7166SOL    HW132960   3.447   1.539   3.403  0.4336  0.3097  0.4209
 7166SOL    HW232961   3.404   1.675   3.370 -2.0229 -0.3687  0.1349
 7167SOL     OW32962   3.649   0.154  14.981  0.0222 -0.6147  0.2089
 7167SOL    HW132963   3.678   0.240  15.011 -0.2721 -0.4762  0.0919
 7167SOL    HW232964   3.717   0.096  15.017 -0.9864  0.2525  3.5512
 7168SOL     OW32965   1.185   2.811  16.344 -0.8663  0.1213 -0.4258
 7168SOL    HW132966   1.173   2.906  16.347  1.7921  0.3975  1.2115
 7168SOL    HW232967   1.256   2.805  16.408 -0.7565 -2.4638 -0.7870
 7169SOL     OW32968   2.294   0.333  12.918  0.1738 -0.0304 -0.4478
 7169SOL    HW132969   2.321   0.242  12.931  0.7672  0.6600  3.3094
 7169SOL    HW232970   2.208   0.323  12.960  0.0354 -0.3763 -0.8192
 7170SOL     OW32971   2.502   1.037  10.329 -0.1967  0.1563 -0.0854
 7170SOL    HW132972   2.457   1.020  10.246 -0.7927  1.2426  0.0168
 7170SOL    HW232973   2.486   0.960  10.384  0.6096 -0.8847 -1.3300
 7171SOL     OW32974   2.213   1.127   0.159  0.2971 -0.1021 -0.5115
 7171SOL    HW132975   2.198   1.199   0.221 -2.0668 -1.3742  0.3837
 7171SOL    HW232976   2.228   1.054   0.219 -0.8082 -1.4109 -1.8210
 7172SOL     OW32977   1.108   1.857   8.172  0.1267  0.6581  0.2406
 7172SOL    HW132978   1.064   1.935   8.204  1.7278  1.5181  0.3665
 7172SOL    HW232979   1.066   1.845   8.087 -0.0225 -2.1834  0.7005
 7173SOL     OW32980   2.379   1.257   6.018 -0.6295 -0.0183 -0.3827
 7173SOL    HW132981   2.412   1.173   5.987  1.7313  0.0365  1.9720
 7173SOL    HW232982   2.460   1.303   6.038 -0.0839 -0.4901 -1.5185
 7174SOL     OW32983   2.065   3.043   2.974 -0.0766 -0.1147  0.2270
 7174SOL    HW132984   2.052   2.978   2.904 -1.5735  0.8681 -0.4038
 7174SOL    HW232985   2.082   3.124   2.925 -2.0993 -0.3383 -0.8186
 7175SOL     OW32986   3.803   3.290   1.355 -0.0719 -0.0190 -0.3978
 7175SOL    HW132987   3.786   3.381   1.330  0.1604  0.4116  1.0044
 7175SOL    HW232988   3.876   3.272   1.296 -0.5125  0.1018 -0.9811
 7176SOL     OW32989   3.907   1.433   5.536  0.0007  0.3564  0.8318
 7176SOL    HW132990   3.924   1.519   5.497 -0.1168  0.6415  1.4177
 7176SOL    HW232991   3.977   1.376   5.505 -0.5263  0.4149 -0.5065
 7177SOL     OW32992   0.536   0.679   3.049  0.2702  0.4955 -0.5334
 7177SOL    HW132993   0.575   0.674   3.136  0.8425  0.2133 -0.8030
 7177SOL    HW232994   0.605   0.647   2.991 -1.2915  0.5087 -2.4180
 7178SOL     OW32995   2.618   4.200  11.682 -0.2701 -0.3547 -0.3473
 7178SOL    HW132996   2.625   4.162  11.769 -1.5601  0.9160  0.2941
 7178SOL    HW232997   2.670   4.144  11.624  1.2739 -0.0140  0.7243
 7179SOL     OW32998   4.080   4.350   9.496 -0.4633  0.3760 -0.8159
 7179SOL    HW132999   4.020   4.418   9.465 -0.3055  0.1592 -1.5955
 7179SOL    HW233000   4.041   4.278   9.447 -1.5047  1.8771 -2.1827
 7180SOL     OW33001   0.482   3.325   4.875  0.1746 -0.0590 -0.0964
 7180SOL    HW133002   0.513   3.367   4.956  1.6408  0.0523 -0.7132
 7180SOL    HW233003   0.527   3.384   4.814 -2.1256  1.4513 -0.3120
 7181SOL     OW33004   4.609   0.858   3.446  0.3173 -0.0109  0.3984
 7181SOL    HW133005   4.576   0.888   3.361  0.2841 -1.1261  0.0085
 7181SOL    HW233006   4.703   0.849   3.431  0.0334  0.0964 -1.4438
 7182SOL     OW33007   3.568   4.206   5.007  0.1919 -0.5950  0.9444
 7182SOL    HW133008   3.515   4.129   5.028  1.3792 -1.8136 -0.4902
 7182SOL    HW233009   3.563   4.201   4.911 -1.7291 -0.5749  1.0464
 7183SOL     OW33010   0.790   2.695   4.759 -0.2369 -0.2798 -0.0563
 7183SOL    HW133011   0.798   2.784   4.726 -3.0988  0.0737  0.1420
 7183SOL    HW233012   0.824   2.698   4.849  1.0747 -2.9301 -0.4706
 7184SOL     OW33013   2.252   0.085   7.626  0.2330 -0.0667  0.0630
 7184SOL    HW133014   2.289   0.021   7.687 -0.3786 -0.9329 -0.4805
 7184SOL    HW233015   2.159   0.090   7.646  0.0028 -0.6776 -0.8843
 7185SOL     OW33016   4.080   3.997   3.608  0.1549  0.7940  0.2614
 7185SOL    HW133017   4.112   3.970   3.523  0.2021  2.2123 -0.1747
 7185SOL    HW233018   4.062   3.907   3.633  0.3095  0.3233 -1.3546
 7186SOL     OW33019   2.742   3.585   7.470 -0.3326  0.2307 -0.3510
 7186SOL    HW133020   2.672   3.526   7.498 -0.3440  0.4651  0.1117
 7186SOL    HW233021   2.796   3.529   7.414  0.8555  0.7160  0.3316
 7187SOL     OW33022   0.327   2.412  11.849 -0.0173  0.6106 -0.0833
 7187SOL    HW133023   0.337   2.370  11.764 -1.1559 -1.1553  0.6381
 7187SOL    HW233024   0.332   2.504  11.824  0.4082  0.0487 -2.0668
 7188SOL     OW33025   3.225   2.941   8.646 -0.0991 -0.0922 -0.2469
 7188SOL    HW133026   3.274   3.008   8.695 -0.4136  0.8218 -1.1889
 7188SOL    HW233027   3.182   2.999   8.583  2.1231  0.1296 -1.5474
 7189SOL     OW33028   2.000   0.377   3.104  0.5790  0.3373  0.1525
 7189SOL    HW133029   1.946   0.456   3.110 -0.6735 -0.6502  1.7713
 7189SOL    HW233030   2.086   0.418   3.095  0.3514  0.8736  0.3977
 7190SOL     OW33031   0.310   3.042   7.755 -0.2312  0.2999  0.0330
 7190SOL    HW133032   0.241   3.006   7.698 -0.4436 -0.0109  0.4875
 7190SOL    HW233033   0.384   2.984   7.737 -0.6594 -0.7117  1.4686
 7191SOL     OW33034   2.967   0.621   4.756 -0.2741 -0.1660 -0.1218
 7191SOL    HW133035   2.921   0.682   4.814 -2.3635 -1.0962 -0.8122
 7191SOL    HW233036   2.893   0.569   4.724 -0.3166 -1.1507  1.5554
 7192SOL     OW33037   1.758   0.991   4.650 -0.2392  0.1597 -0.0098
 7192SOL    HW133038   1.678   0.949   4.618  0.2557 -1.6918  1.1980
 7192SOL    HW233039   1.793   1.035   4.572 -0.1362 -1.9797 -1.1690
 7193SOL     OW33040   2.842   2.233   2.777 -0.5764  0.6146  0.2609
 7193SOL    HW133041   2.756   2.271   2.795 -0.6942  1.9847 -3.0555
 7193SOL    HW233042   2.829   2.213   2.684  3.2696  0.0011 -0.1448
 7194SOL     OW33043   4.720   2.021   8.139 -0.0305  0.1052  0.3518
 7194SOL    HW133044   0.069   2.084   8.157  0.9207 -0.8352 -0.0983
 7194SOL    HW233045   4.683   2.008   8.226  1.3447 -0.5846  0.8261
 7195SOL     OW33046   0.658   2.354   1.674 -0.8062  0.1319  0.0800
 7195SOL    HW133047   0.637   2.391   1.759 -1.4842 -0.4481  0.1668
 7195SOL    HW233048   0.628   2.264   1.683 -1.3213  0.4400  1.4235
 7196SOL     OW33049   0.210   3.824   8.555 -0.3911 -0.2228  0.1108
 7196SOL    HW133050   0.265   3.771   8.497 -0.5265 -1.4796  1.1378
 7196SOL    HW233051   0.139   3.767   8.582  0.1114 -1.8914 -2.0737
 7197SOL     OW33052   0.698   1.369   9.999 -0.3576 -0.1653  0.5545
 7197SOL    HW133053   0.703   1.283   9.957  2.8073  0.6499 -0.7235
 7197SOL    HW233054   0.604   1.387  10.003 -0.4051 -0.3374  0.2137
 7198SOL     OW33055   1.944   0.657   8.662  0.3760 -0.0150 -0.0757
 7198SOL    HW133056   1.989   0.629   8.742  0.7380 -1.5832 -0.8380
 7198SOL    HW233057   1.876   0.590   8.658  1.0418 -0.6621 -0.5269
 7199SOL     OW33058   2.498   0.245   7.781 -0.2852  0.1488  0.3669
 7199SOL    HW133059   2.410   0.283   7.771  0.1614  0.8425 -0.9016
 7199SOL    HW233060   2.543   0.322   7.815 -1.1126  0.4819  0.7171
 7200SOL     OW33061   2.677   2.791   2.271  0.2141 -0.3049  0.1431
 7200SOL    HW133062   2.767   2.756   2.272  0.4608  0.3585  1.7120
 7200SOL    HW233063   2.675   2.838   2.188 -2.5394  1.0144  0.9890
 7201SOL     OW33064   0.243   1.113   2.205 -0.3735  0.2353  0.1433
 7201SOL    HW133065   0.330   1.107   2.246  0.0881  3.9188 -0.2581
 7201SOL    HW233066   0.253   1.043   2.141  0.6768  0.6030 -0.0984
 7202SOL     OW33067   4.237   4.487   9.696  0.1416  0.4770 -0.1209
 7202SOL    HW133068   4.180   4.438   9.636  0.1935 -1.9276  1.7990
 7202SOL    HW233069   4.285   4.535   9.629 -2.6231  3.2537 -0.1174
 7203SOL     OW33070   4.136   0.496   8.949  0.0767  0.1559  0.8513
 7203SOL    HW133071   4.057   0.476   8.998  0.9434 -2.6362  1.1137
 7203SOL    HW233072   4.179   0.411   8.938 -1.8190 -1.0069  2.4543
 7204SOL     OW33073   0.944   4.705   5.844 -0.1647 -0.2092  0.2569
 7204SOL    HW133074   0.995   0.037   5.905 -0.0079  0.1099 -0.1506
 7204SOL    HW233075   0.856   4.715   5.879 -0.6332 -0.8080 -0.7386
 7205SOL     OW33076   0.858   0.550  14.144 -0.0115  0.1952 -0.2485
 7205SOL    HW133077   0.816   0.511  14.220 -0.1492  1.9233  0.5765
 7205SOL    HW233078   0.932   0.493  14.124 -0.6947 -1.0893  0.9670
 7206SOL     OW33079   2.065   1.900   2.389  0.1707  0.4077 -0.3237
 7206SOL    HW133080   1.999   1.963   2.418 -0.7644 -0.6359 -0.1787
 7206SOL    HW233081   2.137   1.960   2.372  0.4529 -0.3873 -1.9709
 7207SOL     OW33082   0.293   3.224  17.085 -0.0065  0.0093 -0.1146
 7207SOL    HW133083   0.286   3.134  17.116  2.7309 -0.2147 -0.1769
 7207SOL    HW233084   0.339   3.207  17.003  1.4511  0.6767  0.5555
 7208SOL     OW33085   1.530   1.840  12.417  0.4999 -0.2174 -0.0882
 7208SOL    HW133086   1.472   1.916  12.422 -0.1723 -0.6174 -1.6919
 7208SOL    HW233087   1.549   1.838  12.323 -0.3877  4.6863 -0.3809
 7209SOL     OW33088   1.484   3.959   5.760  0.2028  0.3738  0.2904
 7209SOL    HW133089   1.510   3.871   5.731 -1.0438  0.1746 -0.2376
 7209SOL    HW233090   1.418   3.971   5.691  0.1189 -2.1870 -0.0820
 7210SOL     OW33091   0.367   3.575   3.265 -0.3279  0.6529  0.2285
 7210SOL    HW133092   0.274   3.564   3.287  0.1543 -1.2783  1.3101
 7210SOL    HW233093   0.405   3.604   3.348 -1.3711  1.1181  0.5459
 7211SOL     OW33094   0.803   1.599  11.641  0.2800 -0.0439 -0.1266
 7211SOL    HW133095   0.710   1.590  11.662  0.6920  0.3799  1.8504
 7211SOL    HW233096   0.815   1.692  11.660 -1.0296  0.6357 -2.5407
 7212SOL     OW33097   0.706   3.807   3.317  0.2531  0.5900  0.3126
 7212SOL    HW133098   0.711   3.804   3.221  0.6161  1.3899  0.3060
 7212SOL    HW233099   0.707   3.715   3.344 -2.5152 -0.0056 -1.6169
 7213SOL     OW33100   1.751   0.047   3.098 -0.0640 -0.3837 -0.2115
 7213SOL    HW133101   1.717   0.080   3.015  2.2715 -1.8479 -1.7600
 7213SOL    HW233102   1.846   0.040   3.097  0.0197  0.5470  1.5486
 7214SOL     OW33103   0.235   1.256  11.886  0.0626  0.3437  0.1657
 7214SOL    HW133104   0.277   1.317  11.946  0.0223  1.5761 -1.0587
 7214SOL    HW233105   0.202   1.192  11.949  0.6475 -0.7616 -0.6470
 7215SOL     OW33106   2.297   1.430   3.020 -0.2439 -0.2388 -0.4011
 7215SOL    HW133107   2.373   1.397   2.972  0.8073  0.6882  0.5943
 7215SOL    HW233108   2.350   1.494   3.069 -0.5751  0.9052 -1.5401
 7216SOL     OW33109   3.334   0.029  11.987 -0.2921  0.2179  0.1678
 7216SOL    HW133110   3.312   0.006  11.897 -2.4218  0.3619  0.6562
 7216SOL    HW233111   3.263   0.093  11.989  1.8485  2.6055 -0.1853
 7217SOL     OW33112   2.486   0.268  14.432  0.2596  0.3259  0.2268
 7217SOL    HW133113   2.398   0.291  14.463  0.1440 -0.2421  0.3234
 7217SOL    HW233114   2.464   0.178  14.407  0.3461  0.7651 -1.3916
 7218SOL     OW33115   4.233   3.353  17.504 -0.0517 -0.0019 -0.5108
 7218SOL    HW133116   4.301   3.323  17.565  0.4146 -0.5321 -1.2943
 7218SOL    HW233117   4.274   3.352  17.418  0.7964  0.7724 -0.1196
 7219SOL     OW33118   4.245   1.325  16.853  0.1015  0.7438  0.1151
 7219SOL    HW133119   4.201   1.241  16.843 -0.0753  0.9111 -0.5497
 7219SOL    HW233120   4.227   1.361  16.766 -0.5709  0.3108  0.0805
 7220SOL     OW33121   0.875   3.271  13.466 -0.1669  0.4369 -0.4022
 7220SOL    HW133122   0.971   3.271  13.461 -0.1324 -0.2017  0.1352
 7220SOL    HW233123   0.867   3.261  13.561 -1.0471  0.5248 -0.4670
 7221SOL     OW33124   2.551   4.462   6.775 -0.2865  0.5965  0.3315
 7221SOL    HW133125   2.473   4.411   6.800 -1.2675  0.6805 -2.6180
 7221SOL    HW233126   2.561   4.425   6.688  0.3765 -1.9227  1.4587
 7222SOL     OW33127   2.273   1.537   4.656  0.1629  0.2215 -0.3507
 7222SOL    HW133128   2.225   1.527   4.574 -0.5769  0.7038  0.0215
 7222SOL    HW233129   2.361   1.508   4.633  0.7393  0.0932  2.0169
 7223SOL     OW33130   0.037   1.905   3.339  0.4467  0.0713  0.1460
 7223SOL    HW133131   0.011   1.868   3.255 -0.8961 -1.1099  1.0791
 7223SOL    HW233132   4.673   1.938   3.368 -0.4140 -1.4832 -0.6301
 7224SOL     OW33133   0.043   1.126  12.028 -0.0478 -0.0077  0.2985
 7224SOL    HW133134   4.716   1.107  11.947  0.5787  1.9705 -0.5427
 7224SOL    HW233135   0.080   1.042  12.054  1.1334 -0.1385 -1.7741
 7225SOL     OW33136   3.877   0.577  11.055  0.5088  0.0349  0.4003
 7225SOL    HW133137   3.897   0.484  11.042  0.0760 -0.0607  0.3956
 7225SOL    HW233138   3.933   0.597  11.130 -1.5185 -2.2786  2.5828
 7226SOL     OW33139   2.180   4.091   3.940  0.0768  0.1444 -0.0932
 7226SOL    HW133140   2.184   4.146   3.862  0.1816  0.2945  0.0163
 7226SOL    HW233141   2.123   4.147   3.993  0.4830  0.0325  0.4680
 7227SOL     OW33142   2.945   3.988   2.503 -0.2222 -0.1897 -0.5475
 7227SOL    HW133143   2.969   4.031   2.585  1.9203  0.5019 -1.5468
 7227SOL    HW233144   3.026   3.939   2.490 -0.1534 -0.4931  1.0816
 7228SOL     OW33145   4.261   1.439  14.379 -0.1065 -0.4036  0.1150
 7228SOL    HW133146   4.214   1.403  14.304  1.5417  1.5991 -1.8698
 7228SOL    HW233147   4.258   1.362  14.436 -1.6199 -0.3600  0.0936
 7229SOL     OW33148   2.083   1.946   3.012  0.0211 -0.4347  0.1151
 7229SOL    HW133149   2.040   1.901   3.085 -2.0260 -0.2728 -0.9658
 7229SOL    HW233150   2.016   2.009   2.985 -0.1508 -1.4763 -1.9478
 7230SOL     OW33151   3.917   2.781   7.236 -0.6593  0.3897  0.2743
 7230SOL    HW133152   3.915   2.847   7.306  2.4884  0.9960 -0.1920
 7230SOL    HW233153   4.006   2.799   7.207 -0.6784  1.5910  0.9488
 7231SOL     OW33154   1.226   2.770   7.699  0.1361  0.2245  0.2559
 7231SOL    HW133155   1.167   2.770   7.775  2.2601 -0.7898  1.9158
 7231SOL    HW233156   1.266   2.683   7.707  0.2764  0.3670  1.1197
 7232SOL     OW33157   4.492   1.297   3.727  0.5217  0.2275  0.1300
 7232SOL    HW133158   4.532   1.254   3.802 -1.1497  0.4304  1.1187
 7232SOL    HW233159   4.571   1.318   3.676 -0.1779  1.1146 -0.6050
 7233SOL     OW33160   0.876   3.284  17.304  0.4087  0.0062 -0.4263
 7233SOL    HW133161   0.809   3.300  17.237  1.1170  0.6802 -0.9643
 7233SOL    HW233162   0.932   3.222  17.258  1.5007 -0.9334  2.1729
 7234SOL     OW33163   2.823   1.193   8.807 -0.2172 -0.4653 -0.1277
 7234SOL    HW133164   2.811   1.122   8.744 -3.1992  1.3597 -1.5984
 7234SOL    HW233165   2.886   1.148   8.864  0.7660  2.8342  1.3747
 7235SOL     OW33166   3.036   3.295   8.875 -0.5857 -0.1630 -0.3052
 7235SOL    HW133167   3.051   3.358   8.945  1.9771  2.7392 -3.4968
 7235SOL    HW233168   3.034   3.354   8.800  0.5776  0.1176 -0.1121
 7236SOL     OW33169   0.162   3.117  16.372 -0.5276 -0.1222  0.0274
 7236SOL    HW133170   0.186   3.037  16.324  1.6963  0.6925 -0.2056
 7236SOL    HW233171   0.206   3.180  16.315  2.4189 -1.0558  1.2427
 7237SOL     OW33172   0.279   2.895   6.134  0.5663  0.2456  0.3793
 7237SOL    HW133173   0.347   2.960   6.115 -1.6209  1.9248 -1.7295
 7237SOL    HW233174   0.278   2.872   6.227  0.2682 -1.4310 -0.0394
 7238SOL     OW33175   4.434   0.983   2.737  0.1243 -0.0409 -0.1786
 7238SOL    HW133176   4.339   0.976   2.725  0.2449 -2.1964  0.2333
 7238SOL    HW233177   4.443   1.025   2.823 -0.2717 -0.0077 -0.1508
 7239SOL     OW33178   1.685   0.229   6.590 -0.0735  0.0736  0.3021
 7239SOL    HW133179   1.591   0.223   6.607  0.1015  0.9957  1.6005
 7239SOL    HW233180   1.706   0.321   6.575 -0.4244  0.1398  0.2086
 7240SOL     OW33181   3.050   4.481   6.719  0.7529 -0.2625 -0.2144
 7240SOL    HW133182   3.044   4.573   6.695 -4.3249 -0.1474  1.4509
 7240SOL    HW233183   3.123   4.488   6.781  1.2409 -1.0563 -0.6953
 7241SOL     OW33184   3.629   1.394   5.528 -0.1380  0.5282  0.0125
 7241SOL    HW133185   3.642   1.454   5.454  2.3462  1.4587  1.1936
 7241SOL    HW233186   3.719   1.369   5.552 -0.6987 -2.7165 -1.2436
 7242SOL     OW33187   2.357   1.176   2.327 -0.0951 -0.6249  0.4548
 7242SOL    HW133188   2.298   1.106   2.356 -0.3931 -0.7932 -0.5876
 7242SOL    HW233189   2.294   1.247   2.317  0.9283  0.1292 -0.4592
 7243SOL     OW33190   2.824   0.873   1.715 -0.2878  0.0055 -0.1834
 7243SOL    HW133191   2.742   0.911   1.746 -2.4066 -2.0566 -3.3475
 7243SOL    HW233192   2.790   0.817   1.646 -0.9563 -1.8509  1.6594
 7244SOL     OW33193   0.167   0.002   3.866 -0.0477 -0.3073 -0.1017
 7244SOL    HW133194   0.142   0.074   3.808  3.2706  2.0597  1.4123
 7244SOL    HW233195   0.141   4.644   3.819  1.7397  0.7721 -2.8663
 7245SOL     OW33196   0.997   3.228   4.137  0.5052  0.1237 -0.1108
 7245SOL    HW133197   1.080   3.201   4.176 -0.9364  1.0535  3.6647
 7245SOL    HW233198   1.029   3.289   4.070 -0.3558  0.7227  0.0287
 7246SOL     OW33199   3.628   0.027   3.385  0.4530 -0.1958  0.2764
 7246SOL    HW133200   3.714   0.022   3.427  0.0053  0.2554  1.2497
 7246SOL    HW233201   3.600   0.113   3.417  0.5684 -0.1972  0.3830
 7247SOL     OW33202   0.501   0.291  11.212 -0.0690 -0.2513  0.1104
 7247SOL    HW133203   0.407   0.292  11.230  0.1609  1.4103  1.1667
 7247SOL    HW233204   0.505   0.260  11.122  0.1782 -0.5596  0.2288
 7248SOL     OW33205   2.336   3.703   5.547 -0.1085  0.3029 -0.7766
 7248SOL    HW133206   2.259   3.754   5.573 -0.6376 -0.7695 -0.2423
 7248SOL    HW233207   2.401   3.772   5.533  0.7110 -0.7880 -2.3563
 7249SOL     OW33208   4.277   4.345  11.016 -0.2647 -0.2327  0.0009
 7249SOL    HW133209   4.257   4.260  11.054 -2.1533  0.7936  1.3050
 7249SOL    HW233210   4.212   4.354  10.946  0.0074  1.1016 -0.0806
 7250SOL     OW33211   4.539   2.925   7.795 -0.0682 -0.0459 -0.0903
 7250SOL    HW133212   4.446   2.902   7.803 -0.1388 -0.4974 -2.0974
 7250SOL    HW233213   4.583   2.856   7.845  0.4138  1.2892  1.3208
 7251SOL     OW33214   2.022   0.311   6.580  0.1703  0.2330 -0.2064
 7251SOL    HW133215   1.975   0.264   6.511  1.2317 -2.3040  0.7985
 7251SOL    HW233216   1.986   0.397   6.559  1.6818  0.4253 -1.9524
 7252SOL     OW33217   2.272   1.231   6.273 -0.1786 -0.4702 -0.2765
 7252SOL    HW133218   2.310   1.264   6.191 -3.5854  1.8749 -0.9416
 7252SOL    HW233219   2.201   1.172   6.248 -0.4037 -0.1116 -0.4888
 7253SOL     OW33220   4.457   2.295  12.669 -0.1842 -0.1342 -0.2208
 7253SOL    HW133221   4.395   2.358  12.634 -0.2903  0.1209  0.4399
 7253SOL    HW233222   4.411   2.211  12.663  1.4108 -1.1106  1.4955
 7254SOL     OW33223   4.580   1.828   1.924  0.3915 -1.0116  0.1751
 7254SOL    HW133224   4.667   1.788   1.911  0.5664 -0.1971 -1.1242
 7254SOL    HW233225   4.608   1.919   1.915 -1.3127 -0.7524 -2.4909
 7255SOL     OW33226   2.620   0.908   2.863  0.3629 -0.0794  0.6800
 7255SOL    HW133227   2.666   0.824   2.857 -0.9738 -0.7625  0.0005
 7255SOL    HW233228   2.678   0.964   2.915  1.1109 -1.1031  0.9348
 7256SOL     OW33229   0.636   3.159  11.266 -0.8492 -0.3305 -0.3061
 7256SOL    HW133230   0.596   3.221  11.206 -0.0498  0.8601  0.3966
 7256SOL    HW233231   0.605   3.073  11.237  1.0598 -1.3399  0.6255
 7257SOL     OW33232   0.167   2.194   3.640 -0.5160 -0.2847  0.2890
 7257SOL    HW133233   0.246   2.165   3.596 -0.5783 -0.5415  0.3464
 7257SOL    HW233234   0.177   2.283   3.673 -1.2536  0.5892 -1.8177
 7258SOL     OW33235   0.879   2.235   0.605  0.3295 -0.0708  0.6329
 7258SOL    HW133236   0.925   2.206   0.525  0.8949  0.8691  0.6170
 7258SOL    HW233237   0.942   2.214   0.674  2.4865  0.4154 -1.1740
 7259SOL     OW33238   4.460   2.352  13.756 -0.0224 -0.3297 -0.1613
 7259SOL    HW133239   4.551   2.361  13.785 -0.1609  1.5385 -0.2492
 7259SOL    HW233240   4.432   2.287  13.820 -1.4029  0.4979  0.0811
 7260SOL     OW33241   2.029   3.040  13.536  0.3432 -0.0772  0.2039
 7260SOL    HW133242   1.944   3.074  13.507  0.7543  0.4499 -0.3906
 7260SOL    HW233243   2.060   2.991  13.459  0.1824 -1.6389  1.1334
 7261SOL     OW33244   0.677   1.662   0.869  0.0498 -0.7565 -0.1254
 7261SOL    HW133245   0.706   1.717   0.941 -1.0403  1.1767 -1.1357
 7261SOL    HW233246   0.698   1.573   0.896 -1.2343 -0.6391  1.2611
 7262SOL     OW33247   3.575   1.015   6.951  0.7888 -0.4983 -0.0394
 7262SOL    HW133248   3.661   1.040   6.985  0.7347  0.2988 -0.5029
 7262SOL    HW233249   3.563   1.083   6.886 -0.2048  0.5648  1.2613
 7263SOL     OW33250   0.535   2.870   8.873  0.5822 -0.0955  0.0498
 7263SOL    HW133251   0.464   2.928   8.901  1.0166  0.7447 -0.5732
 7263SOL    HW233252   0.561   2.845   8.962 -2.1014  1.1304  1.1857
 7264SOL     OW33253   3.146   2.678   3.812 -0.2480 -0.2696  0.5050
 7264SOL    HW133254   3.185   2.597   3.779 -0.7999 -0.2895 -0.0861
 7264SOL    HW233255   3.076   2.648   3.870 -0.4634 -0.9654 -0.1213
 7265SOL     OW33256   2.943   3.505   2.827 -0.0212  0.4147 -0.1541
 7265SOL    HW133257   2.974   3.467   2.745 -2.0032  0.4407 -0.9180
 7265SOL    HW233258   2.912   3.427   2.873  0.1705  1.8973  2.5200
 7266SOL     OW33259   1.349   2.574   6.912 -0.0578  0.1530 -0.0817
 7266SOL    HW133260   1.431   2.591   6.864 -0.3249 -0.6838 -0.8191
 7266SOL    HW233261   1.381   2.593   7.000  2.6657 -3.4385 -0.2923
 7267SOL     OW33262   4.431   2.746   8.663  0.4110  0.2525  0.3017
 7267SOL    HW133263   4.347   2.788   8.647 -0.3656 -1.8912 -1.2138
 7267SOL    HW233264   4.490   2.808   8.620 -0.1062  1.3636  1.1911
 7268SOL     OW33265   2.099   0.362   8.905  0.6820  0.1671 -0.0749
 7268SOL    HW133266   2.124   0.453   8.920 -0.4509  1.1719 -4.4397
 7268SOL    HW233267   2.186   0.326   8.922  0.2331 -0.3321  1.2001
 7269SOL     OW33268   0.513   0.879   5.881  0.4090  0.0235  0.0687
 7269SOL    HW133269   0.434   0.829   5.898 -0.1479  1.3480  1.4776
 7269SOL    HW233270   0.493   0.906   5.792 -0.3672 -0.4842  0.0935
 7270SOL     OW33271   4.444   2.822   1.437  0.1693 -0.1212 -0.4198
 7270SOL    HW133272   4.504   2.750   1.457 -0.2341 -0.4208 -0.2937
 7270SOL    HW233273   4.399   2.798   1.356 -1.1589  1.7678 -0.2556
 7271SOL     OW33274   1.964   3.244   3.792 -0.1445  0.8315 -0.3273
 7271SOL    HW133275   1.958   3.331   3.753  0.9083 -0.5730 -3.5889
 7271SOL    HW233276   1.912   3.197   3.727  0.2896  1.8245 -1.3882
 7272SOL     OW33277   2.409   2.524  12.537  0.2168 -0.5501  0.3539
 7272SOL    HW133278   2.457   2.454  12.581  2.5640 -0.8586 -2.6966
 7272SOL    HW233279   2.471   2.597  12.537  0.0497 -0.3809 -2.3883
 7273SOL     OW33280   0.710   0.752   2.542 -0.0439 -0.7040 -0.0459
 7273SOL    HW133281   0.806   0.756   2.534 -0.1199  3.0050  0.7806
 7273SOL    HW233282   0.689   0.694   2.468 -0.2248 -0.3800 -0.2466
 7274SOL     OW33283   3.626   2.149   8.072  0.0733 -0.1288 -0.0878
 7274SOL    HW133284   3.615   2.244   8.066 -0.5402 -0.0966  1.6779
 7274SOL    HW233285   3.544   2.134   8.117 -1.2595  0.2246 -2.4095
 7275SOL     OW33286   2.887   2.867   6.588  0.8781  0.1872 -0.4781
 7275SOL    HW133287   2.911   2.846   6.678 -1.6794  3.1450  0.9204
 7275SOL    HW233288   2.940   2.947   6.584 -1.4650  1.8102  0.6943
 7276SOL     OW33289   2.681   2.672  15.438  0.1450  0.2061 -0.1124
 7276SOL    HW133290   2.715   2.651  15.525 -0.0259  1.1235  0.1722
 7276SOL    HW233291   2.653   2.762  15.454  1.6477  0.8573 -1.1774
 7277SOL     OW33292   0.086   0.472   9.074 -0.4341 -0.4128  0.2567
 7277SOL    HW133293   0.141   0.470   9.153 -0.4311 -1.9135  0.2185
 7277SOL    HW233294   4.717   0.483   9.105  0.0176 -0.5653  1.6194
 7278SOL     OW33295   1.553   2.865  10.353 -0.8007  0.4253  0.1549
 7278SOL    HW133296   1.556   2.900  10.264  1.9302  0.5843  0.3076
 7278SOL    HW233297   1.643   2.842  10.376 -1.8559 -3.5773  0.3683
 7279SOL     OW33298   2.362   2.139   2.999 -0.3455  0.4087  0.8472
 7279SOL    HW133299   2.347   2.233   2.994 -1.5471  0.1912  0.5212
 7279SOL    HW233300   2.289   2.107   2.947  1.2556 -0.9446 -0.5963
 7280SOL     OW33301   1.156   1.504   3.918  0.0903 -0.3938 -0.2803
 7280SOL    HW133302   1.122   1.594   3.913 -2.5947 -1.2938  1.6993
 7280SOL    HW233303   1.172   1.475   3.828 -1.0224 -0.2669 -0.5197
 7281SOL     OW33304   3.451   1.146   3.382 -0.2280  0.3266  0.2340
 7281SOL    HW133305   3.433   1.216   3.445 -1.0859 -0.0101  0.3605
 7281SOL    HW233306   3.536   1.173   3.348  1.3801 -2.1761  2.2498
 7282SOL     OW33307   0.489   1.064   4.719 -0.6257 -0.4043 -0.3774
 7282SOL    HW133308   0.395   1.076   4.703 -0.2250  1.5175 -1.3947
 7282SOL    HW233309   0.519   1.153   4.736 -3.0935  0.2127  0.6662
 7283SOL     OW33310   2.333   0.908   0.302  0.1413 -0.4258  0.0015
 7283SOL    HW133311   2.405   0.857   0.339  1.5355 -0.0818 -2.2301
 7283SOL    HW233312   2.315   0.966   0.376 -1.3741 -1.0007  0.0762
 7284SOL     OW33313   0.470   4.351   6.008  0.5345 -0.0172  0.8524
 7284SOL    HW133314   0.376   4.344   6.028  0.2715  0.8400 -0.0300
 7284SOL    HW233315   0.475   4.444   5.986  0.6479  0.4588  2.8977
 7285SOL     OW33316   4.714   0.822  13.896  0.3163 -0.2731 -0.1043
 7285SOL    HW133317   0.034   0.819  13.982  0.6364  0.9298 -0.2000
 7285SOL    HW233318   0.010   0.734  13.863 -2.0996 -0.4386 -0.9572
 7286SOL     OW33319   1.207   3.846   2.159 -0.2662 -0.0875 -0.3394
 7286SOL    HW133320   1.302   3.855   2.166 -0.4530  0.3667  1.7600
 7286SOL    HW233321   1.186   3.805   2.244 -1.0649  0.8981 -0.0605
 7287SOL     OW33322   0.207   2.236  12.131 -0.5515 -0.4232 -0.2802
 7287SOL    HW133323   0.272   2.303  12.154 -0.8260 -0.8938  1.9024
 7287SOL    HW233324   0.216   2.241  12.036 -0.5643 -1.2109 -0.3195
 7288SOL     OW33325   3.078   2.012   6.465 -0.8699  0.0456 -0.1186
 7288SOL    HW133326   3.054   1.986   6.376 -0.6524  0.6672 -0.3593
 7288SOL    HW233327   3.170   2.034   6.449 -0.6869  0.3108  1.2668
 7289SOL     OW33328   2.671   4.366   4.529 -0.6729 -0.6742 -0.1682
 7289SOL    HW133329   2.684   4.302   4.460 -0.7825  0.2958 -1.0900
 7289SOL    HW233330   2.718   4.323   4.601 -0.1344 -0.2524 -0.2668
 7290SOL     OW33331   0.416   2.758  13.253 -0.1457  0.7384  0.1037
 7290SOL    HW133332   0.330   2.767  13.211 -1.4745  0.5454  2.7736
 7290SOL    HW233333   0.461   2.835  13.217  0.7229 -0.6282 -1.7114
 7291SOL     OW33334   0.266   0.238   9.899 -0.1701 -0.2901 -0.0491
 7291SOL    HW133335   0.196   0.303   9.901  1.2702  1.2862 -0.9521
 7291SOL    HW233336   0.246   0.178   9.827 -2.4276  0.7538 -0.2873
 7292SOL     OW33337   3.811   0.580   4.041  0.2998 -0.3908 -0.4795
 7292SOL    HW133338   3.856   0.643   4.098 -1.1973 -0.8201  1.1880
 7292SOL    HW233339   3.818   0.502   4.096 -1.9913  0.9675  1.7740
 7293SOL     OW33340   1.393   0.735   4.150  0.4729 -0.0799 -0.1197
 7293SOL    HW133341   1.465   0.682   4.117  2.2570  2.5648 -0.4440
 7293SOL    HW233342   1.378   0.688   4.233 -1.2145 -0.4063 -0.6105
 7294SOL     OW33343   1.219   1.435  14.158 -0.0588  0.2459  0.4167
 7294SOL    HW133344   1.313   1.451  14.150 -0.0518  0.4460  0.8631
 7294SOL    HW233345   1.203   1.387  14.077  0.2436  1.6705 -0.4778
 7295SOL     OW33346   1.540   2.612   5.681  0.1461  0.2382  0.0588
 7295SOL    HW133347   1.463   2.667   5.681 -0.1565 -0.1823  0.1591
 7295SOL    HW233348   1.554   2.578   5.593 -0.7559 -1.1295  0.4445
 7296SOL     OW33349   1.225   2.856  15.521 -0.3047 -0.6195  0.5057
 7296SOL    HW133350   1.310   2.841  15.563  0.0656  1.1230  0.3751
 7296SOL    HW233351   1.184   2.775  15.550  3.0071 -2.0071  1.3468
 7297SOL     OW33352   4.285   0.916   8.013 -0.1202  0.0276  0.2310
 7297SOL    HW133353   4.348   0.988   8.020 -0.9993  0.8369 -0.1857
 7297SOL    HW233354   4.267   0.924   7.919  1.2307 -0.8134 -0.1055
 7298SOL     OW33355   3.610   1.994   4.697  0.3538 -0.0828  0.0938
 7298SOL    HW133356   3.542   2.041   4.649  2.4129  1.9462 -0.8199
 7298SOL    HW233357   3.684   2.054   4.690 -0.6404  0.9529 -1.5856
 7299SOL     OW33358   1.680   3.154   4.002  0.4664 -0.3280  0.0529
 7299SOL    HW133359   1.773   3.164   4.021  0.8854  1.7129 -3.1400
 7299SOL    HW233360   1.677   3.094   3.927  1.1049 -0.4573  0.1333
 7300SOL     OW33361   0.264   2.819   2.596  0.3354 -0.8057  0.1334
 7300SOL    HW133362   0.207   2.893   2.617  1.2981 -0.4804  1.6107
 7300SOL    HW233363   0.222   2.776   2.521  0.5253 -2.6615  1.0876
 7301SOL     OW33364   2.696   0.667  16.893  0.0159  0.0919 -0.5772
 7301SOL    HW133365   2.682   0.712  16.977 -0.2171 -0.3928 -0.3518
 7301SOL    HW233366   2.706   0.738  16.831  1.0971  0.1918 -0.2844
 7302SOL     OW33367   4.059   4.539  17.658 -0.0587 -0.0873 -0.2515
 7302SOL    HW133368   4.088   4.513   0.058  0.6319 -0.4551 -0.5925
 7302SOL    HW233369   4.012   4.619  17.682 -0.9150 -0.0427 -1.9993
 7303SOL     OW33370   1.937   1.032  13.691 -0.9777  0.4894 -0.2372
 7303SOL    HW133371   1.889   1.110  13.719 -1.1001  0.0602  0.7428
 7303SOL    HW233372   1.992   1.031  13.769  0.3215  1.8976 -1.1451
 7304SOL     OW33373   2.327   1.809   4.448  0.0186  0.6144 -0.0565
 7304SOL    HW133374   2.279   1.807   4.531 -2.5047 -3.6518 -1.6273
 7304SOL    HW233375   2.351   1.901   4.462  0.4929  0.6855 -1.2910
 7305SOL     OW33376   3.449   0.022   9.878  0.0203 -0.5156  0.5982
 7305SOL    HW133377   3.494   4.664   9.849  2.2448  0.8994  0.1819
 7305SOL    HW233378   3.357   4.717   9.873 -0.3804  1.0209 -0.1907
 7306SOL     OW33379   1.634   0.628   7.768 -0.3608  0.2258 -0.0924
 7306SOL    HW133380   1.710   0.572   7.782  0.8931  1.8918 -0.3258
 7306SOL    HW233381   1.558   0.580   7.803 -0.4090 -0.9875 -1.8699
 7307SOL     OW33382   1.651   4.134   6.303 -0.0314 -0.0056  0.1586
 7307SOL    HW133383   1.698   4.161   6.382 -1.5500 -0.6728  1.2917
 7307SOL    HW233384   1.730   4.123   6.250 -1.1671  1.9785 -1.9459
 7308SOL     OW33385   3.817   2.388   8.527  1.0264 -0.0659 -0.7970
 7308SOL    HW133386   3.819   2.356   8.437 -0.0685  0.4012 -0.9877
 7308SOL    HW233387   3.724   2.393   8.550  0.6303  0.9051 -2.6271
 7309SOL     OW33388   4.552   1.793   5.025 -0.6182  0.0841 -0.1087
 7309SOL    HW133389   4.589   1.878   5.045  0.4563 -0.5113  0.4068
 7309SOL    HW233390   4.463   1.820   5.001 -0.2974 -0.5382 -2.0060
 7310SOL     OW33391   2.248   1.354   0.295 -0.1777 -0.0412  0.4392
 7310SOL    HW133392   2.193   1.426   0.265  0.3576 -0.4210 -1.4624
 7310SOL    HW233393   2.330   1.400   0.307  0.6309 -1.5146  0.6322
 7311SOL     OW33394   2.743   1.985  12.164  0.2731  0.6021  0.3291
 7311SOL    HW133395   2.716   1.925  12.094  0.7285  0.0602  0.6116
 7311SOL    HW233396   2.696   2.064  12.140  0.6044  0.8767  0.5684
 7312SOL     OW33397   0.697   1.643  11.024  0.2714 -0.8972 -0.1130
 7312SOL    HW133398   0.696   1.670  11.116  2.3843 -1.0864 -0.0432
 7312SOL    HW233399   0.783   1.602  11.019  1.6836  1.8202  1.6476
 7313SOL     OW33400   0.406   1.911  10.975 -0.4336  0.0683  0.0284
 7313SOL    HW133401   0.344   1.974  10.937 -1.1219  0.3150  1.5474
 7313SOL    HW233402   0.417   1.958  11.058 -0.8504 -1.3322  0.8738
 7314SOL     OW33403   1.632   3.319   4.835 -0.0723 -0.2551 -0.0823
 7314SOL    HW133404   1.588   3.393   4.793  1.8712  1.1367  0.2870
 7314SOL    HW233405   1.723   3.349   4.826 -0.0527  0.3268  2.0475
 7315SOL     OW33406   3.260   0.916  14.830  0.0175  0.6711  0.2236
 7315SOL    HW133407   3.320   0.845  14.808  1.7216  2.7731 -1.9187
 7315SOL    HW233408   3.305   0.993  14.796 -0.6046  0.5948 -0.7663
 7316SOL     OW33409   2.595   1.651   5.431 -0.0138  0.1219  0.6156
 7316SOL    HW133410   2.622   1.568   5.472  0.5534 -0.0107 -0.0277
 7316SOL    HW233411   2.596   1.620   5.340 -0.5817 -1.2367  1.0673
 7317SOL     OW33412   3.299   4.660   5.400  0.1103  0.1868  1.0310
 7317SOL    HW133413   3.245   4.585   5.424  1.8391 -1.3462  0.1651
 7317SOL    HW233414   3.387   4.630   5.421  0.5830 -0.1014 -1.3534
 7318SOL     OW33415   2.419   1.822  12.291 -1.0232 -0.2673  0.1730
 7318SOL    HW133416   2.427   1.840  12.385  0.7918 -0.7904  0.1081
 7318SOL    HW233417   2.411   1.910  12.256  0.4616 -0.3386 -0.3302
 7319SOL     OW33418   0.368   3.320   7.345 -0.4313 -0.3632  0.1765
 7319SOL    HW133419   0.332   3.363   7.422  0.2073  1.0754 -0.3287
 7319SOL    HW233420   0.381   3.235   7.387  1.4633 -0.4947 -0.6662
 7320SOL     OW33421   1.420   2.026  12.823  0.0542  0.7433 -0.2341
 7320SOL    HW133422   1.397   1.941  12.784  1.2379  0.8001 -1.0478
 7320SOL    HW233423   1.334   2.064  12.842  1.4507  2.6420  2.1845
 7321SOL     OW33424   1.285   0.744   5.745 -0.2464  0.0239  0.0152
 7321SOL    HW133425   1.192   0.765   5.744 -0.6430 -1.7213 -2.5576
 7321SOL    HW233426   1.308   0.713   5.657 -1.3652 -0.5307 -0.0889
 7322SOL     OW33427   4.264   2.175   8.860 -0.9387  0.2393  0.5984
 7322SOL    HW133428   4.170   2.166   8.845 -0.9552 -0.6791  1.2372
 7322SOL    HW233429   4.290   2.086   8.841 -0.3498  0.2579  1.3294
 7323SOL     OW33430   0.844   2.698   3.047 -0.1555 -0.3645  0.3177
 7323SOL    HW133431   0.769   2.720   3.103 -0.4106 -0.7035  0.1106
 7323SOL    HW233432   0.823   2.758   2.976  2.8509  0.2236 -0.0602
 7324SOL     OW33433   4.118   3.814   4.649  0.2942 -0.0492  0.0515
 7324SOL    HW133434   4.211   3.791   4.654  0.5921  1.5370  1.9292
 7324SOL    HW233435   4.124   3.883   4.716 -0.2637 -0.6057  0.6718
 7325SOL     OW33436   3.273   4.159   7.277 -0.1207 -0.5456  0.7060
 7325SOL    HW133437   3.199   4.199   7.322 -0.5917 -1.4036  0.6787
 7325SOL    HW233438   3.268   4.190   7.186 -1.9359 -1.3312  0.5426
 7326SOL     OW33439   0.933   4.005   8.651 -0.1599 -0.6720 -0.1438
 7326SOL    HW133440   0.986   3.956   8.589  0.0529 -1.7316  0.8937
 7326SOL    HW233441   0.851   3.955   8.643  0.3109 -1.3162 -0.8960
 7327SOL     OW33442   1.144   2.189  11.610  0.2177 -1.0832 -0.0656
 7327SOL    HW133443   1.100   2.192  11.695  0.4787 -2.2707  0.1195
 7327SOL    HW233444   1.215   2.249  11.631  0.4187 -0.7221 -1.7665
 7328SOL     OW33445   0.238   0.346   3.947 -0.0447 -0.0935  0.0116
 7328SOL    HW133446   0.287   0.416   3.991  0.1834  0.1201 -0.5788
 7328SOL    HW233447   0.280   0.275   3.996 -2.6587 -1.8040 -0.2492
 7329SOL     OW33448   0.083   0.257   2.304 -0.4600 -0.1503 -0.7146
 7329SOL    HW133449   0.017   0.292   2.364 -1.1626  2.2300 -2.8920
 7329SOL    HW233450   0.019   0.248   2.233  0.3456  1.2056 -1.5940
 7330SOL     OW33451   1.791   1.830  11.740 -0.5963  0.9724 -0.2026
 7330SOL    HW133452   1.721   1.893  11.726 -1.5344  0.2746  1.3203
 7330SOL    HW233453   1.732   1.764  11.778  1.3279 -0.3462  0.4692
 7331SOL     OW33454   3.207   4.014   4.525  0.0386 -0.0950 -0.0583
 7331SOL    HW133455   3.233   4.093   4.573  1.2998 -1.0837  0.8809
 7331SOL    HW233456   3.125   4.000   4.571  0.3676 -0.5060  0.4066
 7332SOL     OW33457   1.142   3.361   3.919  0.6781  0.3082 -0.8824
 7332SOL    HW133458   1.103   3.433   3.870  0.8032  1.4042  0.6528
 7332SOL    HW233459   1.235   3.379   3.908  0.5582  0.6274 -1.3518
 7333SOL     OW33460   1.072   3.884  11.943  0.2690 -0.0089  0.5211
 7333SOL    HW133461   1.104   3.800  11.975 -0.4098 -0.6383 -0.4694
 7333SOL    HW233462   1.027   3.919  12.020 -1.0709  0.5196 -0.4949
 7334SOL     OW33463   1.237   4.125   8.785 -0.1891 -0.4175  0.2514
 7334SOL    HW133464   1.200   4.168   8.862  0.3020  1.8754 -0.7909
 7334SOL    HW233465   1.160   4.112   8.729 -0.2158  1.1788 -0.0743
 7335SOL     OW33466   2.144   3.895   1.457  0.1642 -0.0977 -0.0508
 7335SOL    HW133467   2.091   3.842   1.517 -3.0353  0.0521 -2.7293
 7335SOL    HW233468   2.104   3.982   1.451 -0.0709 -0.1888  0.1840
 7336SOL     OW33469   4.409   1.004  14.763 -0.1603 -0.2468 -0.3741
 7336SOL    HW133470   4.347   1.056  14.814  0.5543 -0.2626  0.5062
 7336SOL    HW233471   4.431   0.925  14.814  1.9772  0.5158 -0.1080
 7337SOL     OW33472   1.173   3.242  13.422 -0.0793 -0.0220  0.5304
 7337SOL    HW133473   1.161   3.315  13.362  1.9249 -0.3521 -0.2789
 7337SOL    HW233474   1.266   3.251  13.445  0.4328 -0.8294 -1.2168
 7338SOL     OW33475   4.682   0.690   4.684  0.2542  0.0713  0.3576
 7338SOL    HW133476   4.702   0.613   4.738  2.5293  0.2459 -0.2590
 7338SOL    HW233477   0.041   0.701   4.634 -0.5028  3.1557 -0.1304
 7339SOL     OW33478   2.705   2.477  17.555 -0.3664  0.8590 -0.2116
 7339SOL    HW133479   2.760   2.523  17.492  0.3176  1.2393  0.6677
 7339SOL    HW233480   2.625   2.470  17.502  0.7579  0.3596 -1.8299
 7340SOL     OW33481   2.840   3.261   5.524 -0.1066 -0.1816  0.1987
 7340SOL    HW133482   2.776   3.321   5.562  0.8690  1.2365 -0.3942
 7340SOL    HW233483   2.924   3.307   5.521 -0.1695 -0.0379  0.6349
 7341SOL     OW33484   1.509   3.802   6.545  0.2211 -0.1821 -0.4537
 7341SOL    HW133485   1.458   3.774   6.621  0.9344 -0.1537  0.0389
 7341SOL    HW233486   1.463   3.760   6.473 -0.3107  0.3516 -0.4198
 7342SOL     OW33487   4.648   1.748  15.398 -0.3901 -0.1323 -0.1426
 7342SOL    HW133488   0.004   1.793  15.364 -0.6012 -0.8153 -1.5478
 7342SOL    HW233489   4.589   1.823  15.403 -2.0847 -1.5602  1.2973
 7343SOL     OW33490   4.019   4.159   7.207 -0.0993 -0.3686 -0.2183
 7343SOL    HW133491   3.964   4.175   7.284  1.7216  3.0965  0.4039
 7343SOL    HW233492   4.032   4.245   7.166 -2.6144  1.1188  2.1203
 7344SOL     OW33493   2.209   4.505  13.250 -1.0369 -0.2383  0.0897
 7344SOL    HW133494   2.240   4.590  13.281  2.0229 -1.4024  0.2928
 7344SOL    HW233495   2.137   4.497  13.312 -2.1172 -1.6244 -1.3404
 7345SOL     OW33496   3.433   1.915  12.671 -0.6456  0.0270 -0.2860
 7345SOL    HW133497   3.359   1.923  12.731 -0.0704  2.2288  0.1247
 7345SOL    HW233498   3.426   1.822  12.650 -1.1855 -0.3006  1.3429
 7346SOL     OW33499   3.699   2.372   7.105 -0.5454 -0.5084 -0.5329
 7346SOL    HW133500   3.767   2.421   7.150 -1.6396 -0.4393  1.0600
 7346SOL    HW233501   3.628   2.374   7.170  0.5027  0.2567  0.5871
 7347SOL     OW33502   3.528   0.510   7.548  0.1206  0.0308 -0.1125
 7347SOL    HW133503   3.493   0.568   7.480  0.5160  0.6458  0.2092
 7347SOL    HW233504   3.536   0.570   7.622 -2.6508  0.3685 -0.0626
 7348SOL     OW33505   2.858   0.856  15.898 -0.3664 -0.0997  0.5521
 7348SOL    HW133506   2.792   0.825  15.837  1.4358 -2.4326 -0.2138
 7348SOL    HW233507   2.815   0.878  15.981 -2.1873  1.2407 -0.7557
 7349SOL     OW33508   3.240   3.241  10.339  0.1255  0.2681  0.2394
 7349SOL    HW133509   3.240   3.177  10.268 -1.1374  1.3106 -0.6950
 7349SOL    HW233510   3.195   3.192  10.407  0.2055  0.6728  0.5845
 7350SOL     OW33511   1.314   0.258  16.607 -0.4843  0.0053 -0.1853
 7350SOL    HW133512   1.342   0.170  16.584  1.1693  0.5900 -0.4109
 7350SOL    HW233513   1.291   0.228  16.695 -0.2606  0.5425  0.0620
 7351SOL     OW33514   3.735   1.031   4.012  0.1154 -0.1502  0.5073
 7351SOL    HW133515   3.824   1.021   4.045  0.3466 -0.1708 -0.1150
 7351SOL    HW233516   3.697   0.955   4.056  2.8151 -0.7887  1.7526
 7352SOL     OW33517   1.328   1.847   1.670 -0.4592 -0.2910  0.1434
 7352SOL    HW133518   1.278   1.907   1.725  1.3816 -0.4344  1.9736
 7352SOL    HW233519   1.409   1.873   1.715 -0.8727  2.4603 -0.6885
 7353SOL     OW33520   2.604   4.582   3.743  0.2212 -0.3612 -0.1113
 7353SOL    HW133521   2.522   4.540   3.717  0.3046 -1.9014  2.1301
 7353SOL    HW233522   2.675   4.542   3.693  2.4356 -0.2485  2.9735
 7354SOL     OW33523   3.998   1.260  12.084  0.0049 -0.1235  0.4438
 7354SOL    HW133524   4.084   1.261  12.125 -0.1224  2.6587  0.6792
 7354SOL    HW233525   4.021   1.263  11.991 -3.1729 -0.0010 -0.3598
 7355SOL     OW33526   1.633   1.315  13.203  0.1866 -0.2665  0.5015
 7355SOL    HW133527   1.682   1.388  13.164 -1.5438  0.7103  0.1766
 7355SOL    HW233528   1.698   1.287  13.269 -0.8838 -1.9086  0.8576
 7356SOL     OW33529   4.461   0.343   5.288  0.1492 -0.3924 -0.2410
 7356SOL    HW133530   4.467   0.434   5.320 -1.5251 -0.2927 -0.2402
 7356SOL    HW233531   4.540   0.336   5.234  0.2915  0.2994 -0.1268
 7357SOL     OW33532   3.569   0.171  11.266  0.3327  0.1875 -0.0941
 7357SOL    HW133533   3.632   0.243  11.266  0.2935  0.2269 -1.7276
 7357SOL    HW233534   3.561   0.149  11.359  2.1389  1.5224  0.3815
 7358SOL     OW33535   3.373   0.163  15.799  0.2184  0.3965 -0.0208
 7358SOL    HW133536   3.279   0.155  15.817  0.6749  2.1018  2.9138
 7358SOL    HW233537   3.370   0.178  15.704 -0.5510 -1.1112 -0.2401
 7359SOL     OW33538   1.721   4.326   5.127  0.2056  0.0309  0.0489
 7359SOL    HW133539   1.763   4.340   5.213  3.5786 -0.5010 -1.5094
 7359SOL    HW233540   1.664   4.403   5.120  0.1889 -0.0560 -0.7455
 7360SOL     OW33541   3.655   4.115   8.832 -0.1804  0.5219 -0.3645
 7360SOL    HW133542   3.657   4.096   8.926 -1.5961  0.4722 -0.3399
 7360SOL    HW233543   3.742   4.087   8.806 -0.8757 -1.3871 -0.6189
 7361SOL     OW33544   3.069   0.141  14.080  0.4372  0.4368  0.7064
 7361SOL    HW133545   3.145   0.195  14.056 -0.2878  0.9326 -0.4735
 7361SOL    HW233546   3.049   0.117  13.989 -1.8144 -0.8155  1.5393
 7362SOL     OW33547   3.311   0.954   7.599 -0.4398  0.3236  0.2571
 7362SOL    HW133548   3.331   1.047   7.608  1.0274  0.1064 -0.9959
 7362SOL    HW233549   3.302   0.950   7.504  0.0955 -2.8577  0.3507
 7363SOL     OW33550   0.217   4.421   8.857  0.1729 -0.2234 -0.5175
 7363SOL    HW133551   0.205   4.349   8.796  1.7231 -0.7303 -0.2372
 7363SOL    HW233552   0.162   4.389   8.929 -0.4954  2.3281  0.1113
 7364SOL     OW33553   1.755   0.987   1.834  0.1455 -0.0099  0.4140
 7364SOL    HW133554   1.683   0.926   1.820 -0.7465  1.2833 -0.6123
 7364SOL    HW233555   1.822   0.944   1.781  0.7090 -0.1939  1.2826
 7365SOL     OW33556   2.474   1.524   2.625  0.2515 -0.0969  0.4658
 7365SOL    HW133557   2.491   1.562   2.712  2.2151 -2.2648  1.0336
 7365SOL    HW233558   2.393   1.476   2.639 -0.3662  1.3826  2.0503
 7366SOL     OW33559   1.130   3.894   4.595 -0.0987 -0.1142 -0.3579
 7366SOL    HW133560   1.219   3.886   4.559  0.7777  0.8860  1.6404
 7366SOL    HW233561   1.143   3.935   4.680  0.4268  0.5516 -0.7564
 7367SOL     OW33562   0.993   2.945   2.945  0.5202  0.9261  0.3230
 7367SOL    HW133563   1.023   2.879   2.883 -1.3834  0.7258 -0.4067
 7367SOL    HW233564   0.906   2.957   2.905  0.3380 -3.2293 -0.5737
 7368SOL     OW33565   3.786   1.888   6.896 -0.1590  0.0075  0.3271
 7368SOL    HW133566   3.752   1.806   6.858 -1.2040  0.6928 -0.2146
 7368SOL    HW233567   3.713   1.949   6.900  0.2888  0.4435  1.9093
 7369SOL     OW33568   2.356   2.756   6.273  0.5940  0.3439 -0.0711
 7369SOL    HW133569   2.319   2.743   6.360 -0.4679 -0.9461 -0.7234
 7369SOL    HW233570   2.291   2.709   6.221  0.5339 -0.8491  1.0902
 7370SOL     OW33571   2.567   0.207  11.402  0.0856 -0.0819 -0.1303
 7370SOL    HW133572   2.651   0.199  11.355  0.0134  0.3205 -0.3307
 7370SOL    HW233573   2.556   0.133  11.461  0.6027 -0.2775 -0.2809
 7371SOL     OW33574   0.647   2.285   8.185  0.3856 -0.0632 -0.7885
 7371SOL    HW133575   0.715   2.313   8.246  0.2827  1.0465 -1.1939
 7371SOL    HW233576   0.569   2.330   8.218 -0.8288 -1.4112 -1.8375
 7372SOL     OW33577   4.423   2.536   3.605 -0.2802 -0.4144  0.3449
 7372SOL    HW133578   4.345   2.590   3.619  0.2323  0.7394 -1.2543
 7372SOL    HW233579   4.378   2.458   3.572 -0.1454 -0.1492 -0.4748
 7373SOL     OW33580   4.233   0.488   3.930  0.0648  0.0584 -0.6725
 7373SOL    HW133581   4.322   0.456   3.914  0.7041  1.1905  0.6091
 7373SOL    HW233582   4.211   0.548   3.860  0.1489  0.5113 -0.3107
 7374SOL     OW33583   2.442   3.209   9.502  0.0595  0.2094  0.0484
 7374SOL    HW133584   2.393   3.227   9.422  1.7550 -0.4605 -1.1280
 7374SOL    HW233585   2.367   3.193   9.559 -0.2444  0.1668 -0.3682
 7375SOL     OW33586   2.562   1.839   1.513 -0.2021  0.2609 -0.3872
 7375SOL    HW133587   2.506   1.763   1.526 -1.3987  0.6136 -3.3962
 7375SOL    HW233588   2.616   1.801   1.444  0.8759 -0.1998  0.7121
 7376SOL     OW33589   0.714   1.664  11.289  0.2796  0.8350  0.3470
 7376SOL    HW133590   0.708   1.737  11.351 -1.4968  1.4101 -0.5024
 7376SOL    HW233591   0.713   1.584  11.343 -0.3783  2.3847  2.6340
 7377SOL     OW33592   2.095   1.722   7.970 -0.5307  0.0673  0.5407
 7377SOL    HW133593   2.152   1.765   8.034 -2.3793  3.1928  0.1342
 7377SOL    HW233594   2.145   1.748   7.893 -0.6548 -0.2451  0.3558
 7378SOL     OW33595   3.886   2.355   2.517  0.1062  0.1147  0.6472
 7378SOL    HW133596   3.910   2.262   2.524  2.8067  0.6966 -0.8592
 7378SOL    HW233597   3.943   2.389   2.586 -0.7610 -0.6823  1.7578
 7379SOL     OW33598   0.716   3.108   6.922  0.0958  0.4865 -0.0674
 7379SOL    HW133599   0.794   3.161   6.937 -0.7916  2.3043 -1.7150
 7379SOL    HW233600   0.641   3.167   6.939 -0.1765 -0.4317  1.8841
 7380SOL     OW33601   0.703   0.297   6.205  0.4038  0.2229  0.4872
 7380SOL    HW133602   0.740   0.384   6.188 -0.1519  0.5208  0.7905
 7380SOL    HW233603   0.615   0.311   6.241 -0.2581 -1.9298 -0.2604
 7381SOL     OW33604   1.022   2.019  12.051  0.2396 -0.7285  0.3790
 7381SOL    HW133605   1.053   1.993  12.138 -0.8692 -3.3004  0.0218
 7381SOL    HW233606   0.977   1.940  12.019  1.4341 -1.4278  0.4074
 7382SOL     OW33607   1.258   4.206   5.999 -0.4315 -0.2302  0.0872
 7382SOL    HW133608   1.269   4.199   5.904  0.5725  0.7735  0.1432
 7382SOL    HW233609   1.325   4.271   6.016 -1.6224  1.2159 -0.7830
 7383SOL     OW33610   3.199   1.473  16.019  0.1992  0.1722 -0.3643
 7383SOL    HW133611   3.194   1.562  16.052  3.7732 -0.8253  2.8443
 7383SOL    HW233612   3.110   1.444  16.037  0.2748  0.8473  1.0335
 7384SOL     OW33613   4.050   1.217   8.924 -0.0803 -0.1574  0.2147
 7384SOL    HW133614   4.042   1.231   9.019 -1.3260 -0.3809  0.1421
 7384SOL    HW233615   4.139   1.180   8.921 -0.0264 -0.0400  0.3647
 7385SOL     OW33616   4.227   3.025  10.517  0.0758  0.3931 -0.1160
 7385SOL    HW133617   4.293   3.052  10.453  0.9029  0.2946  0.6999
 7385SOL    HW233618   4.231   3.099  10.578  2.4870 -0.8666  1.2464
 7386SOL     OW33619   1.043   4.409   9.280  0.0958  0.3245  0.2516
 7386SOL    HW133620   1.065   4.486   9.332  2.0455 -1.5688  2.2198
 7386SOL    HW233621   0.948   4.417   9.283 -0.0266 -0.5639 -1.5751
 7387SOL     OW33622   2.826   4.385   5.920  0.3312  0.5682 -0.4163
 7387SOL    HW133623   2.740   4.372   5.881  0.6424  0.5844 -1.1177
 7387SOL    HW233624   2.843   4.296   5.951 -1.2463 -0.0868 -1.4690
 7388SOL     OW33625   3.565   2.942   0.696 -0.4366 -0.4035 -0.0509
 7388SOL    HW133626   3.514   2.910   0.622 -0.9735 -0.2519  0.2542
 7388SOL    HW233627   3.514   2.919   0.773 -0.5323 -0.4508 -0.1286
 7389SOL     OW33628   3.233   4.675   2.360 -0.6942 -0.3457  0.4750
 7389SOL    HW133629   3.160   4.701   2.304  0.5921  1.0920 -0.5409
 7389SOL    HW233630   3.205   4.584   2.369 -0.2370 -0.4870  0.4959
 7390SOL     OW33631   2.690   2.515  15.028  0.4048 -0.1578  0.3848
 7390SOL    HW133632   2.626   2.508  15.099 -2.5654  0.7553 -2.2616
 7390SOL    HW233633   2.687   2.433  14.979 -0.8707 -1.0227  1.9057
 7391SOL     OW33634   3.066   4.619   3.306  0.0630 -0.1943 -0.4794
 7391SOL    HW133635   3.039   4.648   3.218  1.2533  0.9370 -0.4708
 7391SOL    HW233636   3.157   4.647   3.313 -0.3698  0.8916  0.6837
 7392SOL     OW33637   3.629   4.081   2.496  0.1733  0.6829  0.6387
 7392SOL    HW133638   3.542   4.041   2.502  1.7488 -2.1174  3.9845
 7392SOL    HW233639   3.680   4.028   2.557 -0.3003  0.2586  0.6657
 7393SOL     OW33640   0.856   4.604   3.320 -0.2099 -0.2030 -0.3389
 7393SOL    HW133641   0.843   4.534   3.255 -0.7078 -0.0108 -0.4429
 7393SOL    HW233642   0.816   4.679   3.277 -0.8518  0.5685  1.6138
 7394SOL     OW33643   1.134   0.553   0.747 -0.4707 -0.6324 -0.1432
 7394SOL    HW133644   1.044   0.585   0.737 -0.8807 -0.7940  3.0165
 7394SOL    HW233645   1.123   0.460   0.768  1.7516 -1.4325 -2.4611
 7395SOL     OW33646   0.745   0.559   8.043 -0.3129 -0.0177  0.7681
 7395SOL    HW133647   0.683   0.491   8.015 -0.8376  0.8997 -0.2580
 7395SOL    HW233648   0.737   0.614   7.966  0.8427  0.2530  0.8472
 7396SOL     OW33649   2.980   0.620   5.916  0.6214 -0.2820  0.0683
 7396SOL    HW133650   2.985   0.713   5.938 -2.4411 -0.1863  0.3591
 7396SOL    HW233651   2.885   0.609   5.925  0.3746  1.7124  0.0078
 7397SOL     OW33652   1.484   1.769  15.151 -0.0874  0.0170  0.0361
 7397SOL    HW133653   1.527   1.688  15.178  0.2259  0.3631  0.5961
 7397SOL    HW233654   1.517   1.834  15.213 -2.0766  0.5733  0.4895
 7398SOL     OW33655   3.786   3.034   4.589  0.4563  0.0386  0.3270
 7398SOL    HW133656   3.803   3.127   4.600 -0.3764  0.1500  0.6974
 7398SOL    HW233657   3.806   3.035   4.495 -1.5877 -1.8627 -0.1396
 7399SOL     OW33658   3.034   4.026   6.825 -0.0126 -0.0910  0.1818
 7399SOL    HW133659   3.005   3.988   6.907  1.2554 -2.6687 -0.5823
 7399SOL    HW233660   3.093   3.958   6.793 -0.6606 -1.5040  1.9944
 7400SOL     OW33661   4.714   2.378   6.049  0.5534  0.4188 -0.3978
 7400SOL    HW133662   0.057   2.393   6.119 -1.2684  4.4193  0.4622
 7400SOL    HW233663   0.032   2.414   5.970 -0.0104  2.0738  0.0687
 7401SOL     OW33664   0.979   0.699   7.666 -0.2556  0.2127  0.1543
 7401SOL    HW133665   1.046   0.721   7.601 -0.8654  0.4242 -0.4015
 7401SOL    HW233666   0.906   0.753   7.635  0.1687  0.0067 -1.2104
 7402SOL     OW33667   3.980   2.560   1.657  0.2770 -0.4603 -0.4420
 7402SOL    HW133668   4.028   2.597   1.583 -1.7554  1.2397 -0.9236
 7402SOL    HW233669   3.958   2.472   1.625 -1.9382  0.3006 -1.0207
 7403SOL     OW33670   3.186   3.834   6.742  0.2685  0.5017 -0.4534
 7403SOL    HW133671   3.206   3.789   6.824  0.5605  2.9458  0.8062
 7403SOL    HW233672   3.271   3.859   6.707  0.9450  0.7631  1.3859
 7404SOL     OW33673   3.433   2.772   2.823  0.5371 -0.4531 -0.2672
 7404SOL    HW133674   3.433   2.830   2.747 -0.7567 -1.3059 -0.9168
 7404SOL    HW233675   3.385   2.819   2.891 -1.9116 -0.6508 -1.8720
 7405SOL     OW33676   1.504   3.226   2.548  0.5228 -0.4640  0.0897
 7405SOL    HW133677   1.526   3.247   2.457 -1.0988 -0.3818 -0.2850
 7405SOL    HW233678   1.421   3.274   2.557 -0.6404 -2.4893  0.3172
 7406SOL     OW33679   0.187   1.464   4.214 -0.2862  0.1716 -0.6139
 7406SOL    HW133680   0.276   1.430   4.206 -0.4202 -0.1335 -0.8302
 7406SOL    HW233681   0.148   1.426   4.135 -2.2683  0.7623  0.0886
 7407SOL     OW33682   0.609   2.702   0.403  0.0560  0.6320  0.5363
 7407SOL    HW133683   0.598   2.776   0.343 -2.8082  0.1138  0.4671
 7407SOL    HW233684   0.704   2.694   0.412  0.0449  0.2041  0.2263
 7408SOL     OW33685   1.478   0.402  15.802 -0.5169  0.1455 -0.3886
 7408SOL    HW133686   1.539   0.360  15.742  0.7215 -1.4661  2.0042
 7408SOL    HW233687   1.506   0.493  15.796  0.4651 -0.1660 -0.5088
 7409SOL     OW33688   2.681   0.781  16.133 -0.0034  0.0711 -0.2928
 7409SOL    HW133689   2.646   0.715  16.074  0.9067 -1.2433  0.6348
 7409SOL    HW233690   2.727   0.730  16.200 -0.4660  0.1588  0.0894
 7410SOL     OW33691   1.389   1.188  16.525 -0.2249 -0.1651  0.4549
 7410SOL    HW133692   1.438   1.107  16.515 -0.7434 -0.4288  0.0251
 7410SOL    HW233693   1.341   1.180  16.608  1.5082  0.9135  1.5613
 7411SOL     OW33694   2.849   3.521   7.999  0.3274 -0.2433 -0.1075
 7411SOL    HW133695   2.788   3.583   7.958 -1.2660 -1.4299  0.4489
 7411SOL    HW233696   2.914   3.575   8.043  1.4346 -2.6624  1.1977
 7412SOL     OW33697   0.043   2.479  13.369  0.1377 -0.1468 -0.2111
 7412SOL    HW133698   4.689   2.521  13.327  0.4765  0.8654  0.1936
 7412SOL    HW233699   0.061   2.410  13.305  1.8307 -0.9240  1.1074
 7413SOL     OW33700   0.282   1.374   8.828  0.2564  0.3730  0.0442
 7413SOL    HW133701   0.246   1.288   8.810  0.2420  0.0724  1.5254
 7413SOL    HW233702   0.262   1.426   8.750 -1.9958 -0.4757  0.0681
 7414SOL     OW33703   0.892   3.269   2.470 -0.7161 -0.0346  0.1319
 7414SOL    HW133704   0.813   3.303   2.429 -1.3398 -0.2693  1.1475
 7414SOL    HW233705   0.940   3.350   2.485 -1.1219  0.2719 -0.2502
 7415SOL     OW33706   3.441   2.767  16.172 -0.6141  0.0428 -0.3182
 7415SOL    HW133707   3.500   2.788  16.245  0.4522 -0.5238 -1.0194
 7415SOL    HW233708   3.370   2.830  16.175 -2.3803 -1.9172 -0.4956
 7416SOL     OW33709   0.461   4.218  16.330  0.2963 -0.6413 -0.0522
 7416SOL    HW133710   0.405   4.293  16.348  2.2610  0.8197 -0.0618
 7416SOL    HW233711   0.399   4.170  16.275  0.3821 -2.0408  1.0739
 7417SOL     OW33712   1.993   0.891   3.530 -0.7647 -0.3142  0.1767
 7417SOL    HW133713   2.082   0.925   3.526 -1.0702  0.3041 -1.3598
 7417SOL    HW233714   1.970   0.910   3.621  1.5674 -4.2959  1.5742
 7418SOL     OW33715   3.815   3.889   7.657 -0.0333  0.2296 -0.1836
 7418SOL    HW133716   3.889   3.879   7.717  0.4471  0.1073 -0.7867
 7418SOL    HW233717   3.801   3.982   7.645 -2.3419  0.2731  2.8645
 7419SOL     OW33718   0.416   4.493  14.957  0.8453 -0.1349  0.1734
 7419SOL    HW133719   0.481   4.428  14.983 -2.9897 -2.8034  2.9463
 7419SOL    HW233720   0.471   4.551  14.904  0.6538  0.1462  0.2824
 7420SOL     OW33721   2.515   0.788   4.445 -0.0336  0.0872  0.0043
 7420SOL    HW133722   2.587   0.851   4.450 -0.4697  0.7308 -1.8811
 7420SOL    HW233723   2.436   0.838   4.424 -0.9790 -1.2530  0.3778
 7421SOL     OW33724   3.953   3.724   4.882 -0.1065  0.0338 -0.0945
 7421SOL    HW133725   3.877   3.781   4.890 -0.4678 -0.3018 -1.0845
 7421SOL    HW233726   4.021   3.786   4.908 -2.2528  1.2958  2.4695
 7422SOL     OW33727   1.250   1.178  10.484 -0.6310 -0.0227 -0.6932
 7422SOL    HW133728   1.344   1.185  10.471 -0.4336 -2.2084 -0.2588
 7422SOL    HW233729   1.203   1.229  10.418 -1.3762  0.0278 -0.1208
 7423SOL     OW33730   1.984   4.100   7.676 -0.4111 -0.5058  0.5681
 7423SOL    HW133731   2.050   4.101   7.607 -1.7422  0.7758 -0.6990
 7423SOL    HW233732   1.908   4.069   7.626 -0.0296  0.9089 -0.8876
 7424SOL     OW33733   0.407   2.587  16.518  0.0744 -0.1337 -0.4713
 7424SOL    HW133734   0.490   2.538  16.523  0.4805  0.8734  3.0296
 7424SOL    HW233735   0.342   2.525  16.486  1.3002 -2.7566  2.0489
 7425SOL     OW33736   3.442   2.490   6.793 -0.0481  0.2788  0.0777
 7425SOL    HW133737   3.364   2.512   6.742  0.0500  0.9315  0.2049
 7425SOL    HW233738   3.465   2.403   6.762  1.7478  1.5605 -2.1639
 7426SOL     OW33739   3.933   3.265   7.474 -0.4129  0.6618  0.0298
 7426SOL    HW133740   3.977   3.261   7.559 -1.0966 -1.2436  0.3077
 7426SOL    HW233741   3.843   3.246   7.503  0.0913  0.4670  1.4552
 7427SOL     OW33742   3.505   1.634   4.810  0.3003 -0.2124  0.1442
 7427SOL    HW133743   3.578   1.685   4.774  0.0952  0.4730  0.6856
 7427SOL    HW233744   3.546   1.548   4.821  2.4996  0.6754 -1.0556
 7428SOL     OW33745   1.858   4.513   3.533  0.4131  0.4756  0.3465
 7428SOL    HW133746   1.793   4.476   3.593 -0.0143  2.2994  1.0016
 7428SOL    HW233747   1.798   4.527   3.460 -1.2818 -2.2328  1.2201
 7429SOL     OW33748   1.382   0.108  13.445 -0.1328 -0.2596  0.1072
 7429SOL    HW133749   1.305   0.164  13.433 -0.9237 -1.0657  1.3066
 7429SOL    HW233750   1.432   0.135  13.368 -2.4527  2.9887 -0.2679
 7430SOL     OW33751   0.390   2.816   5.336 -0.4682 -0.2790  0.1297
 7430SOL    HW133752   0.444   2.883   5.292 -0.9303  0.1493  0.2155
 7430SOL    HW233753   0.384   2.858   5.422  1.8148 -0.0956  0.2121
 7431SOL     OW33754   2.280   1.936   6.382 -0.4602  0.3392 -0.3019
 7431SOL    HW133755   2.230   1.989   6.320 -0.7773 -1.3880 -1.5424
 7431SOL    HW233756   2.280   1.847   6.346  0.3501 -0.4606  1.6528
 7432SOL     OW33757   2.808   3.117   3.650  0.0700  0.0589  0.3300
 7432SOL    HW133758   2.842   3.108   3.561 -0.2510 -1.1131  0.3209
 7432SOL    HW233759   2.717   3.142   3.633  0.3545  1.5931  1.0460
 7433SOL     OW33760   1.816   0.953   0.147  0.4335  0.2512 -0.1456
 7433SOL    HW133761   1.831   0.904   0.066  1.2136  0.4550 -0.1267
 7433SOL    HW233762   1.810   1.042   0.112  0.1174  1.5625  3.2719
 7434SOL     OW33763   2.367   0.993  13.112 -0.5606 -0.3762 -0.3114
 7434SOL    HW133764   2.292   1.022  13.163 -0.7063 -1.3862  0.0469
 7434SOL    HW233765   2.432   1.060  13.133 -1.0290 -0.3024  0.9020
 7435SOL     OW33766   0.850   0.374  10.904  0.1259  0.4281  0.1024
 7435SOL    HW133767   0.863   0.296  10.851  2.8493  1.4858 -0.8041
 7435SOL    HW233768   0.850   0.338  10.993 -0.6527  0.7671  0.2376
 7436SOL     OW33769   1.091   1.946   5.784  0.2955 -0.0309 -0.3223
 7436SOL    HW133770   1.171   1.976   5.740  0.5383  2.0641  1.5497
 7436SOL    HW233771   1.038   2.016   5.747  1.0440  0.3130 -0.7464
 7437SOL     OW33772   2.470   2.940   1.219 -0.6629 -0.0417  0.4707
 7437SOL    HW133773   2.537   2.998   1.255  0.0897 -2.7372  3.3200
 7437SOL    HW233774   2.498   2.924   1.129  0.1431 -3.4938  1.3666
 7438SOL     OW33775   4.187   2.333   3.982 -0.4341  0.2906 -0.1618
 7438SOL    HW133776   4.276   2.338   3.947  0.2361  0.7164  1.5848
 7438SOL    HW233777   4.137   2.299   3.909 -1.5592  0.6222  0.4479
 7439SOL     OW33778   1.539   0.326   1.517 -0.1842 -0.6942 -0.1770
 7439SOL    HW133779   1.605   0.389   1.487  1.5231 -1.0816  2.7499
 7439SOL    HW233780   1.600   0.255   1.539  0.7029 -0.5912 -2.2291
 7440SOL     OW33781   2.598   1.648   8.023 -0.3840  0.7411  0.0814
 7440SOL    HW133782   2.533   1.701   7.978 -2.1170 -0.3100  1.3164
 7440SOL    HW233783   2.537   1.606   8.084 -1.1968  0.1959 -1.1188
 7441SOL     OW33784   2.323   2.643   8.551 -0.3052  0.0680  0.4787
 7441SOL    HW133785   2.332   2.728   8.509  0.4116 -1.4513 -2.4264
 7441SOL    HW233786   2.274   2.587   8.490  0.3825 -0.3485  0.3059
 7442SOL     OW33787   0.228   3.543   7.892 -0.2021 -0.5316  0.0388
 7442SOL    HW133788   0.159   3.480   7.916 -0.6573 -0.2629 -0.5704
 7442SOL    HW233789   0.309   3.500   7.919 -2.2036 -3.3970  1.6142
 7443SOL     OW33790   2.716   2.669  10.602  0.5117 -0.5516 -0.1546
 7443SOL    HW133791   2.705   2.706  10.690  1.9184  1.5768 -0.8943
 7443SOL    HW233792   2.755   2.737  10.548 -0.7268  0.1621 -0.1451
 7444SOL     OW33793   1.129   1.409   2.863  0.2966 -0.2546  0.1325
 7444SOL    HW133794   1.187   1.483   2.848  0.2356  0.1759  2.0390
 7444SOL    HW233795   1.176   1.363   2.933 -2.0478 -1.5503  0.8688
 7445SOL     OW33796   2.007   3.393   2.283  0.3193  0.7715 -0.7690
 7445SOL    HW133797   1.988   3.300   2.287 -1.0502  1.0559 -0.4095
 7445SOL    HW233798   1.916   3.419   2.269 -0.2756 -1.3462 -0.7018
 7446SOL     OW33799   2.150   3.737   0.285  0.4286 -0.3902 -0.1984
 7446SOL    HW133800   2.203   3.661   0.263  1.3865 -0.1892  1.4362
 7446SOL    HW233801   2.196   3.805   0.235  0.5224 -0.6659 -0.4833
 7447SOL     OW33802   2.065   4.143   7.029 -0.2994  0.0740 -0.6048
 7447SOL    HW133803   2.126   4.200   7.076  0.7603 -0.9727 -0.7391
 7447SOL    HW233804   2.035   4.209   6.966 -2.4694  0.6246  0.9812
 7448SOL     OW33805   4.389   2.421   5.444  0.0090  0.5003 -0.0875
 7448SOL    HW133806   4.466   2.459   5.402 -0.5115  1.2876 -0.3386
 7448SOL    HW233807   4.316   2.459   5.395 -1.2908 -0.1288  1.3824
 7449SOL     OW33808   2.199   1.961  16.180 -0.5054  0.0625 -0.1404
 7449SOL    HW133809   2.119   1.955  16.128 -0.9983 -1.1174  0.7329
 7449SOL    HW233810   2.177   2.021  16.251  1.8186 -0.2674  0.8663
 7450SOL     OW33811   0.854   1.048   1.324 -0.1586  0.0266  0.1377
 7450SOL    HW133812   0.846   1.066   1.230  4.5070 -1.9606 -0.6518
 7450SOL    HW233813   0.931   1.099   1.350  1.0040 -0.6770 -1.9047
 7451SOL     OW33814   0.546   3.735   7.092  0.3174  0.0377  0.4068
 7451SOL    HW133815   0.533   3.680   7.169 -1.3786  1.3319  1.0557
 7451SOL    HW233816   0.518   3.677   7.021 -1.6031 -0.2930  1.4303
 7452SOL     OW33817   2.080   0.137   6.798 -0.4163 -0.1923 -0.3686
 7452SOL    HW133818   2.053   0.195   6.727 -0.2319  0.9857  0.5331
 7452SOL    HW233819   2.050   0.195   6.867  1.8104  1.3667 -0.7447
 7453SOL     OW33820   1.078   3.885  11.287 -0.2460 -0.4596  0.4705
 7453SOL    HW133821   1.153   3.932  11.250 -1.6062 -0.6172 -2.4918
 7453SOL    HW233822   1.018   3.921  11.221 -0.2775 -0.5266  0.4632
 7454SOL     OW33823   1.053   3.124   7.847  0.0905  0.5375 -0.3041
 7454SOL    HW133824   1.139   3.161   7.824  0.5915 -1.4584 -1.6628
 7454SOL    HW233825   1.074   3.067   7.920 -0.1166 -0.1386 -0.7713
 7455SOL     OW33826   3.251   2.061   7.652 -0.4941 -0.0427  0.0502
 7455SOL    HW133827   3.287   1.997   7.590 -2.0720  1.1826 -2.1393
 7455SOL    HW233828   3.162   2.032   7.674 -1.0265  1.6272  0.0913
 7456SOL     OW33829   3.057   2.731  10.277  0.0040  0.0032  0.2876
 7456SOL    HW133830   3.038   2.783  10.198 -0.9821  0.9588  1.1513
 7456SOL    HW233831   3.150   2.743  10.295 -0.4708 -1.2984  3.6415
 7457SOL     OW33832   2.981   0.558  15.088  0.1206 -0.1359 -0.3990
 7457SOL    HW133833   3.033   0.501  15.031 -1.1188 -2.1520  0.4846
 7457SOL    HW233834   3.017   0.538  15.174 -1.9331 -1.4667  0.1582
 7458SOL     OW33835   1.537   2.359   6.568  1.1505  0.2465 -0.5749
 7458SOL    HW133836   1.466   2.386   6.510  0.2317  0.5108  0.6791
 7458SOL    HW233837   1.518   2.390   6.657  1.5260  0.2309 -0.4877
 7459SOL     OW33838   3.616   3.295  13.698 -0.0537  0.1208  0.5282
 7459SOL    HW133839   3.652   3.384  13.704  0.7826 -0.1918  0.0439
 7459SOL    HW233840   3.642   3.256  13.615 -0.5221  2.4989 -0.7482
 7460SOL     OW33841   2.927   4.116   3.909 -0.4001  0.0383  0.2676
 7460SOL    HW133842   2.935   4.056   3.983 -0.2734 -1.2876 -0.8223
 7460SOL    HW233843   3.018   4.143   3.901  0.1894 -2.0503  0.0948
 7461SOL     OW33844   3.236   3.236   7.910  0.4346  0.4233  0.0638
 7461SOL    HW133845   3.141   3.246   7.900  0.1026 -0.5747  2.2162
 7461SOL    HW233846   3.242   3.201   7.999 -1.3550 -1.1939 -0.4501
 7462SOL     OW33847   2.591   1.077   2.420  0.5471  0.3332  0.1993
 7462SOL    HW133848   2.519   1.118   2.371 -1.1798 -0.4559  2.0592
 7462SOL    HW233849   2.547   0.995   2.440  2.2541 -0.2353  1.6111
 7463SOL     OW33850   4.455   0.423   7.242 -0.5885 -0.2920 -0.1913
 7463SOL    HW133851   4.539   0.437   7.286 -0.2129 -1.7217 -0.4508
 7463SOL    HW233852   4.491   0.420   7.153  2.7621 -2.5027  1.2154
 7464SOL     OW33853   1.159   2.415   1.290 -0.2678  0.4833 -0.2085
 7464SOL    HW133854   1.216   2.386   1.360 -1.1563  2.7787  1.4795
 7464SOL    HW233855   1.186   2.358   1.218  0.9043  1.5440 -0.6115
 7465SOL     OW33856   3.030   2.690  14.742  0.0381  0.2529 -0.0478
 7465SOL    HW133857   2.978   2.722  14.816  2.0291  0.3744  1.3250
 7465SOL    HW233858   2.956   2.704  14.684 -0.0431 -0.9497 -0.2266
 7466SOL     OW33859   1.163   0.281   9.790  0.5332 -0.6500 -0.6346
 7466SOL    HW133860   1.240   0.246   9.745  0.9929 -0.9153  0.3644
 7466SOL    HW233861   1.187   0.271   9.882  2.6763 -3.6475 -1.5063
 7467SOL     OW33862   0.424   2.148   0.924  0.6219 -0.0409  0.5233
 7467SOL    HW133863   0.339   2.186   0.947 -0.1670 -0.3653 -1.9196
 7467SOL    HW233864   0.414   2.160   0.830  0.0269 -0.4124  0.5415
 7468SOL     OW33865   3.826   4.637  15.946 -0.2488 -0.1002 -0.1268
 7468SOL    HW133866   3.874   4.719  15.931  0.0058  0.2846  2.8669
 7468SOL    HW233867   3.741   4.672  15.919 -1.1065 -2.9547 -1.0898
 7469SOL     OW33868   2.504   0.251  16.638 -0.5676 -0.1695  0.1883
 7469SOL    HW133869   2.549   0.334  16.652 -0.2975 -0.2500 -0.2104
 7469SOL    HW233870   2.506   0.211  16.725 -1.4681  0.2087  0.3872
 7470SOL     OW33871   2.480   2.756   4.352  0.8439 -0.3643 -0.4350
 7470SOL    HW133872   2.504   2.673   4.310  1.3828 -1.4358  1.9861
 7470SOL    HW233873   2.565   2.784   4.385 -0.3556 -0.1542  2.4181
 7471SOL     OW33874   2.911   4.344   5.138  0.8827 -0.2448 -0.1884
 7471SOL    HW133875   2.946   4.431   5.121 -1.3251  0.6463 -0.1316
 7471SOL    HW233876   2.823   4.372   5.161  1.4940 -0.0909  1.9602
 7472SOL     OW33877   0.038   4.621   0.229 -0.4606 -0.1032 -0.4084
 7472SOL    HW133878   0.088   4.541   0.212 -0.0510  0.3156 -1.1811
 7472SOL    HW233879   4.668   4.590   0.224 -0.8431  1.1447 -1.3109
 7473SOL     OW33880   2.187   0.888  12.886  0.1275  0.6245 -0.0172
 7473SOL    HW133881   2.250   0.895  12.957  0.9211 -0.7970 -0.5862
 7473SOL    HW233882   2.105   0.922  12.922  0.3289 -2.1560  3.0514
 7474SOL     OW33883   0.855   1.296   5.510  1.2363  0.5528 -1.0491
 7474SOL    HW133884   0.771   1.338   5.530  2.3612  1.4185  1.9836
 7474SOL    HW233885   0.856   1.207   5.545 -0.9261 -0.2204 -2.9111
 7475SOL     OW33886   0.468   4.121   6.961 -0.0506  0.1269 -0.3943
 7475SOL    HW133887   0.452   4.168   6.880  0.5778 -0.1574 -0.6849
 7475SOL    HW233888   0.383   4.105   7.003  0.3697 -1.8222 -0.2995
 7476SOL     OW33889   2.209   1.252  12.461 -0.3693  0.5203  0.2409
 7476SOL    HW133890   2.290   1.302  12.469 -0.6163  0.6959  1.5888
 7476SOL    HW233891   2.214   1.188  12.532  1.4515  0.1513 -0.2234
 7477SOL     OW33892   1.052   0.497  17.533  0.1960 -0.1364 -0.7032
 7477SOL    HW133893   1.128   0.449  17.500 -0.7311 -1.0157 -1.5737
 7477SOL    HW233894   0.998   0.507  17.454 -0.3813  1.7171 -0.0652
 7478SOL     OW33895   2.825   0.473   5.093 -0.1189 -0.0747  0.3006
 7478SOL    HW133896   2.825   0.396   5.150  2.2782  0.6281  1.2728
 7478SOL    HW233897   2.732   0.469   5.073  0.2266 -0.2382 -1.2899
 7479SOL     OW33898   4.147   3.907  13.170 -0.4917 -0.0945 -0.0182
 7479SOL    HW133899   4.236   3.875  13.181  0.6916  2.0296 -3.5284
 7479SOL    HW233900   4.150   3.974  13.239 -0.3376 -0.2074  0.0844
 7480SOL     OW33901   3.781   2.607   6.663  0.0065  0.3564  0.1394
 7480SOL    HW133902   3.817   2.696   6.654  0.5293  0.2727  1.2887
 7480SOL    HW233903   3.758   2.599   6.756  0.6122 -2.5131  0.0279
 7481SOL     OW33904   2.005   2.254   7.928 -0.1936 -1.3902  0.2569
 7481SOL    HW133905   2.072   2.192   7.957  0.6046 -0.4293  0.4891
 7481SOL    HW233906   1.928   2.203   7.951  0.2077 -2.3478 -0.5119
 7482SOL     OW33907   1.706   4.614  13.420 -0.6533 -0.2409 -0.2323
 7482SOL    HW133908   1.725   4.660  13.502  1.8210 -1.1555 -0.2800
 7482SOL    HW233909   1.611   4.621  13.424 -0.7012  0.2065 -2.4536
 7483SOL     OW33910   0.103   1.695   2.001 -0.1723 -0.0328 -0.3461
 7483SOL    HW133911   0.183   1.649   1.972 -1.1402 -1.5108 -0.6788
 7483SOL    HW233912   0.057   1.623   2.043  1.9106  0.8816  3.5070
 7484SOL     OW33913   4.096   2.031   0.676 -0.4155 -0.4476 -0.0186
 7484SOL    HW133914   4.148   1.951   0.683 -0.1405 -0.2503  0.2288
 7484SOL    HW233915   4.032   2.025   0.747  1.5356 -1.2975  1.6738
 7485SOL     OW33916   3.941   3.285  16.001 -0.3149 -0.3696  0.2926
 7485SOL    HW133917   3.876   3.227  16.042  0.8273 -1.4559  0.5503
 7485SOL    HW233918   4.021   3.239  16.027  0.1476  0.9469  1.1836
 7486SOL     OW33919   3.077   3.505   3.265  0.2347  0.6545 -0.0339
 7486SOL    HW133920   3.107   3.437   3.325  0.7831  1.8815  1.0892
 7486SOL    HW233921   3.110   3.583   3.309 -0.0729  1.1409 -0.6598
 7487SOL     OW33922   2.806   4.141   7.532  0.7816 -0.1949 -0.0474
 7487SOL    HW133923   2.785   4.150   7.625  0.2642 -1.2733 -0.0556
 7487SOL    HW233924   2.787   4.050   7.511 -1.3360  0.2987 -0.3035
 7488SOL     OW33925   4.352   1.022  12.962  0.8122 -0.0765  0.0811
 7488SOL    HW133926   4.414   0.984  12.900 -0.0113 -0.0379 -0.7533
 7488SOL    HW233927   4.268   0.993  12.927  1.3961 -2.0248  0.2917
 7489SOL     OW33928   1.539   1.931   4.708  0.2272 -0.1965  0.4519
 7489SOL    HW133929   1.515   1.858   4.652  1.0848 -1.1868  1.3987
 7489SOL    HW233930   1.626   1.893   4.716  0.7947  0.8122 -0.8792
 7490SOL     OW33931   3.659   4.416   3.352 -0.1830  0.1624  0.1728
 7490SOL    HW133932   3.713   4.435   3.276 -1.3873  1.5225 -0.3586
 7490SOL    HW233933   3.729   4.397   3.414 -0.2055 -2.2720 -0.5135
 7491SOL     OW33934   3.423   4.683   8.020  0.4992  1.3319  0.4126
 7491SOL    HW133935   3.394   4.688   7.929 -0.1332 -1.0917  0.4826
 7491SOL    HW233936   3.348   4.647   8.066 -0.4859 -2.0623 -3.7682
 7492SOL     OW33937   0.286   3.507   4.802 -0.4832 -0.0931 -0.0621
 7492SOL    HW133938   0.365   3.470   4.842 -0.4702 -0.4776 -0.4469
 7492SOL    HW233939   0.243   3.522   4.886  0.2128  0.9880  0.1135
 7493SOL     OW33940   2.359   0.731   4.843 -0.1456  1.1732 -0.0458
 7493SOL    HW133941   2.392   0.819   4.863  0.5425  0.6821  0.9993
 7493SOL    HW233942   2.266   0.732   4.866  0.3022 -4.2083  2.0929
 7494SOL     OW33943   4.378   0.452   2.440 -0.0328 -0.1093 -0.1073
 7494SOL    HW133944   4.292   0.471   2.477  1.0906  0.7524  2.0237
 7494SOL    HW233945   4.391   0.540   2.405 -2.6973 -0.1227 -1.0987
 7495SOL     OW33946   4.489   2.917   6.483  0.3530  0.2618 -0.4091
 7495SOL    HW133947   4.496   3.003   6.443  0.9967  0.1364 -0.5678
 7495SOL    HW233948   4.493   2.930   6.578  2.4553  0.0522 -0.4717
 7496SOL     OW33949   4.448   0.074   4.066  0.0643  0.4989  0.1965
 7496SOL    HW133950   4.424   0.118   3.985 -1.7535 -0.6104  0.1314
 7496SOL    HW233951   4.541   0.071   4.048 -0.0477  1.9796 -0.5773
 7497SOL     OW33952   1.853   0.903   8.748  0.7275  0.3271  0.3856
 7497SOL    HW133953   1.904   0.825   8.726  0.3988  0.4564 -0.7782
 7497SOL    HW233954   1.865   0.956   8.670  2.3176  0.2654  0.5894
 7498SOL     OW33955   1.591   2.355  16.513  0.5112 -0.2467  0.4303
 7498SOL    HW133956   1.515   2.406  16.540  0.4914  0.2041 -0.4839
 7498SOL    HW233957   1.550   2.276  16.479 -2.2427  2.0041 -1.4725
 7499SOL     OW33958   4.525   2.864   3.431 -0.6167  0.0630 -0.0092
 7499SOL    HW133959   4.468   2.871   3.507 -0.0468 -0.3788  0.4598
 7499SOL    HW233960   4.524   2.956   3.405 -1.1340  0.8158  2.6661
 7500SOL     OW33961   1.252   3.468  14.359  0.5360  0.3234  0.2901
 7500SOL    HW133962   1.299   3.390  14.330 -1.1597 -0.4554 -0.3446
 7500SOL    HW233963   1.325   3.524  14.385 -0.3924  0.8607  1.7321
 7501SOL     OW33964   1.426   1.670  11.604  0.0117  0.0198  0.4609
 7501SOL    HW133965   1.379   1.719  11.536  2.9375  2.6232  0.3233
 7501SOL    HW233966   1.463   1.600  11.550  0.3999  0.8259 -0.3205
 7502SOL     OW33967   2.550   1.528   9.239  0.2030  0.2804 -0.2633
 7502SOL    HW133968   2.475   1.528   9.299 -0.9355  0.3851 -1.6549
 7502SOL    HW233969   2.571   1.437   9.217  0.9091 -0.1041  2.0820
 7503SOL     OW33970   0.377   4.610  10.559  0.2262  0.0266  0.2535
 7503SOL    HW133971   0.307   4.613  10.494  0.2821  0.8654  0.2307
 7503SOL    HW233972   0.431   4.536  10.531 -1.0380 -0.1629 -1.7271
 7504SOL     OW33973   1.989   4.718   9.457  0.7576 -0.1554  0.3191
 7504SOL    HW133974   1.930   4.661   9.505  0.3606 -0.4260 -0.4836
 7504SOL    HW233975   2.006   4.663   9.380 -0.1468  0.4598 -0.3304
 7505SOL     OW33976   3.031   1.965  13.030 -0.2807  0.1945 -0.5262
 7505SOL    HW133977   3.012   1.884  13.077 -0.2645  0.0646 -0.7439
 7505SOL    HW233978   3.010   2.020  13.105  3.2779 -2.7491  2.5829
 7506SOL     OW33979   3.372   2.098   8.591 -0.0722 -0.2702  0.2373
 7506SOL    HW133980   3.444   2.132   8.538  0.4850 -0.4338  0.8861
 7506SOL    HW233981   3.411   2.015   8.619  0.6831 -0.7813 -2.3271
 7507SOL     OW33982   4.234   3.329   4.436  0.6580 -0.1594 -0.1129
 7507SOL    HW133983   4.202   3.276   4.363  3.8992  0.2431 -1.8020
 7507SOL    HW233984   4.290   3.392   4.391  1.6821 -1.0045 -0.0242
 7508SOL     OW33985   0.638   1.688   3.736 -0.2362  0.1142 -0.0434
 7508SOL    HW133986   0.644   1.625   3.808  1.9177  1.1916  0.7175
 7508SOL    HW233987   0.707   1.650   3.680 -0.1165 -0.0313  0.1995
 7509SOL     OW33988   1.993   3.721   9.737  0.8647 -0.3253 -0.4623
 7509SOL    HW133989   2.067   3.665   9.715 -0.6870 -1.0867 -3.8034
 7509SOL    HW233990   1.961   3.730   9.647  1.0285  0.4750 -0.4374
 7510SOL     OW33991   1.881   2.950   3.174  0.0465  0.2617 -0.0160
 7510SOL    HW133992   1.961   2.914   3.213  0.4611  0.2303 -0.8850
 7510SOL    HW233993   1.920   2.968   3.088  1.1358 -0.1679  0.3811
 7511SOL     OW33994   0.407   2.004   0.346 -0.5802 -1.1457  0.0490
 7511SOL    HW133995   0.346   2.052   0.401  0.7871 -0.3880  0.9007
 7511SOL    HW233996   0.351   1.972   0.275 -2.5265 -0.8754  1.4496
 7512SOL     OW33997   1.849   1.562  13.343  0.2146 -0.4451 -0.5022
 7512SOL    HW133998   1.912   1.630  13.367 -0.1547  0.1859 -1.3688
 7512SOL    HW233999   1.811   1.600  13.265  0.4692 -1.6070 -1.1918
 7513SOL     OW34000   1.630   4.516  12.615 -0.1855 -0.2024 -0.4613
 7513SOL    HW134001   1.659   4.605  12.593 -0.4780  0.3188  1.2103
 7513SOL    HW234002   1.682   4.497  12.693 -0.4821  2.3214  0.3833
 7514SOL     OW34003   4.427   1.717   4.197  0.7918  0.3472 -0.3295
 7514SOL    HW134004   4.384   1.638   4.231  0.8986  0.2478 -0.4239
 7514SOL    HW234005   4.509   1.715   4.246  0.2835  0.0672  0.5012
 7515SOL     OW34006   2.998   1.149  12.020  0.2163 -0.0908 -0.1923
 7515SOL    HW134007   3.050   1.228  12.035 -1.2776  0.7737  0.3493
 7515SOL    HW234008   3.038   1.093  12.087  0.2750  0.1049 -0.0643
 7516SOL     OW34009   1.134   1.616   7.741  0.1771  0.3577 -0.5871
 7516SOL    HW134010   1.177   1.650   7.819 -0.1491 -1.4127  0.3731
 7516SOL    HW234011   1.105   1.534   7.782  1.8501 -1.1140 -2.3297
 7517SOL     OW34012   0.236   0.556   5.500 -0.3637  0.0637 -0.2643
 7517SOL    HW134013   0.151   0.513   5.497  0.5258 -1.5968 -1.4515
 7517SOL    HW234014   0.248   0.582   5.409  0.4462  1.1049  0.1318
 7518SOL     OW34015   1.006   1.202   0.342 -0.3611 -0.1082 -0.3144
 7518SOL    HW134016   1.082   1.255   0.365  0.8048 -1.5266 -0.9278
 7518SOL    HW234017   1.013   1.125   0.398 -1.8454  0.6959  0.9947
 7519SOL     OW34018   1.476   3.404   8.795  0.1721 -0.2635  0.0534
 7519SOL    HW134019   1.448   3.449   8.715 -2.7505  0.2680  1.3700
 7519SOL    HW234020   1.548   3.350   8.763 -0.6941 -0.6207 -1.3173
 7520SOL     OW34021   1.439   3.153   6.867 -0.0639  0.1848  0.7614
 7520SOL    HW134022   1.534   3.149   6.874 -0.3152 -4.4755  1.4073
 7520SOL    HW234023   1.434   3.102   6.786  2.1022 -0.5072  1.0819
 7521SOL     OW34024   3.973   1.208   3.021  0.3769  0.1330  0.0461
 7521SOL    HW134025   3.996   1.115   3.020 -0.5212 -0.1002  0.9761
 7521SOL    HW234026   3.994   1.223   3.113 -1.4328 -0.7009  0.5947
 7522SOL     OW34027   3.896   2.894   7.899  0.0733 -0.4660  0.1124
 7522SOL    HW134028   3.879   2.970   7.955  1.6623  1.3338 -1.9052
 7522SOL    HW234029   3.834   2.920   7.831 -1.0308 -1.7876  0.6002
 7523SOL     OW34030   4.299   0.807   6.754  0.1802 -0.3868  0.2594
 7523SOL    HW134031   4.214   0.797   6.711 -0.4358 -0.8295  1.5817
 7523SOL    HW234032   4.292   0.742   6.823  2.0418 -0.2820  0.5378
 7524SOL     OW34033   2.190   0.268   6.243  0.0542 -0.1688 -0.1240
 7524SOL    HW134034   2.104   0.244   6.278 -0.3039 -0.7328 -1.3858
 7524SOL    HW234035   2.202   0.350   6.291 -0.8210  0.2802 -0.6817
 7525SOL     OW34036   2.168   2.958  10.803 -0.7106 -0.1383 -0.2843
 7525SOL    HW134037   2.106   3.030  10.802 -0.5445 -0.0060 -1.3459
 7525SOL    HW234038   2.238   2.999  10.854 -0.9169  0.4354 -0.4691
 7526SOL     OW34039   3.944   0.672   0.694 -0.1551 -0.4476  0.2461
 7526SOL    HW134040   3.977   0.660   0.605  2.7058  0.2262  1.2069
 7526SOL    HW234041   3.905   0.591   0.725  0.2470 -0.4006  0.8618
 7527SOL     OW34042   2.481   0.496   4.798  0.3674  0.2610  0.2866
 7527SOL    HW134043   2.414   0.430   4.816 -0.0123  0.7381  0.6128
 7527SOL    HW234044   2.430   0.576   4.796 -0.7940 -0.4818  0.4073
 7528SOL     OW34045   1.305   3.687   4.882  0.6038  0.4167  0.3027
 7528SOL    HW134046   1.376   3.670   4.819  0.7951  1.4641  0.2332
 7528SOL    HW234047   1.341   3.742   4.951 -0.2241 -2.7641  3.2366
 7529SOL     OW34048   1.706   0.936  13.398 -0.3837  0.4790 -0.8442
 7529SOL    HW134049   1.662   1.004  13.449  1.6603  1.3201 -0.2376
 7529SOL    HW234050   1.785   0.976  13.362  1.3343 -2.9270 -0.9372
 7530SOL     OW34051   4.131   3.207   3.955  0.2477  0.1457  0.2820
 7530SOL    HW134052   4.095   3.224   3.868 -1.6302 -2.0695  0.6544
 7530SOL    HW234053   4.210   3.157   3.933 -0.0336 -1.4980  3.0067
 7531SOL     OW34054   3.686   3.523   5.257 -0.3427  0.1132  0.2870
 7531SOL    HW134055   3.757   3.562   5.206  0.8277 -0.4114  1.5516
 7531SOL    HW234056   3.713   3.433   5.270  0.1914 -0.0456 -1.8394
 7532SOL     OW34057   3.685   3.561  13.524 -0.1655 -0.1501 -0.9419
 7532SOL    HW134058   3.704   3.653  13.506 -0.9038  0.6835  2.5959
 7532SOL    HW234059   3.718   3.520  13.444  3.4969  1.5626 -0.2763
 7533SOL     OW34060   3.925   2.940   9.028  0.2547  1.1534  0.3066
 7533SOL    HW134061   3.898   2.894   9.108 -0.3908  1.1592  0.0966
 7533SOL    HW234062   3.978   3.009   9.066 -0.4532  0.8094  1.9291
 7534SOL     OW34063   1.409   4.296   2.506 -0.4432 -0.3398  0.1939
 7534SOL    HW134064   1.363   4.353   2.444  0.4763 -0.2902 -0.4302
 7534SOL    HW234065   1.470   4.245   2.453  0.7268 -1.7145  2.9051
 7535SOL     OW34066   4.093   0.525  10.616  0.4473  0.5500  0.3225
 7535SOL    HW134067   4.036   0.569  10.679 -0.7273 -0.6629  0.1239
 7535SOL    HW234068   4.129   0.587  10.554 -1.6240  1.5175  0.0866
 7536SOL     OW34069   0.450   1.224  17.267 -0.4333 -0.1399 -0.1789
 7536SOL    HW134070   0.387   1.291  17.294  0.8894  0.3794  1.6331
 7536SOL    HW234071   0.532   1.261  17.298  0.8476 -1.6060 -1.8043
 7537SOL     OW34072   2.679   1.560   8.949 -0.6737 -0.1386  0.5793
 7537SOL    HW134073   2.663   1.587   9.039 -1.3175  0.6468  0.2289
 7537SOL    HW234074   2.611   1.492   8.943 -1.3397  0.6006 -0.2447
 7538SOL     OW34075   2.758   0.414   4.765 -0.0165  0.2068  0.5813
 7538SOL    HW134076   2.750   0.335   4.711 -3.7139  1.2666 -0.4232
 7538SOL    HW234077   2.666   0.426   4.787 -0.7141  0.6089 -2.5015
 7539SOL     OW34078   1.815   2.227  16.582  0.1835 -0.5331 -0.5659
 7539SOL    HW134079   1.759   2.156  16.613  1.0755 -0.5388  1.0292
 7539SOL    HW234080   1.744   2.290  16.579  0.0775 -0.6142  0.2357
 7540SOL     OW34081   4.048   3.778   6.996 -0.0033 -0.5111 -0.2411
 7540SOL    HW134082   4.109   3.704   7.000  1.6135  0.8629  0.7782
 7540SOL    HW234083   4.036   3.803   7.088  0.2987 -0.4318 -0.2224
 7541SOL     OW34084   1.242   1.235   6.549 -0.1865  0.2461  0.5199
 7541SOL    HW134085   1.224   1.259   6.640  2.5490 -0.2213  1.1814
 7541SOL    HW234086   1.154   1.200   6.532  0.5006 -0.2521 -1.9411
 7542SOL     OW34087   1.290   1.958   4.887  0.5372 -0.2941  0.1547
 7542SOL    HW134088   1.270   1.928   4.976 -0.4556 -0.7386 -0.2272
 7542SOL    HW234089   1.386   1.965   4.887  0.6283 -1.5146  0.4975
 7543SOL     OW34090   3.430   3.496   8.531 -0.0005  0.2893 -0.0043
 7543SOL    HW134091   3.517   3.486   8.569  1.3313  1.1144 -2.8694
 7543SOL    HW234092   3.378   3.504   8.611 -0.7464 -1.7954 -0.2808
 7544SOL     OW34093   1.333   3.887   1.624 -0.7102 -0.0885 -0.3183
 7544SOL    HW134094   1.349   3.966   1.676  0.3162 -0.2635 -0.3614
 7544SOL    HW234095   1.298   3.925   1.543 -0.4374 -1.7119 -1.1875
 7545SOL     OW34096   2.680   1.047   0.959  0.5554 -0.2497 -0.0715
 7545SOL    HW134097   2.641   0.980   1.014  0.5411 -0.0737  0.1310
 7545SOL    HW234098   2.702   1.113   1.025 -0.6160  0.2100 -0.1282
 7546SOL     OW34099   3.844   4.183   6.924 -0.2983 -0.3979  0.0295
 7546SOL    HW134100   3.758   4.201   6.963 -0.3586  0.0262 -0.3003
 7546SOL    HW234101   3.900   4.232   6.983 -0.9298  0.1223  0.1975
 7547SOL     OW34102   3.922   0.994   5.885  0.6705  0.1059  0.0138
 7547SOL    HW134103   3.977   0.954   5.953 -0.4532  0.2178  0.9814
 7547SOL    HW234104   3.875   1.064   5.930 -0.5676 -0.3019 -0.6512
 7548SOL     OW34105   2.514   3.073   3.124 -0.6096 -0.3703  0.2531
 7548SOL    HW134106   2.523   3.142   3.189  1.5880 -1.6759  1.3298
 7548SOL    HW234107   2.496   2.989   3.168 -0.5932 -0.4650  0.0797
 7549SOL     OW34108   3.586   0.216   8.310  0.2696 -0.4602  0.2430
 7549SOL    HW134109   3.607   0.231   8.217  2.4582  0.3236  0.8723
 7549SOL    HW234110   3.501   0.174   8.301 -0.6910  1.8190 -1.4178
 7550SOL     OW34111   4.335   0.234  14.428 -0.3334 -0.1540  0.2291
 7550SOL    HW134112   4.261   0.294  14.424  0.0381  0.2904  0.0702
 7550SOL    HW234113   4.291   0.150  14.437  1.3375 -1.2318 -1.4739
 7551SOL     OW34114   4.514   0.692   2.739  0.2584 -0.1922 -0.4416
 7551SOL    HW134115   4.461   0.699   2.659  0.0434 -0.3996 -0.3182
 7551SOL    HW234116   4.534   0.783   2.759 -2.6764  0.0853  1.2663
 7552SOL     OW34117   3.130   2.141   3.287  0.7016  0.1013  0.1092
 7552SOL    HW134118   3.213   2.151   3.332  0.4485  1.4223  0.3029
 7552SOL    HW234119   3.153   2.159   3.196 -0.7798 -0.3538 -0.3493
 7553SOL     OW34120   1.333   0.454   3.400  0.3050 -0.8826 -0.1446
 7553SOL    HW134121   1.341   0.369   3.443 -1.2926 -0.6767  0.5484
 7553SOL    HW234122   1.274   0.501   3.459  0.0524  1.1596 -1.9895
 7554SOL     OW34123   1.233   3.163   7.516 -0.0891 -0.0116  0.1441
 7554SOL    HW134124   1.143   3.156   7.549 -0.4563  1.5553 -0.5240
 7554SOL    HW234125   1.281   3.126   7.590  0.6714 -0.0377 -0.3573
 7555SOL     OW34126   1.737   1.767   8.023  0.4544 -0.1949  0.1994
 7555SOL    HW134127   1.810   1.708   8.042  0.6864 -0.1399 -0.5194
 7555SOL    HW234128   1.681   1.707   8.073 -1.9907  1.4496 -0.6016
 7556SOL     OW34129   2.564   1.724  17.651  0.0107  0.0668  0.0022
 7556SOL    HW134130   2.655   1.696  17.660 -0.5954 -1.5132  1.1738
 7556SOL    HW234131   2.526   1.722   0.051 -0.8219 -0.4782 -0.3711
 7557SOL     OW34132   0.662   1.980   5.423  0.6499  0.0579 -0.0687
 7557SOL    HW134133   0.596   1.967   5.354 -0.3000 -1.4174  1.1081
 7557SOL    HW234134   0.632   2.070   5.440 -1.5965 -0.6508 -0.2083
 7558SOL     OW34135   3.958   1.325   3.806  0.0276  0.3067  1.1012
 7558SOL    HW134136   4.039   1.291   3.767 -0.3759 -0.3648  0.8509
 7558SOL    HW234137   3.991   1.414   3.813  0.0480  0.4126 -0.3444
 7559SOL     OW34138   3.003   3.709  10.981  0.1612  0.3159  0.1096
 7559SOL    HW134139   2.988   3.766  11.057  1.8688  1.4566 -0.4107
 7559SOL    HW234140   3.029   3.624  11.015  0.7796 -0.4509 -2.3101
 7560SOL     OW34141   0.950   1.423   6.016 -0.1458  0.1595 -0.0364
 7560SOL    HW134142   0.914   1.346   6.061 -0.2729 -0.0525 -0.5074
 7560SOL    HW234143   1.043   1.407   6.000  0.1138  1.0749  0.5726
 7561SOL     OW34144   4.036   1.507  11.195  0.1754  0.2294  0.1489
 7561SOL    HW134145   4.003   1.511  11.105 -1.8790  2.8243  1.0208
 7561SOL    HW234146   4.107   1.446  11.175  0.6120  0.4888  0.9457
 7562SOL     OW34147   1.099   4.283  10.972  0.3265 -0.0171  0.5095
 7562SOL    HW134148   1.097   4.196  11.012 -0.0728  0.3065  1.1789
 7562SOL    HW234149   1.172   4.280  10.910 -1.3964 -0.4911 -1.5089
 7563SOL     OW34150   3.367   3.595   1.042 -0.1007  0.3744  0.0706
 7563SOL    HW134151   3.453   3.553   1.031 -0.3610  0.0188 -0.5729
 7563SOL    HW234152   3.370   3.614   1.136 -0.4766 -1.2329  0.4001
 7564SOL     OW34153   4.253   1.053   9.079 -0.2493 -0.1131  0.1158
 7564SOL    HW134154   4.309   1.131   9.077  0.8340 -0.9440 -1.8797
 7564SOL    HW234155   4.302   0.984   9.123 -0.6212 -0.3591  0.1497
 7565SOL     OW34156   0.444   3.080   7.472 -0.1124  0.3950  0.2434
 7565SOL    HW134157   0.486   3.062   7.556 -2.2293  2.7482  1.8283
 7565SOL    HW234158   0.482   3.011   7.418  0.2818  0.1230  0.8664
 7566SOL     OW34159   1.328   3.941   5.038  0.0580 -0.0781  0.0935
 7566SOL    HW134160   1.384   4.017   5.027 -0.1959  0.3868  2.0188
 7566SOL    HW234161   1.271   3.946   4.961 -0.6070  0.6273  0.6276
 7567SOL     OW34162   2.771   4.217   3.272  0.4265 -0.1672  0.0279
 7567SOL    HW134163   2.816   4.279   3.329 -0.1853 -1.3268  1.7518
 7567SOL    HW234164   2.803   4.128   3.285 -0.6993 -0.8191 -1.6500
 7568SOL     OW34165   0.903   1.934   7.506 -0.2856 -0.0201 -0.4338
 7568SOL    HW134166   0.854   1.853   7.520 -2.0371  1.1298  0.0908
 7568SOL    HW234167   0.960   1.936   7.582 -0.0156  0.9579 -0.6643
 7569SOL     OW34168   1.658   3.062  17.541 -0.5516  0.0614  0.3769
 7569SOL    HW134169   1.642   2.968  17.550  0.9400 -0.0353  1.9274
 7569SOL    HW234170   1.647   3.096  17.630  2.4472 -0.4214  0.9303
 7570SOL     OW34171   2.996   2.041   7.758 -0.4554 -0.1270 -0.0226
 7570SOL    HW134172   2.967   1.952   7.774  2.0210 -1.4258 -2.9521
 7570SOL    HW234173   2.914   2.083   7.731 -1.4042 -1.9274  0.0741
 7571SOL     OW34174   1.048   2.190   5.398  0.2122  0.7836 -0.2962
 7571SOL    HW134175   1.015   2.273   5.361 -2.4585 -0.4395 -0.6239
 7571SOL    HW234176   1.139   2.220   5.411 -0.1792  2.1609 -0.6701
 7572SOL     OW34177   3.353   3.911   3.183 -0.3542  0.5204 -0.7029
 7572SOL    HW134178   3.292   3.941   3.251 -0.7070  0.1278 -0.8462
 7572SOL    HW234179   3.413   3.985   3.181  2.3722 -1.6340  1.2618
 7573SOL     OW34180   4.053   3.997   4.427 -0.2601 -0.2167  0.1926
 7573SOL    HW134181   4.035   3.963   4.514  2.4761  1.0472  1.2344
 7573SOL    HW234182   4.024   3.919   4.380 -2.7877  0.5020  0.5083
 7574SOL     OW34183   1.043   1.872   6.320 -0.1483  0.0182 -0.0950
 7574SOL    HW134184   1.012   1.868   6.230 -0.2848  0.3804 -0.0617
 7574SOL    HW234185   1.044   1.967   6.332  0.2672  0.2410 -1.9929
 7575SOL     OW34186   4.450   3.408   4.247 -0.3531  0.1312  0.2265
 7575SOL    HW134187   4.458   3.398   4.152  0.7628  0.6532  0.2717
 7575SOL    HW234188   4.518   3.344   4.267 -1.9841 -1.4796  0.6182
 7576SOL     OW34189   0.410   3.658   3.546  0.3070 -0.0953 -0.1461
 7576SOL    HW134190   0.364   3.637   3.627  0.5213 -1.0433 -0.2660
 7576SOL    HW234191   0.356   3.728   3.510  0.6344  0.7665  1.0750
 7577SOL     OW34192   0.212   2.185   9.309  0.5541 -0.1291  0.6188
 7577SOL    HW134193   0.209   2.135   9.391 -2.9773  2.9919  2.3803
 7577SOL    HW234194   0.119   2.193   9.292 -0.1496  0.2192  4.4713
 7578SOL     OW34195   0.043   4.644   0.511  0.2907 -0.3804 -0.1346
 7578SOL    HW134196   0.124   4.623   0.557 -0.0630 -0.5195  0.4125
 7578SOL    HW234197   0.064   4.643   0.417 -0.2279  0.1807 -0.2587
 7579SOL     OW34198   1.350   0.705   3.021 -0.3182 -0.6322 -0.3962
 7579SOL    HW134199   1.316   0.623   3.057 -2.8041  1.1136  1.2409
 7579SOL    HW234200   1.284   0.772   3.041  0.8471 -0.0716  1.5981
 7580SOL     OW34201   1.770   1.783   2.369  0.3220 -0.4479 -0.4012
 7580SOL    HW134202   1.713   1.859   2.368 -1.4586 -1.7723  0.1926
 7580SOL    HW234203   1.853   1.830   2.376 -0.7626  1.3841  0.1732
 7581SOL     OW34204   1.547   3.737   3.681 -0.0695 -0.0660  0.3339
 7581SOL    HW134205   1.506   3.778   3.605 -0.4564  0.7246  0.9555
 7581SOL    HW234206   1.637   3.735   3.649 -0.3200 -1.5525 -0.2536
 7582SOL     OW34207   2.445   4.120   6.193  0.2170 -0.5112  0.0273
 7582SOL    HW134208   2.382   4.075   6.249  1.2221 -2.1561 -0.1750
 7582SOL    HW234209   2.524   4.114   6.247 -0.1445  0.4305  0.6552
 7583SOL     OW34210   1.165   0.868   3.644 -0.2061  0.7765 -0.0389
 7583SOL    HW134211   1.254   0.873   3.610  0.2027 -2.3553  0.5192
 7583SOL    HW234212   1.114   0.867   3.563  0.9721 -1.7382 -0.7299
 7584SOL     OW34213   0.078   0.651   7.810 -0.0734 -0.1794  0.7163
 7584SOL    HW134214   0.124   0.599   7.876  2.0294  0.0377 -0.5836
 7584SOL    HW234215   0.036   0.721   7.860 -1.9836  0.8110 -2.3261
 7585SOL     OW34216   0.158   0.374   6.044 -0.1595  0.2169  0.3917
 7585SOL    HW134217   0.150   0.358   6.138  0.2729  0.9908  0.5662
 7585SOL    HW234218   0.252   0.391   6.043 -0.6238  2.7874  0.6761
 7586SOL     OW34219   1.370   0.660   4.554  0.3889  0.1104 -0.2536
 7586SOL    HW134220   1.275   0.667   4.547  0.2424  0.2674  1.9697
 7586SOL    HW234221   1.389   0.604   4.629 -2.1330 -1.1472 -0.5402
 7587SOL     OW34222   3.995   2.452   9.348 -0.0156  0.2645  0.0271
 7587SOL    HW134223   3.925   2.448   9.283  2.1250 -0.2720 -2.2286
 7587SOL    HW234224   4.066   2.410   9.299  0.5973  2.7634 -1.2308
 7588SOL     OW34225   3.930   2.085   8.586 -0.5382 -0.0568 -0.2812
 7588SOL    HW134226   3.918   2.180   8.582  1.7499  0.2463  0.1026
 7588SOL    HW234227   4.011   2.067   8.634 -0.3926  1.2911 -0.0198
 7589SOL     OW34228   2.839   0.219   5.224 -0.8406 -0.4009  0.2175
 7589SOL    HW134229   2.774   0.162   5.182 -0.2126 -0.7318 -0.3070
 7589SOL    HW234230   2.904   0.151   5.247  0.8866  1.6516  1.3990
 7590SOL     OW34231   2.282   4.402  14.004 -0.0585 -0.3011  0.4511
 7590SOL    HW134232   2.350   4.462  13.975  1.1704 -1.0971  1.6935
 7590SOL    HW234233   2.306   4.380  14.094 -0.3841  0.5751  0.7494
 7591SOL     OW34234   0.633   2.503   7.842 -0.2557 -0.0317  0.4306
 7591SOL    HW134235   0.560   2.546   7.888  2.6379  1.3567  3.7286
 7591SOL    HW234236   0.582   2.475   7.766 -0.0049 -0.3143  0.3648
 7592SOL     OW34237   2.103   0.720   4.590  0.1818 -0.1689  0.2197
 7592SOL    HW134238   2.092   0.717   4.685 -1.6327  0.4657  0.0220
 7592SOL    HW234239   2.127   0.630   4.565 -1.2545 -0.7149  0.8031
 7593SOL     OW34240   3.276   2.942   9.074  0.2864  0.2158 -0.3870
 7593SOL    HW134241   3.230   2.859   9.060 -2.0180  1.4316  0.0599
 7593SOL    HW234242   3.254   2.976   9.160  0.6044 -2.6985  0.8538
 7594SOL     OW34243   4.109   2.420   8.029 -0.1370 -0.5768  0.4858
 7594SOL    HW134244   4.108   2.514   8.011  0.8707 -0.7411 -0.4192
 7594SOL    HW234245   4.015   2.406   8.023 -0.4816  1.2766  1.2975
 7595SOL     OW34246   2.634   4.346  16.198 -0.1468 -0.0573  0.0320
 7595SOL    HW134247   2.701   4.279  16.195 -1.6859 -1.5774 -0.1937
 7595SOL    HW234248   2.643   4.394  16.115 -1.1970  0.2989  0.1235
 7596SOL     OW34249   1.895   0.774   2.344 -0.2310 -0.4716  0.0148
 7596SOL    HW134250   1.883   0.756   2.250 -1.9792  1.9767 -0.2402
 7596SOL    HW234251   1.977   0.824   2.345 -1.6125  1.7450  2.2435
 7597SOL     OW34252   2.944   1.592   0.021 -0.2067 -0.5579  0.0687
 7597SOL    HW134253   2.934   1.566  17.617 -0.7149  2.4018 -0.7199
 7597SOL    HW234254   2.886   1.541   0.078 -0.7292 -1.1571 -0.9906
 7598SOL     OW34255   2.437   1.025  14.913  0.0072 -0.3561 -0.6054
 7598SOL    HW134256   2.475   0.996  14.995 -1.3983 -0.2456  0.0984
 7598SOL    HW234257   2.416   1.115  14.937  0.8957  0.0207 -1.2425
 7599SOL     OW34258   3.922   1.998   7.123  0.1486  0.4151 -0.0035
 7599SOL    HW134259   3.860   1.974   7.054 -1.9148  1.3784  1.5371
 7599SOL    HW234260   3.869   2.002   7.202 -1.8754  1.2771 -1.4146
 7600SOL     OW34261   3.065   2.546  14.199  0.6330  0.4367  0.3406
 7600SOL    HW134262   3.107   2.460  14.191  2.3494  1.3634 -0.7058
 7600SOL    HW234263   3.115   2.582  14.273  2.1648  1.2389 -1.0809
 7601SOL     OW34264   3.226   1.893   4.270 -0.1918 -0.6672 -0.0265
 7601SOL    HW134265   3.185   1.879   4.184  0.0184  0.1567 -0.2557
 7601SOL    HW234266   3.162   1.850   4.326 -0.5110 -1.2356 -0.8202
 7602SOL     OW34267   1.256   0.792   6.229  0.4162 -0.0294  0.5681
 7602SOL    HW134268   1.318   0.750   6.290 -1.1361 -0.3453  1.9319
 7602SOL    HW234269   1.275   0.736   6.154  0.1536  0.0727  0.4259
 7603SOL     OW34270   3.984   3.866   3.895  0.0261 -0.5882  0.0051
 7603SOL    HW134271   4.032   3.804   3.840  1.1370 -0.2176  0.5579
 7603SOL    HW234272   4.057   3.902   3.945 -0.0132  0.2747 -0.5573
 7604SOL     OW34273   3.102   0.743   6.720 -0.5153 -0.3931  0.0722
 7604SOL    HW134274   3.095   0.650   6.742 -0.2282 -0.3356  0.4018
 7604SOL    HW234275   3.035   0.779   6.777 -0.6473 -0.3310 -0.1203
 7605SOL     OW34276   2.013   0.011   3.512 -0.1218 -0.5907 -0.0403
 7605SOL    HW134277   1.982   0.077   3.449  1.9180  2.0698  1.8066
 7605SOL    HW234278   1.946   4.663   3.516  0.6111 -1.2891  0.0701
 7606SOL     OW34279   2.092   3.778  12.389  0.1607  0.4512 -0.2110
 7606SOL    HW134280   2.125   3.736  12.468 -0.6861  0.9919  0.4325
 7606SOL    HW234281   2.174   3.806  12.349  0.5548 -0.9411 -0.3615
 7607SOL     OW34282   2.413   1.413   8.910  0.6005  0.3728  0.0528
 7607SOL    HW134283   2.404   1.448   8.822 -0.2423 -0.8122 -0.3281
 7607SOL    HW234284   2.344   1.347   8.914  1.5887 -0.8092 -2.5467
 7608SOL     OW34285   1.793   1.324  13.974  0.0638  0.0160  0.5262
 7608SOL    HW134286   1.837   1.385  14.033 -1.2512  0.0633  1.4518
 7608SOL    HW234287   1.762   1.386  13.909 -0.8477 -0.2925  0.6687
 7609SOL     OW34288   3.946   3.955   9.778  0.4980  0.0785  0.2558
 7609SOL    HW134289   4.027   4.005   9.766  0.7378 -0.1373  0.9792
 7609SOL    HW234290   3.885   4.003   9.722  0.7051  0.1814  0.1180
 7610SOL     OW34291   0.363   1.695   3.368  0.0289 -0.2863 -0.2526
 7610SOL    HW134292   0.405   1.609   3.360 -1.0607 -0.9442  0.9159
 7610SOL    HW234293   0.432   1.755   3.343 -1.7575  2.3160  1.1064
 7611SOL     OW34294   3.706   0.613   3.806  0.1552  0.1531 -0.6250
 7611SOL    HW134295   3.723   0.587   3.897  1.9948  2.8941 -0.1896
 7611SOL    HW234296   3.784   0.667   3.794  0.4441 -0.1541 -0.1565
 7612SOL     OW34297   0.108   2.985   9.022  0.3471  0.2509 -0.2240
 7612SOL    HW134298   0.084   2.968   8.931  1.0079  0.1133 -0.3653
 7612SOL    HW234299   0.040   3.041   9.060 -0.3784  0.5283 -1.9488
 7613SOL     OW34300   0.661   2.065   0.349 -0.2524  0.7341 -0.2539
 7613SOL    HW134301   0.685   2.010   0.274 -3.0944  1.7210 -1.8837
 7613SOL    HW234302   0.567   2.048   0.344 -0.4914  1.1123  3.0207
 7614SOL     OW34303   3.044   3.598   4.135 -1.0567 -0.1747  0.0922
 7614SOL    HW134304   3.055   3.505   4.152  0.0712 -0.5153 -2.5151
 7614SOL    HW234305   3.018   3.595   4.043 -1.7495 -0.9395  0.3114
 7615SOL     OW34306   1.774   3.817   3.575  0.1077  0.6340 -0.0156
 7615SOL    HW134307   1.860   3.859   3.566  1.1095 -1.5846 -0.6919
 7615SOL    HW234308   1.790   3.741   3.519 -0.8657  0.8752 -0.6241
 7616SOL     OW34309   2.555   0.581   3.902  0.0541 -0.0855 -0.3877
 7616SOL    HW134310   2.482   0.522   3.882  0.9678 -1.9251  1.7214
 7616SOL    HW234311   2.583   0.615   3.817 -1.5908 -0.0582 -0.9229
 7617SOL     OW34312   1.555   1.886   3.970  0.2804  0.1310  0.0043
 7617SOL    HW134313   1.485   1.923   3.915 -1.0744 -0.8961  1.0238
 7617SOL    HW234314   1.514   1.914   4.052  2.2370 -2.2288  1.7753
 7618SOL     OW34315   1.063   2.465   2.604  0.2630 -0.3539 -0.1695
 7618SOL    HW134316   1.017   2.514   2.536 -0.4681  0.9401  1.2508
 7618SOL    HW234317   1.012   2.384   2.607 -0.3286  0.0491  0.5550
 7619SOL     OW34318   3.459   0.296  13.929 -0.3571 -0.3103 -0.0561
 7619SOL    HW134319   3.544   0.330  13.956 -0.4792  0.8338 -1.1196
 7619SOL    HW234320   3.412   0.264  14.007  0.2859 -3.2472 -0.8570
 7620SOL     OW34321   1.813   2.358   7.222 -0.2351  0.0210 -0.2800
 7620SOL    HW134322   1.766   2.318   7.148 -0.3815  1.7164 -1.0925
 7620SOL    HW234323   1.789   2.299   7.294  0.9679  0.1444  0.2089
 7621SOL     OW34324   4.631   0.867  12.092 -0.4181  0.5164 -0.5253
 7621SOL    HW134325   4.721   0.852  12.123 -0.7393 -0.9934 -0.3263
 7621SOL    HW234326   4.657   0.883  12.001  0.1542  0.9317 -0.2894
 7622SOL     OW34327   0.471   2.654   7.320 -0.2123 -0.1848  0.1970
 7622SOL    HW134328   0.422   2.670   7.239 -4.0839 -2.6729  2.0610
 7622SOL    HW234329   0.480   2.559   7.315 -0.3350 -0.0616 -2.3571
 7623SOL     OW34330   2.540   2.068  13.340 -0.3199 -0.5903 -0.3534
 7623SOL    HW134331   2.489   1.998  13.381 -0.0864 -0.2191  0.5711
 7623SOL    HW234332   2.527   2.139  13.402 -0.2654  0.4605 -1.5333
 7624SOL     OW34333   1.774   2.878  17.034 -1.0150  0.6982 -0.0818
 7624SOL    HW134334   1.724   2.952  17.069 -0.9677  0.2103  1.0107
 7624SOL    HW234335   1.841   2.931  16.992  1.2981 -2.4464 -0.3086
 7625SOL     OW34336   2.922   0.058   3.761 -0.5740 -0.6112 -0.2501
 7625SOL    HW134337   2.859   0.095   3.699 -1.4425 -0.9570  0.4284
 7625SOL    HW234338   2.986   0.010   3.708 -0.2028 -1.2939  0.8324
 7626SOL     OW34339   0.257   3.323   7.091 -0.5790  0.5500 -0.1169
 7626SOL    HW134340   0.300   3.312   7.176 -0.3383  1.9398 -0.0612
 7626SOL    HW234341   0.182   3.377   7.116 -0.7668 -0.0835  0.7046
 7627SOL     OW34342   3.887   4.656   3.470 -0.5949  0.1510 -0.2436
 7627SOL    HW134343   3.921   4.578   3.426 -0.7880 -0.8601  1.4060
 7627SOL    HW234344   3.939   0.005   3.429  0.4735  0.2520  1.2814
 7628SOL     OW34345   0.697   2.323   0.833  0.1133 -0.3798 -0.1972
 7628SOL    HW134346   0.656   2.375   0.902 -0.1510 -0.7352 -0.0842
 7628SOL    HW234347   0.641   2.340   0.758  2.8551  3.7289 -1.3018
 7629SOL     OW34348   1.091   1.983   5.150  0.1078  0.1551  0.4892
 7629SOL    HW134349   1.039   2.010   5.226 -1.6674  0.3438 -0.7814
 7629SOL    HW234350   1.124   2.066   5.117  1.3965  0.3025  2.1205
 7630SOL     OW34351   0.346   1.378  12.098 -0.2355  0.2222 -0.1044
 7630SOL    HW134352   0.361   1.430  12.177 -1.8998 -0.6709  0.8132
 7630SOL    HW234353   0.431   1.336  12.089 -0.2922 -0.0107  0.4257
 7631SOL     OW34354   3.088   0.374   5.333  0.3211  0.1649 -0.0085
 7631SOL    HW134355   3.037   0.350   5.255 -0.7612  2.3106  0.0328
 7631SOL    HW234356   3.161   0.312   5.327 -0.8876 -1.2179 -0.5578
 7632SOL     OW34357   0.160   0.629   8.621  0.4799  0.0889  0.0823
 7632SOL    HW134358   0.189   0.675   8.700 -1.4722  1.0773  0.2280
 7632SOL    HW234359   0.212   0.550   8.633  0.0124 -0.0921  0.9252
 7633SOL     OW34360   0.203   0.113   9.666 -0.5508 -0.1674 -0.3047
 7633SOL    HW134361   0.123   0.117   9.614 -0.0859 -1.4581 -1.1269
 7633SOL    HW234362   0.269   0.088   9.601  0.0339  1.8029 -0.4628
 7634SOL     OW34363   2.124   2.848   3.314  0.6202  0.7882  0.4685
 7634SOL    HW134364   2.169   2.814   3.237 -1.6133  0.7734 -0.8370
 7634SOL    HW234365   2.115   2.764   3.359 -0.5088 -0.1412 -1.4700
 7635SOL     OW34366   4.435   1.899  12.457 -0.5441 -0.2816  0.4200
 7635SOL    HW134367   4.514   1.847  12.469 -0.3206  0.0202  0.2308
 7635SOL    HW234368   4.452   1.935  12.370 -0.4862  0.5886  0.8007
 7636SOL     OW34369   3.316   3.220   6.170  0.0193 -0.4606  0.2475
 7636SOL    HW134370   3.325   3.138   6.219 -0.9447 -2.6628 -3.1804
 7636SOL    HW234371   3.234   3.198   6.124 -0.1978  0.3502  0.2530
 7637SOL     OW34372   3.279   2.231   3.689 -0.4268  0.4306 -0.6287
 7637SOL    HW134373   3.199   2.227   3.636  1.3392 -0.7379 -3.1936
 7637SOL    HW234374   3.237   2.228   3.775 -0.7141  3.8296 -0.6561
 7638SOL     OW34375   0.869   4.516   2.284 -0.1062 -0.0337 -0.0609
 7638SOL    HW134376   0.879   4.471   2.200 -2.2288  0.8156 -0.7790
 7638SOL    HW234377   0.897   4.601   2.248 -0.7400 -0.1659 -0.8649
 7639SOL     OW34378   1.752   2.273   8.639  0.1649 -0.6693 -0.5855
 7639SOL    HW134379   1.824   2.290   8.699 -1.2493  2.4276  0.2350
 7639SOL    HW234380   1.772   2.190   8.595  1.2932 -0.8074  0.1889
 7640SOL     OW34381   3.904   0.275   2.611  0.1856  0.3264  0.4251
 7640SOL    HW134382   3.899   0.224   2.530  1.1382 -0.2427  0.7198
 7640SOL    HW234383   3.945   0.204   2.662 -1.0879 -1.5034 -1.1036
 7641SOL     OW34384   0.393   2.188   6.454  0.6291 -0.0086  0.0625
 7641SOL    HW134385   0.343   2.236   6.520  1.9500  1.0988  0.2292
 7641SOL    HW234386   0.469   2.244   6.445  1.7176 -1.5654 -0.4431
 7642SOL     OW34387   4.704   4.290   4.606 -0.3434 -0.0396  0.3309
 7642SOL    HW134388   4.633   4.351   4.624  1.0353  0.7983  3.0140
 7642SOL    HW234389   4.687   4.256   4.518 -1.4381 -0.5667  0.7467
 7643SOL     OW34390   2.070   2.506  13.261  0.0681 -0.0270 -0.4199
 7643SOL    HW134391   2.035   2.583  13.217  0.3275  1.1190  1.3740
 7643SOL    HW234392   2.162   2.530  13.274 -0.5827  0.2678  3.6687
 7644SOL     OW34393   2.715   3.276  16.093 -0.2876  0.2771  0.5503
 7644SOL    HW134394   2.716   3.211  16.024  0.3154  0.6927  0.1618
 7644SOL    HW234395   2.634   3.323  16.075  0.1756  1.7798  2.3122
 7645SOL     OW34396   1.285   2.525  15.389 -0.3139 -0.1804  0.4717
 7645SOL    HW134397   1.258   2.461  15.323  1.8560  1.2289 -1.7721
 7645SOL    HW234398   1.379   2.512  15.402 -0.3006  1.6415  2.2889
 7646SOL     OW34399   4.074   2.545   9.597 -0.2101  0.0442 -0.2878
 7646SOL    HW134400   4.043   2.492   9.524 -2.7234 -0.4118  1.1378
 7646SOL    HW234401   4.140   2.494   9.644  0.0483  0.0862 -0.6017
 7647SOL     OW34402   0.439   1.531   3.068 -0.5354 -0.7558 -0.2590
 7647SOL    HW134403   0.395   1.616   3.071  1.5511  0.2895  0.5534
 7647SOL    HW234404   0.378   1.466   3.102  1.4111 -3.4685 -1.9280
 7648SOL     OW34405   0.658   2.381   0.559  0.0244  0.2159  1.0476
 7648SOL    HW134406   0.716   2.453   0.583  2.3248 -1.3074  0.0721
 7648SOL    HW234407   0.719   2.309   0.552  1.1495  1.4576 -1.7713
 7649SOL     OW34408   4.508   2.208   2.217 -0.1417 -0.2298 -0.0232
 7649SOL    HW134409   4.533   2.141   2.281 -1.2031 -0.1231  0.5081
 7649SOL    HW234410   4.413   2.200   2.207  0.0886 -0.2675 -2.1086
 7650SOL     OW34411   2.483   1.888  17.146  0.0152 -0.0045  0.0419
 7650SOL    HW134412   2.438   1.921  17.224 -3.3792 -3.5041 -0.3961
 7650SOL    HW234413   2.576   1.891  17.167 -0.0046  3.8067 -0.5647
 7651SOL     OW34414   1.969   4.527   9.268  0.1441 -0.7919 -0.4609
 7651SOL    HW134415   1.885   4.488   9.292  0.0227 -1.4346 -1.9506
 7651SOL    HW234416   2.034   4.469   9.308  0.2647 -0.8070 -0.6841
 7652SOL     OW34417   1.652   0.830  15.161 -0.3591 -0.1547 -0.0623
 7652SOL    HW134418   1.684   0.749  15.122 -1.4257 -1.3501  1.5709
 7652SOL    HW234419   1.721   0.839  15.228 -0.7996  0.2250  0.3346
 7653SOL     OW34420   3.026   1.052  12.466 -0.2148 -1.1203 -0.4327
 7653SOL    HW134421   3.108   1.082  12.506 -0.8222  0.1612 -0.1314
 7653SOL    HW234422   2.987   0.995  12.532  1.1977  1.0456  2.3003
 7654SOL     OW34423   1.609   0.491   5.325 -0.2616 -0.7070 -0.5784
 7654SOL    HW134424   1.674   0.438   5.372 -0.2592  2.3372  2.8538
 7654SOL    HW234425   1.614   0.574   5.373  0.5340 -0.4324 -1.1355
 7655SOL     OW34426   1.118   1.505  11.842 -0.0929  0.4209  0.5531
 7655SOL    HW134427   1.155   1.577  11.892  1.3626 -1.5792  2.3486
 7655SOL    HW234428   1.179   1.434  11.861  0.7540  0.8855 -0.4198
 7656SOL     OW34429   0.290   1.297  16.979 -0.5872  0.2190  0.6867
 7656SOL    HW134430   0.284   1.251  16.895  0.7476  1.9662 -0.3728
 7656SOL    HW234431   0.263   1.228  17.039 -0.8801  2.5615  3.2903
 7657SOL     OW34432   3.408   4.276   6.306 -0.2186  0.1535 -0.6258
 7657SOL    HW134433   3.443   4.352   6.352  1.0423 -1.1024  0.5239
 7657SOL    HW234434   3.380   4.226   6.383  0.9468  1.8071  0.8641
 7658SOL     OW34435   0.331   2.624   4.863  0.0727 -0.1303  0.3454
 7658SOL    HW134436   0.272   2.581   4.801 -0.0166 -0.2085  0.4837
 7658SOL    HW234437   0.263   2.647   4.927 -0.5264  2.7550 -1.3597
 7659SOL     OW34438   1.493   1.624   4.902  0.3246  0.2175  0.0259
 7659SOL    HW134439   1.438   1.569   4.958 -0.7085  0.4230 -0.7925
 7659SOL    HW234440   1.512   1.561   4.833 -0.4430  0.5454 -0.4808
 7660SOL     OW34441   0.200   0.533   1.316  0.1167 -0.3124 -0.1947
 7660SOL    HW134442   0.206   0.628   1.321  1.6825 -0.5190  2.0122
 7660SOL    HW234443   0.114   0.529   1.274  0.6622 -3.5545 -0.9737
 7661SOL     OW34444   1.814   1.660   2.150 -0.7715 -0.5658 -0.0846
 7661SOL    HW134445   1.741   1.678   2.092 -0.8132  0.6533  0.3497
 7661SOL    HW234446   1.788   1.694   2.235 -0.7995 -0.1968 -0.2444
 7662SOL     OW34447   3.623   1.641   3.173 -0.1006  0.3474  0.7121
 7662SOL    HW134448   3.622   1.561   3.226 -0.2062 -2.5020 -3.5433
 7662SOL    HW234449   3.657   1.620   3.086  0.5772  0.6098  0.9107
 7663SOL     OW34450   3.633   4.419  17.479 -0.2291 -0.1483 -0.2455
 7663SOL    HW134451   3.591   4.505  17.479  1.5353  0.7177 -1.4030
 7663SOL    HW234452   3.617   4.406  17.386 -0.4384  0.8252 -0.3521
 7664SOL     OW34453   0.111   0.524  10.138  0.6017 -0.1719  0.5070
 7664SOL    HW134454   0.138   0.434  10.152  1.3982 -0.3068 -1.9111
 7664SOL    HW234455   0.132   0.537  10.045 -2.0278  0.6066  0.0010
 7665SOL     OW34456   3.369   4.029   2.547 -0.2150  0.9366  0.5073
 7665SOL    HW134457   3.337   4.062   2.631  1.2967 -0.1072  1.4754
 7665SOL    HW234458   3.311   4.065   2.479 -1.5388 -2.4200 -0.1337
 7666SOL     OW34459   2.041   4.264   3.728  0.2368 -0.2754  0.9107
 7666SOL    HW134460   2.059   4.261   3.634 -0.3093  0.3941  0.7779
 7666SOL    HW234461   1.949   4.290   3.733  0.9379  2.1741  1.3345
 7667SOL     OW34462   1.312   3.243  15.220 -0.5620 -0.0753 -0.7556
 7667SOL    HW134463   1.276   3.167  15.266  1.5820 -1.5459 -1.4744
 7667SOL    HW234464   1.382   3.215  15.161 -0.3067 -2.1650  0.5508
 7668SOL     OW34465   3.252   4.420  11.956  0.2133 -0.2507  0.4688
 7668SOL    HW134466   3.282   4.332  11.934  1.7962  0.3055  0.3595
 7668SOL    HW234467   3.261   4.474  11.878  0.0118 -0.8689  0.0237
 7669SOL     OW34468   3.999   2.603   0.141 -0.3806  0.3501 -0.3959
 7669SOL    HW134469   3.924   2.547   0.161  0.7986 -1.2072 -0.3390
 7669SOL    HW234470   3.964   2.658   0.071 -0.7867  1.1612  0.4511
 7670SOL     OW34471   3.205   2.994  10.854  0.3191  0.2718  0.1156
 7670SOL    HW134472   3.228   2.937  10.927  1.4754 -2.3414 -2.2666
 7670SOL    HW234473   3.178   2.927  10.791  0.9732 -0.3509  0.5064
 7671SOL     OW34474   2.028   2.405   4.822  0.0783 -0.1360  0.3558
 7671SOL    HW134475   2.041   2.406   4.917 -1.5737  1.0996  0.5519
 7671SOL    HW234476   2.109   2.450   4.797  0.4737 -1.0343  0.0001
 7672SOL     OW34477   4.188   2.384  14.696  0.0724  0.2315  0.5136
 7672SOL    HW134478   4.112   2.381  14.638  1.3084 -0.4474 -1.0964
 7672SOL    HW234479   4.256   2.412  14.634 -1.4278  0.5443 -0.9866
 7673SOL     OW34480   1.794   0.476  12.947  0.1323 -0.1209  0.3810
 7673SOL    HW134481   1.724   0.487  13.012  1.3370  0.1333  1.6499
 7673SOL    HW234482   1.797   0.566  12.913  0.7312 -0.4116 -0.3175
 7674SOL     OW34483   3.195   2.166  16.978 -0.0722 -0.7167 -0.1798
 7674SOL    HW134484   3.214   2.165  16.884  1.0269  0.0217  0.0471
 7674SOL    HW234485   3.280   2.192  17.012 -0.4876 -0.3642  0.5701
 7675SOL     OW34486   0.799   3.389   8.487 -0.2966  0.5310  0.3187
 7675SOL    HW134487   0.782   3.483   8.480 -0.4627  0.5347  0.7632
 7675SOL    HW234488   0.737   3.357   8.422  0.6774 -3.0552  1.1314
 7676SOL     OW34489   4.248   4.643   8.028 -0.2108  0.5814 -0.3707
 7676SOL    HW134490   4.158   4.643   8.061 -0.7543 -3.8711 -1.8757
 7676SOL    HW234491   4.250   0.010   7.992  0.2845  0.5543 -0.4033
 7677SOL     OW34492   4.357   1.637  14.188  0.3633 -0.2411  0.3490
 7677SOL    HW134493   4.345   1.571  14.256  0.4731 -0.0004  0.6042
 7677SOL    HW234494   4.446   1.658  14.215  0.0438  0.8535  0.5901
 7678SOL     OW34495   2.839   0.795  12.378 -0.2975 -0.2044  0.0158
 7678SOL    HW134496   2.747   0.821  12.383 -0.5922 -1.4826  1.3198
 7678SOL    HW234497   2.832   0.728  12.446 -0.5120 -0.7271 -0.5207
 7679SOL     OW34498   1.228   1.285   5.488  0.4453 -0.1271  0.0664
 7679SOL    HW134499   1.216   1.203   5.537 -0.2715 -0.0358  0.0543
 7679SOL    HW234500   1.242   1.345   5.561 -1.2204  2.3336 -1.6390
 7680SOL     OW34501   0.740   2.411   9.167  0.0624 -0.3644  0.4899
 7680SOL    HW134502   0.666   2.446   9.216 -0.3274 -1.4181  0.6491
 7680SOL    HW234503   0.782   2.356   9.233  1.0740  1.7441  1.6168
 7681SOL     OW34504   2.450   3.133   5.516 -0.4659  0.1547  0.5701
 7681SOL    HW134505   2.459   3.156   5.608 -1.4558 -0.4891  0.8324
 7681SOL    HW234506   2.516   3.065   5.504 -1.2130 -0.1827 -1.7137
 7682SOL     OW34507   2.178   4.108   5.298 -0.0217  0.0169  0.5617
 7682SOL    HW134508   2.086   4.099   5.320  0.4630 -4.1639  0.8930
 7682SOL    HW234509   2.173   4.137   5.206 -0.0417  1.0115  0.8715
 7683SOL     OW34510   2.269   4.075   8.157  0.0519 -0.4103  0.0898
 7683SOL    HW134511   2.214   4.043   8.086  1.9730 -0.6979 -1.2649
 7683SOL    HW234512   2.348   4.100   8.110 -0.1324 -0.9970 -0.5452
 7684SOL     OW34513   0.487   1.176   1.080  0.0716 -0.1810  0.0899
 7684SOL    HW134514   0.420   1.245   1.071 -0.7505 -0.7728  1.7627
 7684SOL    HW234515   0.528   1.203   1.161  0.2864 -1.2390  0.3375
 7685SOL     OW34516   4.292   1.612   2.243  0.2144 -0.1280  0.5372
 7685SOL    HW134517   4.308   1.704   2.261  1.5410 -0.6746  2.1773
 7685SOL    HW234518   4.378   1.570   2.232  0.8326  1.1156  0.7147
 7686SOL     OW34519   3.776   0.722   9.002  0.0311 -0.4130  0.5366
 7686SOL    HW134520   3.864   0.757   8.991  0.6590 -2.4319 -0.9507
 7686SOL    HW234521   3.715   0.796   8.999  1.5000  0.7652  0.0733
 7687SOL     OW34522   4.689   4.690   1.383 -0.5943  0.0400  0.0536
 7687SOL    HW134523   0.055   4.654   1.370  0.6919  3.1225 -0.0116
 7687SOL    HW234524   4.699   0.057   1.345  1.6968 -0.8264 -1.3654
 7688SOL     OW34525   3.703   4.016   9.083 -0.0848  0.3697  0.5949
 7688SOL    HW134526   3.660   3.995   9.166 -0.6176 -0.0579  0.2090
 7688SOL    HW234527   3.795   4.029   9.106 -0.2863  1.2143  0.8994
 7689SOL     OW34528   1.800   1.154   5.815  0.2514  0.2863  0.0959
 7689SOL    HW134529   1.820   1.240   5.777 -3.1041 -0.2419 -2.8711
 7689SOL    HW234530   1.747   1.185   5.888 -1.1301 -1.9343  0.0440
 7690SOL     OW34531   2.049   3.556  16.334  0.1427 -0.2890 -0.2392
 7690SOL    HW134532   2.119   3.491  16.341  0.9183  0.3700 -1.7571
 7690SOL    HW234533   2.103   3.635  16.324  2.1652 -1.8099 -1.1902
 7691SOL     OW34534   4.345   3.166   8.139  0.5975 -0.2512  0.2355
 7691SOL    HW134535   4.318   3.086   8.184 -1.6894 -0.5091 -1.6144
 7691SOL    HW234536   4.432   3.170   8.180  1.1775 -2.2524 -0.7591
 7692SOL     OW34537   0.278   1.027  13.013 -0.5493 -0.5622 -0.1024
 7692SOL    HW134538   0.297   1.117  13.039  0.2992 -1.0777  1.0826
 7692SOL    HW234539   0.358   0.979  13.034 -0.9176 -1.1745 -0.0852
 7693SOL     OW34540   1.253   3.226   8.090  0.3021 -0.3169 -0.4742
 7693SOL    HW134541   1.331   3.192   8.135 -1.4091 -4.0540 -0.3495
 7693SOL    HW234542   1.187   3.160   8.112 -1.2051  1.5514  0.6334
 7694SOL     OW34543   2.940   0.906   5.901  0.0670  0.2491  0.3637
 7694SOL    HW134544   2.929   0.998   5.925  1.6676 -0.0466  2.1833
 7694SOL    HW234545   3.029   0.903   5.865  0.3240 -1.1835  1.1389
 7695SOL     OW34546   4.336   2.985   4.165  0.0362 -0.3818  0.1844
 7695SOL    HW134547   4.422   3.001   4.125  0.2765 -1.1389  0.4016
 7695SOL    HW234548   4.370   2.919   4.226  0.7125 -0.1916  0.0192
 7696SOL     OW34549   0.179   2.961  11.276  0.1506 -0.3306  0.0116
 7696SOL    HW134550   0.135   3.028  11.329  1.6015  2.1171 -1.8652
 7696SOL    HW234551   0.144   2.881  11.315 -0.9967 -0.7275 -1.8256
 7697SOL     OW34552   0.010   0.433   5.504 -0.0456 -0.0910 -0.0180
 7697SOL    HW134553   4.654   0.478   5.469  1.6368  2.9678  0.2144
 7697SOL    HW234554   4.699   0.389   5.583 -2.6525  0.7398 -0.6137
 7698SOL     OW34555   3.850   0.120   8.371  0.6989  0.1059 -0.8131
 7698SOL    HW134556   3.759   0.135   8.344  0.0168 -0.9905  0.8276
 7698SOL    HW234557   3.900   0.165   8.303  1.8871 -1.7173 -1.1170
 7699SOL     OW34558   4.334   3.683   2.061 -0.2335  0.0528  0.0019
 7699SOL    HW134559   4.289   3.760   2.095  0.1305 -0.3901  1.4795
 7699SOL    HW234560   4.344   3.628   2.139 -0.2603  0.8534  0.5723
 7700SOL     OW34561   2.387   4.044   7.529  0.0050  0.1643  0.5203
 7700SOL    HW134562   2.315   4.106   7.521 -1.3297 -1.2456  1.7896
 7700SOL    HW234563   2.450   4.069   7.461 -2.1310  0.0565 -1.4786
 7701SOL     OW34564   4.060   3.195  13.133 -0.1242  0.2088  0.1770
 7701SOL    HW134565   4.130   3.209  13.069 -0.3268  2.0583  0.3658
 7701SOL    HW234566   4.024   3.283  13.129 -0.7921  0.0061  1.7728
 7702SOL     OW34567   1.463   0.938  14.955 -0.2395  0.0493  0.3842
 7702SOL    HW134568   1.417   0.854  14.955 -0.4768  0.1709 -0.6593
 7702SOL    HW234569   1.522   0.924  15.028  0.3769 -1.6020 -0.4378
 7703SOL     OW34570   0.665   2.240   5.537 -0.0288  0.4013  0.1875
 7703SOL    HW134571   0.670   2.220   5.631 -1.1598  0.3275  0.2348
 7703SOL    HW234572   0.746   2.290   5.526 -0.8336  1.6247 -0.2042
 7704SOL     OW34573   0.147   2.635   5.075  0.0999 -0.0423 -0.4928
 7704SOL    HW134574   0.086   2.567   5.046 -0.5320 -0.2940  1.4014
 7704SOL    HW234575   0.172   2.622   5.167  0.0925  0.6686 -0.3881
 7705SOL     OW34576   0.332   1.912   7.529  0.1404  0.0700  0.4658
 7705SOL    HW134577   0.310   1.995   7.572  1.0691 -0.2275  1.5319
 7705SOL    HW234578   0.282   1.923   7.448 -0.7152 -0.8797  0.8555
 7706SOL     OW34579   4.013   0.208   4.964  0.0276 -0.1800  0.2116
 7706SOL    HW134580   4.029   0.281   5.024  1.8072 -1.5598  1.4411
 7706SOL    HW234581   3.947   0.252   4.911 -0.8401 -0.5271  0.9981
 7707SOL     OW34582   2.570   4.060   5.957 -0.2595  0.0288  0.4267
 7707SOL    HW134583   2.666   4.064   5.962 -0.3059  0.0493  1.2526
 7707SOL    HW234584   2.546   4.090   6.044  0.9582  1.9673  0.0981
 7708SOL     OW34585   2.100   3.890  16.504 -0.3938 -0.3047 -0.0413
 7708SOL    HW134586   2.121   3.841  16.425  1.4672  0.5672 -0.0978
 7708SOL    HW234587   2.155   3.967  16.489 -1.0796 -0.1258 -1.5851
 7709SOL     OW34588   3.733   3.576   6.072  0.1533 -0.4479 -0.1652
 7709SOL    HW134589   3.712   3.484   6.055  0.2451  0.0389 -2.9439
 7709SOL    HW234590   3.770   3.559   6.158  1.1486 -0.8617 -0.6809
 7710SOL     OW34591   1.568   1.805   6.832  0.3198  0.2993  0.1532
 7710SOL    HW134592   1.499   1.796   6.767  1.1177  1.4271 -0.8641
 7710SOL    HW234593   1.625   1.745   6.784 -1.1441 -0.0221 -1.1691
 7711SOL     OW34594   3.367   0.826   2.302  0.1056 -0.4834 -0.2634
 7711SOL    HW134595   3.281   0.853   2.270  0.6979  1.3715 -0.2987
 7711SOL    HW234596   3.398   0.909   2.340  0.4767 -0.1334 -1.3322
 7712SOL     OW34597   4.516   4.497   5.450 -0.6019  0.5971 -0.3390
 7712SOL    HW134598   4.450   4.522   5.514 -0.9366 -3.4505  0.9037
 7712SOL    HW234599   4.458   4.480   5.375 -1.3455  0.7900  0.1950
 7713SOL     OW34600   2.458   2.873  11.314  0.1043 -0.2423 -0.1481
 7713SOL    HW134601   2.543   2.835  11.292 -0.4771 -1.5969 -0.0595
 7713SOL    HW234602   2.461   2.959  11.273 -0.3028  1.2240  2.8778
 7714SOL     OW34603   0.486   4.024  10.608 -0.3747 -0.9793  0.1256
 7714SOL    HW134604   0.451   4.047  10.522  1.4110  0.2949 -0.2711
 7714SOL    HW234605   0.571   3.984  10.588  0.5254  1.3574 -0.8492
 7715SOL     OW34606   1.837   0.107   5.677 -0.2786  0.1860 -0.7613
 7715SOL    HW134607   1.759   0.053   5.689 -0.3681  0.0427 -1.9767
 7715SOL    HW234608   1.902   0.040   5.656 -0.5585 -0.4801  0.5815
 7716SOL     OW34609   1.616   0.386   8.486  0.5537  0.6341 -0.5025
 7716SOL    HW134610   1.665   0.431   8.555  0.4395  0.0832 -0.0497
 7716SOL    HW234611   1.526   0.405   8.514  0.6080  0.6211 -0.3164
 7717SOL     OW34612   3.358   4.379   8.353  0.3538 -0.4249 -0.0075
 7717SOL    HW134613   3.277   4.329   8.360 -0.3076  0.8035  1.2771
 7717SOL    HW234614   3.340   4.426   8.272 -0.9727  1.1761  1.1903
 7718SOL     OW34615   3.064   2.920   5.895  0.6759  0.8337  0.3815
 7718SOL    HW134616   3.040   2.828   5.902  1.8890  0.7116  3.1542
 7718SOL    HW234617   3.150   2.916   5.854 -0.3580 -0.6276 -1.6113
 7719SOL     OW34618   3.024   1.051  15.786  0.0183 -0.6965 -0.1698
 7719SOL    HW134619   2.960   1.121  15.796  0.3397 -0.5981  1.2605
 7719SOL    HW234620   2.968   0.974  15.802  0.4159 -0.7236  1.1244
 7720SOL     OW34621   2.800   2.546   7.092 -0.7140  0.6651  0.0583
 7720SOL    HW134622   2.817   2.470   7.148 -0.1744 -1.3452 -2.8520
 7720SOL    HW234623   2.723   2.522   7.040  0.7757 -0.0596 -1.7967
 7721SOL     OW34624   2.003   0.943  15.767 -0.0102  0.4453  0.0864
 7721SOL    HW134625   2.078   0.905  15.721  0.8393  0.0871  1.7836
 7721SOL    HW234626   1.989   1.025  15.721 -0.0031  0.7780  0.6804
 7722SOL     OW34627   4.436   4.269   2.826 -0.0382 -0.2027 -0.2792
 7722SOL    HW134628   4.530   4.286   2.823 -0.0763 -0.0622 -0.6881
 7722SOL    HW234629   4.430   4.215   2.747  0.8673 -1.2484  0.3696
 7723SOL     OW34630   1.507   2.474   0.086  0.3779 -0.1827  0.5275
 7723SOL    HW134631   1.424   2.501   0.047 -0.0547 -3.5377 -0.8328
 7723SOL    HW234632   1.502   2.499   0.178 -0.5306 -1.2245  0.7554
 7724SOL     OW34633   2.731   4.692   7.399  0.1208 -0.0198  0.2581
 7724SOL    HW134634   2.706   0.050   7.447 -0.0024 -0.0302  0.2119
 7724SOL    HW234635   2.779   4.650   7.471  1.5789  1.3291  0.0705
 7725SOL     OW34636   2.843   3.113   7.013  0.1142  0.2563  0.0509
 7725SOL    HW134637   2.874   3.023   7.022 -1.7310 -0.3950 -0.1045
 7725SOL    HW234638   2.766   3.099   7.069 -0.4715 -1.1780 -1.1310
 7726SOL     OW34639   3.807   2.554   7.593  0.4395 -0.2284  0.0971
 7726SOL    HW134640   3.753   2.595   7.661  0.3318  1.6880 -1.1644
 7726SOL    HW234641   3.879   2.509   7.638 -1.0670 -1.1788  1.5728
 7727SOL     OW34642   2.266   0.647   2.680  0.2594 -0.1423  0.4470
 7727SOL    HW134643   2.217   0.661   2.761 -0.3826 -2.5531  0.4665
 7727SOL    HW234644   2.204   0.585   2.643  0.6834 -0.8223  0.8872
 7728SOL     OW34645   3.224   3.185   5.698 -0.0358 -0.9628  0.2706
 7728SOL    HW134646   3.186   3.161   5.613  3.5298  1.7344 -2.0563
 7728SOL    HW234647   3.148   3.187   5.756  1.1626 -1.3173  1.8651
 7729SOL     OW34648   2.118   3.450   7.595  0.1548 -0.1789 -0.6400
 7729SOL    HW134649   2.093   3.461   7.503 -1.3235 -1.9117 -0.4368
 7729SOL    HW234650   2.168   3.368   7.592  1.7822  0.8360 -1.8882
 7730SOL     OW34651   0.903   3.296  13.735 -0.6144  0.4077 -0.2390
 7730SOL    HW134652   0.872   3.281  13.824  3.2102  2.5691  1.4565
 7730SOL    HW234653   0.994   3.268  13.740 -1.2543 -1.0984  2.7171
 7731SOL     OW34654   4.219   0.803   7.182 -0.3143 -0.3979  0.6772
 7731SOL    HW134655   4.210   0.709   7.196  0.5452 -0.4679  0.7629
 7731SOL    HW234656   4.304   0.812   7.139 -0.7568  2.0923  0.2568
 7732SOL     OW34657   2.134   3.226   5.919 -0.3740 -0.3165  0.0478
 7732SOL    HW134658   2.159   3.281   5.845  2.3318 -2.0649 -0.3060
 7732SOL    HW234659   2.080   3.157   5.879  0.1611 -0.2360 -0.8096
 7733SOL     OW34660   3.262   4.275   8.694 -0.1399 -0.6116 -0.6285
 7733SOL    HW134661   3.350   4.312   8.689  0.7672 -2.7867 -0.6128
 7733SOL    HW234662   3.202   4.348   8.677  1.7179  1.6963  2.7731
 7734SOL     OW34663   3.936   2.537   2.722 -0.1013  0.5053 -0.3621
 7734SOL    HW134664   3.911   2.591   2.796 -0.5742 -0.2622  0.0331
 7734SOL    HW234665   3.910   2.451   2.753  0.2217  1.2168  1.8669
 7735SOL     OW34666   3.245   1.217   3.681 -0.2078 -0.4495  0.4024
 7735SOL    HW134667   3.255   1.309   3.658  2.8684 -1.0019 -0.4091
 7735SOL    HW234668   3.324   1.204   3.733 -0.3703 -0.8567  0.5505
 7736SOL     OW34669   0.500   0.370  12.231 -0.0245  0.1113  0.2088
 7736SOL    HW134670   0.512   0.305  12.162  1.7181  1.8318 -1.0976
 7736SOL    HW234671   0.503   0.450  12.179 -1.9220 -1.7654 -2.7951
 7737SOL     OW34672   2.626   0.665   3.649  0.3771 -0.3925 -0.2013
 7737SOL    HW134673   2.638   0.597   3.582 -1.4503 -0.4261 -0.4803
 7737SOL    HW234674   2.652   0.745   3.603  1.5830  1.3070  3.4760
 7738SOL     OW34675   3.178   1.699   7.603 -0.2260  0.2181  0.1585
 7738SOL    HW134676   3.243   1.697   7.533 -0.5863 -3.2081 -0.1049
 7738SOL    HW234677   3.173   1.606   7.627  0.5639 -0.1981 -1.2656
 7739SOL     OW34678   0.888   0.042   1.706  0.0177 -0.0194 -0.2036
 7739SOL    HW134679   0.937   0.004   1.633 -0.0611  2.6046 -1.6229
 7739SOL    HW234680   0.815   0.084   1.660 -0.2825  0.7627  0.9750
 7740SOL     OW34681   2.580   1.940   9.898  0.1361  0.2039  0.6109
 7740SOL    HW134682   2.635   1.866   9.873 -1.5964 -1.3093  1.2461
 7740SOL    HW234683   2.519   1.892   9.954  1.2132 -1.6502  0.1959
 7741SOL     OW34684   2.825   1.563   4.124  0.7424  0.6137 -0.2352
 7741SOL    HW134685   2.891   1.584   4.190 -0.3344 -0.1734  1.0938
 7741SOL    HW234686   2.864   1.591   4.041 -1.4787  1.6760 -0.9123
 7742SOL     OW34687   0.986   2.276  17.230  0.6434  0.5444  0.2731
 7742SOL    HW134688   0.912   2.313  17.279  1.0711  2.4690 -0.5261
 7742SOL    HW234689   0.945   2.213  17.170  0.3631 -0.7962  1.8667
 7743SOL     OW34690   1.679   2.042   6.839  0.5607 -0.5030 -0.3312
 7743SOL    HW134691   1.689   2.057   6.933  1.1809 -1.0902 -0.3057
 7743SOL    HW234692   1.637   1.956   6.838  3.8877 -2.1468 -0.5500
 7744SOL     OW34693   3.433   3.896  17.385 -0.1733  0.0977  0.0478
 7744SOL    HW134694   3.450   3.977  17.433 -1.2621 -0.3223  1.1138
 7744SOL    HW234695   3.406   3.929  17.299 -3.2165 -2.2025  0.1527
 7745SOL     OW34696   3.235   2.403   2.265 -0.0959  0.2397  0.1352
 7745SOL    HW134697   3.222   2.326   2.210 -0.7854  0.5020 -0.0735
 7745SOL    HW234698   3.258   2.354   2.344  1.5271  2.2962  0.9390
 7746SOL     OW34699   2.109   3.068   2.115 -0.2681 -0.1577 -0.4103
 7746SOL    HW134700   2.069   3.109   2.038 -0.5468  1.2996  0.4993
 7746SOL    HW234701   2.117   2.978   2.084 -1.8541 -0.0908 -0.9773
 7747SOL     OW34702   1.468   3.880   3.460  0.3880  0.3102 -0.2467
 7747SOL    HW134703   1.390   3.918   3.419  0.1217 -0.4602 -0.4519
 7747SOL    HW234704   1.496   3.956   3.510 -0.0842  0.5544 -0.3498
 7748SOL     OW34705   4.099   4.187   5.995 -0.3087 -0.5781 -0.2356
 7748SOL    HW134706   4.134   4.145   6.073 -1.9048  1.3220  1.4967
 7748SOL    HW234707   4.047   4.253   6.040 -0.2779 -1.2883  0.8268
 7749SOL     OW34708   4.257   0.484   3.370 -0.5854  0.6636  0.0841
 7749SOL    HW134709   4.345   0.521   3.376 -0.7354  0.7034  2.0869
 7749SOL    HW234710   4.198   0.557   3.387 -0.1257  0.4329  2.7445
 7750SOL     OW34711   1.191   2.649   5.128  0.4184  0.1725  0.0456
 7750SOL    HW134712   1.115   2.657   5.070 -0.2091 -0.0662  0.8375
 7750SOL    HW234713   1.262   2.681   5.072  1.7762 -1.7208  0.7328
 7751SOL     OW34714   0.507   3.974   7.369  0.2068 -0.2571  0.0770
 7751SOL    HW134715   0.449   3.897   7.368 -0.8236  0.5388 -1.4555
 7751SOL    HW234716   0.443   4.043   7.382  0.1279 -0.5996  1.5431
 7752SOL     OW34717   3.667   2.821   8.632 -0.2013 -0.2036  0.1637
 7752SOL    HW134718   3.735   2.758   8.658  0.2229  0.7208  1.2952
 7752SOL    HW234719   3.634   2.793   8.547  1.4303 -1.4262 -0.0669
 7753SOL     OW34720   4.680   4.171   6.968 -0.1398 -0.0909 -0.3130
 7753SOL    HW134721   4.618   4.134   6.905 -0.8388  0.9564 -0.2337
 7753SOL    HW234722   4.624   4.182   7.045  0.1877  3.4527 -0.6115
 7754SOL     OW34723   0.668   3.830   4.527  0.4811  0.2015 -0.2987
 7754SOL    HW134724   0.595   3.821   4.466  0.3660  1.6920 -0.3750
 7754SOL    HW234725   0.712   3.902   4.483  1.7494 -0.0200  0.5807
 7755SOL     OW34726   4.110   3.585   5.935  0.3985  0.2055 -0.1502
 7755SOL    HW134727   4.046   3.656   5.940 -0.5724 -0.5490 -1.7064
 7755SOL    HW234728   4.198   3.614   5.958  0.6943 -0.6951 -0.1452
 7756SOL     OW34729   2.639   3.918  13.251  0.2023  0.2122 -0.2556
 7756SOL    HW134730   2.544   3.925  13.261  0.3783  0.1369  1.3479
 7756SOL    HW234731   2.656   3.948  13.161 -1.4456  1.3188 -0.1900
 7757SOL     OW34732   0.841   0.154   1.272  0.0870  0.1249  0.3665
 7757SOL    HW134733   0.749   0.147   1.245  0.3551 -1.6606 -0.0528
 7757SOL    HW234734   0.874   0.222   1.213  0.4097 -1.5673 -1.3929
 7758SOL     OW34735   0.089   2.671  16.056  0.1200  0.2996  0.4187
 7758SOL    HW134736   0.024   2.742  16.052 -0.4635 -0.2850 -0.6323
 7758SOL    HW234737   0.039   2.589  16.064  0.6491 -0.2051 -1.4501
 7759SOL     OW34738   1.619   2.559   2.956  0.1636 -0.1489  0.2713
 7759SOL    HW134739   1.576   2.493   3.010 -1.1992  0.9278  0.4913
 7759SOL    HW234740   1.553   2.586   2.891 -0.7358 -0.7424  0.9402
 7760SOL     OW34741   0.007   1.975   3.689 -0.1850  0.1185  0.1727
 7760SOL    HW134742   0.061   1.898   3.669  1.3794  1.7983 -2.0008
 7760SOL    HW234743   0.061   2.051   3.668  1.7785 -2.1732 -3.0421
 7761SOL     OW34744   4.080   1.230   5.362 -0.0070  0.3393  0.3884
 7761SOL    HW134745   4.006   1.197   5.412  0.2526  1.3366  1.4179
 7761SOL    HW234746   4.061   1.183   5.281  2.3386  0.9948 -0.5638
 7762SOL     OW34747   0.744   4.521   3.011 -0.0911  0.1799 -0.2599
 7762SOL    HW134748   0.676   4.479   3.063  0.4406  0.3713  0.5963
 7762SOL    HW234749   0.727   4.612   3.034 -3.0080 -0.7052  1.0870
 7763SOL     OW34750   0.901   1.178   2.261 -0.3466  0.2411 -0.3360
 7763SOL    HW134751   0.873   1.172   2.170 -3.4268 -0.5975  0.6649
 7763SOL    HW234752   0.964   1.248   2.248 -1.0856  1.0125  0.2258
 7764SOL     OW34753   3.101   2.295   9.608 -0.3272 -0.3717  0.2767
 7764SOL    HW134754   3.051   2.336   9.678 -0.4350 -0.0378  0.0034
 7764SOL    HW234755   3.127   2.373   9.560  3.0498 -1.3345  0.5396
 7765SOL     OW34756   0.416   4.642  11.112  0.1288  0.3860 -1.4140
 7765SOL    HW134757   0.476   4.642  11.038  1.3582  0.1285 -0.4325
 7765SOL    HW234758   0.330   4.609  11.086  0.5950 -0.5660 -1.7534
 7766SOL     OW34759   1.401   2.088  11.883  0.2182  0.3968 -0.0488
 7766SOL    HW134760   1.322   2.141  11.883 -0.3200 -0.4124 -4.5210
 7766SOL    HW234761   1.351   2.007  11.873 -0.1660  0.6700 -0.3615
 7767SOL     OW34762   2.804   3.965   7.847 -0.4944 -0.3441  0.3393
 7767SOL    HW134763   2.714   3.964   7.814 -0.6390  0.3448  0.7034
 7767SOL    HW234764   2.805   4.060   7.863  1.2972 -0.2823 -0.1380
 7768SOL     OW34765   2.301   0.144   2.934 -0.9221  0.3926 -0.6813
 7768SOL    HW134766   2.355   0.168   2.859 -0.1489  0.4284 -0.1061
 7768SOL    HW234767   2.342   0.203   2.997  0.9155 -2.5465  0.8680
 7769SOL     OW34768   3.538   4.282   6.084 -0.2872 -0.4774  0.5417
 7769SOL    HW134769   3.618   4.311   6.126 -0.0692  0.3393 -0.4350
 7769SOL    HW234770   3.488   4.254   6.160 -0.5944  1.8031  1.1747
 7770SOL     OW34771   2.804   4.718  11.993 -0.0747  0.8251  0.4297
 7770SOL    HW134772   2.828   4.683  12.079  2.2119  2.0924  0.3233
 7770SOL    HW234773   2.834   4.644  11.939 -1.7011 -0.2755  1.0364
 7771SOL     OW34774   1.390   0.463   5.572 -0.0325  0.3335  0.1640
 7771SOL    HW134775   1.463   0.420   5.617  0.0652  0.3921  0.0631
 7771SOL    HW234776   1.352   0.388   5.526 -2.5081  1.7620 -0.0865
 7772SOL     OW34777   0.709   2.459   5.802  0.1100 -0.3300  0.0627
 7772SOL    HW134778   0.742   2.515   5.873 -0.2846  0.6085 -0.4943
 7772SOL    HW234779   0.689   2.529   5.740  1.3882 -0.3020 -0.2958
 7773SOL     OW34780   2.756   3.645   2.694 -0.8312 -0.5081  0.6471
 7773SOL    HW134781   2.690   3.576   2.684 -2.0686  0.6037  1.3250
 7773SOL    HW234782   2.786   3.618   2.781 -0.6728  1.9481  1.3368
 7774SOL     OW34783   0.081   3.668  15.506  0.3880 -0.1810  0.1847
 7774SOL    HW134784   0.143   3.719  15.454  0.4768 -0.5016 -0.0229
 7774SOL    HW234785   0.012   3.654  15.441  1.0573 -1.7980 -0.1705
 7775SOL     OW34786   2.055   2.479   6.853 -0.2789  0.1154 -0.1399
 7775SOL    HW134787   2.075   2.388   6.834  3.1512  0.4702  1.7001
 7775SOL    HW234788   2.069   2.486   6.948 -2.4941  1.4885  0.1036
 7776SOL     OW34789   4.364   0.542   7.585  0.0121 -0.0452 -0.5167
 7776SOL    HW134790   4.378   0.578   7.673  1.1041 -2.7351  0.3883
 7776SOL    HW234791   4.349   0.621   7.533 -1.0907 -0.1807 -0.3929
 7777SOL     OW34792   2.220   3.088   8.242  0.0550 -0.0475 -0.6812
 7777SOL    HW134793   2.307   3.126   8.232  0.6751 -1.6355 -1.2189
 7777SOL    HW234794   2.206   3.050   8.155  1.3569  0.6126 -1.1712
 7778SOL     OW34795   4.321   0.395   5.028  0.0412  0.0240 -0.0789
 7778SOL    HW134796   4.365   0.414   5.110 -0.5610  1.1323 -0.0069
 7778SOL    HW234797   4.233   0.375   5.061  0.0813 -0.2358 -0.1331
 7779SOL     OW34798   4.617   3.902   9.885 -0.6676  0.0803 -0.2242
 7779SOL    HW134799   4.529   3.870   9.867  0.1045 -3.2581  1.8528
 7779SOL    HW234800   4.626   3.980   9.831 -1.2810  0.3444  0.0600
 7780SOL     OW34801   4.102   3.254   8.112 -0.5698  0.0542 -0.2372
 7780SOL    HW134802   4.106   3.344   8.079 -0.8904 -0.3955 -1.5002
 7780SOL    HW234803   4.195   3.232   8.111 -0.4347  0.5814  0.4542
 7781SOL     OW34804   0.911   4.199   7.572  0.0703 -0.5685 -0.3483
 7781SOL    HW134805   0.935   4.115   7.532 -0.5514 -0.8563 -0.1245
 7781SOL    HW234806   0.993   4.245   7.555 -0.4240  0.6502  0.5948
 7782SOL     OW34807   1.922   2.564  12.494 -0.0014 -0.1148  0.7223
 7782SOL    HW134808   1.859   2.619  12.447  0.3795 -0.1591  0.1536
 7782SOL    HW234809   2.006   2.575  12.449 -0.3236 -0.5400  0.0163
 7783SOL     OW34810   2.142   1.011   5.665  0.2763  0.6551  0.3000
 7783SOL    HW134811   2.210   0.967   5.716  0.4593  1.4241  0.7132
 7783SOL    HW234812   2.182   1.091   5.630  1.4450 -1.0600 -2.2971
 7784SOL     OW34813   3.238   0.767  15.312 -0.6093 -0.2071  0.0074
 7784SOL    HW134814   3.276   0.809  15.390  1.8082 -2.7097  0.1948
 7784SOL    HW234815   3.247   0.841  15.252  0.9466 -1.0919 -0.8450
 7785SOL     OW34816   1.448   0.880   5.927 -0.4184  0.3809  0.8392
 7785SOL    HW134817   1.381   0.935   5.966 -0.2881  0.2004  1.3121
 7785SOL    HW234818   1.392   0.827   5.871 -0.7257  1.8126 -0.2108
 7786SOL     OW34819   2.821   1.755   4.890  0.6802  0.0231 -0.0489
 7786SOL    HW134820   2.902   1.746   4.841  1.4817 -2.2063  1.7279
 7786SOL    HW234821   2.762   1.795   4.826  0.0434 -1.2002 -0.2245
 7787SOL     OW34822   3.110   2.507  16.282  0.3847  0.4078  0.3667
 7787SOL    HW134823   3.073   2.467  16.203  0.0226 -2.2261  1.8762
 7787SOL    HW234824   3.119   2.432  16.340 -0.1689 -0.4115 -0.5950
 7788SOL     OW34825   0.421   0.580  10.496 -0.0434 -0.0146  0.7825
 7788SOL    HW134826   0.419   0.562  10.403  2.5929 -2.0273  1.1474
 7788SOL    HW234827   0.334   0.620  10.507  0.4604  1.1775  0.5089
 7789SOL     OW34828   1.444   3.189  17.394  0.6078  0.8041 -0.1711
 7789SOL    HW134829   1.515   3.137  17.430 -0.2088  0.1912  0.5677
 7789SOL    HW234830   1.467   3.269  17.442 -1.0513  1.8728 -1.1541
 7790SOL     OW34831   4.583   0.051   1.614  0.4630 -0.1253 -0.0452
 7790SOL    HW134832   4.612   0.007   1.534 -0.3313 -0.9044  0.0829
 7790SOL    HW234833   4.660   0.097   1.647  1.2671 -0.8667 -0.9138
 7791SOL     OW34834   0.397   4.243   0.366 -0.1565 -0.0884 -0.2165
 7791SOL    HW134835   0.457   4.183   0.321 -0.3152 -1.0720  0.8930
 7791SOL    HW234836   0.381   4.190   0.444  0.3584 -0.5833 -0.4496
 7792SOL     OW34837   0.569   4.498  10.029  0.1414 -0.1111  0.2775
 7792SOL    HW134838   0.632   4.546  10.082 -1.7393 -1.5373  3.7781
 7792SOL    HW234839   0.485   4.508  10.073  0.7324 -0.6580  1.5214
 7793SOL     OW34840   4.707   4.366   1.619 -0.3439  0.7007 -0.5938
 7793SOL    HW134841   4.681   4.428   1.688 -0.6339  0.6207 -0.6348
 7793SOL    HW234842   0.070   4.332   1.651 -1.6422 -2.8136 -0.9584
 7794SOL     OW34843   0.693   4.693   8.465 -0.1278 -0.3685  0.2639
 7794SOL    HW134844   0.656   4.703   8.377  0.9110 -0.3510 -0.1604
 7794SOL    HW234845   0.760   0.039   8.465 -0.5084  0.0057  0.7646
 7795SOL     OW34846   4.532   4.679  10.188  0.2661  0.4018  0.8783
 7795SOL    HW134847   4.584   0.026  10.233  0.4862  1.9589 -1.7585
 7795SOL    HW234848   4.597   4.639  10.130 -0.0921 -1.3046  1.6661
 7796SOL     OW34849   2.250   2.256   4.636 -0.4857 -0.1056  0.7051
 7796SOL    HW134850   2.266   2.347   4.661 -0.3214 -0.0238  0.2879
 7796SOL    HW234851   2.221   2.271   4.546 -2.0941 -1.1163  1.0412
 7797SOL     OW34852   2.816   4.510   1.093  0.6150 -0.3841  0.4660
 7797SOL    HW134853   2.831   4.603   1.111  0.5311 -0.4663  0.9522
 7797SOL    HW234854   2.792   4.486   1.183  1.0907  0.2362  0.7568
 7798SOL     OW34855   3.114   4.040  13.756  0.3565  0.4867 -0.5172
 7798SOL    HW134856   3.098   4.134  13.749 -1.0400  0.5608  3.5970
 7798SOL    HW234857   3.183   4.052  13.821  1.3247 -1.0741 -1.2593
 7799SOL     OW34858   4.671   0.513   1.986 -0.4196 -0.5254  0.4209
 7799SOL    HW134859   4.630   0.506   1.900 -1.1202 -0.1366  0.7237
 7799SOL    HW234860   0.004   0.434   1.980 -0.0716 -0.2947  0.5492
 7800SOL     OW34861   4.066   0.061   7.704  0.3659  0.7326  0.0174
 7800SOL    HW134862   4.129   0.104   7.763 -0.0901 -0.3777  1.3095
 7800SOL    HW234863   3.983   0.051   7.751  0.5500 -1.4244 -0.1273
 7801SOL     OW34864   4.680   2.767   9.868  0.2443  0.0904  0.6127
 7801SOL    HW134865   0.003   2.817   9.936  0.1823 -0.7694  1.2901
 7801SOL    HW234866   0.015   2.689   9.861 -0.7680 -0.5453 -0.4476
 7802SOL     OW34867   0.010   3.891   3.202  0.1876  0.2059 -0.0385
 7802SOL    HW134868   4.718   3.966   3.144 -0.6480  1.2936  1.5506
 7802SOL    HW234869   0.037   3.826   3.137  0.0292 -1.1144  1.2222
 7803SOL     OW34870   2.307   4.305   4.568  0.1937  0.7093 -0.2142
 7803SOL    HW134871   2.380   4.364   4.555  1.9409 -1.2810  0.5832
 7803SOL    HW234872   2.355   4.224   4.551 -1.0583 -0.1401  0.2666
 7804SOL     OW34873   1.928   3.721   1.627 -0.0900  0.3045  0.1756
 7804SOL    HW134874   1.920   3.813   1.652 -1.0970 -0.1442  1.5229
 7804SOL    HW234875   1.847   3.680   1.656  0.1175  0.1936  0.5983
 7805SOL     OW34876   3.732   4.434   3.904 -0.0048 -1.1849  0.4056
 7805SOL    HW134877   3.687   4.502   3.954 -0.4669  0.9446 -2.9000
 7805SOL    HW234878   3.814   4.472   3.871  0.0606 -0.3433  1.5321
 7806SOL     OW34879   1.945   4.157   2.832 -0.2394  0.3054 -0.7554
 7806SOL    HW134880   1.952   4.115   2.747  0.5193  2.1590 -1.6204
 7806SOL    HW234881   2.010   4.227   2.840 -2.1883  2.1093 -0.6324
 7807SOL     OW34882   1.298   3.404   6.790  0.3428  0.3829  0.5164
 7807SOL    HW134883   1.350   3.342   6.840 -0.4616  2.2073  3.6397
 7807SOL    HW234884   1.211   3.409   6.830 -0.7985 -2.1261 -1.6193
 7808SOL     OW34885   3.311   0.202   6.826  0.6342 -0.8532  0.2680
 7808SOL    HW134886   3.353   0.279   6.787 -0.2143 -0.4182  0.2151
 7808SOL    HW234887   3.261   0.236   6.900  1.5879 -0.0137  0.5190
 7809SOL     OW34888   2.855   2.699   0.134  0.2015 -0.1102  0.1246
 7809SOL    HW134889   2.852   2.716   0.040  2.6803 -1.6746 -0.2528
 7809SOL    HW234890   2.820   2.785   0.158 -1.4004 -0.3192 -1.5102
 7810SOL     OW34891   2.340   3.931   5.888 -0.5272  0.0989 -0.1957
 7810SOL    HW134892   2.345   3.863   5.956  0.4227  1.1870  0.8134
 7810SOL    HW234893   2.428   3.968   5.896  0.3847 -2.2957  0.9287
 7811SOL     OW34894   0.458   1.994   4.194  0.2577 -0.1103 -0.1908
 7811SOL    HW134895   0.434   1.914   4.240 -1.3536  0.9896  0.8519
 7811SOL    HW234896   0.495   2.037   4.271  1.5576 -3.4757  1.0569
 7812SOL     OW34897   2.878   2.468   8.951 -0.3756  0.1804  0.2188
 7812SOL    HW134898   2.813   2.538   8.957 -1.2380 -0.4312 -2.2634
 7812SOL    HW234899   2.938   2.490   9.023  0.8468 -1.4504 -0.3155
 7813SOL     OW34900   4.105   3.599   6.385  0.1168 -0.0012 -0.3271
 7813SOL    HW134901   4.087   3.526   6.445 -1.9709 -0.6528 -1.7494
 7813SOL    HW234902   4.196   3.575   6.363 -0.4585 -2.6878  0.1757
 7814SOL     OW34903   0.260   0.393   8.602 -0.3727  0.3101 -0.0969
 7814SOL    HW134904   0.241   0.348   8.520 -0.4518  1.6701 -0.8023
 7814SOL    HW234905   0.292   0.322   8.658 -0.2716  0.2686 -0.2079
 7815SOL     OW34906   1.081   4.634   9.447 -0.5806  0.3216 -0.9046
 7815SOL    HW134907   1.053   4.569   9.512  1.5310 -0.3892 -0.6651
 7815SOL    HW234908   1.136   4.689   9.503  0.2273 -0.3300 -1.0411
 7816SOL     OW34909   4.416   3.140   9.058  1.1803 -0.6774 -0.1527
 7816SOL    HW134910   4.328   3.107   9.077  0.3243  0.9461 -1.1933
 7816SOL    HW234911   4.451   3.075   8.997  1.2753 -1.1264  0.3899
 7817SOL     OW34912   2.930   3.839   7.012 -0.0304 -0.5178  0.3304
 7817SOL    HW134913   3.018   3.851   7.048  0.0992 -1.2175  0.2359
 7817SOL    HW234914   2.938   3.752   6.973  0.5546 -0.9993  1.5453
 7818SOL     OW34915   2.618   0.986  12.933  0.1907 -0.2802 -0.3871
 7818SOL    HW134916   2.631   1.074  12.898  0.2590 -0.5560 -1.0555
 7818SOL    HW234917   2.585   1.007  13.021 -0.0751  0.7638 -0.7406
 7819SOL     OW34918   0.720   1.563  16.264  0.8239 -0.2712  0.0888
 7819SOL    HW134919   0.665   1.610  16.201 -0.0790  0.3580  1.3519
 7819SOL    HW234920   0.733   1.625  16.335  2.1723 -0.6120  0.1467
 7820SOL     OW34921   1.890   3.314   4.535 -0.1666  0.0693 -0.6806
 7820SOL    HW134922   1.887   3.219   4.543 -1.2854  0.1439 -0.2046
 7820SOL    HW234923   1.810   3.333   4.487 -0.4081 -0.8126 -0.6172
 7821SOL     OW34924   3.627   3.277   2.173  0.1409 -0.8373  0.2495
 7821SOL    HW134925   3.546   3.242   2.136  0.1080 -0.2810 -0.1952
 7821SOL    HW234926   3.604   3.369   2.171 -3.2992 -1.7378 -1.5640
 7822SOL     OW34927   3.370   1.596  10.446  0.3164 -0.2577 -0.1646
 7822SOL    HW134928   3.432   1.577  10.376  1.0903  1.5524  0.0285
 7822SOL    HW234929   3.419   1.574  10.525  0.9176 -0.3487 -0.5661
 7823SOL     OW34930   2.316   3.420   3.674  0.3216  0.1169 -0.2173
 7823SOL    HW134931   2.382   3.359   3.707 -0.1104 -0.6245 -0.6999
 7823SOL    HW234932   2.355   3.503   3.700 -0.0257  0.5508 -1.0921
 7824SOL     OW34933   1.677   0.159   3.471  0.2542 -0.1330  1.0476
 7824SOL    HW134934   1.742   0.181   3.405 -1.3823 -0.0818 -0.5251
 7824SOL    HW234935   1.605   0.124   3.419  0.7176 -1.2394  1.1504
 7825SOL     OW34936   1.740   3.757   4.845  1.0138  0.4599  0.2717
 7825SOL    HW134937   1.775   3.703   4.916  1.1311  0.9728  0.6035
 7825SOL    HW234938   1.802   3.734   4.775  0.9504 -1.2216  0.7537
 7826SOL     OW34939   2.311   1.113   0.463  0.8070 -0.1052 -0.2012
 7826SOL    HW134940   2.348   1.195   0.429 -0.7706  0.5164 -0.4389
 7826SOL    HW234941   2.230   1.150   0.500  0.9700 -0.4925  0.5511
 7827SOL     OW34942   4.679   2.477   7.502 -0.2818  0.2019  0.0313
 7827SOL    HW134943   4.694   2.498   7.410  0.9968  1.4895  0.5272
 7827SOL    HW234944   4.583   2.482   7.506 -0.2803 -1.7382  2.0390
 7828SOL     OW34945   2.444   4.619   6.375 -0.3289  0.0663 -0.5979
 7828SOL    HW134946   2.398   4.680   6.433 -0.5988  0.1343 -0.8817
 7828SOL    HW234947   2.384   4.621   6.300 -0.0766  2.5953 -0.7143
 7829SOL     OW34948   3.195   1.496   6.833 -0.0953  0.8359  0.1116
 7829SOL    HW134949   3.199   1.541   6.749 -2.0832  2.0273  0.6612
 7829SOL    HW234950   3.245   1.556   6.888  0.5585  0.6457 -0.2773
 7830SOL     OW34951   0.530   0.265   8.466 -0.2790  0.0884 -0.4972
 7830SOL    HW134952   0.620   0.287   8.491 -1.5749  0.0329  4.1551
 7830SOL    HW234953   0.489   0.351   8.454 -3.5963 -1.1145  2.2100
 7831SOL     OW34954   1.905   0.553   7.775  0.4424 -0.3781  0.6251
 7831SOL    HW134955   1.983   0.598   7.806 -0.3459  0.3633  1.5317
 7831SOL    HW234956   1.918   0.553   7.680 -0.2098 -0.6471  0.5359
 7832SOL     OW34957   1.501   4.276   6.146  0.5196  0.0968 -0.0721
 7832SOL    HW134958   1.504   4.217   6.071 -0.1217 -0.9642  0.7362
 7832SOL    HW234959   1.533   4.226   6.222 -1.4830 -0.0582  0.6498
 7833SOL     OW34960   1.451   0.369   8.169 -0.2432  0.2042  0.1789
 7833SOL    HW134961   1.400   0.428   8.224 -1.2141  0.2550 -0.7704
 7833SOL    HW234962   1.383   0.349   8.105  0.5974  0.5146 -0.8124
 7834SOL     OW34963   0.048   4.213  15.702  0.1272  0.5932  0.1297
 7834SOL    HW134964   0.082   4.294  15.662  0.6054  0.3350  0.0190
 7834SOL    HW234965   4.674   4.225  15.699 -0.0558 -0.5922  1.1052
 7835SOL     OW34966   1.929   2.726  13.557 -0.2651  0.5057  0.3586
 7835SOL    HW134967   1.850   2.687  13.594 -0.3820  1.8606  1.5439
 7835SOL    HW234968   1.888   2.811  13.540  2.7308  1.6448 -1.3067
 7836SOL     OW34969   2.397   1.502   0.741 -0.4035 -0.3221 -0.2096
 7836SOL    HW134970   2.317   1.525   0.788  0.4396  3.3313 -0.5482
 7836SOL    HW234971   2.434   1.590   0.730  0.4927 -0.3564  2.7654
 7837SOL     OW34972   4.162   0.970   2.822 -0.7429  0.0690 -0.1763
 7837SOL    HW134973   4.152   0.902   2.756 -0.1594  0.4949 -0.6957
 7837SOL    HW234974   4.111   1.038   2.779 -2.4680 -0.9527  0.2546
 7838SOL     OW34975   1.490   1.995   9.717  0.0982 -0.1810  0.4427
 7838SOL    HW134976   1.432   2.042   9.659  1.9405 -1.6937 -2.6243
 7838SOL    HW234977   1.519   1.932   9.651 -1.1301 -1.6887  1.3424
 7839SOL     OW34978   4.013   0.116  14.235 -0.1662  0.0799 -0.0698
 7839SOL    HW134979   4.024   0.046  14.299 -3.4620 -1.3763 -1.0678
 7839SOL    HW234980   4.096   0.127  14.189 -0.3980  0.6876 -0.3379
 7840SOL     OW34981   2.724   1.237   0.555 -0.1105  0.1488 -0.2687
 7840SOL    HW134982   2.773   1.315   0.526 -0.8916  1.5433  2.1247
 7840SOL    HW234983   2.633   1.266   0.550 -0.3879 -0.8893 -0.9914
 7841SOL     OW34984   0.176   3.664   6.300  0.5215  0.2786  0.5454
 7841SOL    HW134985   0.131   3.706   6.373  2.1954  1.6979  0.7496
 7841SOL    HW234986   0.245   3.627   6.355 -1.1770  0.0985  2.5699
 7842SOL     OW34987   4.537   3.935   6.570  0.1276  0.3493 -0.0945
 7842SOL    HW134988   4.484   3.944   6.491  1.4949  2.0167 -0.8259
 7842SOL    HW234989   4.607   3.992   6.538  0.0964  0.1472 -0.5284
 7843SOL     OW34990   2.470   3.806  10.660  0.1694 -0.2290  0.2525
 7843SOL    HW134991   2.439   3.796  10.750 -0.5275 -0.9340 -0.0601
 7843SOL    HW234992   2.395   3.859  10.632  0.4443  0.5958  1.0819
 7844SOL     OW34993   2.453   3.766  10.121 -0.0631  0.2932 -0.1977
 7844SOL    HW134994   2.460   3.848  10.072 -0.6797 -0.2299 -1.1644
 7844SOL    HW234995   2.492   3.800  10.202  0.6005  0.4941 -0.6001
 7845SOL     OW34996   3.856   2.970   1.092  0.4115 -0.5563  0.4365
 7845SOL    HW134997   3.925   3.008   1.146 -0.9769 -0.1402  1.9333
 7845SOL    HW234998   3.885   2.996   1.005  0.8570  0.0457  0.7664
 7846SOL     OW34999   2.896   3.144   6.747 -0.0142 -0.3599  0.9308
 7846SOL    HW135000   2.970   3.086   6.732 -1.3630 -1.6793 -0.5816
 7846SOL    HW235001   2.880   3.124   6.839  0.7252  1.0218  1.3582
 7847SOL     OW35002   0.523   0.245  15.540  0.1806  0.5449 -0.0841
 7847SOL    HW135003   0.534   0.218  15.449 -0.1655  2.4523 -0.6896
 7847SOL    HW235004   0.491   0.334  15.523 -0.6833  0.5359  1.4326
 7848SOL     OW35005   0.574   1.017   3.815 -0.1672  0.4007  0.4072
 7848SOL    HW135006   0.635   1.074   3.861  0.6714  0.8489 -1.2472
 7848SOL    HW235007   0.494   1.070   3.820 -0.4190  0.1410 -0.7060
 7849SOL     OW35008   1.387   1.543   8.900  0.0127  0.4101  0.7441
 7849SOL    HW135009   1.395   1.611   8.833  1.0437  0.5877  1.0371
 7849SOL    HW235010   1.436   1.477   8.851 -1.6531 -0.0458 -0.3142
 7850SOL     OW35011   2.150   1.554  12.388  0.1954  0.3618 -0.6271
 7850SOL    HW135012   2.081   1.510  12.438  0.2285  1.9644  0.8203
 7850SOL    HW235013   2.129   1.645  12.406  2.6888  0.8061  0.0097
 7851SOL     OW35014   3.651   3.010   6.135 -0.6106  0.0671 -0.6620
 7851SOL    HW135015   3.741   3.032   6.113  0.4314 -3.6122 -0.0319
 7851SOL    HW235016   3.649   2.915   6.150 -0.2256  0.2513  0.6099
 7852SOL     OW35017   0.646   2.176   4.294 -0.1042 -0.4146 -0.4382
 7852SOL    HW135018   0.689   2.185   4.379  0.5186  1.2893 -0.9407
 7852SOL    HW235019   0.705   2.121   4.242 -1.5323 -0.8960 -1.5631
 7853SOL     OW35020   3.233   4.121   2.339  0.1890  0.2201 -0.3033
 7853SOL    HW135021   3.188   4.090   2.260 -1.6291  2.6582 -0.2202
 7853SOL    HW235022   3.169   4.188   2.363  0.0312 -0.5051  1.2746
 7854SOL     OW35023   1.283   3.426   4.301  0.1950 -0.9256  0.4365
 7854SOL    HW135024   1.211   3.474   4.259 -0.4081 -0.9917  1.4090
 7854SOL    HW235025   1.346   3.415   4.229 -2.0908 -1.8072 -1.4002
 7855SOL     OW35026   0.890   0.059  11.795  0.4721  0.0488 -0.0276
 7855SOL    HW135027   0.849   4.717  11.854 -2.0690  1.1755 -0.5599
 7855SOL    HW235028   0.967   0.004  11.782 -0.9236 -1.9004 -0.1006
 7856SOL     OW35029   0.112   2.975   4.118 -0.6254 -0.2762  0.0724
 7856SOL    HW135030   0.101   3.034   4.192 -0.4547  1.2845 -1.1490
 7856SOL    HW235031   0.199   2.943   4.140 -0.7218 -1.1091 -0.7424
 7857SOL     OW35032   2.193   2.369   5.703 -0.0243  0.1818  0.2972
 7857SOL    HW135033   2.266   2.430   5.715  0.2353  0.2927 -1.8843
 7857SOL    HW235034   2.223   2.328   5.623 -0.3818 -0.9850  0.7557
 7858SOL     OW35035   3.218   4.697  16.123 -0.9312  0.0413 -1.3262
 7858SOL    HW135036   3.197   0.044  16.060 -0.1427 -0.7129 -2.3843
 7858SOL    HW235037   3.131   4.673  16.156 -0.0257 -0.3059  0.8537
 7859SOL     OW35038   0.125   2.656   6.692 -0.1991  0.0107  0.2451
 7859SOL    HW135039   0.054   2.617   6.640 -0.1525  0.1015  0.1147
 7859SOL    HW235040   0.160   2.714   6.625  1.5494 -1.4568 -0.1245
 7860SOL     OW35041   3.594   0.400   5.881 -1.0250  0.6634 -0.3672
 7860SOL    HW135042   3.622   0.353   5.802  0.6339  1.9154 -0.5191
 7860SOL    HW235043   3.502   0.373   5.876 -0.3942 -1.5369 -0.1072
 7861SOL     OW35044   0.484   4.607   0.388  0.1145 -0.0787  0.2326
 7861SOL    HW135045   0.559   4.634   0.441  0.0253  2.4575 -0.9159
 7861SOL    HW235046   0.487   4.687   0.335  0.8916  0.8393  1.6591
 7862SOL     OW35047   2.987   3.577   6.866 -0.2141 -0.1992 -0.3763
 7862SOL    HW135048   3.026   3.516   6.804  0.2644  0.0157 -0.2857
 7862SOL    HW235049   3.070   3.618   6.890  0.1778 -0.9716 -0.4371
 7863SOL     OW35050   2.514   4.551   2.293  0.3018 -0.8015 -0.0638
 7863SOL    HW135051   2.497   4.585   2.381  3.6344 -0.7258  0.5732
 7863SOL    HW235052   2.533   4.459   2.310 -0.1239 -0.8550  0.0990
 7864SOL     OW35053   0.009   2.415   8.185 -0.5384  0.7660 -0.6053
 7864SOL    HW135054   4.640   2.386   8.168 -0.7747  1.6558 -0.8881
 7864SOL    HW235055   0.006   2.420   8.281 -0.7138  1.5175 -0.6494
 7865SOL     OW35056   3.516   0.117   2.145 -0.2452  0.7738  0.5191
 7865SOL    HW135057   3.486   0.116   2.054 -1.2648 -1.8976  0.8983
 7865SOL    HW235058   3.609   0.104   2.130 -0.1118  2.2551  0.0989
 7866SOL     OW35059   0.028   2.638   9.284 -0.4941  0.3011  0.4880
 7866SOL    HW135060   4.709   2.715   9.324 -3.7983 -1.1294 -0.1340
 7866SOL    HW235061   4.684   2.625   9.215  0.9493  1.8067 -1.1782
 7867SOL     OW35062   3.753   1.735   9.596 -0.1217 -0.0165 -0.0925
 7867SOL    HW135063   3.828   1.679   9.615 -0.8551 -0.8593  0.3133
 7867SOL    HW235064   3.698   1.688   9.534  1.0413  0.1499 -1.2494
 7868SOL     OW35065   3.691   2.115   3.175 -0.0646  0.2618  0.4180
 7868SOL    HW135066   3.747   2.103   3.098 -0.6131 -2.0814  0.3833
 7868SOL    HW235067   3.618   2.160   3.133  0.1747  0.5408  0.2981
 7869SOL     OW35068   4.234   2.742   1.684  1.0740  0.2089  0.3436
 7869SOL    HW135069   4.257   2.674   1.620  0.1600 -0.3960  0.6565
 7869SOL    HW235070   4.298   2.807   1.656  0.4923  1.1444  1.2055
 7870SOL     OW35071   4.098   0.908   8.179 -0.3779  0.1218  0.0967
 7870SOL    HW135072   4.140   0.957   8.250 -0.2060 -0.1827  0.2074
 7870SOL    HW235073   4.169   0.911   8.114 -1.1776 -0.0770 -0.7774
 7871SOL     OW35074   1.086   1.506   6.312 -0.2783  0.5446  0.5019
 7871SOL    HW135075   1.126   1.450   6.245 -0.4942  0.5493  0.3689
 7871SOL    HW235076   1.094   1.586   6.260 -2.2389  1.4899  1.6447
 7872SOL     OW35077   1.070   3.466   2.520 -0.4053  0.2110 -0.4250
 7872SOL    HW135078   1.010   3.541   2.511  1.5208  1.7954 -0.0625
 7872SOL    HW235079   1.152   3.511   2.500 -0.6790  1.1661  0.5466
 7873SOL     OW35080   1.316   2.965  13.148  0.0643 -0.6915  0.6103
 7873SOL    HW135081   1.375   2.897  13.116  0.9107  0.2589  0.1748
 7873SOL    HW235082   1.271   2.976  13.065  1.2173 -0.8020 -0.0227
 7874SOL     OW35083   1.248   2.489   7.759  0.2146 -0.4261  0.4579
 7874SOL    HW135084   1.194   2.410   7.757 -0.7998  0.2965 -1.5959
 7874SOL    HW235085   1.313   2.471   7.826 -0.6287  0.1707  1.4224
 7875SOL     OW35086   3.688   2.126   0.205 -0.0390 -0.0649  0.3509
 7875SOL    HW135087   3.651   2.190   0.143 -0.5607 -0.1290  0.5977
 7875SOL    HW235088   3.657   2.159   0.289 -0.8496  0.1054 -0.0191
 7876SOL     OW35089   1.755   3.146   1.705 -0.2028 -0.1224 -0.0779
 7876SOL    HW135090   1.800   3.079   1.757  1.7491  1.5704  0.3949
 7876SOL    HW235091   1.676   3.095   1.685  0.1392 -0.7468  0.1696
 7877SOL     OW35092   0.420   1.720   5.381  0.3436  0.6072 -0.7966
 7877SOL    HW135093   0.389   1.674   5.302 -1.6317  1.0035 -0.2523
 7877SOL    HW235094   0.395   1.665   5.455  0.7025  1.8982  0.2711
 7878SOL     OW35095   0.429   0.023   5.034 -0.1133  0.1866 -0.6485
 7878SOL    HW135096   0.347   0.062   5.062 -1.4027 -0.8614 -2.9751
 7878SOL    HW235097   0.453   0.085   4.965  0.0902  1.8545  0.9114
 7879SOL     OW35098   0.096   4.346   0.658 -0.5439  0.0014  0.6532
 7879SOL    HW135099   0.167   4.405   0.632 -1.0115 -0.0070 -0.5873
 7879SOL    HW235100   0.022   4.405   0.648 -0.4668  0.5283  3.0492
 7880SOL     OW35101   4.404   0.028   8.877  0.0005  0.5176  0.0162
 7880SOL    HW135102   4.491   4.719   8.900 -1.3980 -2.2488  1.6245
 7880SOL    HW235103   4.382   4.687   8.808  1.5065 -1.0609  0.9665
 7881SOL     OW35104   0.727   1.613  16.569 -0.2222 -0.2433 -0.5952
 7881SOL    HW135105   0.690   1.538  16.522 -0.1628 -0.6171 -0.0407
 7881SOL    HW235106   0.823   1.610  16.564 -0.1716 -1.3457  0.8827
 7882SOL     OW35107   4.418   3.508   2.284  0.3149 -0.3179 -0.3771
 7882SOL    HW135108   4.498   3.536   2.240  0.2263 -0.2336 -0.4872
 7882SOL    HW235109   4.431   3.545   2.372 -1.0298  1.3947 -0.8898
 7883SOL     OW35110   1.270   3.652  10.478  0.3315 -0.2429  0.7159
 7883SOL    HW135111   1.190   3.621  10.521  0.1261  1.5153  1.6145
 7883SOL    HW235112   1.237   3.664  10.388 -1.5479 -0.9893  1.3030
 7884SOL     OW35113   2.605   1.879   5.101 -0.5284 -0.0316  0.1215
 7884SOL    HW135114   2.674   1.847   5.044 -1.6008 -2.4405  0.1774
 7884SOL    HW235115   2.525   1.895   5.050 -1.1593 -1.6669  0.6023
 7885SOL     OW35116   2.696   3.582   2.426  0.1007 -0.3297 -0.1087
 7885SOL    HW135117   2.614   3.587   2.475 -0.6877  0.8349 -1.5566
 7885SOL    HW235118   2.745   3.625   2.496  0.7265  0.3077 -0.9331
 7886SOL     OW35119   2.632   2.481  14.062 -0.2678 -0.6003  0.7321
 7886SOL    HW135120   2.562   2.509  14.121  0.2652  1.6544  0.2750
 7886SOL    HW235121   2.614   2.549  13.998 -1.5370  0.3320  2.0890
 7887SOL     OW35122   2.375   1.270   7.735 -0.1222 -0.3256 -0.5434
 7887SOL    HW135123   2.352   1.302   7.822  0.5260 -1.7166  0.1340
 7887SOL    HW235124   2.375   1.175   7.746 -1.9080 -0.2213  0.3966
 7888SOL     OW35125   4.032   1.063   5.133  0.7165  0.1286 -0.0950
 7888SOL    HW135126   4.020   1.126   5.062  1.0805  2.5416  1.9878
 7888SOL    HW235127   4.117   1.025   5.108  0.6440  0.6946 -1.2038
 7889SOL     OW35128   0.296   4.470   0.494 -0.0817 -0.2132  0.4449
 7889SOL    HW135129   0.362   4.526   0.454 -0.3338  1.5824  2.5690
 7889SOL    HW235130   0.333   4.383   0.479 -0.3793 -0.2495 -0.0758
 7890SOL     OW35131   0.436   3.787   6.008  0.0136 -0.2008  0.2436
 7890SOL    HW135132   0.458   3.704   6.051 -3.2819 -0.5286  1.2974
 7890SOL    HW235133   0.342   3.790   5.992 -0.0351 -2.0249  0.1241
 7891SOL     OW35134   4.016   2.093   2.498  0.1015 -0.8522 -0.1002
 7891SOL    HW135135   4.060   2.086   2.414  0.4437 -0.0503  0.0147
 7891SOL    HW235136   4.039   2.005   2.529  0.7449 -0.5804  0.2078
 7892SOL     OW35137   1.923   1.455   5.314 -0.1819 -0.0064  0.6635
 7892SOL    HW135138   1.844   1.485   5.267  1.5629  4.6930  0.7093
 7892SOL    HW235139   1.988   1.495   5.257  0.2262 -1.6376 -0.0054
 7893SOL     OW35140   1.067   4.705   4.868 -0.1769  0.3536 -0.3416
 7893SOL    HW135141   1.104   4.720   4.955  3.5834  0.0256 -1.8868
 7893SOL    HW235142   1.050   0.073   4.839 -2.0472 -0.1370 -0.7053
 7894SOL     OW35143   4.410   0.616   6.413 -0.4885 -0.1359  0.2642
 7894SOL    HW135144   4.342   0.674   6.380  0.8400  1.0363 -0.3893
 7894SOL    HW235145   4.416   0.629   6.507 -1.1545  0.4646  0.2286
 7895SOL     OW35146   1.516   2.553   5.391 -0.3037  0.1950  0.6961
 7895SOL    HW135147   1.550   2.569   5.304  0.9940 -1.7667  0.8476
 7895SOL    HW235148   1.429   2.594   5.393 -0.8329 -0.8773 -0.4428
 7896SOL     OW35149   2.290   2.508   4.751  0.2544 -0.2687  0.1091
 7896SOL    HW135150   2.343   2.496   4.830  0.4619 -2.3401 -0.3498
 7896SOL    HW235151   2.315   2.598   4.728 -1.5671  0.3147  0.4069
 7897SOL     OW35152   3.979   1.847   8.299 -0.4403  0.6540  0.0353
 7897SOL    HW135153   3.946   1.902   8.228 -0.4064  2.9759  1.7960
 7897SOL    HW235154   4.063   1.889   8.318 -0.7064  1.0194  0.4227
 7898SOL     OW35155   3.403   3.330   7.168  0.1886 -0.0185 -0.5181
 7898SOL    HW135156   3.389   3.236   7.185 -1.2316  0.7073  2.2908
 7898SOL    HW235157   3.495   3.326   7.140  0.2684  1.4343 -0.4137
 7899SOL     OW35158   0.901   1.696  10.654 -0.3011 -0.2632 -0.4912
 7899SOL    HW135159   0.948   1.613  10.666 -0.9960 -0.5625  0.1650
 7899SOL    HW235160   0.964   1.752  10.701 -1.1215 -0.4240  0.7953
 7900SOL     OW35161   2.648   2.690   8.583 -0.2870  0.4030 -0.1706
 7900SOL    HW135162   2.730   2.703   8.631 -0.8659  0.0416  0.9259
 7900SOL    HW235163   2.628   2.600   8.608  1.0931  0.1629  0.0705
 7901SOL     OW35164   4.061   0.532  15.641 -0.3608 -0.4128 -0.0513
 7901SOL    HW135165   4.127   0.498  15.580  1.6378  3.1723  0.0766
 7901SOL    HW235166   4.099   0.611  15.681 -0.7600 -1.0552  1.5922
 7902SOL     OW35167   2.371   0.957   5.795 -0.1299 -0.3381 -0.1518
 7902SOL    HW135168   2.407   0.869   5.785 -0.9492 -0.5750 -1.0210
 7902SOL    HW235169   2.368   0.947   5.890  0.5375  0.7281 -0.0122
 7903SOL     OW35170   2.201   2.792  13.448 -0.1359  0.2237  0.4585
 7903SOL    HW135171   2.110   2.775  13.473  0.2900 -1.1833  1.0853
 7903SOL    HW235172   2.247   2.770  13.529 -0.6758  1.3650  1.0665
 7904SOL     OW35173   3.984   3.602   7.305 -0.0286 -0.0174 -0.0664
 7904SOL    HW135174   3.903   3.650   7.289  0.6362  0.7101 -1.2872
 7904SOL    HW235175   3.953   3.529   7.252 -1.3487  0.3849  0.1486
 7905SOL     OW35176   2.994   0.671  15.378 -0.0527 -0.8271  0.5324
 7905SOL    HW135177   3.085   0.691  15.354 -1.2943  0.8211 -2.7285
 7905SOL    HW235178   2.988   0.714  15.464  1.8611 -1.8007  1.1623
 7906SOL     OW35179   1.019   2.577  11.099 -0.8109  0.7875  0.2531
 7906SOL    HW135180   0.975   2.570  11.014 -2.1872 -0.6454  1.0851
 7906SOL    HW235181   0.985   2.655  11.142  0.4623  1.3513  0.2354
 7907SOL     OW35182   0.497   1.541   3.976 -0.1355 -0.5975  0.7442
 7907SOL    HW135183   0.506   1.634   3.998  0.2152  0.1443 -2.5615
 7907SOL    HW235184   0.500   1.496   4.060 -0.4935  0.4379  1.3127
 7908SOL     OW35185   0.377   1.294  14.515  0.0178 -0.4843 -0.3877
 7908SOL    HW135186   0.428   1.325  14.589 -0.5396 -1.4295  0.3953
 7908SOL    HW235187   0.345   1.207  14.540 -0.4003 -0.4460 -0.7862
 7909SOL     OW35188   3.093   4.617   3.624 -0.1421 -0.1596  0.0371
 7909SOL    HW135189   3.156   4.568   3.676 -0.6237 -0.8488 -0.0249
 7909SOL    HW235190   3.150   4.674   3.572  0.2216  1.1908  1.9274
 7910SOL     OW35191   1.805   2.088   6.162  0.6911 -0.8487  0.4420
 7910SOL    HW135192   1.768   2.096   6.250  0.8448 -0.3330  0.4626
 7910SOL    HW235193   1.727   2.112   6.111  0.7180 -1.8841 -0.0857
 7911SOL     OW35194   0.859   3.906  13.695 -0.3416 -0.5906 -0.0085
 7911SOL    HW135195   0.828   3.977  13.639  0.3292 -0.3920 -0.1360
 7911SOL    HW235196   0.939   3.945  13.731 -1.0194 -0.1947  1.0538
 7912SOL     OW35197   4.428   0.238   9.175  0.1321  0.6382  0.1280
 7912SOL    HW135198   4.483   0.174   9.220  0.3289  0.5156 -0.2775
 7912SOL    HW235199   4.408   0.212   9.085  0.5931  0.5951  0.0361
 7913SOL     OW35200   2.066   2.603   4.506 -0.1684  0.2129 -0.1734
 7913SOL    HW135201   1.998   2.580   4.569  0.1866 -0.2677  0.0337
 7913SOL    HW235202   2.082   2.696   4.525  2.7279 -0.2058 -0.5592
 7914SOL     OW35203   1.493   0.658   3.323 -0.1471 -0.2131 -0.2100
 7914SOL    HW135204   1.533   0.623   3.243 -0.4535 -2.8841  0.8352
 7914SOL    HW235205   1.439   0.581   3.341  2.3733 -1.0296  3.7582
 7915SOL     OW35206   3.794   0.875   2.949 -0.1895  0.0052  0.1449
 7915SOL    HW135207   3.808   0.882   2.854 -0.0687  1.0834  0.2407
 7915SOL    HW235208   3.876   0.848   2.990 -0.5873  0.5201  1.2819
 7916SOL     OW35209   0.423   0.451   4.263 -0.1325 -0.7513 -0.0958
 7916SOL    HW135210   0.382   0.537   4.268  0.4050 -0.5059  0.1274
 7916SOL    HW235211   0.350   0.394   4.288  0.3124 -1.1793  0.2435
 7917SOL     OW35212   3.234   3.079  10.129 -0.1110 -0.1086 -0.2434
 7917SOL    HW135213   3.153   3.031  10.113  0.1980 -0.1490 -1.6563
 7917SOL    HW235214   3.268   3.099  10.042 -1.9116  1.5346 -0.5450
 7918SOL     OW35215   1.903   4.449   7.506  0.2767  0.1690  0.3798
 7918SOL    HW135216   1.924   4.430   7.414  1.3162  0.2593  0.5965
 7918SOL    HW235217   1.868   4.363   7.531 -1.5187  0.4513 -1.1765
 7919SOL     OW35218   1.469   3.755   6.154 -0.1730  0.2689  0.1712
 7919SOL    HW135219   1.431   3.696   6.220 -1.9425  0.6703 -0.5044
 7919SOL    HW235220   1.421   3.834   6.177  1.2216  1.1350  0.0652
 7920SOL     OW35221   1.264   3.666   5.396  0.5582 -0.0673  0.0247
 7920SOL    HW135222   1.215   3.709   5.327 -0.2357 -0.4689  0.3336
 7920SOL    HW235223   1.348   3.711   5.385  0.3115  0.5805  0.7903
 7921SOL     OW35224   3.798   1.934   6.543 -0.2904 -0.3731  0.1408
 7921SOL    HW135225   3.717   1.960   6.587 -1.0700 -0.5283 -1.2177
 7921SOL    HW235226   3.769   1.941   6.452 -2.2392 -1.2351  0.7145
 7922SOL     OW35227   2.125   3.623   7.059  0.2716  0.4839 -0.1588
 7922SOL    HW135228   2.146   3.716   7.053  0.3565  0.4074 -1.1313
 7922SOL    HW235229   2.083   3.610   6.974  0.0958 -0.4732  0.0756
 7923SOL     OW35230   2.010   4.625   4.686 -0.4457  0.0879  0.6838
 7923SOL    HW135231   2.058   4.618   4.604 -1.3736 -0.3527  0.1779
 7923SOL    HW235232   1.936   4.681   4.666 -0.7561 -0.3353  0.6504
 7924SOL     OW35233   3.776   0.373   8.727 -0.0386  0.3691  0.4354
 7924SOL    HW135234   3.834   0.297   8.739  0.2105  0.4344 -0.3672
 7924SOL    HW235235   3.794   0.403   8.638  1.6339 -0.9678  0.3222
 7925SOL     OW35236   0.308   0.448  15.327  0.2270  0.2011 -0.0869
 7925SOL    HW135237   0.318   0.504  15.404 -1.4130  1.4474 -0.7865
 7925SOL    HW235238   0.229   0.396  15.342  0.6516 -0.1432  0.9576
 7926SOL     OW35239   1.243   1.443  14.874 -0.4153  0.2589 -0.0495
 7926SOL    HW135240   1.210   1.455  14.785 -0.6707  2.7345  0.4010
 7926SOL    HW235241   1.269   1.531  14.901 -0.5954  1.1420 -2.7392
 7927SOL     OW35242   4.148   0.136   5.975 -0.3430  0.3313 -0.4057
 7927SOL    HW135243   4.107   0.176   6.051 -0.6777  0.2350 -0.5395
 7927SOL    HW235244   4.116   0.189   5.902 -1.6654  2.2673  1.5783
 7928SOL     OW35245   3.754   2.608  17.141  0.0734  0.0697  0.2389
 7928SOL    HW135246   3.743   2.615  17.236  0.7746  0.6762  0.2812
 7928SOL    HW235247   3.678   2.658  17.115  1.2640  1.8084  0.0950
 7929SOL     OW35248   2.612   1.169   6.267  0.0739 -0.3843  0.6774
 7929SOL    HW135249   2.687   1.118   6.237 -0.6405 -0.7222 -0.5700
 7929SOL    HW235250   2.624   1.261   6.247 -0.4248 -0.4778 -0.0607
 7930SOL     OW35251   3.471   1.847   4.436  0.2224  0.4605 -0.1000
 7930SOL    HW135252   3.393   1.864   4.383  0.5752 -1.0109 -1.0852
 7930SOL    HW235253   3.484   1.934   4.473  0.4885 -0.8885  2.9519
 7931SOL     OW35254   3.489   3.127   3.367  0.5010 -0.2919  0.2553
 7931SOL    HW135255   3.581   3.130   3.340  1.0224  0.3152  2.0646
 7931SOL    HW235256   3.484   3.037   3.399  2.8332 -0.7567 -0.6651
 7932SOL     OW35257   1.937   2.332  13.786 -0.0909 -0.0057  0.4091
 7932SOL    HW135258   1.865   2.391  13.766 -0.1532 -0.2761 -0.1829
 7932SOL    HW235259   1.991   2.343  13.707 -1.4415  2.3932 -0.1753
 7933SOL     OW35260   3.723   0.099   9.860 -0.1673 -0.2664  0.1612
 7933SOL    HW135261   3.730   0.144   9.776  4.6467  1.2958  1.3825
 7933SOL    HW235262   3.628   0.090   9.860 -0.2109  0.0779  1.9869
 7934SOL     OW35263   3.595   3.134  12.883  0.2267 -0.0248 -0.3926
 7934SOL    HW135264   3.596   3.042  12.855  2.9752 -0.1671  0.1782
 7934SOL    HW235265   3.617   3.170  12.797 -3.1060 -0.1471 -1.3031
 7935SOL     OW35266   2.691   3.563   4.915  0.8047  0.1779  0.1119
 7935SOL    HW135267   2.667   3.606   4.832  0.3054 -1.0928 -0.4011
 7935SOL    HW235268   2.755   3.622   4.954 -0.1861  1.4954 -0.2217
 7936SOL     OW35269   0.837   2.590  10.854  0.0806 -0.6017  0.5345
 7936SOL    HW135270   0.796   2.528  10.914 -0.3495  2.3305  3.2495
 7936SOL    HW235271   0.755   2.621  10.817 -0.6002 -0.4682  2.2135
 7937SOL     OW35272   2.648   2.317  12.869 -0.4072 -0.3386 -0.1939
 7937SOL    HW135273   2.653   2.349  12.959 -2.8452 -1.5599  0.3673
 7937SOL    HW235274   2.558   2.286  12.862 -1.3971  2.1220  1.7089
 7938SOL     OW35275   0.280   4.047  15.588  0.3907 -0.7929 -0.1193
 7938SOL    HW135276   0.291   4.019  15.497 -0.6483  2.2647 -1.1806
 7938SOL    HW235277   0.188   4.070  15.597  0.0356 -1.1272 -2.8444
 7939SOL     OW35278   4.635   4.139   3.812 -0.4266  0.7900 -0.2149
 7939SOL    HW135279   4.551   4.183   3.798 -0.5128  0.6348 -0.1885
 7939SOL    HW235280   4.675   4.164   3.729 -0.5617 -0.5077 -0.6662
 7940SOL     OW35281   0.938   3.563  14.422 -0.1682  0.2200 -0.3493
 7940SOL    HW135282   0.974   3.628  14.481 -0.0049 -0.5128  0.3568
 7940SOL    HW235283   1.015   3.505  14.423  0.9689  1.7096 -2.2036
 7941SOL     OW35284   0.754   0.498   6.582  0.0688 -0.0509 -0.8385
 7941SOL    HW135285   0.840   0.528   6.611 -0.0854 -1.7795  1.4139
 7941SOL    HW235286   0.769   0.493   6.487  0.8937  0.1029 -0.7095
 7942SOL     OW35287   0.512   2.932   6.507  0.3187  0.2254  0.2923
 7942SOL    HW135288   0.585   2.949   6.447 -0.4667  2.6830  0.0493
 7942SOL    HW235289   0.553   2.936   6.593 -0.5608  0.7628  0.6846
 7943SOL     OW35290   0.481   3.378   2.275 -0.3297 -0.6936 -0.5412
 7943SOL    HW135291   0.493   3.375   2.181 -1.3118 -3.7078 -0.5977
 7943SOL    HW235292   0.388   3.402   2.280 -0.5182 -1.7482  1.1882
 7944SOL     OW35293   0.255   0.655   4.823 -0.2541 -0.4005  0.1823
 7944SOL    HW135294   0.311   0.622   4.894  1.3602 -0.0090 -0.8926
 7944SOL    HW235295   0.206   0.577   4.800 -1.1378  0.3964 -0.6105
 7945SOL     OW35296   3.671   1.082   5.539 -0.1716  0.4360  0.2834
 7945SOL    HW135297   3.598   1.123   5.585  0.5517  0.7052  1.1875
 7945SOL    HW235298   3.633   1.001   5.505 -0.9297  1.2735 -0.8772
 7946SOL     OW35299   3.440   3.063   8.054 -0.1917  0.6873 -0.8156
 7946SOL    HW135300   3.363   3.087   8.105 -1.8989 -3.0521 -1.6151
 7946SOL    HW235301   3.500   3.041   8.125 -1.0095  1.0775 -0.0121
 7947SOL     OW35302   1.065   3.749  14.584 -0.1982  0.6143  0.2184
 7947SOL    HW135303   1.132   3.759  14.516  3.0339  1.2890  3.5064
 7947SOL    HW235304   1.058   3.838  14.617  0.6422  1.2236 -1.2155
 7948SOL     OW35305   2.919   1.199   8.212  0.7041 -0.6645  0.0089
 7948SOL    HW135306   2.919   1.238   8.125 -0.7960 -1.1204 -0.2022
 7948SOL    HW235307   2.869   1.119   8.194 -1.1784  0.5110  0.0438
 7949SOL     OW35308   4.616   1.231   3.964 -0.2659 -0.1455  0.4938
 7949SOL    HW135309   4.644   1.178   4.038  0.3106  1.5125  1.4592
 7949SOL    HW235310   4.674   1.305   3.979 -2.5733  1.3960  1.7629
 7950SOL     OW35311   0.691   3.177   5.029  0.3849  0.3508 -0.3342
 7950SOL    HW135312   0.738   3.220   4.959  1.3479  2.0128  1.3412
 7950SOL    HW235313   0.612   3.150   4.982 -0.8883  0.5925  1.6409
 7951SOL     OW35314   0.881   4.257   4.973 -0.0802  0.2415  0.0362
 7951SOL    HW135315   0.976   4.256   4.987  0.0542 -3.1048 -1.1690
 7951SOL    HW235316   0.873   4.352   4.965 -1.8835  0.1265  0.5168
 7952SOL     OW35317   0.354   2.508   3.784 -0.4352  0.3847 -0.1693
 7952SOL    HW135318   0.340   2.420   3.819 -1.8168  1.0979  1.0838
 7952SOL    HW235319   0.397   2.471   3.707 -0.5656  0.8825 -0.4757
 7953SOL     OW35320   3.670   2.339   5.293  0.8334  0.4272 -0.0492
 7953SOL    HW135321   3.757   2.377   5.303  1.4970 -1.2085  0.4585
 7953SOL    HW235322   3.615   2.416   5.279 -3.1956 -1.8777  2.7656
 7954SOL     OW35323   4.098   4.572   0.265  0.3604  0.4049  0.2821
 7954SOL    HW135324   4.123   4.661   0.292  0.4927  0.6270 -0.5543
 7954SOL    HW235325   4.092   4.525   0.348 -1.4718 -0.5399 -0.3934
 7955SOL     OW35326   4.666   1.720   2.462 -0.1547  0.2971 -0.0213
 7955SOL    HW135327   0.022   1.756   2.419 -0.1895  0.5668  0.1367
 7955SOL    HW235328   4.612   1.742   2.387 -0.5571  2.6969  0.9419
 7956SOL     OW35329   2.710   3.042  16.668  0.4229  0.3478  0.5108
 7956SOL    HW135330   2.802   3.060  16.689  0.5858 -1.4332  1.3342
 7956SOL    HW235331   2.664   3.060  16.749 -0.9006  0.5050 -0.2790
 7957SOL     OW35332   3.460   2.561   4.563  0.2033 -0.6224 -0.7180
 7957SOL    HW135333   3.429   2.571   4.474 -0.0936  1.1143 -0.4232
 7957SOL    HW235334   3.414   2.636   4.601  0.5489 -1.4272  1.2940
 7958SOL     OW35335   0.810   4.104   8.236  0.2526  0.1821 -0.2392
 7958SOL    HW135336   0.723   4.123   8.271  0.2335 -2.8005  1.3385
 7958SOL    HW235337   0.789   4.101   8.143  0.7255  0.0360 -0.3433
 7959SOL     OW35338   4.280   4.415  13.577  0.1020  0.0123 -0.0448
 7959SOL    HW135339   4.206   4.476  13.572  0.5086  0.6411  1.4582
 7959SOL    HW235340   4.291   4.385  13.487 -1.5595  0.2379 -0.3244
 7960SOL     OW35341   0.485   2.612   6.879 -0.0649  0.1039 -0.1221
 7960SOL    HW135342   0.567   2.650   6.911  0.3562  0.1101 -1.1817
 7960SOL    HW235343   0.434   2.691   6.861  0.8540  0.2224 -2.2525
 7961SOL     OW35344   0.800   2.939   6.101  0.0382 -0.4350 -0.5328
 7961SOL    HW135345   0.786   2.950   6.007 -2.2280  2.6712  0.1768
 7961SOL    HW235346   0.885   2.897   6.111 -1.4744 -2.9195  2.0105
 7962SOL     OW35347   2.428   2.492  14.246 -0.4175  0.4722  0.6750
 7962SOL    HW135348   2.360   2.436  14.209 -1.0934  0.2775  2.1984
 7962SOL    HW235349   2.397   2.523  14.331  1.2968  0.6258  1.2547
 7963SOL     OW35350   3.856   3.279   9.859  0.8227 -0.1937 -0.1973
 7963SOL    HW135351   3.893   3.244   9.940  1.4170  0.8926 -0.0001
 7963SOL    HW235352   3.907   3.359   9.841  0.9535  0.0529  1.3197
 7964SOL     OW35353   2.532   4.027   3.254 -0.5488  0.5479  0.4298
 7964SOL    HW135354   2.450   4.028   3.205  0.1008  0.2055 -0.6552
 7964SOL    HW235355   2.577   4.103   3.217  0.9309 -0.9400 -0.8090
 7965SOL     OW35356   0.693   4.115   7.194  0.1286 -0.3532  0.8173
 7965SOL    HW135357   0.644   4.067   7.261 -0.0142 -2.8062 -1.0729
 7965SOL    HW235358   0.629   4.113   7.123 -0.2847 -3.4962  1.3027
 7966SOL     OW35359   2.838   4.167  10.358 -0.0188 -0.0087 -0.0465
 7966SOL    HW135360   2.883   4.190  10.440  0.3376 -2.4676  0.4402
 7966SOL    HW235361   2.878   4.081  10.343 -0.2047 -0.1351  0.1841
 7967SOL     OW35362   4.564   1.882   6.627  0.0737 -0.1658 -0.0769
 7967SOL    HW135363   4.601   1.955   6.577 -0.2873 -0.1187 -0.2756
 7967SOL    HW235364   4.620   1.871   6.704  0.3798 -0.3609 -0.3263
 7968SOL     OW35365   2.384   2.149   3.847  0.0110 -0.0769 -0.0335
 7968SOL    HW135366   2.356   2.156   3.938  1.2363  1.0686  0.2530
 7968SOL    HW235367   2.299   2.130   3.807  1.0622  1.1158 -2.8584
 7969SOL     OW35368   4.050   1.430   2.915  0.0444 -0.0735 -0.5843
 7969SOL    HW135369   4.015   1.346   2.944  2.0939 -0.2957  1.2718
 7969SOL    HW235370   4.003   1.431   2.832  1.4928 -0.8237 -1.4143
 7970SOL     OW35371   2.819   3.628   1.926  0.7041 -0.0311 -0.1858
 7970SOL    HW135372   2.764   3.573   1.871  1.1447  0.3336 -0.9891
 7970SOL    HW235373   2.770   3.628   2.008 -1.2286  0.0610 -1.3364
 7971SOL     OW35374   4.464   4.136   4.798 -0.4452 -0.1040  0.2802
 7971SOL    HW135375   4.435   4.127   4.707  0.2271 -1.2011  0.1810
 7971SOL    HW235376   4.553   4.102   4.798 -0.3689  0.0948  0.3394
 7972SOL     OW35377   3.582   1.503   7.713  0.5907  0.2477  0.8592
 7972SOL    HW135378   3.559   1.588   7.676 -2.4031  0.1513  2.4711
 7972SOL    HW235379   3.673   1.497   7.684 -0.3861  2.4823 -2.7110
 7973SOL     OW35380   1.846   3.982   6.946  0.2944  0.0270  0.5220
 7973SOL    HW135381   1.893   4.034   7.012 -0.0510  2.3360 -1.0391
 7973SOL    HW235382   1.826   4.043   6.875 -1.4182  0.0112  0.9812
 7974SOL     OW35383   3.419   0.380   5.486 -0.0748  0.3018 -0.0816
 7974SOL    HW135384   3.483   0.426   5.433 -1.6051  2.8782  0.3270
 7974SOL    HW235385   3.353   0.374   5.417 -1.1451  1.7552  0.8171
 7975SOL     OW35386   3.105   2.309   6.958 -0.4277 -0.0827 -0.3592
 7975SOL    HW135387   3.118   2.234   7.016  1.1221 -1.4384 -2.4677
 7975SOL    HW235388   3.051   2.266   6.892 -1.0377 -2.7281  1.8485
 7976SOL     OW35389   2.577   0.143  11.938 -0.1266  0.3158 -0.5610
 7976SOL    HW135390   2.592   0.153  11.844  0.0084  1.5716 -0.3979
 7976SOL    HW235391   2.650   0.083  11.953  0.8301  1.5432 -0.3251
 7977SOL     OW35392   1.034   1.033  11.429 -0.0175 -0.0573  0.1331
 7977SOL    HW135393   1.061   0.946  11.457  0.5578 -0.2961 -1.1419
 7977SOL    HW235394   1.075   1.035  11.342  1.2068 -0.5908  0.6982
 7978SOL     OW35395   3.198   1.056   6.676  0.4091 -0.0113  0.5317
 7978SOL    HW135396   3.273   1.040   6.619  0.5786  1.0600  0.4472
 7978SOL    HW235397   3.221   0.987   6.738 -0.4614 -0.2095  0.6438
 7979SOL     OW35398   2.459   3.114  11.205 -0.1528 -0.1401 -0.2231
 7979SOL    HW135399   2.413   3.194  11.228 -0.5183 -0.4692  0.1709
 7979SOL    HW235400   2.550   3.145  11.204 -1.1754  2.8809  1.8348
 7980SOL     OW35401   3.818   2.714   2.551  0.0352 -0.0228 -0.6898
 7980SOL    HW135402   3.852   2.646   2.609  0.2229 -0.3795 -1.2212
 7980SOL    HW235403   3.827   2.672   2.466 -2.7737 -1.6930 -0.1821
 7981SOL     OW35404   3.396   2.481   4.821 -0.0648  0.0080 -0.2895
 7981SOL    HW135405   3.440   2.518   4.745 -1.0979  1.1755 -0.3315
 7981SOL    HW235406   3.372   2.566   4.858 -0.6639  1.1311 -3.2634
 7982SOL     OW35407   3.456   2.188  10.322 -0.2840 -0.2578  0.0202
 7982SOL    HW135408   3.494   2.269  10.288  0.1545 -0.5909 -0.2841
 7982SOL    HW235409   3.397   2.218  10.391 -1.3359  0.1953 -1.0643
 7983SOL     OW35410   4.115   3.413   9.332 -0.4536 -0.2353 -0.4261
 7983SOL    HW135411   4.036   3.362   9.345  0.2715 -1.3670 -0.4262
 7983SOL    HW235412   4.134   3.434   9.424  0.9618  2.0570 -1.2333
 7984SOL     OW35413   4.646   2.236  13.556 -0.1804  0.2717 -0.0220
 7984SOL    HW135414   4.674   2.158  13.604 -0.3651  0.2230  0.0050
 7984SOL    HW235415   0.007   2.235  13.506 -0.1371 -1.6613  0.0606
 7985SOL     OW35416   2.398   1.280   4.897  0.0877  0.2264  0.1346
 7985SOL    HW135417   2.470   1.219   4.877 -1.0376 -1.5962  1.6722
 7985SOL    HW235418   2.340   1.219   4.943 -2.3861  2.0841 -0.5126
 7986SOL     OW35419   1.921   2.643  16.974  0.5684 -0.0861 -0.2612
 7986SOL    HW135420   1.846   2.623  17.030  0.6994  2.1436  0.6779
 7986SOL    HW235421   1.877   2.715  16.929 -0.1468 -1.6231 -2.0289
 7987SOL     OW35422   1.355   4.552   6.789  0.5257  0.1360  0.6862
 7987SOL    HW135423   1.309   4.616   6.844 -0.7936 -0.8613  0.7243
 7987SOL    HW235424   1.351   4.604   6.709  3.4540 -0.0331  0.4093
 7988SOL     OW35425   1.475   1.409   4.681 -0.3677 -0.1543  0.2919
 7988SOL    HW135426   1.422   1.382   4.606 -0.7342 -1.6987  1.1195
 7988SOL    HW235427   1.567   1.403   4.653 -0.3085  2.8208 -0.1573
 7989SOL     OW35428   1.203   3.998   7.555 -0.5563 -0.1496 -0.1858
 7989SOL    HW135429   1.112   4.005   7.524 -0.4573  0.8331 -0.2780
 7989SOL    HW235430   1.201   3.907   7.583 -0.5214  0.0232  0.3804
 7990SOL     OW35431   1.312   1.815  11.852 -0.0190 -0.2989 -0.1234
 7990SOL    HW135432   1.244   1.859  11.801  0.6555  0.8195 -0.0494
 7990SOL    HW235433   1.339   1.750  11.787  0.0164  0.9546 -1.3741
 7991SOL     OW35434   3.376   3.429   4.551 -0.5124  0.4285  0.0420
 7991SOL    HW135435   3.374   3.462   4.461  1.8383 -1.2296 -0.6050
 7991SOL    HW235436   3.461   3.470   4.569 -0.3984 -0.5639  1.7177
 7992SOL     OW35437   3.060   3.020   4.743 -0.3613 -0.0335 -0.3722
 7992SOL    HW135438   2.991   2.974   4.790  1.3783 -2.0493  0.1803
 7992SOL    HW235439   3.046   2.982   4.656 -2.6336 -0.1336  0.0276
 7993SOL     OW35440   3.364   3.400   7.451  0.3724 -0.2253  0.7180
 7993SOL    HW135441   3.316   3.412   7.368 -0.1390 -1.5238  0.8259
 7993SOL    HW235442   3.452   3.435   7.440  0.7906 -0.7364  2.5534
 7994SOL     OW35443   4.205   2.842   9.659 -0.3958  0.3980 -0.1109
 7994SOL    HW135444   4.287   2.821   9.704 -0.2483  0.4304 -0.3617
 7994SOL    HW235445   4.138   2.795   9.708  0.3782 -0.1676  0.4087
 7995SOL     OW35446   3.977   2.323   2.246  0.0021  0.0984 -0.1996
 7995SOL    HW135447   3.921   2.250   2.221  1.7347 -1.1649 -0.4231
 7995SOL    HW235448   3.952   2.345   2.335  1.9813  0.9177  0.1587
 7996SOL     OW35449   1.052   3.978  12.858  0.4126  0.4845  0.1161
 7996SOL    HW135450   0.997   4.012  12.929 -1.0659  0.8189 -1.1939
 7996SOL    HW235451   1.069   4.060  12.810 -0.4735 -0.1753 -1.3415
 7997SOL     OW35452   0.707   0.074   4.652 -0.1652  0.0019  0.1784
 7997SOL    HW135453   0.697   0.102   4.743 -1.2634 -2.3858  0.7869
 7997SOL    HW235454   0.656   0.141   4.606 -1.6090 -2.0066 -1.1187
 7998SOL     OW35455   0.093   3.208  10.399 -0.9867  0.5187 -0.1431
 7998SOL    HW135456   0.046   3.125  10.404  0.5204 -0.2610  1.1128
 7998SOL    HW235457   0.151   3.207  10.475 -1.3192 -2.9720  0.0903
 7999SOL     OW35458   3.192   2.046   9.682  0.0437  0.0797  0.0854
 7999SOL    HW135459   3.133   2.082   9.748 -1.5305 -0.3884 -1.0750
 7999SOL    HW235460   3.178   2.114   9.616  0.5829  1.0649  0.9724
 8000SOL     OW35461   3.315   2.335   2.902 -0.3467 -0.0903 -0.4773
 8000SOL    HW135462   3.223   2.310   2.898 -0.6019  1.0186 -1.5354
 8000SOL    HW235463   3.324   2.386   2.822  0.3366 -1.3468 -1.2060
 8001SOL     OW35464   4.543   2.008  16.224  0.3072  0.5189 -0.2172
 8001SOL    HW135465   4.543   1.935  16.285 -1.2066  1.0439  0.4230
 8001SOL    HW235466   4.570   1.967  16.142  0.4225 -0.6423  0.4107
 8002SOL     OW35467   0.672   1.970   2.100  0.1763  0.1590  0.1905
 8002SOL    HW135468   0.650   1.918   2.177  3.1470  0.5670  1.2886
 8002SOL    HW235469   0.757   2.006   2.124 -0.1806 -0.1879  1.9194
 8003SOL     OW35470   2.709   4.466  14.212 -0.1486  0.8314  0.1712
 8003SOL    HW135471   2.770   4.535  14.238  1.6370 -0.7470  0.2182
 8003SOL    HW235472   2.629   4.496  14.254 -0.7310  1.1421 -1.1869
 8004SOL     OW35473   2.714   0.026   9.017  0.2602  0.6859  1.3476
 8004SOL    HW135474   2.810   0.023   9.018  0.3037  2.3620  1.2544
 8004SOL    HW235475   2.693   4.689   9.091 -1.4967  0.7380  0.8723
 8005SOL     OW35476   1.136   3.144  13.762 -0.3738  0.0539 -0.0784
 8005SOL    HW135477   1.143   3.061  13.717  0.4979  0.1975 -0.2131
 8005SOL    HW235478   1.190   3.199  13.705  0.8795  0.5537  1.5834
 8006SOL     OW35479   3.433   1.900   4.893 -0.1203  0.0403 -0.5041
 8006SOL    HW135480   3.454   1.807   4.893 -0.1656  0.0289 -2.4148
 8006SOL    HW235481   3.498   1.938   4.835  0.0582  1.7554  0.8137
 8007SOL     OW35482   1.432   0.851  15.316 -0.1307  0.3285  0.5090
 8007SOL    HW135483   1.517   0.841  15.272  0.5068  1.4853  1.4915
 8007SOL    HW235484   1.441   0.938  15.354 -1.4289  1.1718 -1.1121
 8008SOL     OW35485   4.702   3.391   8.048  0.3198 -0.3134 -0.1985
 8008SOL    HW135486   4.647   3.470   8.056 -1.7265 -1.5618 -1.7257
 8008SOL    HW235487   4.640   3.338   7.996 -1.3727  0.7160  0.7644
 8009SOL     OW35488   1.797   1.879   2.706 -0.0021  0.0659 -0.3622
 8009SOL    HW135489   1.769   1.935   2.779  1.0481 -0.7584  0.6822
 8009SOL    HW235490   1.715   1.841   2.676  0.0507  0.1013 -0.5490
 8010SOL     OW35491   3.160   3.314   4.006  0.1635 -0.3300 -0.3273
 8010SOL    HW135492   3.123   3.290   4.091 -1.4021 -1.6490 -1.3765
 8010SOL    HW235493   3.079   3.305   3.957  1.1125 -0.4793 -1.8642
 8011SOL     OW35494   2.901   3.816   8.066 -0.3763 -0.1809 -0.6471
 8011SOL    HW135495   2.862   3.871   7.997  0.6149  0.3818 -0.7592
 8011SOL    HW235496   2.891   3.860   8.150  1.6160  0.1583 -0.5789
 8012SOL     OW35497   2.740   1.904   6.857 -0.1945 -1.1060  0.0722
 8012SOL    HW135498   2.781   1.984   6.891 -2.1423  0.6336 -1.7313
 8012SOL    HW235499   2.649   1.930   6.844  0.3808  1.0438  0.2749
 8013SOL     OW35500   2.019   4.399   6.048  0.4788 -0.4245  1.0528
 8013SOL    HW135501   1.973   4.391   5.965 -0.6311 -0.7368  1.7071
 8013SOL    HW235502   2.099   4.361   6.011  1.1386  2.0712 -0.0770
 8014SOL     OW35503   1.607   1.902   7.796 -0.9150  0.2807  0.1037
 8014SOL    HW135504   1.685   1.946   7.831  0.4004 -2.0045  0.0665
 8014SOL    HW235505   1.621   1.815   7.835 -2.7252  0.7068  1.7104
 8015SOL     OW35506   3.374   2.060   5.488 -0.0580 -0.5588 -0.3136
 8015SOL    HW135507   3.331   2.135   5.447 -0.0740  1.1145  2.7438
 8015SOL    HW235508   3.333   2.068   5.575  0.0883 -1.6987 -0.1411
 8016SOL     OW35509   4.469   1.281   8.551 -0.4653 -0.0287 -0.2623
 8016SOL    HW135510   4.443   1.240   8.634 -0.6098 -0.3586 -0.4694
 8016SOL    HW235511   4.387   1.316   8.516 -0.8680  0.2101  0.9403
 8017SOL     OW35512   3.911   0.658   6.138 -0.1095 -0.3635 -0.4976
 8017SOL    HW135513   3.932   0.744   6.174  2.6864 -1.3353  0.1885
 8017SOL    HW235514   4.001   0.632   6.121  0.2639  0.2752  0.4820
 8018SOL     OW35515   2.398   2.419  10.099 -0.0269  0.3460  0.0027
 8018SOL    HW135516   2.426   2.448  10.012  0.3087 -1.0032 -0.3489
 8018SOL    HW235517   2.372   2.500  10.143  1.0169  0.2940  0.7153
 8019SOL     OW35518   4.406   4.322  11.362 -0.7330  0.5823 -0.4559
 8019SOL    HW135519   4.330   4.282  11.320 -2.3605  0.3364  2.7403
 8019SOL    HW235520   4.416   4.258  11.432 -0.5044  0.4724 -0.5908
 8020SOL     OW35521   2.468   1.809  12.820 -0.1616  0.1962  0.2605
 8020SOL    HW135522   2.529   1.877  12.849  0.0847 -0.4356  1.2242
 8020SOL    HW235523   2.401   1.811  12.888  0.4678 -2.7150  0.9941
 8021SOL     OW35524   0.245   4.413   6.589 -0.3477 -0.1504 -0.0840
 8021SOL    HW135525   0.163   4.377   6.623  0.4652 -1.6005  0.3272
 8021SOL    HW235526   0.244   4.507   6.608  1.9313 -0.0001 -0.7620
 8022SOL     OW35527   1.944   0.250   0.840 -0.4275  0.3403 -0.7887
 8022SOL    HW135528   1.871   0.310   0.832 -0.0887  0.9418  0.7114
 8022SOL    HW235529   2.007   0.304   0.888  0.7876 -1.8089  0.0466
 8023SOL     OW35530   2.906   4.163   6.635 -0.2333  0.6929 -0.0564
 8023SOL    HW135531   2.985   4.173   6.582  1.0359 -1.0542  1.4735
 8023SOL    HW235532   2.946   4.106   6.701  0.6134  2.2168  0.7548
 8024SOL     OW35533   2.606   3.825   8.216  0.3225 -0.8669  0.4521
 8024SOL    HW135534   2.652   3.758   8.266  1.9362  0.0531  0.2027
 8024SOL    HW235535   2.562   3.773   8.149 -0.7460 -1.3764  1.5370
 8025SOL     OW35536   2.321   1.586  12.167  0.4343  0.3530 -0.6506
 8025SOL    HW135537   2.338   1.677  12.191 -1.2125  0.4105  0.2601
 8025SOL    HW235538   2.278   1.552  12.245 -0.5625  1.1956 -0.8358
 8026SOL     OW35539   2.984   2.111   5.323 -0.0321 -0.6165 -0.3279
 8026SOL    HW135540   2.971   2.017   5.307  0.0098 -0.7412  0.3636
 8026SOL    HW235541   3.027   2.122   5.408  3.0984  3.2790 -2.4022
 8027SOL     OW35542   4.468   3.507   5.490  0.1864 -0.3790  0.2562
 8027SOL    HW135543   4.520   3.467   5.420 -1.6963  0.0040 -1.3562
 8027SOL    HW235544   4.473   3.600   5.465  1.9098 -1.0550 -1.9482
 8028SOL     OW35545   0.142   2.610   4.071  0.2403 -0.3045 -0.1633
 8028SOL    HW135546   0.206   2.678   4.090 -1.9073  1.4721  0.7535
 8028SOL    HW235547   0.143   2.598   3.976  2.0843  0.8267 -0.2768
 8029SOL     OW35548   0.259   3.807   6.813  0.0332 -0.4457 -0.3577
 8029SOL    HW135549   0.189   3.786   6.874  0.2250 -0.7742 -0.2519
 8029SOL    HW235550   0.244   3.901   6.806  2.4426 -0.1168 -0.9819
 8030SOL     OW35551   1.717   4.632   3.989 -0.0458  0.1498  0.2106
 8030SOL    HW135552   1.664   4.695   3.940  1.0963  0.8522 -0.1382
 8030SOL    HW235553   1.794   4.612   3.935 -1.4734 -1.6444 -1.1535
 8031SOL     OW35554   4.568   0.154   9.756 -0.2011  0.3389 -0.7614
 8031SOL    HW135555   4.553   0.062   9.734 -3.9727  1.1431 -1.4917
 8031SOL    HW235556   4.543   0.202   9.677 -0.9411 -0.0131 -0.7381
 8032SOL     OW35557   2.111   2.047   5.657 -0.2677  0.2876  0.1405
 8032SOL    HW135558   2.090   1.965   5.613  0.0339  2.1213 -3.3772
 8032SOL    HW235559   2.028   2.093   5.649 -1.2356 -1.2032  1.4233
 8033SOL     OW35560   1.596   1.617   0.129 -0.2062  0.2838  0.4873
 8033SOL    HW135561   1.564   1.705   0.148  2.5105  1.4558 -0.3964
 8033SOL    HW235562   1.542   1.556   0.179 -0.9143  1.7211  1.4878
 8034SOL     OW35563   3.266   3.100   3.078 -0.0447 -0.3926  0.5172
 8034SOL    HW135564   3.260   3.193   3.100  0.0074 -0.5533  1.2174
 8034SOL    HW235565   3.340   3.077   3.134 -0.5126 -0.6464  1.0316
 8035SOL     OW35566   3.213   4.604   5.110  0.2470  0.1716  0.5938
 8035SOL    HW135567   3.284   4.544   5.132  0.9489 -0.5968 -3.8157
 8035SOL    HW235568   3.237   4.638   5.024  1.1777 -1.6182  0.1461
 8036SOL     OW35569   2.689   2.755   1.272 -0.3333  0.1193  0.0747
 8036SOL    HW135570   2.733   2.720   1.194 -0.7948 -0.8764  0.2629
 8036SOL    HW235571   2.602   2.780   1.241 -0.2793 -2.6942 -2.2831
 8037SOL     OW35572   4.348   4.133   6.937  0.1388 -0.2384 -0.0448
 8037SOL    HW135573   4.331   4.227   6.940  0.3920 -0.2900  3.0379
 8037SOL    HW235574   4.259   4.106   6.911  0.4703  0.5389 -2.0021
 8038SOL     OW35575   3.800   0.136   5.768  0.6984 -0.9047  0.2337
 8038SOL    HW135576   3.709   0.148   5.740  0.3596 -0.7697  1.4131
 8038SOL    HW235577   3.830   0.062   5.715 -3.7116 -1.2046 -1.8883
 8039SOL     OW35578   3.334   4.246   1.309  0.2518 -0.2633  0.0811
 8039SOL    HW135579   3.279   4.228   1.385  1.6595  1.2934  1.4638
 8039SOL    HW235580   3.375   4.164   1.283  0.4720 -0.1898  0.2029
 8040SOL     OW35581   4.562   2.127   1.521  0.3172 -0.4162  0.5262
 8040SOL    HW135582   4.535   2.205   1.569  1.3599  0.6749 -0.6564
 8040SOL    HW235583   4.657   2.141   1.519  0.4922 -1.9383 -1.4371
 8041SOL     OW35584   3.080   1.244   6.894 -0.1639 -0.0086  0.3484
 8041SOL    HW135585   3.117   1.332   6.887  0.3295 -0.3250 -1.0030
 8041SOL    HW235586   3.126   1.195   6.826 -2.3317 -0.9632 -0.4368
 8042SOL     OW35587   3.431   4.433   6.515 -0.5328 -0.2042 -0.1201
 8042SOL    HW135588   3.428   4.390   6.601 -1.5906 -1.0409 -0.5747
 8042SOL    HW235589   3.458   4.520   6.543  0.3768 -0.3362 -0.6044
 8043SOL     OW35590   4.255   3.060   2.437  0.1102 -0.0743  0.0695
 8043SOL    HW135591   4.257   3.151   2.408  0.6367 -0.1804 -0.2224
 8043SOL    HW235592   4.343   3.054   2.475 -0.3058 -2.6646  0.6551
 8044SOL     OW35593   2.946   3.288   7.899  0.2041 -0.2779  0.6242
 8044SOL    HW135594   2.906   3.375   7.903  3.4268  1.1749  1.3077
 8044SOL    HW235595   2.873   3.232   7.924  0.6703 -0.7604  0.8883
 8045SOL     OW35596   3.371   0.837   4.408  0.5377  0.2614  0.0182
 8045SOL    HW135597   3.409   0.846   4.495  0.8636 -2.3921  0.1565
 8045SOL    HW235598   3.441   0.825   4.345 -0.3437 -2.0402 -0.5185
 8046SOL     OW35599   4.546   2.521  14.059  0.4508 -0.6829  0.3110
 8046SOL    HW135600   4.593   2.464  13.998  0.9214 -1.6340  1.5510
 8046SOL    HW235601   4.599   2.598  14.042  0.9806 -1.0404  0.3345
 8047SOL     OW35602   4.098   1.583   9.391 -0.2676  0.3524  0.0863
 8047SOL    HW135603   4.032   1.644   9.359 -2.0229 -2.1479 -1.0742
 8047SOL    HW235604   4.151   1.637   9.449 -0.7511 -0.6656  1.4672
 8048SOL     OW35605   0.336   0.718   0.729  0.5401 -0.0969 -0.0434
 8048SOL    HW135606   0.411   0.751   0.679  1.4035 -0.7056  0.8511
 8048SOL    HW235607   0.270   0.785   0.713 -1.7791 -2.2846  0.2757
 8049SOL     OW35608   0.145   3.008   4.665  0.0208 -0.0841 -0.3215
 8049SOL    HW135609   0.189   3.050   4.592 -0.5358  0.4491 -0.3451
 8049SOL    HW235610   0.129   2.922   4.626  1.3483  0.0451 -1.1357
 8050SOL     OW35611   0.594   4.092   5.846 -0.5619  0.1960  0.4248
 8050SOL    HW135612   0.516   4.143   5.824  0.3077  1.1990 -0.3021
 8050SOL    HW235613   0.642   4.153   5.903  0.9259 -0.3848 -0.2040
 8051SOL     OW35614   3.165   0.209  15.287  0.5275  0.3494 -0.9798
 8051SOL    HW135615   3.178   0.303  15.274  1.1426  0.6110  1.6252
 8051SOL    HW235616   3.093   0.204  15.349  1.0342  3.8340 -0.0909
 8052SOL     OW35617   4.403   1.296  13.007  0.1388  0.1195  0.3504
 8052SOL    HW135618   4.371   1.206  13.007  1.5229 -0.3742  1.3559
 8052SOL    HW235619   4.404   1.307  12.912 -2.1528 -1.4957  0.1539
 8053SOL     OW35620   1.935   0.560   3.800 -0.1716  0.1743  0.1534
 8053SOL    HW135621   1.864   0.574   3.738  1.5118 -0.4207 -1.9234
 8053SOL    HW235622   1.911   0.470   3.821  1.6534 -0.0348  1.3944
 8054SOL     OW35623   3.656   0.519  10.429  0.1704  0.6344  0.2007
 8054SOL    HW135624   3.595   0.447  10.444  0.0861  0.5243 -0.6886
 8054SOL    HW235625   3.682   0.552  10.515  1.6535  0.7782 -0.2913
 8055SOL     OW35626   3.924   0.135   5.315 -0.2187 -0.2580 -0.0482
 8055SOL    HW135627   3.836   0.123   5.282 -0.5885 -2.2655  1.5772
 8055SOL    HW235628   3.918   0.223   5.352  1.6540 -0.3489  0.4972
 8056SOL     OW35629   4.263   4.291  17.639  1.1179 -0.1393 -0.3810
 8056SOL    HW135630   4.303   4.363   0.000 -0.5578  0.8677 -0.4965
 8056SOL    HW235631   4.308   4.219  17.683  0.7715  0.1742  0.4857
 8057SOL     OW35632   1.420   3.862   5.294  0.6255 -0.4033 -0.3951
 8057SOL    HW135633   1.502   3.910   5.286  1.1835 -1.5976 -1.8554
 8057SOL    HW235634   1.386   3.871   5.206  0.2898  0.9540 -0.1204
 8058SOL     OW35635   2.913   4.314   6.951 -0.0046 -0.0357  0.3848
 8058SOL    HW135636   2.872   4.253   6.889 -1.3418  1.1271  0.1130
 8058SOL    HW235637   2.957   4.372   6.889 -0.0993 -0.0596  0.2949
 8059SOL     OW35638   2.523   1.589   3.160  0.0260 -0.1570  0.1175
 8059SOL    HW135639   2.562   1.671   3.131 -0.9842 -0.1901 -1.3439
 8059SOL    HW235640   2.443   1.621   3.202  0.8942 -0.3731  1.9669
 8060SOL     OW35641   0.328   1.015   0.947 -0.1769 -0.3886 -0.1643
 8060SOL    HW135642   0.375   1.083   0.996 -3.0115  1.3641  0.0866
 8060SOL    HW235643   0.386   1.010   0.871 -3.2792 -0.1002 -2.5334
 8061SOL     OW35644   2.204   1.609   9.636  1.1509 -0.2290 -0.2505
 8061SOL    HW135645   2.233   1.602   9.727 -1.4768 -2.2232  0.4184
 8061SOL    HW235646   2.231   1.522   9.608  1.7716 -0.4017  0.8550
 8062SOL     OW35647   1.060   2.427   6.111 -0.0432 -0.6109 -0.1363
 8062SOL    HW135648   1.022   2.507   6.147  1.3159 -0.6827  1.4399
 8062SOL    HW235649   1.115   2.459   6.039  0.6965  0.7303  1.0225
 8063SOL     OW35650   1.883   2.340   8.373  0.1820 -0.5246 -0.1031
 8063SOL    HW135651   1.905   2.258   8.328  0.2956 -0.6037  0.0972
 8063SOL    HW235652   1.953   2.348   8.438 -0.4509 -0.6205  0.5860
 8064SOL     OW35653   0.532   0.234   7.530  0.3596  0.1290  0.4307
 8064SOL    HW135654   0.589   0.221   7.606 -1.0401  1.0011  1.6198
 8064SOL    HW235655   0.571   0.314   7.494 -1.5422  1.8098  2.1036
 8065SOL     OW35656   4.287   0.382   2.899  0.3555 -0.0143  0.4291
 8065SOL    HW135657   4.266   0.476   2.894  1.6937  0.3658  1.9552
 8065SOL    HW235658   4.302   0.373   2.994  1.0336 -3.4770 -0.0096
 8066SOL     OW35659   1.949   1.419   3.150 -0.2583 -0.7537 -0.0241
 8066SOL    HW135660   2.027   1.389   3.102 -1.0086 -2.4017 -0.2098
 8066SOL    HW235661   1.897   1.339   3.158 -2.7895  0.7953 -0.7745
 8067SOL     OW35662   4.563   4.005   5.189  0.0093 -0.6032 -0.0876
 8067SOL    HW135663   4.617   4.046   5.257  0.8775 -0.5516 -0.8069
 8067SOL    HW235664   4.491   4.067   5.203  1.7064  1.3204  0.1482
 8068SOL     OW35665   3.654   4.122  13.369  0.6693  0.3346  0.2931
 8068SOL    HW135666   3.649   4.145  13.277 -0.5177 -0.4060  0.1727
 8068SOL    HW235667   3.749   4.108  13.380  0.3829 -1.2041  0.8980
 8069SOL     OW35668   1.799   4.193  13.639 -0.1697 -0.6030  0.1464
 8069SOL    HW135669   1.816   4.138  13.716  0.4234 -2.3638 -1.2633
 8069SOL    HW235670   1.771   4.276  13.678 -0.3857 -0.0084 -1.2955
 8070SOL     OW35671   0.077   1.099   3.736 -0.0242 -0.2036  0.0149
 8070SOL    HW135672   0.168   1.104   3.765  0.6621  1.7824 -2.4197
 8070SOL    HW235673   0.061   1.185   3.697 -1.1618 -1.1957 -1.7218
 8071SOL     OW35674   2.568   3.688   7.020  0.1078  0.2963 -0.2965
 8071SOL    HW135675   2.515   3.748   6.967  0.8979 -0.1930 -1.6487
 8071SOL    HW235676   2.590   3.730   7.103  0.2800  0.7409 -0.5702
 8072SOL     OW35677   1.631   4.041  13.470  0.0779 -0.0962  0.5970
 8072SOL    HW135678   1.567   4.096  13.424  0.9348  0.9347  0.6676
 8072SOL    HW235679   1.687   4.102  13.518  1.9905 -2.7733  1.7429
 8073SOL     OW35680   2.198   2.492  14.919  0.0282 -0.0546  0.1589
 8073SOL    HW135681   2.275   2.461  14.967 -0.0482 -1.5800 -0.6958
 8073SOL    HW235682   2.209   2.582  14.888  1.6805 -0.3455 -0.1130
 8074SOL     OW35683   3.513   3.612   3.848 -0.0410  0.0671 -0.2131
 8074SOL    HW135684   3.418   3.604   3.856 -0.1280  1.8898  0.6762
 8074SOL    HW235685   3.531   3.682   3.911 -0.8638  1.9694 -2.0829
 8075SOL     OW35686   0.420   3.108   0.926 -0.5314  0.0841 -0.5328
 8075SOL    HW135687   0.433   3.062   0.843  1.1125 -1.9132  0.8321
 8075SOL    HW235688   0.392   3.196   0.902  0.8508  0.6217 -0.1739
 8076SOL     OW35689   0.440   2.547  11.547 -0.1878  1.1720 -0.2484
 8076SOL    HW135690   0.368   2.599  11.511  1.1976  2.1108 -1.5911
 8076SOL    HW235691   0.479   2.614  11.602  2.3206  0.8988 -1.7193
 8077SOL     OW35692   4.264   0.392   5.740  0.2185  0.4519  0.5466
 8077SOL    HW135693   4.233   0.425   5.655  2.2120 -1.7434 -1.0097
 8077SOL    HW235694   4.188   0.368   5.794  1.4359 -2.1962  1.0688
 8078SOL     OW35695   0.675   4.377   5.354  0.4515  0.1124 -0.2899
 8078SOL    HW135696   0.635   4.337   5.431 -1.2033  1.0865 -0.6373
 8078SOL    HW235697   0.657   4.318   5.280  0.6946 -0.7730  0.3590
 8079SOL     OW35698   2.205   2.522  16.707  0.2255  0.2491  0.0357
 8079SOL    HW135699   2.132   2.460  16.710  0.7580 -0.3313  1.1674
 8079SOL    HW235700   2.171   2.600  16.664 -1.0305  0.0261  0.6161
 8080SOL     OW35701   0.434   0.175   4.045 -0.4405  0.2151 -0.5210
 8080SOL    HW135702   0.481   0.166   4.127 -2.8862  2.0456  1.0610
 8080SOL    HW235703   0.434   0.087   4.007 -0.0503 -0.2038  0.4651
 8081SOL     OW35704   1.519   0.344   7.498 -0.1383  0.0925 -0.0647
 8081SOL    HW135705   1.573   0.322   7.574 -1.1457 -0.8790  0.3653
 8081SOL    HW235706   1.473   0.263   7.476  2.2886 -1.3359  0.1642
 8082SOL     OW35707   0.349   0.794   3.680  0.0817 -0.0772 -0.1358
 8082SOL    HW135708   0.293   0.719   3.701 -0.5557  0.2267 -0.7336
 8082SOL    HW235709   0.280   0.850   3.644 -1.1312 -0.7921  1.0824
 8083SOL     OW35710   3.180   2.443  10.187 -0.1875 -0.2611 -0.0617
 8083SOL    HW135711   3.108   2.439  10.124 -0.0424  0.6952 -0.2997
 8083SOL    HW235712   3.247   2.491  10.138 -0.4863  0.8358  0.5878
 8084SOL     OW35713   4.144   2.170  11.068  0.3440 -0.0128 -0.1133
 8084SOL    HW135714   4.175   2.117  11.142  1.1938 -1.7815 -1.7278
 8084SOL    HW235715   4.069   2.214  11.107  0.8458  0.3924  0.3780
 8085SOL     OW35716   2.697   3.113  13.357  0.0899 -0.6435  0.3212
 8085SOL    HW135717   2.634   3.182  13.379 -0.0165 -0.7847  0.4691
 8085SOL    HW235718   2.735   3.089  13.442  2.5078 -0.4450 -0.7344
 8086SOL     OW35719   3.234   3.975   4.272 -0.5874  0.6628  0.0000
 8086SOL    HW135720   3.194   3.982   4.359  0.5535  3.7749  0.2888
 8086SOL    HW235721   3.243   4.070   4.266  0.3269  0.6066  0.6381
 8087SOL     OW35722   3.058   0.787  10.467 -0.5203  0.2891 -0.3279
 8087SOL    HW135723   3.127   0.843  10.501 -0.0546  0.3107 -1.3197
 8087SOL    HW235724   2.984   0.847  10.471  1.1286  2.4125 -1.6300
 8088SOL     OW35725   4.214   3.746  12.006 -0.5913  0.4191  0.1328
 8088SOL    HW135726   4.125   3.711  11.995  0.2586 -1.4895 -0.6862
 8088SOL    HW235727   4.222   3.728  12.100  0.8363 -2.3596 -0.5519
 8089SOL     OW35728   2.109   0.134  16.611  0.4479  1.0328  0.1597
 8089SOL    HW135729   2.077   0.201  16.551 -1.3240 -1.9969 -2.2936
 8089SOL    HW235730   2.069   0.150  16.696 -1.1213  2.7158 -0.9101
 8090SOL     OW35731   3.616   0.169   5.250 -0.1104 -0.1492  0.2125
 8090SOL    HW135732   3.578   0.162   5.163  0.5539  0.4706 -0.1350
 8090SOL    HW235733   3.541   0.166   5.309 -0.3571 -1.3588 -0.1843
 8091SOL     OW35734   2.807   2.953   1.052  0.2410  0.1361  0.0764
 8091SOL    HW135735   2.818   2.863   1.020 -2.2362 -0.3789  0.7307
 8091SOL    HW235736   2.858   3.004   0.989  0.2658  0.8074  0.6339
 8092SOL     OW35737   3.007   1.182   2.894 -0.3590 -0.1017 -0.5171
 8092SOL    HW135738   3.057   1.208   2.816  2.2496 -0.6059  0.9708
 8092SOL    HW235739   3.028   1.255   2.952  0.8424 -1.4138  0.7012
 8093SOL     OW35740   1.715   0.471   4.146 -0.8297 -0.4522  0.2512
 8093SOL    HW135741   1.697   0.413   4.071  1.4078  0.4436 -0.9903
 8093SOL    HW235742   1.651   0.541   4.141 -0.7627 -0.4888 -1.1342
 8094SOL     OW35743   1.376   0.575   7.061  0.4223 -0.9459 -0.4378
 8094SOL    HW135744   1.393   0.563   7.155 -1.7730 -2.7914 -0.3017
 8094SOL    HW235745   1.333   0.492   7.044 -2.9255  0.5667  0.6505
 8095SOL     OW35746   3.629   3.659   9.113 -0.1595 -0.1944 -0.1735
 8095SOL    HW135747   3.721   3.650   9.140 -0.6686  1.6017  2.1689
 8095SOL    HW235748   3.584   3.671   9.196 -0.9890 -0.6404 -0.5597
 8096SOL     OW35749   3.087   2.011  12.068 -0.7738  0.1762  0.2669
 8096SOL    HW135750   3.070   1.969  12.152 -0.8123  2.3245  1.3183
 8096SOL    HW235751   3.012   1.980  12.016 -0.6578  2.2974 -1.1596
 8097SOL     OW35752   2.982   0.117   9.541 -0.5970  0.6082  0.1791
 8097SOL    HW135753   2.891   0.146   9.535 -0.4743  1.1458  1.0757
 8097SOL    HW235754   2.982   0.039   9.485 -1.6053  0.7207  0.0175
 8098SOL     OW35755   4.587   1.658  14.325 -0.4677 -0.2480 -0.0950
 8098SOL    HW135756   4.585   1.668  14.420  0.9410 -2.1828  0.1240
 8098SOL    HW235757   4.662   1.600  14.315  0.7546  1.3387 -0.2767
 8099SOL     OW35758   1.342   4.308   9.860  0.3508 -0.0431 -0.6819
 8099SOL    HW135759   1.414   4.312   9.923  0.2702  1.0892 -0.6650
 8099SOL    HW235760   1.301   4.394   9.856  0.9098  0.1624 -1.8381
 8100SOL     OW35761   0.167   3.689   4.612 -0.2243  0.0610  0.0813
 8100SOL    HW135762   0.199   3.613   4.661 -1.5557 -1.3802 -1.2683
 8100SOL    HW235763   0.173   3.662   4.520  0.3115 -2.0817  0.7526
 8101SOL     OW35764   0.533   3.536   7.733 -0.2360 -0.2817 -0.0643
 8101SOL    HW135765   0.624   3.536   7.761 -0.4790 -0.2510  0.7059
 8101SOL    HW235766   0.495   3.484   7.804 -2.6848  0.3971 -0.8522
 8102SOL     OW35767   2.301   1.560   5.189  0.2810  0.4258  0.2748
 8102SOL    HW135768   2.395   1.549   5.197  0.2733 -0.3761 -0.8739
 8102SOL    HW235769   2.269   1.472   5.208  0.5136  0.2303 -0.2393
 8103SOL     OW35770   1.698   3.562   7.835 -0.4388  0.4278  0.2350
 8103SOL    HW135771   1.741   3.582   7.752  1.9641  1.8081  1.8035
 8103SOL    HW235772   1.698   3.655   7.858 -1.1175  0.6010 -0.4438
 8104SOL     OW35773   0.039   0.202   9.375 -0.3445 -0.2297  0.0816
 8104SOL    HW135774   0.111   0.150   9.339  0.6758  1.4741 -0.3408
 8104SOL    HW235775   4.689   0.139   9.384  0.6649 -1.4906 -0.8059
 8105SOL     OW35776   3.764   1.638   3.647 -0.2955 -0.1151 -0.0867
 8105SOL    HW135777   3.845   1.589   3.645  0.2618  0.7093  2.2766
 8105SOL    HW235778   3.726   1.625   3.560  1.5173 -1.5768 -0.6429
 8106SOL     OW35779   2.077   2.640   6.654  0.0225 -0.1622 -0.0331
 8106SOL    HW135780   2.068   2.567   6.717  0.0125 -0.7258 -0.6874
 8106SOL    HW235781   2.052   2.719   6.702  1.1126 -0.5340  1.1613
 8107SOL     OW35782   1.804   0.607   4.445  0.5178  0.4877  0.7781
 8107SOL    HW135783   1.844   0.526   4.413 -3.2110 -0.8973 -0.4648
 8107SOL    HW235784   1.865   0.678   4.428 -0.2792  0.9805 -0.0389
 8108SOL     OW35785   1.995   4.671   7.918 -0.2693 -0.0427  0.1496
 8108SOL    HW135786   1.957   4.677   7.830 -1.7790  0.7359  0.8458
 8108SOL    HW235787   1.932   0.001   7.968 -0.9244  2.5434 -3.3766
 8109SOL     OW35788   1.010   3.446  17.504  0.1629 -0.0455  0.4011
 8109SOL    HW135789   1.099   3.415  17.520  0.1168 -0.6826 -0.6174
 8109SOL    HW235790   0.959   3.377  17.462  1.0257  0.3220 -1.2121
 8110SOL     OW35791   0.862   2.596   6.540  0.1219  0.3032  0.2539
 8110SOL    HW135792   0.881   2.681   6.580  1.5260 -0.6147  1.5167
 8110SOL    HW235793   0.896   2.529   6.598  0.2134 -0.5111 -0.7386
 8111SOL     OW35794   2.491   4.499   3.029 -0.2804  0.5997  0.1375
 8111SOL    HW135795   2.566   4.439   3.030 -0.0918  0.8310 -0.2694
 8111SOL    HW235796   2.476   4.510   2.935 -0.0683 -0.4542 -0.0261
 8112SOL     OW35797   2.108   2.696   7.736  0.1890  0.3227 -0.5056
 8112SOL    HW135798   2.074   2.718   7.823 -0.5851  1.3404 -1.0768
 8112SOL    HW235799   2.097   2.601   7.731 -2.7693  0.6669 -0.4576
 8113SOL     OW35800   0.487   0.351   6.355  0.8794  0.1878 -0.1884
 8113SOL    HW135801   0.394   0.357   6.379  0.2863 -0.8607 -2.2363
 8113SOL    HW235802   0.497   0.439   6.317 -1.0994 -0.9603 -3.3526
 8114SOL     OW35803   1.058   3.488  11.640  0.2851 -0.1223  0.1298
 8114SOL    HW135804   1.044   3.532  11.556  1.6151  0.3840  0.1745
 8114SOL    HW235805   1.075   3.403  11.599  1.6373  0.0887  0.2423
 8115SOL     OW35806   4.599   1.362   6.656  0.0966 -0.2839  0.3936
 8115SOL    HW135807   4.511   1.369   6.692 -0.5158 -1.9779 -0.7929
 8115SOL    HW235808   4.599   1.453   6.625  3.0338 -0.8923 -1.3725
 8116SOL     OW35809   3.233   0.180  16.381 -0.2407 -0.0474 -0.1642
 8116SOL    HW135810   3.146   0.139  16.388 -0.7126  1.2579  1.9375
 8116SOL    HW235811   3.241   0.220  16.295  0.3127  1.6033  0.6352
 8117SOL     OW35812   2.972   2.797   2.710  0.6058 -0.4946 -0.0835
 8117SOL    HW135813   2.995   2.785   2.618 -1.4460 -2.3583 -0.3473
 8117SOL    HW235814   2.906   2.729   2.725 -1.5053  1.6037  0.0329
 8118SOL     OW35815   2.369   0.993  10.080 -0.0669 -0.1267  0.6489
 8118SOL    HW135816   2.321   1.046  10.016 -3.0491 -2.1072  1.2443
 8118SOL    HW235817   2.319   0.911  10.074  0.9604 -0.7422  0.4569
 8119SOL     OW35818   3.492   2.701  12.873 -0.2375  0.1346  0.0440
 8119SOL    HW135819   3.440   2.695  12.793 -0.9974  0.5698  0.5027
 8119SOL    HW235820   3.430   2.755  12.922  1.5681  0.1056  2.3633
 8120SOL     OW35821   0.780   4.581   7.726 -0.4370  0.0012  0.2667
 8120SOL    HW135822   0.810   4.508   7.671 -4.3625 -0.3081 -1.4272
 8120SOL    HW235823   0.830   4.566   7.807  0.2382 -0.4591 -0.2289
 8121SOL     OW35824   3.627   3.934   4.618  0.5268 -0.1358  0.2340
 8121SOL    HW135825   3.701   3.873   4.619 -0.4059 -1.2753 -1.3589
 8121SOL    HW235826   3.557   3.882   4.579  1.1336 -1.2645  0.6340
 8122SOL     OW35827   1.383   3.618  15.576 -0.7395 -0.2244  0.0130
 8122SOL    HW135828   1.378   3.705  15.615 -2.8716  0.3227 -1.4575
 8122SOL    HW235829   1.449   3.581  15.635 -1.8626  2.1871  2.7715
 8123SOL     OW35830   2.810   0.208   8.741  0.9264  0.2463 -0.1971
 8123SOL    HW135831   2.795   0.176   8.830 -4.2985 -0.5328 -1.3393
 8123SOL    HW235832   2.902   0.232   8.746  0.4560  1.7520  0.8059
 8124SOL     OW35833   3.813   1.984   1.899 -0.0894  0.1868  0.0869
 8124SOL    HW135834   3.894   1.941   1.925  1.1893  1.4294 -1.9070
 8124SOL    HW235835   3.839   2.027   1.818 -1.5303 -0.2443 -0.6205
 8125SOL     OW35836   3.470   3.118   7.435  0.0933  0.1048 -0.0367
 8125SOL    HW135837   3.470   3.068   7.354 -0.6646  0.2398 -0.1261
 8125SOL    HW235838   3.395   3.176   7.417 -0.3296  0.4112  2.6597
 8126SOL     OW35839   4.162   0.109   2.862 -0.3236  0.6546 -0.1850
 8126SOL    HW135840   4.219   0.186   2.856  0.4288  0.1849  1.1933
 8126SOL    HW235841   4.154   0.092   2.768  2.9540 -4.7036  0.4971
 8127SOL     OW35842   3.619   1.143   8.021  0.1730  0.2992  0.0901
 8127SOL    HW135843   3.672   1.153   8.100 -0.2634 -2.0655  0.6956
 8127SOL    HW235844   3.659   1.218   7.978  0.6104 -0.2303 -0.4330
 8128SOL     OW35845   2.897   3.748   3.460 -0.2388  0.1934  0.1479
 8128SOL    HW135846   2.835   3.681   3.432  0.5440 -0.7614  0.7238
 8128SOL    HW235847   2.862   3.799   3.533  0.7457  2.5642 -1.0085
 8129SOL     OW35848   0.597   1.641   4.684 -0.4474 -0.2790  0.3591
 8129SOL    HW135849   0.620   1.734   4.683  1.9084 -0.8593  2.4057
 8129SOL    HW235850   0.556   1.630   4.770 -2.1250  0.2632 -0.3767
 8130SOL     OW35851   1.496   2.085   8.647  0.6038 -0.2553 -0.1017
 8130SOL    HW135852   1.442   2.161   8.669 -0.7272 -1.8288  2.0848
 8130SOL    HW235853   1.462   2.019   8.707 -1.5550 -0.8765 -2.0083
 8131SOL     OW35854   2.679   0.873   5.843 -0.3164  0.0917 -0.1750
 8131SOL    HW135855   2.768   0.897   5.870 -0.6310  1.2122 -0.1609
 8131SOL    HW235856   2.636   0.953   5.871  0.8004  1.2266 -1.7193
 8132SOL     OW35857   3.804   2.745   1.760  0.5394  0.4179 -0.8125
 8132SOL    HW135858   3.850   2.693   1.694  0.8323  0.8615 -0.9490
 8132SOL    HW235859   3.727   2.689   1.773  1.6045 -0.7824  0.4389
 8133SOL     OW35860   4.564   3.254   3.065  0.2943  0.4303  0.0765
 8133SOL    HW135861   4.523   3.250   2.979 -1.4830  0.8437  0.9036
 8133SOL    HW235862   4.565   3.349   3.074 -1.9642  0.2447  2.4130
 8134SOL     OW35863   0.465   1.896   5.696 -0.4192  0.0702 -0.1008
 8134SOL    HW135864   0.464   1.874   5.602 -0.7343  1.3893 -0.3959
 8134SOL    HW235865   0.472   1.811   5.740  0.3525 -0.6650 -1.6029
 8135SOL     OW35866   0.326   2.791   2.231 -0.7460  0.3503  0.2623
 8135SOL    HW135867   0.255   2.842   2.270 -1.4459  0.8044 -1.6103
 8135SOL    HW235868   0.332   2.832   2.145  0.7587  1.6415  0.9732
 8136SOL     OW35869   3.905   0.842   5.271 -0.9613  0.3249 -0.3248
 8136SOL    HW135870   3.818   0.828   5.235 -1.0419 -1.4820  0.5568
 8136SOL    HW235871   3.928   0.924   5.228  2.7039 -0.1902  0.6002
 8137SOL     OW35872   3.440   4.668   6.611  0.2185  0.1257 -0.3303
 8137SOL    HW135873   3.452   0.039   6.588  0.3472  0.5606  1.4482
 8137SOL    HW235874   3.446   4.690   6.704 -0.2770 -1.1046 -0.0131
 8138SOL     OW35875   2.369   4.494  11.717  0.6717 -0.0965  0.3558
 8138SOL    HW135876   2.463   4.497  11.730  0.6427  0.1617  0.5145
 8138SOL    HW235877   2.346   4.401  11.720 -2.2662  0.6391  1.0857
 8139SOL     OW35878   1.910   3.734   7.387 -0.2368 -0.5167  0.2893
 8139SOL    HW135879   1.986   3.792   7.386 -0.9010  0.3525  0.4927
 8139SOL    HW235880   1.870   3.758   7.303 -0.5359  0.7038  0.7944
 8140SOL     OW35881   1.779   0.165   2.848 -0.7602  0.2540 -0.7857
 8140SOL    HW135882   1.754   0.237   2.791 -0.0699 -0.0140 -1.4187
 8140SOL    HW235883   1.874   0.174   2.842 -0.8813  1.4637 -0.8545
 8141SOL     OW35884   4.585   0.231   3.246 -0.8704 -0.6469  0.0474
 8141SOL    HW135885   4.672   0.244   3.283 -0.9659  0.0916  0.0158
 8141SOL    HW235886   4.602   0.205   3.156 -1.8110  1.0328 -0.6129
 8142SOL     OW35887   0.995   0.354   8.635 -0.0689  0.2037 -0.1901
 8142SOL    HW135888   0.987   0.378   8.728  1.6653 -0.2620  0.0842
 8142SOL    HW235889   1.057   0.282   8.649  0.0919  0.5403  0.8491
 8143SOL     OW35890   4.336   2.690   6.121  0.3485  0.1603 -0.2325
 8143SOL    HW135891   4.409   2.720   6.067  1.1521 -2.7631 -0.7971
 8143SOL    HW235892   4.382   2.614   6.158  0.7668  0.6799  0.3245
 8144SOL     OW35893   3.442   1.611  15.137  0.0878 -0.6034 -0.0282
 8144SOL    HW135894   3.470   1.628  15.047  0.7996  0.8472  0.4743
 8144SOL    HW235895   3.418   1.518  15.135  0.0666 -0.5732 -2.0440
 8145SOL     OW35896   0.584   4.357   1.695 -0.0146  0.2796 -0.2298
 8145SOL    HW135897   0.644   4.427   1.723  1.7535 -2.2496  2.2512
 8145SOL    HW235898   0.558   4.321   1.780  0.4454 -2.1598 -1.1398
 8146SOL     OW35899   3.602   2.533   1.666  0.3653 -0.2106 -0.1002
 8146SOL    HW135900   3.572   2.453   1.708  0.0025 -0.0818 -0.1084
 8146SOL    HW235901   3.544   2.597   1.708  1.3571 -0.9735  2.3851
 8147SOL     OW35902   4.459   2.584   4.577  0.2071 -0.2101  0.4581
 8147SOL    HW135903   4.367   2.563   4.589  0.1142  0.3983  0.8336
 8147SOL    HW235904   4.497   2.502   4.547 -0.3456  0.3001 -1.6159
 8148SOL     OW35905   2.373   1.282  11.653 -0.0041  0.1500 -0.1060
 8148SOL    HW135906   2.385   1.188  11.635  1.9346 -0.1868  2.9042
 8148SOL    HW235907   2.440   1.315  11.593 -0.8484  1.1031 -0.5020
 8149SOL     OW35908   0.840   3.004   8.561  0.1445  0.4707  0.4302
 8149SOL    HW135909   0.868   2.918   8.591  2.3544  1.0060 -0.0814
 8149SOL    HW235910   0.747   2.985   8.576  0.2596 -0.4952 -0.0573
 8150SOL     OW35911   2.045   3.214  11.433 -0.2939  0.7636 -0.5845
 8150SOL    HW135912   2.011   3.138  11.479 -0.0483  0.8477 -0.2686
 8150SOL    HW235913   1.983   3.229  11.362 -0.1960  1.5322 -0.5117
 8151SOL     OW35914   0.997   0.736   2.907 -0.0855 -0.3926  0.0434
 8151SOL    HW135915   0.954   0.715   2.990  0.4848 -1.1982  0.1266
 8151SOL    HW235916   0.972   0.828   2.893  1.9144 -0.2437 -2.4291
 8152SOL     OW35917   2.070   3.741   6.530  0.2639 -0.3892  0.2683
 8152SOL    HW135918   1.979   3.714   6.537  0.5438 -0.8670  2.0692
 8152SOL    HW235919   2.065   3.832   6.559  0.8539 -0.3758  0.3215
 8153SOL     OW35920   3.887   0.812  16.765 -0.3318  0.0042 -0.4779
 8153SOL    HW135921   3.887   0.883  16.830  1.5963 -0.3888 -0.0496
 8153SOL    HW235922   3.813   0.847  16.715 -1.5224 -0.2750  1.0845
 8154SOL     OW35923   2.400   1.875   6.623 -0.0117 -0.2460  0.1911
 8154SOL    HW135924   2.354   1.899   6.542  1.9111 -0.0481 -0.8598
 8154SOL    HW235925   2.372   1.785   6.634  2.4565 -0.9206  0.8693
 8155SOL     OW35926   4.633   0.252   5.134  0.4230  0.0629 -0.2769
 8155SOL    HW135927   4.632   0.169   5.180  0.5514  0.0295 -0.3342
 8155SOL    HW235928   4.564   0.231   5.071 -0.0303  0.6538  0.0262
 8156SOL     OW35929   4.512   4.643   2.688  0.2845 -0.0899  0.0848
 8156SOL    HW135930   4.581   4.660   2.624  0.8148  0.1525  0.7340
 8156SOL    HW235931   4.558   4.617   2.767 -1.6223 -1.2589  0.8152
 8157SOL     OW35932   3.069   0.251   8.680  0.3199  0.5725 -0.0422
 8157SOL    HW135933   3.090   0.299   8.600  0.9602  0.0828 -0.1653
 8157SOL    HW235934   3.146   0.254   8.737  0.4584 -0.7849 -0.1575
 8158SOL     OW35935   2.389   0.385   7.296  0.7852 -0.0285  0.1700
 8158SOL    HW135936   2.375   0.293   7.317  0.8936 -0.1140 -0.1241
 8158SOL    HW235937   2.374   0.435   7.376 -1.6887 -1.2886  0.4770
 8159SOL     OW35938   1.776   3.339   5.330  0.7977 -0.4272 -0.8993
 8159SOL    HW135939   1.869   3.358   5.315  0.5561  0.5887 -1.0979
 8159SOL    HW235940   1.738   3.348   5.243  0.2494 -1.6426 -0.7815
 8160SOL     OW35941   4.477   1.124   5.563 -0.0954 -0.1145 -0.1017
 8160SOL    HW135942   4.391   1.097   5.596  0.5270 -1.8995  0.0594
 8160SOL    HW235943   4.455   1.197   5.504  1.4243  0.2635 -0.1972
 8161SOL     OW35944   2.760   3.735   8.775 -0.1168  0.0717 -0.3170
 8161SOL    HW135945   2.674   3.762   8.743 -0.0636  0.2804 -0.2876
 8161SOL    HW235946   2.766   3.759   8.867 -0.5967  2.6926 -0.9567
 8162SOL     OW35947   1.654   0.852  16.716  0.2273 -0.4017  0.4810
 8162SOL    HW135948   1.710   0.856  16.794 -0.3274  3.0719  0.7334
 8162SOL    HW235949   1.719   0.826  16.651  1.0295  0.2012  1.0294
 8163SOL     OW35950   2.194   0.710   0.189 -0.0109 -0.2061  0.2770
 8163SOL    HW135951   2.238   0.787   0.225 -0.0753 -1.5486  3.2367
 8163SOL    HW235952   2.105   0.745   0.175  1.0551  1.6002 -1.9788
 8164SOL     OW35953   4.368   4.151   0.194  0.3833 -0.6800 -0.0811
 8164SOL    HW135954   4.434   4.211   0.228 -0.5531  0.5855 -0.5195
 8164SOL    HW235955   4.293   4.177   0.247  0.7925  0.9436 -0.3171
 8165SOL     OW35956   2.937   1.444  11.168 -0.1031  0.3314 -0.2793
 8165SOL    HW135957   2.994   1.401  11.232  0.8879 -1.5115 -2.4357
 8165SOL    HW235958   2.958   1.393  11.090 -0.0473 -1.6707  1.0459
 8166SOL     OW35959   3.257   0.675   3.524  0.5972  0.3929  0.0570
 8166SOL    HW135960   3.290   0.761   3.501  0.3182  0.8086  1.2162
 8166SOL    HW235961   3.330   0.644   3.578  0.8501  0.8524 -0.0282
 8167SOL     OW35962   1.081   0.133   6.045 -0.1558 -0.5218 -0.1399
 8167SOL    HW135963   1.151   0.088   6.093 -3.1205 -1.3739  3.2982
 8167SOL    HW235964   1.086   0.218   6.089  1.4726 -0.0592 -1.1775
 8168SOL     OW35965   3.779   1.761   5.651 -0.0499 -0.2003 -0.4160
 8168SOL    HW135966   3.854   1.702   5.639 -0.1232 -0.5968  1.1513
 8168SOL    HW235967   3.751   1.777   5.560  0.8695 -0.8376 -0.8159
 8169SOL     OW35968   1.226   3.827  14.383 -0.6165  0.2194 -0.2827
 8169SOL    HW135969   1.236   3.915  14.347 -0.4894  0.8332  1.2435
 8169SOL    HW235970   1.310   3.814  14.426 -2.0431 -3.6813  1.2958
 8170SOL     OW35971   4.032   1.315   3.281 -0.3879  0.2031 -0.0538
 8170SOL    HW135972   4.028   1.407   3.308  1.2155  0.0160  0.8123
 8170SOL    HW235973   3.940   1.290   3.291 -0.0920 -0.4271  1.0676
 8171SOL     OW35974   4.693   3.186   7.041  0.0709  0.3457 -0.0642
 8171SOL    HW135975   4.615   3.224   7.001  0.2297  3.1315  2.2767
 8171SOL    HW235976   0.003   3.263   7.088  1.4898 -0.4547  0.3143
 8172SOL     OW35977   2.874   4.110  15.035 -0.1322  0.4826  0.6516
 8172SOL    HW135978   2.956   4.110  14.986 -0.6755  0.0053 -0.2713
 8172SOL    HW235979   2.822   4.069  14.965  2.3562  0.7828 -1.3678
 8173SOL     OW35980   3.973   3.582  14.282  0.1605 -0.6167  0.1587
 8173SOL    HW135981   4.004   3.669  14.256 -0.3516 -0.5308 -0.1720
 8173SOL    HW235982   3.880   3.605  14.287  0.8463  2.1786  0.3152
 8174SOL     OW35983   1.951   0.208   0.343  0.0277 -0.0279 -0.7095
 8174SOL    HW135984   1.966   0.179   0.433  0.0674  1.0101 -0.3871
 8174SOL    HW235985   1.950   0.120   0.304 -0.0457 -0.7826  0.9954
 8175SOL     OW35986   1.023   4.190   4.277  0.3943 -0.4324  0.3164
 8175SOL    HW135987   0.959   4.198   4.348 -1.2288 -0.7852 -1.1033
 8175SOL    HW235988   1.057   4.103   4.297 -0.3064 -1.0392 -1.1338
 8176SOL     OW35989   4.257   0.509   0.454  0.3408 -0.1124  0.0782
 8176SOL    HW135990   4.185   0.570   0.440  1.0025  0.7274  0.3694
 8176SOL    HW235991   4.249   0.453   0.376 -3.0048  1.5548 -0.7559
 8177SOL     OW35992   4.130   0.146  14.602  0.2722 -0.2002  0.4375
 8177SOL    HW135993   4.052   0.196  14.579 -0.4665 -1.8370 -0.6099
 8177SOL    HW235994   4.101   0.061  14.568 -0.0759  0.9243 -2.0465
 8178SOL     OW35995   3.121   1.543  13.572 -0.1695 -0.2237  0.2860
 8178SOL    HW135996   3.159   1.628  13.550  0.5819 -0.7688 -0.5518
 8178SOL    HW235997   3.101   1.569  13.662  0.8655  0.6225  0.2680
 8179SOL     OW35998   0.774   3.653  13.094  0.5381  0.7817 -0.6992
 8179SOL    HW135999   0.822   3.608  13.164  0.8131  1.3450 -0.5241
 8179SOL    HW236000   0.779   3.742  13.128 -1.8225 -0.2615  2.3866
 8180SOL     OW36001   1.086   0.007  16.745  1.0332 -0.2648 -0.0479
 8180SOL    HW136002   1.128   4.674  16.812  0.5744  0.0339  0.4822
 8180SOL    HW236003   0.996   4.704  16.766  1.1370  0.2115  0.9037
 8181SOL     OW36004   3.947   0.871   6.314  0.4991  0.4096 -0.3624
 8181SOL    HW136005   3.895   0.891   6.392 -0.7373 -0.4702 -0.9575
 8181SOL    HW236006   3.931   0.950   6.262 -0.4850  0.4689  0.0299
 8182SOL     OW36007   3.006   2.750  10.925  0.2837 -0.3117  0.3411
 8182SOL    HW136008   2.999   2.657  10.905 -0.2763 -0.1833 -0.0667
 8182SOL    HW236009   3.093   2.749  10.966  0.0205  0.5803  0.9315
 8183SOL     OW36010   2.903   2.624   8.300  0.5119 -0.6857 -0.5871
 8183SOL    HW136011   2.904   2.608   8.395 -1.8012 -1.2145 -0.6506
 8183SOL    HW236012   2.939   2.536   8.282  0.8689 -0.4077 -1.2352
 8184SOL     OW36013   3.573   1.803  10.069 -0.1267 -0.0911  0.0811
 8184SOL    HW136014   3.664   1.781  10.052 -0.0926 -0.5622  0.8968
 8184SOL    HW236015   3.571   1.899  10.064  3.5153 -0.0682 -0.4686
 8185SOL     OW36016   4.029   0.651   8.766  0.2346 -0.0464  0.1538
 8185SOL    HW136017   4.018   0.716   8.835 -1.8658 -1.1984  0.9245
 8185SOL    HW236018   4.060   0.573   8.812  1.2034  0.4000  0.2444
 8186SOL     OW36019   0.355   0.232   9.129 -0.0273  0.2229  0.1177
 8186SOL    HW136020   0.324   0.174   9.199  0.7628  1.7952  1.7398
 8186SOL    HW236021   0.338   0.171   9.057 -1.1195  1.0374 -0.3193
 8187SOL     OW36022   1.903   0.518   6.188  0.6117  0.1436 -0.1742
 8187SOL    HW136023   1.914   0.579   6.115  0.0825  1.6696  1.0292
 8187SOL    HW236024   1.980   0.538   6.240  0.6916 -0.6798  0.0187
 8188SOL     OW36025   0.146   2.361  10.928  0.1366 -0.3460 -0.0546
 8188SOL    HW136026   0.129   2.363  11.022 -0.5372 -1.4734 -0.1494
 8188SOL    HW236027   0.208   2.288  10.920 -0.3176 -0.5196 -2.0299
 8189SOL     OW36028   1.745   4.487   6.617 -0.2027 -0.0490  0.4103
 8189SOL    HW136029   1.807   4.513   6.684  0.9271 -0.7104 -0.3825
 8189SOL    HW236030   1.696   4.410   6.646 -2.9160  1.4315 -0.1967
 8190SOL     OW36031   1.625   3.552   5.445 -0.1296 -0.2197 -0.3114
 8190SOL    HW136032   1.600   3.611   5.373 -0.1069 -1.2629 -1.1717
 8190SOL    HW236033   1.672   3.481   5.402  0.8188 -1.0902  2.1849
 8191SOL     OW36034   2.473   3.498   5.721 -0.2271 -0.3860  0.1727
 8191SOL    HW136035   2.423   3.557   5.665  0.8668 -0.2036 -0.6149
 8191SOL    HW236036   2.550   3.499   5.664  0.0295  1.1996  0.5447
 8192SOL     OW36037   1.188   4.684   4.591  0.2367 -0.2410  0.0143
 8192SOL    HW136038   1.128   0.034   4.616 -0.1235  0.0352 -1.6553
 8192SOL    HW236039   1.191   4.632   4.671  0.7144 -1.1219 -0.5838
 8193SOL     OW36040   4.079   0.408   5.139  0.2267  0.4128  0.5286
 8193SOL    HW136041   4.092   0.501   5.119 -1.9168  0.5678 -0.1539
 8193SOL    HW236042   4.002   0.416   5.195 -0.2482 -0.9507  0.0743
 8194SOL     OW36043   1.620   2.686   6.359 -0.4239  0.3077  0.6730
 8194SOL    HW136044   1.624   2.714   6.267 -0.5572  0.3724  0.6863
 8194SOL    HW236045   1.668   2.604   6.351 -0.3246  0.5179 -0.8564
 8195SOL     OW36046   0.780   1.944   0.595  0.0119 -0.2473  0.6011
 8195SOL    HW136047   0.749   2.015   0.540  0.1274 -0.4248  0.3090
 8195SOL    HW236048   0.773   1.874   0.530 -2.0011  1.1182 -0.6535
 8196SOL     OW36049   1.724   2.241   4.871 -0.0313 -0.0617  0.0789
 8196SOL    HW136050   1.740   2.222   4.778  0.2816  1.7942 -0.2530
 8196SOL    HW236051   1.768   2.173   4.921 -1.4755 -0.9113  0.1973
 8197SOL     OW36052   4.041   2.123   6.527  0.0831  0.1839  0.5439
 8197SOL    HW136053   3.988   2.114   6.607  1.1219  2.0285  1.4510
 8197SOL    HW236054   4.124   2.084   6.554 -0.6768 -0.7281  1.5495
 8198SOL     OW36055   0.861   1.936  16.168 -0.2257  0.3315  0.4230
 8198SOL    HW136056   0.808   1.918  16.245 -1.6823 -2.8142 -1.3201
 8198SOL    HW236057   0.825   1.867  16.113 -1.0039 -0.0226  1.3733
 8199SOL     OW36058   1.644   2.985   2.526  0.2011  0.1979  0.5576
 8199SOL    HW136059   1.626   2.969   2.434 -0.6280  0.1340  0.7286
 8199SOL    HW236060   1.571   3.044   2.543 -0.1009 -0.2862  0.9526
 8200SOL     OW36061   1.508   3.138  15.078  0.3186  0.4190  0.2957
 8200SOL    HW136062   1.593   3.103  15.105  0.9246  3.0687  1.8381
 8200SOL    HW236063   1.489   3.086  15.000 -1.0106  0.2370  0.7423
 8201SOL     OW36064   3.628   4.298   5.283  0.4713  0.1216 -0.2582
 8201SOL    HW136065   3.689   4.252   5.340  1.2883  2.8003  1.0448
 8201SOL    HW236066   3.618   4.231   5.216  0.9306 -1.2324  1.0322
 8202SOL     OW36067   2.979   4.696  15.738 -0.4555  0.1182 -0.0141
 8202SOL    HW136068   2.948   4.619  15.785  1.0736 -1.9274 -2.4003
 8202SOL    HW236069   3.070   4.679  15.713 -0.5711 -1.4579  0.6806
 8203SOL     OW36070   0.570   0.033  13.400  0.4652 -0.0085 -0.1516
 8203SOL    HW136071   0.653   4.709  13.418  0.1957  0.4609  2.3252
 8203SOL    HW236072   0.540   4.718  13.317 -1.0931  0.1366  0.3435
 8204SOL     OW36073   3.156   3.586   4.414 -0.3557 -0.2821 -0.1409
 8204SOL    HW136074   3.107   3.616   4.337 -0.3090 -0.4035 -0.2191
 8204SOL    HW236075   3.249   3.585   4.393  0.3522  1.6976  2.9833
 8205SOL     OW36076   0.633   4.652   3.635 -0.1352  0.5575 -0.2879
 8205SOL    HW136077   0.723   4.619   3.637  0.0320  0.8463 -2.7192
 8205SOL    HW236078   0.582   4.580   3.672  1.4612  0.4947  1.7781
 8206SOL     OW36079   2.825   1.066  10.164  0.0954  0.2622 -0.3687
 8206SOL    HW136080   2.769   1.034  10.093  0.8690 -4.1335  0.9425
 8206SOL    HW236081   2.861   0.979  10.184  1.1738  0.4569 -1.4314
 8207SOL     OW36082   1.654   2.801   6.614 -0.0590 -0.0323 -0.2423
 8207SOL    HW136083   1.646   2.769   6.525  0.0443 -1.7651  0.3755
 8207SOL    HW236084   1.748   2.821   6.614 -0.4540  1.7848  1.5062
 8208SOL     OW36085   1.346   1.592   2.899 -0.3507  0.0456 -1.1109
 8208SOL    HW136086   1.433   1.552   2.907 -0.8147 -0.5993  0.7423
 8208SOL    HW236087   1.358   1.646   2.977 -0.0951  1.6741 -2.2720
 8209SOL     OW36088   4.335   1.698   8.556 -0.2384  0.3633 -0.1655
 8209SOL    HW136089   4.266   1.706   8.490  0.6446  1.3241 -0.9589
 8209SOL    HW236090   4.276   1.681   8.629  0.5484  0.0968  0.4025
 8210SOL     OW36091   2.781   1.318  12.091  0.3061  0.4763  0.1803
 8210SOL    HW136092   2.735   1.381  12.146 -3.1949 -2.1428  0.2398
 8210SOL    HW236093   2.811   1.263  12.164  1.6099 -1.4212 -1.7839
 8211SOL     OW36094   1.404   4.646   6.515  0.4248  0.2078 -0.4391
 8211SOL    HW136095   1.458   4.626   6.439 -0.1871 -0.7215 -0.6317
 8211SOL    HW236096   1.317   4.631   6.478  0.9895  0.7929 -1.9844
 8212SOL     OW36097   1.173   3.755   3.648  0.5312 -0.0539  0.2721
 8212SOL    HW136098   1.241   3.744   3.582 -0.2106  1.0923 -0.6783
 8212SOL    HW236099   1.179   3.846   3.676 -1.2248  0.2769 -0.4272
 8213SOL     OW36100   3.703   1.691   4.311 -0.0394  0.5599 -0.1824
 8213SOL    HW136101   3.713   1.728   4.223  0.7421  4.2327  1.4276
 8213SOL    HW236102   3.630   1.746   4.339  1.3568  2.5901 -0.5314
 8214SOL     OW36103   2.926   3.455   6.181 -0.8409 -0.1402  0.0165
 8214SOL    HW136104   2.914   3.549   6.194  1.3124 -0.1144  1.6476
 8214SOL    HW236105   2.837   3.420   6.168  0.1357 -1.8929 -1.9994
 8215SOL     OW36106   2.407   0.695   6.370 -0.0409 -0.0053 -0.0916
 8215SOL    HW136107   2.435   0.719   6.458 -0.0929  0.2316 -0.1394
 8215SOL    HW236108   2.416   0.782   6.330  2.1238 -0.5608 -0.8006
 8216SOL     OW36109   2.299   1.321   2.631 -0.0907  0.4826 -0.4021
 8216SOL    HW136110   2.203   1.316   2.635 -0.0101 -0.4379  0.4476
 8216SOL    HW236111   2.294   1.339   2.537 -0.5150 -1.9681 -0.8434
 8217SOL     OW36112   0.244   0.396   1.781  0.0288 -0.1214 -0.3021
 8217SOL    HW136113   0.250   0.366   1.691 -1.2477 -0.5897 -0.2284
 8217SOL    HW236114   0.162   0.353   1.805  0.6356 -1.1255 -0.0154
 8218SOL     OW36115   3.051   4.554   0.955  0.4314 -0.0203 -0.3031
 8218SOL    HW136116   2.960   4.544   0.985  0.9024 -0.7403  0.8623
 8218SOL    HW236117   3.095   4.472   0.975 -0.2162 -0.0234  1.1159
 8219SOL     OW36118   4.657   1.065   5.302  0.2616 -0.7153 -0.6114
 8219SOL    HW136119   4.697   1.137   5.351  0.8628 -1.9086  0.6418
 8219SOL    HW236120   4.582   1.046   5.357  0.8008  0.0008  0.3649
 8220SOL     OW36121   3.336   0.022  11.235  0.1638  0.0852  0.5817
 8220SOL    HW136122   3.393   0.093  11.205  1.6332 -1.8381 -1.1891
 8220SOL    HW236123   3.366   4.674  11.176  0.5379 -0.3993  1.3524
 8221SOL     OW36124   2.456   2.377  12.184 -0.2104 -0.4630  0.1885
 8221SOL    HW136125   2.368   2.349  12.208 -0.0080  0.8492  2.5558
 8221SOL    HW236126   2.440   2.444  12.119  0.0878 -3.1997 -2.6828
 8222SOL     OW36127   2.587   3.693   7.835 -0.5380  0.1685 -0.3658
 8222SOL    HW136128   2.538   3.613   7.816 -3.5718  2.3233 -1.4633
 8222SOL    HW236129   2.534   3.737   7.901 -1.1608  0.9857 -1.4023
 8223SOL     OW36130   2.452   3.811  12.940 -0.4603 -0.0887  0.3181
 8223SOL    HW136131   2.516   3.883  12.944 -0.2525 -0.3371  1.5450
 8223SOL    HW236132   2.380   3.865  12.973 -0.3354  0.8622 -0.9408
 8224SOL     OW36133   1.438   3.056   3.162 -0.0764 -0.4355  0.2395
 8224SOL    HW136134   1.447   2.973   3.209  2.0491 -0.4712 -0.2157
 8224SOL    HW236135   1.454   3.026   3.073  0.8969  1.5119 -0.2592
 8225SOL     OW36136   4.482   1.811  16.416  0.0534  0.2152 -0.4881
 8225SOL    HW136137   4.479   1.879  16.483 -0.3095  0.2297 -0.5191
 8225SOL    HW236138   4.413   1.749  16.442  0.5048 -0.2241 -0.3309
 8226SOL     OW36139   1.192   3.901  11.705 -0.2705 -0.1256  0.0955
 8226SOL    HW136140   1.141   3.909  11.786 -0.0136  2.1757  0.0266
 8226SOL    HW236141   1.120   3.912  11.643  0.2504 -3.2371 -1.0635
 8227SOL     OW36142   4.134   2.162   9.636 -0.1453 -0.4113  0.3803
 8227SOL    HW136143   4.222   2.125   9.638  1.0994  2.3715 -1.7077
 8227SOL    HW236144   4.091   2.081   9.663 -2.7549  1.1261  0.8797
 8228SOL     OW36145   2.968   3.882   1.829  0.0608 -0.2823  0.2540
 8228SOL    HW136146   2.944   3.810   1.887  1.3352 -0.5050  0.5061
 8228SOL    HW236147   2.888   3.932   1.811 -0.5584 -1.7628 -1.1369
 8229SOL     OW36148   1.937   1.129   9.278  0.0156 -1.0299 -0.1599
 8229SOL    HW136149   1.894   1.148   9.195 -1.9328  0.5689  1.2044
 8229SOL    HW236150   2.012   1.074   9.255  0.7696 -0.0711  0.0382
 8230SOL     OW36151   3.265   3.129   3.696  0.1803  0.3516  0.0165
 8230SOL    HW136152   3.207   3.142   3.771 -0.4166 -1.6254 -0.1199
 8230SOL    HW236153   3.216   3.057   3.656  0.1243 -0.9547  2.4364
 8231SOL     OW36154   3.611   3.056   9.814  0.9345 -0.0885 -0.0114
 8231SOL    HW136155   3.686   3.105   9.845  1.3416 -1.5253  1.2493
 8231SOL    HW236156   3.611   2.986   9.879  0.8607  0.2197  0.3206
 8232SOL     OW36157   1.654   1.576   3.257 -0.0622  0.7511 -0.3926
 8232SOL    HW136158   1.623   1.574   3.166 -1.8987  0.3410  0.2302
 8232SOL    HW236159   1.571   1.586   3.304  0.0964 -0.6089  0.1605
 8233SOL     OW36160   4.184   0.373  16.009  0.1240 -0.2335 -0.2361
 8233SOL    HW136161   4.130   0.314  15.955 -1.2579  0.9313 -0.1244
 8233SOL    HW236162   4.256   0.392  15.949  1.7494 -2.0386  1.1455
 8234SOL     OW36163   3.514   1.576  14.533  0.1388  0.1705  0.0827
 8234SOL    HW136164   3.478   1.531  14.456 -0.7376 -2.0510  1.8210
 8234SOL    HW236165   3.601   1.536  14.533  0.3215  0.5767  3.3501
 8235SOL     OW36166   0.060   0.295   7.733  0.1712  0.1482 -0.2359
 8235SOL    HW136167   0.120   0.368   7.717  1.0674 -0.3048  0.9901
 8235SOL    HW236168   0.061   0.239   7.656 -1.8687  0.8298 -0.7452
 8236SOL     OW36169   1.936   0.699   5.564 -0.5726 -0.1058 -0.1750
 8236SOL    HW136170   1.943   0.641   5.488  3.2142  1.5007 -1.0310
 8236SOL    HW236171   1.959   0.788   5.537  0.5361 -0.1122  0.7428
 8237SOL     OW36172   2.201   4.383   7.081  0.4749 -0.0316  0.3581
 8237SOL    HW136173   2.254   4.403   7.005  2.6390  0.3001  1.9723
 8237SOL    HW236174   2.178   4.475   7.094 -0.8495 -0.5203  1.5143
 8238SOL     OW36175   0.287   4.570   2.068 -0.2681 -0.2486  0.1811
 8238SOL    HW136176   0.355   4.612   2.120 -0.1092 -1.0179  0.5912
 8238SOL    HW236177   0.278   4.490   2.119  0.4535 -1.2427 -1.2678
 8239SOL     OW36178   1.207   4.544   5.791 -0.3567  0.1639 -0.2331
 8239SOL    HW136179   1.140   4.611   5.806 -0.1005  0.2458  0.5445
 8239SOL    HW236180   1.237   4.537   5.881 -1.6060  1.1037  0.2697
 8240SOL     OW36181   0.756   1.661   5.729  0.0264 -0.3338  0.2058
 8240SOL    HW136182   0.807   1.683   5.807  0.2201  1.4729 -0.4361
 8240SOL    HW236183   0.796   1.723   5.669  1.1656 -1.4143 -0.1403
 8241SOL     OW36184   0.322   0.997  17.300 -0.1384 -0.3747 -0.4456
 8241SOL    HW136185   0.373   1.077  17.288  0.0121 -0.4625 -0.3987
 8241SOL    HW236186   0.321   0.967  17.209  1.7996 -0.6515 -0.3840
 8242SOL     OW36187   4.496   2.167   3.631  0.7263 -0.0538 -0.1904
 8242SOL    HW136188   4.531   2.250   3.601  0.2377  0.7354  1.4246
 8242SOL    HW236189   4.507   2.187   3.724  0.2698 -1.3146  0.1335
 8243SOL     OW36190   1.929   3.650   4.605 -0.0970 -0.5330  0.1296
 8243SOL    HW136191   1.903   3.567   4.644 -1.5610 -0.0934  0.0657
 8243SOL    HW236192   1.995   3.628   4.538 -2.9688  0.7715 -3.1059
 8244SOL     OW36193   1.951   0.420   5.688 -0.0606  0.3696  0.0223
 8244SOL    HW136194   1.945   0.515   5.700 -1.4413  0.4214 -1.0032
 8244SOL    HW236195   2.025   0.388   5.738  2.0695  1.3116 -2.5245
 8245SOL     OW36196   2.175   0.194  12.321 -0.0263  0.4837 -0.0214
 8245SOL    HW136197   2.211   0.132  12.257  2.5680  2.0946 -0.1064
 8245SOL    HW236198   2.185   0.147  12.404  0.4680 -2.7417 -1.8843
 8246SOL     OW36199   0.741   3.153  15.943 -0.4520 -0.0830 -0.3310
 8246SOL    HW136200   0.753   3.061  15.920  0.3739  0.4985 -2.2891
 8246SOL    HW236201   0.807   3.188  15.882  0.0538 -1.6155 -0.6558
 8247SOL     OW36202   3.322   3.108   9.855  0.5651  0.4041  0.1914
 8247SOL    HW136203   3.411   3.110   9.820 -0.1597 -0.0291 -1.6813
 8247SOL    HW236204   3.314   3.013   9.861  2.0124  0.2793  0.0360
 8248SOL     OW36205   4.301   2.726   2.673  0.1343 -0.9247 -0.2016
 8248SOL    HW136206   4.353   2.750   2.596 -0.8075  1.6275 -0.0342
 8248SOL    HW236207   4.375   2.713   2.732 -0.9170 -1.0793  1.0704
 8249SOL     OW36208   1.438   3.512  15.342 -0.2421  0.1214 -0.5614
 8249SOL    HW136209   1.394   3.534  15.424 -1.1032  1.2516 -1.3270
 8249SOL    HW236210   1.500   3.585  15.336  0.0701  0.0706  2.0175
 8250SOL     OW36211   3.143   2.592  15.997  0.0901 -0.0020  0.6024
 8250SOL    HW136212   3.111   2.502  16.003  0.4819 -0.2870 -1.6618
 8250SOL    HW236213   3.191   2.602  15.915 -0.3680  3.3707  0.7335
 8251SOL     OW36214   2.933   3.467   4.537 -0.0512  0.6650 -0.1968
 8251SOL    HW136215   2.979   3.400   4.587 -0.7528  0.8591  0.7039
 8251SOL    HW236216   3.002   3.502   4.481  0.2143  1.4321  0.6207
 8252SOL     OW36217   3.346   3.700   5.941  0.2697  0.2512 -0.5967
 8252SOL    HW136218   3.324   3.610   5.916 -1.0712  0.2617  0.5476
 8252SOL    HW236219   3.257   3.733   5.934 -0.2202 -1.5081 -2.4561
 8253SOL     OW36220   1.675   2.904  15.598 -0.2083  0.0401 -0.1634
 8253SOL    HW136221   1.738   2.884  15.529 -0.7251  1.1694 -0.9580
 8253SOL    HW236222   1.662   2.999  15.604  0.8808  0.0915  1.3883
 8254SOL     OW36223   3.004   4.610   8.320  0.8896  0.9936  0.5073
 8254SOL    HW136224   2.993   4.704   8.334  0.9386  1.1127 -0.2906
 8254SOL    HW236225   2.913   4.579   8.330  0.5459  1.2469 -1.8784
 8255SOL     OW36226   3.962   3.841   8.104 -0.8267  0.5686  0.3644
 8255SOL    HW136227   3.924   3.777   8.044  0.5386 -0.6351  0.7742
 8255SOL    HW236228   3.891   3.852   8.168 -3.0150  1.0919 -2.1893
 8256SOL     OW36229   0.353   3.958   1.153  0.2436  0.4996 -0.1086
 8256SOL    HW136230   0.372   3.957   1.059 -0.4182  0.8305 -0.2462
 8256SOL    HW236231   0.358   4.053   1.161 -0.6317  0.4507  1.0307
 8257SOL     OW36232   0.887   3.342   2.820  0.0565  0.0718 -0.8009
 8257SOL    HW136233   0.969   3.334   2.770  1.1151  0.2561  0.9180
 8257SOL    HW236234   0.840   3.267   2.785 -1.9924  0.6318  0.7555
 8258SOL     OW36235   4.211   2.137   3.767 -0.1819  0.4755 -0.3541
 8258SOL    HW136236   4.192   2.049   3.732  0.4240 -0.0245  0.5730
 8258SOL    HW236237   4.302   2.123   3.793 -0.1351  2.6870  0.6018
 8259SOL     OW36238   0.010   4.494   4.133  0.3532  0.0829  0.4011
 8259SOL    HW136239   0.098   4.465   4.160 -0.0021 -0.2157  1.2399
 8259SOL    HW236240   4.684   4.487   4.215  0.7507 -1.7108  0.4795
 8260SOL     OW36241   3.882   2.027   8.120  0.2729 -0.3384 -0.1918
 8260SOL    HW136242   3.800   2.064   8.089 -0.0398 -0.4170  0.5304
 8260SOL    HW236243   3.940   2.038   8.045  0.4935  1.6232  0.2699
 8261SOL     OW36244   0.413   3.147  10.870 -0.5002 -0.2592  0.2897
 8261SOL    HW136245   0.408   3.068  10.924 -4.6996  0.7263  1.3266
 8261SOL    HW236246   0.357   3.130  10.794  0.3251 -1.4664 -0.0464
 8262SOL     OW36247   4.537   4.246   0.539 -0.1271  0.7646 -0.1562
 8262SOL    HW136248   4.446   4.272   0.520 -0.5716  0.9622  2.1430
 8262SOL    HW236249   4.587   4.261   0.459 -0.1258 -0.7363 -0.4385
 8263SOL     OW36250   4.302   3.436  13.982 -0.0470  0.5478 -0.2627
 8263SOL    HW136251   4.325   3.529  13.988 -2.4236  1.1643 -0.6784
 8263SOL    HW236252   4.213   3.464  13.958 -0.6280 -0.4585  0.7024
 8264SOL     OW36253   1.372   1.346  16.295 -0.3578 -0.5944 -0.5905
 8264SOL    HW136254   1.434   1.279  16.266  0.9507  0.5531 -0.4310
 8264SOL    HW236255   1.362   1.316  16.386  0.0413 -2.6322 -1.2265
 8265SOL     OW36256   3.019   1.876  12.789 -0.2217  0.5633 -0.0909
 8265SOL    HW136257   2.956   1.937  12.751  1.8429  1.0098 -2.7938
 8265SOL    HW236258   3.023   1.907  12.879  1.2066  0.4867 -0.1254
 8266SOL     OW36259   0.303   3.800   5.494 -0.2985  0.2038  0.1696
 8266SOL    HW136260   0.372   3.831   5.552  0.4543 -1.7344  0.3188
 8266SOL    HW236261   0.234   3.781   5.557 -0.6082 -0.9796 -0.5144
 8267SOL     OW36262   0.142   2.674  16.332 -0.3965  0.2052 -0.3074
 8267SOL    HW136263   0.125   2.651  16.240 -1.8070  1.1863 -0.2961
 8267SOL    HW236264   0.156   2.590  16.375 -1.5731 -0.7053 -1.6789
 8268SOL     OW36265   3.598   4.039  12.068  0.0729  0.0721  0.0612
 8268SOL    HW136266   3.622   4.130  12.082 -1.9745  0.5302  0.6353
 8268SOL    HW236267   3.554   4.012  12.149  1.1093 -0.6862  0.3693
 8269SOL     OW36268   3.620   1.525   1.410  0.3153  0.0719 -0.0970
 8269SOL    HW136269   3.587   1.566   1.490 -2.5752 -0.6658 -0.9191
 8269SOL    HW236270   3.648   1.441   1.447 -1.0961 -0.2645  0.1893
 8270SOL     OW36271   3.487   1.733   5.716 -0.0012  0.5498 -0.0570
 8270SOL    HW136272   3.477   1.644   5.748  0.6803  0.4056 -0.2297
 8270SOL    HW236273   3.582   1.741   5.705  0.1809 -0.9600  0.4413
 8271SOL     OW36274   0.606   3.168   2.556  0.5046 -0.0615  0.4085
 8271SOL    HW136275   0.517   3.204   2.553  0.6450  0.1870 -0.8782
 8271SOL    HW236276   0.646   3.191   2.640 -1.3914  1.4634  0.9075
 8272SOL     OW36277   1.506   1.463   4.074  0.8491  0.4638  0.2098
 8272SOL    HW136278   1.544   1.499   3.993  0.2796  1.5213  0.4130
 8272SOL    HW236279   1.542   1.525   4.137  2.2365  0.8941 -0.9826
 8273SOL     OW36280   4.558   2.098  11.798 -0.3040  0.3713 -0.4321
 8273SOL    HW136281   4.633   2.098  11.739  0.0706  0.2355  0.0476
 8273SOL    HW236282   4.593   2.043  11.868 -0.6091  0.4586 -0.2105
 8274SOL     OW36283   1.799   2.474   5.031  0.8672 -0.3268  0.0725
 8274SOL    HW136284   1.726   2.533   5.048  0.7654 -1.0793  2.2893
 8274SOL    HW236285   1.752   2.404   4.985  1.3058 -1.9857  2.1182
 8275SOL     OW36286   0.573   3.863   4.168 -0.2108 -0.4474  0.0080
 8275SOL    HW136287   0.512   3.814   4.224 -1.2203 -0.1847 -0.8703
 8275SOL    HW236288   0.511   3.924   4.127 -2.0190 -2.4130 -0.2151
 8276SOL     OW36289   0.282   0.137   8.763  0.2509  0.2673 -0.1396
 8276SOL    HW136290   0.203   0.183   8.791 -0.0254  0.7931 -1.8333
 8276SOL    HW236291   0.297   0.071   8.831  2.5940  1.4677  0.5229
 8277SOL     OW36292   2.010   0.403   0.164 -0.6470  0.3934  0.6248
 8277SOL    HW136293   1.971   0.340   0.224 -1.3342  1.5841  1.4170
 8277SOL    HW236294   2.074   0.433   0.229  0.0846 -0.3509  0.2542
 8278SOL     OW36295   0.768   3.811   0.187  0.3450 -0.7172 -0.0749
 8278SOL    HW136296   0.749   3.890   0.136 -0.3585 -0.3266  0.7936
 8278SOL    HW236297   0.788   3.850   0.271 -0.3815 -0.1766 -0.1563
 8279SOL     OW36298   0.472   0.348   7.100  0.0061 -0.3164  0.7516
 8279SOL    HW136299   0.508   0.352   7.188 -0.7092 -1.4514  1.0961
 8279SOL    HW236300   0.548   0.353   7.041 -0.0946 -0.2513  0.6268
 8280SOL     OW36301   1.874   2.991  13.312 -0.6155  0.2893 -0.2957
 8280SOL    HW136302   1.804   2.960  13.369  0.0543  0.6655  0.7255
 8280SOL    HW236303   1.843   3.081  13.304 -3.2272 -0.5668  0.2758
 8281SOL     OW36304   2.541   4.243  15.838 -0.1211  0.8532  0.5318
 8281SOL    HW136305   2.459   4.196  15.829  0.1739  0.6857 -1.2571
 8281SOL    HW236306   2.603   4.173  15.816 -0.3957  0.2801  1.5867
 8282SOL     OW36307   0.490   2.700   8.531 -0.5502 -0.3493  0.4212
 8282SOL    HW136308   0.468   2.621   8.580  2.3542  0.7319  3.4500
 8282SOL    HW236309   0.537   2.672   8.453 -0.1350  1.7526 -0.0942
 8283SOL     OW36310   1.470   4.390   0.980 -0.6810  0.3835 -0.2884
 8283SOL    HW136311   1.390   4.359   0.936 -0.2435 -0.6142 -0.3763
 8283SOL    HW236312   1.525   4.356   0.909  0.3617 -1.4332  1.3798
 8284SOL     OW36313   4.480   1.374   5.036 -0.1282  0.0793  0.3487
 8284SOL    HW136314   4.410   1.395   4.975 -0.5247  0.5980  0.9755
 8284SOL    HW236315   4.430   1.331   5.106 -0.7570 -0.9224 -0.7241
 8285SOL     OW36316   3.765   4.406  12.468 -0.0205  0.2254  0.1807
 8285SOL    HW136317   3.764   4.481  12.528  1.9923  0.8215 -0.5217
 8285SOL    HW236318   3.811   4.443  12.392 -2.7379 -0.5051 -1.7968
 8286SOL     OW36319   0.599   2.931   8.599  0.5884 -0.1305  0.1704
 8286SOL    HW136320   0.578   2.850   8.552 -0.1291 -0.6763  1.4399
 8286SOL    HW236321   0.587   2.894   8.686 -0.3260  1.6238  0.8023
 8287SOL     OW36322   2.773   1.389   8.045  0.5111 -0.1673  0.8265
 8287SOL    HW136323   2.769   1.391   8.141  1.1625  0.6777  0.8385
 8287SOL    HW236324   2.706   1.453   8.021  2.6260  1.3478 -1.0805
 8288SOL     OW36325   0.706   3.862   8.626  0.1274 -0.0928  0.2824
 8288SOL    HW136326   0.676   3.794   8.686  2.0413 -0.9577  0.2736
 8288SOL    HW236327   0.732   3.801   8.556 -0.7769  0.3016 -0.3938
 8289SOL     OW36328   1.216   2.955  13.392 -0.4591  0.1856  0.3622
 8289SOL    HW136329   1.194   3.048  13.386  3.0038  0.9853  0.0181
 8289SOL    HW236330   1.265   2.949  13.310 -0.9432  0.5615  0.0398
 8290SOL     OW36331   4.116   2.454   7.244  0.2629  0.2516  0.0015
 8290SOL    HW136332   4.087   2.382   7.188 -0.7088 -1.6925  2.9910
 8290SOL    HW236333   4.033   2.502   7.246  0.1549  0.1390 -2.1454
 8291SOL     OW36334   1.314   2.723   1.329  0.4100  0.2777  1.2543
 8291SOL    HW136335   1.354   2.809   1.312  0.8247  0.2103  1.8934
 8291SOL    HW236336   1.226   2.743   1.362 -0.0418 -3.3905  2.1968
 8292SOL     OW36337   4.575   3.660  16.609  0.3268 -0.3867  0.2829
 8292SOL    HW136338   4.547   3.572  16.633 -1.2344 -0.4147 -1.6455
 8292SOL    HW236339   4.565   3.719  16.684  0.8763  3.4672 -2.6094
 8293SOL     OW36340   1.029   3.810  14.188 -0.1509 -0.2532 -0.7942
 8293SOL    HW136341   0.986   3.724  14.196  0.8490 -0.8036 -1.3372
 8293SOL    HW236342   1.102   3.813  14.251 -0.1729 -0.5758 -0.7502
 8294SOL     OW36343   1.075   2.570   3.112 -0.0761 -0.1371 -0.0199
 8294SOL    HW136344   1.002   2.631   3.119  0.2097  0.2054 -0.0051
 8294SOL    HW236345   1.067   2.550   3.019 -1.2001  0.4559 -0.0503
 8295SOL     OW36346   2.569   4.619   9.440  0.0624 -0.4922 -0.3275
 8295SOL    HW136347   2.496   4.569   9.477 -1.1245  0.4413 -1.4172
 8295SOL    HW236348   2.625   4.638   9.515  1.0845  2.2847 -1.7944
 8296SOL     OW36349   1.970   0.972   4.157 -0.0250 -0.3347  0.1384
 8296SOL    HW136350   1.911   0.932   4.093  1.6801  2.3418 -3.1256
 8296SOL    HW236351   2.010   0.894   4.195 -1.2295 -1.3426 -0.6634
 8297SOL     OW36352   0.181   4.365   3.210  0.1432 -0.3332 -0.2716
 8297SOL    HW136353   0.097   4.406   3.191  0.0270 -1.1289 -1.4997
 8297SOL    HW236354   0.239   4.436   3.185  1.9826 -0.1612  4.4808
 8298SOL     OW36355   1.474   1.526   7.390  0.1713  0.4205  0.4352
 8298SOL    HW136356   1.512   1.551   7.474  4.9635  0.3136 -1.7235
 8298SOL    HW236357   1.546   1.536   7.328 -0.9810 -0.4657 -1.0420
 8299SOL     OW36358   3.068   2.715   4.973  0.0460 -0.4646  0.2033
 8299SOL    HW136359   2.982   2.758   4.975  0.3247 -0.0298  2.7698
 8299SOL    HW236360   3.056   2.647   5.039  0.7823  0.4546  1.2853
 8300SOL     OW36361   2.120   0.177   5.008 -0.4139 -0.0197 -0.0644
 8300SOL    HW136362   2.052   0.191   4.942  0.5219 -0.7947 -1.2015
 8300SOL    HW236363   2.070   0.184   5.089  0.7173  0.0800  0.6286
 8301SOL     OW36364   2.598   0.376  17.445  0.5276 -0.2511 -0.1145
 8301SOL    HW136365   2.651   0.396  17.522 -0.5644  3.2487 -0.2677
 8301SOL    HW236366   2.514   0.423  17.448 -0.0546 -1.2768 -0.6065
 8302SOL     OW36367   3.475   4.716  16.137 -0.0500  1.2283  0.1177
 8302SOL    HW136368   3.381   4.697  16.142 -0.2959  2.3958 -0.0222
 8302SOL    HW236369   3.502   4.635  16.093 -1.5652 -0.4421  2.2637
 8303SOL     OW36370   1.554   0.811   8.552 -0.3300  0.6664  0.3185
 8303SOL    HW136371   1.568   0.790   8.460 -0.2265 -0.4837  0.6050
 8303SOL    HW236372   1.473   0.764   8.568 -0.6242  0.1129 -2.8591
 8304SOL     OW36373   0.328   3.421   8.666 -0.1018 -0.2655  0.4449
 8304SOL    HW136374   0.270   3.358   8.623  0.5235 -1.2829  1.0811
 8304SOL    HW236375   0.372   3.370   8.734 -0.9018  0.5776  1.6001
 8305SOL     OW36376   0.751   4.104   3.181 -0.2651 -0.3308  0.4299
 8305SOL    HW136377   0.687   4.159   3.135  0.3202  0.4571  0.5430
 8305SOL    HW236378   0.747   4.018   3.140  0.8968 -0.7859  1.2661
 8306SOL     OW36379   1.545   2.217   7.549  0.0691 -0.0724  0.4143
 8306SOL    HW136380   1.508   2.185   7.631  0.5194 -0.0414  0.6306
 8306SOL    HW236381   1.515   2.307   7.538  0.7783 -0.0567 -1.3853
 8307SOL     OW36382   0.178   0.641   2.430 -0.1617 -0.3941 -0.5129
 8307SOL    HW136383   0.212   0.561   2.390  1.8355  0.5497 -0.7135
 8307SOL    HW236384   0.228   0.707   2.382 -4.3741  2.4690 -0.9009
 8308SOL     OW36385   1.113   4.272   9.637  0.3911  0.8325 -0.3455
 8308SOL    HW136386   1.054   4.326   9.585 -1.4420 -2.2409 -1.4378
 8308SOL    HW236387   1.049   4.218   9.683 -1.7977  2.9711 -0.8496
 8309SOL     OW36388   0.906   1.982   2.229  0.1567  0.5000  0.2507
 8309SOL    HW136389   0.954   1.908   2.193  1.1658  0.9121  0.7635
 8309SOL    HW236390   0.839   1.937   2.281 -0.8872  0.9500 -0.7126
 8310SOL     OW36391   4.086   0.210   7.475  0.0351  0.0886  0.4420
 8310SOL    HW136392   4.179   0.224   7.492  0.4465 -0.3565 -1.4467
 8310SOL    HW236393   4.083   0.141   7.541 -3.1942  0.8215  1.0812
 8311SOL     OW36394   1.207   4.013   3.728  0.5566  0.0614 -0.2853
 8311SOL    HW136395   1.158   4.089   3.697  2.1333  1.4602  0.6719
 8311SOL    HW236396   1.262   4.052   3.796  0.4835  0.5045 -0.4776
 8312SOL     OW36397   0.977   4.400   5.709 -0.3290  0.3231  0.0608
 8312SOL    HW136398   1.055   4.451   5.735  0.3418  1.3572 -3.8811
 8312SOL    HW236399   0.922   4.397   5.787 -0.1165 -1.0001  0.1569
 8313SOL     OW36400   2.860   3.176  10.774 -0.2796 -0.8522  0.3112
 8313SOL    HW136401   2.801   3.125  10.830  0.2464 -1.2730  0.4733
 8313SOL    HW236402   2.799   3.237  10.731 -0.0710 -0.5328  0.4629
 8314SOL     OW36403   2.715   2.365  10.210 -0.3505  0.2120 -0.2333
 8314SOL    HW136404   2.659   2.302  10.164 -1.5415  2.3920 -1.7545
 8314SOL    HW236405   2.666   2.391  10.287 -2.3083  0.4664 -1.5670
 8315SOL     OW36406   4.338   4.373   1.839  1.0421 -0.4414  0.0551
 8315SOL    HW136407   4.323   4.457   1.883 -0.6471 -0.6607 -0.1077
 8315SOL    HW236408   4.251   4.368   1.800  1.2922 -0.2727 -0.5207
 8316SOL     OW36409   0.177   0.899  12.134 -0.3107 -0.0798 -0.2124
 8316SOL    HW136410   0.249   0.953  12.101  1.9353 -1.7059  2.0395
 8316SOL    HW236411   0.203   0.876  12.223 -2.0946 -0.0867  0.3174
 8317SOL     OW36412   3.942   3.472   4.170  0.3694 -0.3903  0.0889
 8317SOL    HW136413   3.857   3.478   4.126 -0.5188 -1.1882  1.6973
 8317SOL    HW236414   3.982   3.412   4.107 -0.5008 -1.3126  0.4102
 8318SOL     OW36415   1.676   0.459   7.230  0.0815 -0.1012  0.4417
 8318SOL    HW136416   1.760   0.427   7.263  0.6701  1.0326  0.0543
 8318SOL    HW236417   1.611   0.422   7.289  0.1877  0.7372  1.0911
 8319SOL     OW36418   0.554   1.565   1.147  0.1014 -0.1786 -0.5039
 8319SOL    HW136419   0.518   1.649   1.176 -0.1857  0.4726 -2.8230
 8319SOL    HW236420   0.630   1.567   1.206  0.4466 -1.4937 -0.9075
 8320SOL     OW36421   3.604   4.701  16.392 -0.4718 -0.4827 -0.3600
 8320SOL    HW136422   3.583   0.053  16.450  0.3216 -0.6778  0.1891
 8320SOL    HW236423   3.545   4.716  16.319  0.5918 -1.1006 -1.3518
 8321SOL     OW36424   0.696   1.345  16.437 -0.4189  0.0964 -0.7168
 8321SOL    HW136425   0.653   1.273  16.390 -0.2677 -1.4889  1.5517
 8321SOL    HW236426   0.701   1.409  16.366 -1.5155 -0.0047 -0.8810
 8322SOL     OW36427   2.111   1.037  13.226  1.0615 -1.0814  0.1396
 8322SOL    HW136428   2.060   0.983  13.286  0.5998  1.8343  2.3618
 8322SOL    HW236429   2.052   1.023  13.152 -0.8183  2.4526  0.9782
 8323SOL     OW36430   3.699   1.121  13.116 -0.3920  0.2318  0.0957
 8323SOL    HW136431   3.670   1.073  13.193  0.9101 -0.0435  0.4209
 8323SOL    HW236432   3.649   1.083  13.044 -0.9241  0.4479  0.3500
 8324SOL     OW36433   1.514   4.052  15.075 -0.3883 -0.2708 -0.1023
 8324SOL    HW136434   1.545   4.106  15.148 -0.7628  0.1053 -0.2168
 8324SOL    HW236435   1.585   3.989  15.072 -1.2477 -1.0335 -4.9330
 8325SOL     OW36436   1.668   2.155   7.098  0.0162 -0.0974  0.1311
 8325SOL    HW136437   1.615   2.224   7.058  0.9410  1.5292  1.6700
 8325SOL    HW236438   1.604   2.098   7.141  0.5601 -1.8229 -1.3484
 8326SOL     OW36439   2.320   0.440  14.035 -0.0795 -0.3626 -0.2199
 8326SOL    HW136440   2.263   0.364  14.047 -1.6408  0.7728 -0.4674
 8326SOL    HW236441   2.396   0.398  13.994  1.8759  0.2531  2.7645
 8327SOL     OW36442   4.390   4.037   2.609  0.3632 -0.5738  0.4901
 8327SOL    HW136443   4.304   4.046   2.568  0.5123  0.3784  0.4031
 8327SOL    HW236444   4.384   3.958   2.663 -0.2166 -1.5747 -1.0132
 8328SOL     OW36445   3.352   4.019   4.976 -0.3008 -0.0227 -0.8281
 8328SOL    HW136446   3.346   4.057   5.063  0.1090 -1.9784  0.0543
 8328SOL    HW236447   3.365   3.928   5.003 -0.0175 -0.5267 -2.6347
 8329SOL     OW36448   3.380   4.460   4.878 -0.1859 -0.1728  0.0647
 8329SOL    HW136449   3.370   4.555   4.879 -2.2153 -0.3993  0.4806
 8329SOL    HW236450   3.434   4.450   4.799 -0.3419  3.9606 -0.5608
 8330SOL     OW36451   2.597   1.895  10.296 -0.2209  0.0035  0.2013
 8330SOL    HW136452   2.613   1.982  10.332  0.6998 -0.2131  0.3271
 8330SOL    HW236453   2.533   1.869  10.362 -2.4607  0.3361 -1.8516
 8331SOL     OW36454   1.384   2.078  12.295 -0.1416  0.6646 -0.6277
 8331SOL    HW136455   1.396   2.172  12.310  2.8196  0.6381 -2.9130
 8331SOL    HW236456   1.441   2.057  12.222 -0.2409  1.7707 -1.0305
 8332SOL     OW36457   3.895   4.425   5.983 -0.0996  0.0306  0.5442
 8332SOL    HW136458   3.875   4.519   5.976 -1.0018 -0.1923  0.1057
 8332SOL    HW236459   3.894   4.402   5.890  0.5665  0.0243  0.5400
 8333SOL     OW36460   1.526   0.182   3.963  0.1383  0.0400 -0.1272
 8333SOL    HW136461   1.444   0.225   3.938 -0.8766 -0.8181  1.7214
 8333SOL    HW236462   1.550   0.138   3.882 -1.0705 -0.8571 -0.0016
 8334SOL     OW36463   3.289   0.589   0.049  0.6966 -0.1003  0.1513
 8334SOL    HW136464   3.324   0.648  17.670 -0.4228  1.1829  0.7042
 8334SOL    HW236465   3.357   0.595   0.116 -0.6915 -1.0771  1.6595
 8335SOL     OW36466   3.522   4.340   8.693 -0.4042  0.5040  0.0464
 8335SOL    HW136467   3.543   4.268   8.751 -1.8125 -0.4604 -0.6460
 8335SOL    HW236468   3.579   4.329   8.617  0.7458 -0.6961  1.0892
 8336SOL     OW36469   0.213   2.380   6.191 -0.8909 -0.2082 -0.0666
 8336SOL    HW136470   0.268   2.388   6.113 -2.3526  1.1114 -0.9580
 8336SOL    HW236471   0.277   2.411   6.256 -1.3047  2.3809 -0.8644
 8337SOL     OW36472   0.185   1.034   6.117  0.3935  0.4658  0.1449
 8337SOL    HW136473   0.190   1.124   6.083 -2.3705  0.5820  0.0330
 8337SOL    HW236474   0.164   1.048   6.209 -2.1807  0.0043 -0.3695
 8338SOL     OW36475   3.552   1.210   6.710  0.0471  0.3388 -0.1588
 8338SOL    HW136476   3.514   1.154   6.642  1.0081  1.1565 -1.3595
 8338SOL    HW236477   3.646   1.197   6.699 -0.0501 -0.4673 -0.0459
 8339SOL     OW36478   4.710   0.946   6.899 -0.5089  0.1917  0.2957
 8339SOL    HW136479   4.670   1.010   6.958  2.3107  1.6598  0.6344
 8339SOL    HW236480   0.061   0.996   6.861 -1.1190  1.5578  0.9198
 8340SOL     OW36481   2.763   3.730   9.456  0.3115 -0.0715 -0.0637
 8340SOL    HW136482   2.825   3.753   9.387 -0.8083 -0.7218 -1.2814
 8340SOL    HW236483   2.687   3.764   9.408 -1.2013  0.0249  2.3777
 8341SOL     OW36484   4.468   2.176   3.906  0.2585 -0.0201  0.4073
 8341SOL    HW136485   4.470   2.096   3.959 -0.5134 -2.7308 -3.6146
 8341SOL    HW236486   4.532   2.232   3.950  2.9197 -1.6999 -1.3431
 8342SOL     OW36487   3.653   4.295   2.994  0.0997 -0.2018  1.0397
 8342SOL    HW136488   3.688   4.208   2.979  0.0428  0.1861 -1.3657
 8342SOL    HW236489   3.620   4.318   2.907 -0.2749  2.4130  1.8445
 8343SOL     OW36490   2.690   0.946   9.918  0.0366  0.2206 -0.2143
 8343SOL    HW136491   2.664   1.033   9.947 -2.3541 -0.5605 -0.0038
 8343SOL    HW236492   2.653   0.937   9.830  0.2364 -2.2710 -0.0367
 8344SOL     OW36493   1.314   3.151   0.096  0.3051  0.7473  0.2134
 8344SOL    HW136494   1.314   3.057   0.079  4.9030  0.5895  0.8954
 8344SOL    HW236495   1.286   3.156   0.187  1.1680 -1.1112  0.5860
 8345SOL     OW36496   2.933   1.341  10.115 -0.1644 -0.2788  0.0080
 8345SOL    HW136497   2.899   1.252  10.124  1.9576 -1.0860  0.0776
 8345SOL    HW236498   2.933   1.377  10.204 -3.6595 -2.6202  0.9758
 8346SOL     OW36499   2.676   4.571   7.018  0.2661  0.3940  0.5207
 8346SOL    HW136500   2.626   4.516   7.079 -1.0705 -0.6655 -1.5553
 8346SOL    HW236501   2.628   4.549   6.939 -4.3167 -0.1695  3.4626
 8347SOL     OW36502   2.075   4.558   8.144 -0.4695 -0.2006 -0.5730
 8347SOL    HW136503   2.041   4.585   8.059 -1.8002 -2.5225 -0.7594
 8347SOL    HW236504   2.048   4.467   8.153  0.1551 -0.2986  0.3445
 8348SOL     OW36505   4.509   2.449  16.373 -0.7332  0.6350 -0.0527
 8348SOL    HW136506   4.431   2.444  16.317 -0.5187 -0.9332 -0.2092
 8348SOL    HW236507   4.525   2.543  16.381 -1.3600  0.6474  0.9914
 8349SOL     OW36508   2.451   0.249  15.293  0.6212  0.0814  0.1432
 8349SOL    HW136509   2.469   0.159  15.265  0.6823  0.7274 -1.9018
 8349SOL    HW236510   2.405   0.244  15.376 -0.8841 -0.6211 -0.7481
 8350SOL     OW36511   3.754   0.577   5.514 -0.1536 -0.3493  0.0969
 8350SOL    HW136512   3.713   0.661   5.530 -0.5769 -0.5715  0.1843
 8350SOL    HW236513   3.703   0.546   5.439 -0.6309  1.9843 -0.5274
 8351SOL     OW36514   1.495   4.201   3.542 -0.0539 -0.2846 -0.4850
 8351SOL    HW136515   1.471   4.212   3.450  1.9037  0.9488 -0.8552
 8351SOL    HW236516   1.423   4.251   3.578 -0.3801 -0.6637 -0.6112
 8352SOL     OW36517   1.899   4.174   6.177 -0.4143 -0.0199  0.0043
 8352SOL    HW136518   1.940   4.099   6.134  1.5472  1.3003 -0.4473
 8352SOL    HW236519   1.957   4.242   6.141 -0.0692  0.1849  0.9486
 8353SOL     OW36520   1.779   0.850   3.982 -0.0329  0.2957  0.3639
 8353SOL    HW136521   1.699   0.826   3.936  1.6084  0.8133 -2.7447
 8353SOL    HW236522   1.766   0.826   4.074 -2.0135 -2.7813 -0.7113
 8354SOL     OW36523   4.279   4.296   3.061 -0.1290 -0.1084  0.2481
 8354SOL    HW136524   4.323   4.305   2.977  0.5184 -1.7167  0.4164
 8354SOL    HW236525   4.222   4.220   3.047 -1.3892  1.3155 -2.4116
 8355SOL     OW36526   4.674   2.648  12.571  0.4985 -0.0461  0.1816
 8355SOL    HW136527   4.606   2.700  12.614 -0.5119 -1.7521  0.6391
 8355SOL    HW236528   4.690   2.698  12.491 -0.0863  0.0888  0.1472
 8356SOL     OW36529   1.401   0.258   4.627  0.0920  0.2599 -0.5105
 8356SOL    HW136530   1.467   0.294   4.568  1.4173  1.5288  1.7363
 8356SOL    HW236531   1.394   0.170   4.591  2.1107  0.3065 -1.0379
 8357SOL     OW36532   0.568   1.296  12.778  1.1070  0.4494  0.0167
 8357SOL    HW136533   0.598   1.256  12.859  1.3874 -1.2665 -0.9346
 8357SOL    HW236534   0.601   1.386  12.784  0.2556  0.7897 -0.4009
 8358SOL     OW36535   2.977   3.088  17.571  0.1966 -0.1960  0.5358
 8358SOL    HW136536   2.961   3.032  17.647 -0.4849 -1.4454 -0.5296
 8358SOL    HW236537   2.932   3.168  17.600  1.2551  1.0817 -1.3441
 8359SOL     OW36538   1.232   4.304   2.133  0.3820  0.1763  0.4479
 8359SOL    HW136539   1.249   4.235   2.069  0.2630  1.9203 -1.4499
 8359SOL    HW236540   1.246   4.257   2.216 -0.8568 -0.1755  0.4665
 8360SOL     OW36541   4.446   0.136  11.747 -0.4630 -0.3176 -0.2418
 8360SOL    HW136542   4.418   0.139  11.839 -0.9099  0.5778 -0.4044
 8360SOL    HW236543   4.464   0.043  11.736 -3.4415 -0.8777 -0.4191
 8361SOL     OW36544   2.042   1.749   2.694  0.2684  0.6753  0.0084
 8361SOL    HW136545   2.027   1.734   2.787  0.7056 -0.2944 -0.0701
 8361SOL    HW236546   1.968   1.805   2.672 -1.2707 -0.7238  1.6863
 8362SOL     OW36547   2.735   4.352   0.899  0.4069 -0.2477  0.1591
 8362SOL    HW136548   2.770   4.381   0.984  2.4010 -0.9127 -0.4226
 8362SOL    HW236549   2.715   4.433   0.852 -0.2809 -0.1847  0.5681
 8363SOL     OW36550   4.270   3.409  16.308  0.3467  0.2367 -0.7137
 8363SOL    HW136551   4.182   3.387  16.338 -0.3496  1.5867 -1.7545
 8363SOL    HW236552   4.327   3.409  16.385 -1.4347 -1.4120  0.6020
 8364SOL     OW36553   0.900   1.496  13.428  0.2647  0.1949 -0.0583
 8364SOL    HW136554   0.858   1.410  13.427 -0.0553  0.3593 -1.3518
 8364SOL    HW236555   0.927   1.496  13.520  0.0290  1.9381  0.0101
 8365SOL     OW36556   3.785   3.111  14.411 -0.3351  0.2956 -0.1278
 8365SOL    HW136557   3.857   3.124  14.473  0.4222 -1.5930 -0.5875
 8365SOL    HW236558   3.837   3.078  14.338 -0.2076 -1.7665  0.8771
 8366SOL     OW36559   0.052   3.710   6.960  0.3672 -0.5054  0.1292
 8366SOL    HW136560   0.073   3.687   7.051  0.6691 -0.4054  0.0847
 8366SOL    HW236561   4.680   3.729   6.966  0.1404 -1.0800 -1.6458
 8367SOL     OW36562   0.138   1.577   2.669  0.0370  0.2073  0.3724
 8367SOL    HW136563   0.214   1.519   2.674 -0.0862 -0.0467 -0.7295
 8367SOL    HW236564   0.129   1.607   2.578  0.0383  1.0295  0.6482
 8368SOL     OW36565   2.033   2.478   2.105 -0.2891 -0.0747 -0.6157
 8368SOL    HW136566   2.094   2.426   2.157  0.7363  2.3886  0.6889
 8368SOL    HW236567   2.067   2.435   2.026  0.1871  1.6316 -1.3537
 8369SOL     OW36568   2.827   1.196  16.602  0.7097 -0.5048 -0.6953
 8369SOL    HW136569   2.759   1.207  16.668  0.0526  0.1328 -1.4777
 8369SOL    HW236570   2.859   1.109  16.625  0.0968 -0.2421  1.1189
 8370SOL     OW36571   1.647   3.973   3.183 -0.1446  0.1590 -0.1305
 8370SOL    HW136572   1.599   3.890   3.186 -0.0751  0.1945  1.8294
 8370SOL    HW236573   1.669   3.975   3.090  0.6135  0.0046  0.0489
 8371SOL     OW36574   0.855   1.997  17.146  0.7991 -0.1444  0.6594
 8371SOL    HW136575   0.844   1.975  17.238  0.2163 -0.9430  0.3959
 8371SOL    HW236576   0.947   1.971  17.141  0.8360 -0.1045  1.1781
 8372SOL     OW36577   1.254   4.012   4.026  0.7461  0.2560  0.6658
 8372SOL    HW136578   1.232   4.102   4.004  0.8081  0.1287  0.0822
 8372SOL    HW236579   1.181   3.985   4.083 -0.2408 -0.5438 -0.9793
 8373SOL     OW36580   3.449   1.823   3.224 -0.2469  0.0877 -0.4013
 8373SOL    HW136581   3.510   1.767   3.177 -0.2207 -0.4374  0.2681
 8373SOL    HW236582   3.463   1.908   3.183  1.6842  0.5582  1.2533
 8374SOL     OW36583   4.711   2.395   8.476 -0.5281  0.0142 -0.4654
 8374SOL    HW136584   0.009   2.333   8.546 -0.5443  0.3506 -0.1612
 8374SOL    HW236585   4.628   2.427   8.512 -0.4796 -1.7962  1.2384
 8375SOL     OW36586   3.567   3.139   2.440  0.2538 -0.3181 -0.6094
 8375SOL    HW136587   3.563   3.235   2.450 -1.4071 -0.5201  0.7587
 8375SOL    HW236588   3.647   3.108   2.482  0.0272  1.7724  1.4113
 8376SOL     OW36589   3.900   3.493   3.547  0.5414 -1.0294  0.0440
 8376SOL    HW136590   3.804   3.489   3.543  0.5915  0.2369 -2.3997
 8376SOL    HW236591   3.928   3.566   3.492  1.3613 -0.9708  0.5436
 8377SOL     OW36592   2.069   0.809   1.161 -0.4002  0.8264  0.0695
 8377SOL    HW136593   2.053   0.784   1.252  0.5312 -3.1560 -0.8650
 8377SOL    HW236594   2.006   0.752   1.116 -2.6085  1.2932  2.5630
 8378SOL     OW36595   3.188   0.998   1.573  0.4783  0.1631 -0.5750
 8378SOL    HW136596   3.172   0.904   1.570  0.3533  0.1575  0.1231
 8378SOL    HW236597   3.111   1.036   1.532  0.1938  0.1603 -0.0411
 8379SOL     OW36598   1.575   3.572  15.778  0.4018 -0.0469  0.0687
 8379SOL    HW136599   1.614   3.524  15.850 -0.8436 -1.0948  0.0409
 8379SOL    HW236600   1.561   3.659  15.817 -0.3936 -1.2973  2.5205
 8380SOL     OW36601   4.398   3.345   2.845 -0.4922 -0.7140  0.5015
 8380SOL    HW136602   4.326   3.376   2.901 -0.4093 -0.9175  0.7178
 8380SOL    HW236603   4.356   3.275   2.794 -0.7530  0.4206 -0.8461
 8381SOL     OW36604   0.119   4.490  14.318  0.7760  0.1181 -0.2219
 8381SOL    HW136605   0.094   4.480  14.227 -0.4683 -0.5520  0.1862
 8381SOL    HW236606   0.191   4.430  14.335  2.3711  1.3443 -2.8357
 8382SOL     OW36607   3.772   3.565   0.727 -0.3158  0.1514 -0.2981
 8382SOL    HW136608   3.680   3.577   0.703 -0.8207 -0.5298  1.2673
 8382SOL    HW236609   3.784   3.471   0.712 -1.5558 -0.0826  0.1508
 8383SOL     OW36610   2.310   2.687   6.892  0.2771  0.7673 -0.2255
 8383SOL    HW136611   2.333   2.776   6.865  1.0128  0.5050 -0.4715
 8383SOL    HW236612   2.221   2.681   6.858  1.0944  1.2717 -2.4348
 8384SOL     OW36613   2.869   3.397  15.773  0.4035 -0.2092 -0.3872
 8384SOL    HW136614   2.826   3.317  15.803 -0.6532  0.5518  0.0942
 8384SOL    HW236615   2.811   3.472  15.785  0.7823 -0.0290  0.3262
 8385SOL     OW36616   2.027   0.624   7.325  0.2264 -0.7153 -0.0494
 8385SOL    HW136617   1.996   0.704   7.283 -1.2945 -0.8281  0.8521
 8385SOL    HW236618   2.107   0.646   7.373  0.8719 -1.6415 -0.6986
 8386SOL     OW36619   1.082   1.519  10.449 -0.2630 -0.4473  0.1500
 8386SOL    HW136620   1.111   1.517  10.358 -1.2986  0.2461 -0.1852
 8386SOL    HW236621   1.168   1.551  10.475 -1.0609  1.7073  0.1275
 8387SOL     OW36622   4.678   2.618   3.581 -0.3160  0.4976  0.0909
 8387SOL    HW136623   4.585   2.599   3.593  0.0154 -1.2198 -0.0270
 8387SOL    HW236624   4.679   2.608   3.486  1.1216 -0.5765  0.2032
 8388SOL     OW36625   2.885   1.640   2.412 -0.0475  0.1821  0.2130
 8388SOL    HW136626   2.912   1.731   2.424  1.3314 -0.3058  0.8246
 8388SOL    HW236627   2.969   1.612   2.376 -0.4163 -2.6801  1.5800
 8389SOL     OW36628   0.750   2.468   4.284  0.1036  0.1374 -0.1737
 8389SOL    HW136629   0.762   2.403   4.353  0.7666 -1.1531 -1.4990
 8389SOL    HW236630   0.809   2.430   4.219 -1.7782 -0.3658 -1.5891
 8390SOL     OW36631   1.220   2.160   0.955  0.3083  0.6622  0.2050
 8390SOL    HW136632   1.281   2.092   0.982 -1.9568 -0.8004  1.6079
 8390SOL    HW236633   1.162   2.172   1.030  1.4804  1.7834  0.9262
 8391SOL     OW36634   3.204   1.489  12.734 -0.0904  0.2125 -0.0655
 8391SOL    HW136635   3.256   1.544  12.676  2.2738 -0.3505  1.5011
 8391SOL    HW236636   3.121   1.483  12.687 -0.3244 -0.6131  0.4490
 8392SOL     OW36637   4.562   1.942   2.668 -0.1342 -0.0411 -0.0001
 8392SOL    HW136638   4.650   1.930   2.704 -0.6663 -0.4392  1.1671
 8392SOL    HW236639   4.512   1.904   2.740 -0.2772  1.8485  0.9007
 8393SOL     OW36640   1.191   2.119  12.921 -0.7662  0.1112  0.0749
 8393SOL    HW136641   1.152   2.201  12.891 -0.5029 -0.5851 -2.1682
 8393SOL    HW236642   1.160   2.125  13.012  1.5628  4.7020  0.5331
 8394SOL     OW36643   2.938   1.048   1.455  0.3395 -0.1353  0.1319
 8394SOL    HW136644   2.897   0.961   1.446 -0.6971  0.4940 -1.2466
 8394SOL    HW236645   2.878   1.075   1.524 -0.0854  1.8302 -1.0285
 8395SOL     OW36646   0.672   0.202   2.007  0.4898  0.0900  0.1394
 8395SOL    HW136647   0.742   0.251   2.050 -0.0001  0.8068  0.1378
 8395SOL    HW236648   0.595   0.248   2.041  2.0131  1.8286  1.2002
 8396SOL     OW36649   4.699   0.424   8.645  0.9759  0.2359  0.3532
 8396SOL    HW136650   0.038   0.498   8.647 -0.1137  1.0993  1.3555
 8396SOL    HW236651   4.705   0.391   8.555 -2.9595  0.5054 -0.0218
 8397SOL     OW36652   1.000   0.164   6.556 -0.0652 -0.0296  0.1612
 8397SOL    HW136653   1.038   0.089   6.602 -0.3322  0.0304  0.4792
 8397SOL    HW236654   0.909   0.164   6.586 -0.3461  0.6339 -0.6731
 8398SOL     OW36655   3.605   0.798   6.411 -1.0354 -0.6286 -0.1112
 8398SOL    HW136656   3.612   0.810   6.316  0.4269 -1.6892 -0.1403
 8398SOL    HW236657   3.547   0.722   6.418 -3.6084  1.2599 -1.4508
 8399SOL     OW36658   2.010   3.363   9.689 -0.0551 -0.3813  0.1806
 8399SOL    HW136659   2.057   3.440   9.721  2.1953 -1.1065 -1.4126
 8399SOL    HW236660   2.074   3.292   9.700 -1.1766 -1.6612 -1.6253
 8400SOL     OW36661   0.103   4.226   3.982 -0.3732 -0.8296  0.4869
 8400SOL    HW136662   0.032   4.187   3.930 -0.5767 -0.5015  0.5162
 8400SOL    HW236663   0.115   4.165   4.054  3.7453  1.1259  1.4743
 8401SOL     OW36664   2.127   4.280  13.786  0.0367  0.2722  0.1424
 8401SOL    HW136665   2.060   4.343  13.760 -1.9950 -1.3952  1.3017
 8401SOL    HW236666   2.160   4.323  13.865 -0.6103  0.3326  0.3840
 8402SOL     OW36667   3.023   4.341  12.076 -0.1019 -0.3725 -0.4984
 8402SOL    HW136668   3.046   4.271  12.137 -0.8167  1.0382  1.3941
 8402SOL    HW236669   3.105   4.369  12.035  0.6189 -0.1791  1.0903
 8403SOL     OW36670   0.659   1.529   2.431  0.5952  0.2086  0.1499
 8403SOL    HW136671   0.615   1.452   2.469  0.5129  0.4609  0.5707
 8403SOL    HW236672   0.617   1.551   2.348  0.6423 -0.3377 -0.0194
 8404SOL     OW36673   3.781   1.114   6.085  0.2857  0.1222  0.0645
 8404SOL    HW136674   3.743   1.040   6.133  0.6000  0.8717  1.4500
 8404SOL    HW236675   3.697   1.154   6.061  0.1704 -1.0181 -1.4542
 8405SOL     OW36676   2.006   3.677   9.462  0.0779  0.4581 -0.3798
 8405SOL    HW136677   2.097   3.698   9.442  0.5282 -0.6978  0.4591
 8405SOL    HW236678   1.992   3.618   9.388  0.2338 -1.7908  1.3585
 8406SOL     OW36679   1.565   1.452   5.994  0.1853  0.6177 -0.0258
 8406SOL    HW136680   1.596   1.486   5.910 -0.4790 -1.6264 -1.1623
 8406SOL    HW236681   1.618   1.492   6.063 -1.2086  0.8399  0.9196
 8407SOL     OW36682   1.668   2.260   3.995  0.1966 -0.1088 -0.0516
 8407SOL    HW136683   1.745   2.246   3.939 -1.3297 -2.1603 -1.6179
 8407SOL    HW236684   1.652   2.354   3.993  0.1866 -0.1026  0.3966
 8408SOL     OW36685   3.041   3.254  14.425  0.6006 -0.1864  0.0254
 8408SOL    HW136686   3.051   3.181  14.363 -0.1466 -0.1870 -0.0899
 8408SOL    HW236687   2.992   3.218  14.499 -0.1471  0.4279 -0.1663
 8409SOL     OW36688   2.732   2.882   2.545 -0.2504 -0.3420  0.2404
 8409SOL    HW136689   2.786   2.961   2.540  0.7539 -1.1580 -1.7562
 8409SOL    HW236690   2.729   2.854   2.453 -0.9148  0.3347  0.0573
 8410SOL     OW36691   3.151   2.198   3.934  0.0246 -0.2483  0.0128
 8410SOL    HW136692   3.068   2.150   3.942 -0.5474  0.5580 -1.1417
 8410SOL    HW236693   3.196   2.135   3.989  0.6699  3.3807  3.6447
 8411SOL     OW36694   0.640   4.198   6.167  0.0914  0.3295  0.1931
 8411SOL    HW136695   0.600   4.112   6.183 -0.7353  1.2961  3.3806
 8411SOL    HW236696   0.574   4.246   6.116 -0.1126 -1.4855 -1.2609
 8412SOL     OW36697   2.185   3.710   4.880  0.2840 -0.2695  0.3313
 8412SOL    HW136698   2.173   3.800   4.910  2.7099  0.9125 -2.1866
 8412SOL    HW236699   2.232   3.681   4.959  2.5756  0.9368 -0.5708
 8413SOL     OW36700   0.055   3.141  12.349  0.2380  0.0782 -0.4462
 8413SOL    HW136701   0.114   3.115  12.420  0.1019  2.0544  0.3853
 8413SOL    HW236702   0.023   3.224  12.383 -0.3557 -0.4647  0.3473
 8414SOL     OW36703   0.694   0.472   0.013 -0.1268  0.0566 -0.0242
 8414SOL    HW136704   0.619   0.413   0.024  0.6528 -0.5542  2.0563
 8414SOL    HW236705   0.698   0.480  17.605  2.6093 -0.2078  0.0887
 8415SOL     OW36706   4.216   0.229   7.853 -0.3095 -0.5299  0.1683
 8415SOL    HW136707   4.279   0.288   7.813 -0.3767  0.1860  1.1484
 8415SOL    HW236708   4.248   0.213   7.941 -1.8863 -0.2788  0.7975
 8416SOL     OW36709   4.102   4.061   6.894 -0.4333  0.3609  0.1821
 8416SOL    HW136710   4.087   3.969   6.913  1.8387  0.3583  1.9384
 8416SOL    HW236711   4.031   4.100   6.945  0.1952  1.3615  0.2838
 8417SOL     OW36712   0.663   3.694  16.346 -0.1680  0.1663 -0.0187
 8417SOL    HW136713   0.698   3.646  16.271 -0.2187 -0.3657  0.2976
 8417SOL    HW236714   0.663   3.787  16.322  0.7108 -0.1804 -1.4043
 8418SOL     OW36715   1.986   4.466  13.415  0.3474  0.3209 -0.0251
 8418SOL    HW136716   1.916   4.519  13.376 -0.3831 -0.5462  0.1312
 8418SOL    HW236717   1.983   4.465  13.510  2.3285  0.1244  0.0445
 8419SOL     OW36718   0.473   1.157   6.688 -0.0567 -0.4721  0.6561
 8419SOL    HW136719   0.467   1.240   6.640  0.4852 -1.3909 -1.0088
 8419SOL    HW236720   0.566   1.145   6.706  0.2110  0.3006 -0.1942
 8420SOL     OW36721   3.813   2.428   1.263 -0.7338  0.1922 -0.2499
 8420SOL    HW136722   3.778   2.365   1.199 -1.2223 -0.1093  0.3168
 8420SOL    HW236723   3.880   2.474   1.212 -1.2934  1.9439  0.6086
 8421SOL     OW36724   2.110   3.418   4.909  0.0829  0.2781 -0.4744
 8421SOL    HW136725   2.177   3.392   4.972  1.5335  1.7827 -1.3977
 8421SOL    HW236726   2.121   3.513   4.900  0.2829  0.2874 -0.1051
 8422SOL     OW36727   3.859   0.090   1.402  0.3438  0.2595  0.5142
 8422SOL    HW136728   3.868   0.043   1.485  2.9064 -2.4283 -1.2785
 8422SOL    HW236729   3.901   0.027   1.343  1.0740  0.9196  0.3253
 8423SOL     OW36730   3.453   2.999   0.242  0.4339  0.1622 -0.5761
 8423SOL    HW136731   3.471   3.088   0.211  1.3274  0.7096  1.4992
 8423SOL    HW236732   3.537   2.953   0.230  0.3079  0.1082 -1.2874
 8424SOL     OW36733   0.203   2.711   8.292 -0.3453 -0.5344 -0.0177
 8424SOL    HW136734   0.183   2.641   8.229 -0.4317 -0.6881  0.1786
 8424SOL    HW236735   0.284   2.730   8.245 -0.1639 -2.0103 -0.3018
 8425SOL     OW36736   1.134   3.741   7.000 -0.4203  0.6722  0.3534
 8425SOL    HW136737   1.145   3.811   6.935 -0.1129  0.9655  0.7167
 8425SOL    HW236738   1.144   3.799   7.076  0.5380 -0.3658  1.0138
 8426SOL     OW36739   2.356   0.319  11.661  0.3651 -0.2603  0.0947
 8426SOL    HW136740   2.321   0.398  11.703 -0.1631  0.0456 -0.9144
 8426SOL    HW236741   2.449   0.325  11.678  0.0349  0.0407  1.7372
 8427SOL     OW36742   3.815   3.619   6.384  0.0767  0.5000 -0.1202
 8427SOL    HW136743   3.904   3.625   6.349 -0.3050  2.0061 -0.8387
 8427SOL    HW236744   3.831   3.633   6.477 -1.8679  1.0178  0.1248
 8428SOL     OW36745   0.778   0.351  12.256  0.1923  0.7685 -0.1964
 8428SOL    HW136746   0.683   0.357  12.248  0.2755 -1.0763 -2.3670
 8428SOL    HW236747   0.794   0.257  12.258  1.4323  0.9684 -0.2877
 8429SOL     OW36748   3.771   2.699   2.073  0.2556  0.0336 -0.0007
 8429SOL    HW136749   3.814   2.745   2.146  0.3269  1.0625 -0.6925
 8429SOL    HW236750   3.768   2.778   2.019 -0.7931 -0.1309 -0.1704
 8430SOL     OW36751   4.030   0.751  15.211  0.2857 -0.0527  0.1756
 8430SOL    HW136752   4.033   0.846  15.199  2.4361 -0.2316 -0.6981
 8430SOL    HW236753   4.062   0.753  15.301  1.6577  2.3370 -0.3631
 8431SOL     OW36754   2.823   3.687  12.314 -0.1115 -0.2884  0.2660
 8431SOL    HW136755   2.793   3.629  12.244  0.5502 -2.2565  1.5890
 8431SOL    HW236756   2.803   3.617  12.376 -1.9278 -1.4643 -1.6280
 8432SOL     OW36757   1.912   4.168  12.625  0.3993 -0.0587  0.5142
 8432SOL    HW136758   1.926   4.141  12.716  0.3774 -0.2620  0.4570
 8432SOL    HW236759   1.935   4.084  12.586 -2.1362  0.0827 -1.3130
 8433SOL     OW36760   3.573   1.745   3.819 -0.3320 -0.3180  0.5873
 8433SOL    HW136761   3.588   1.722   3.728 -1.6536  0.0153  0.2919
 8433SOL    HW236762   3.599   1.660   3.856  1.2833 -0.9122 -1.8877
 8434SOL     OW36763   3.772   2.968   2.241 -0.1208  0.9361  0.0087
 8434SOL    HW136764   3.760   2.973   2.336  0.6431  3.5023 -0.0339
 8434SOL    HW236765   3.785   3.058   2.212 -0.6311  0.7311 -0.8811
 8435SOL     OW36766   3.192   2.494   6.716 -0.1401  0.0694  0.4008
 8435SOL    HW136767   3.114   2.520   6.766 -0.2416  0.2601  0.1451
 8435SOL    HW236768   3.179   2.399   6.716  4.5515 -0.5636  0.0022
 8436SOL     OW36769   1.538   0.561   4.353  0.2243  0.2581  0.5277
 8436SOL    HW136770   1.478   0.604   4.415  2.5461  0.9567  2.3093
 8436SOL    HW236771   1.626   0.567   4.391  0.4497 -1.0593  0.2114
 8437SOL     OW36772   1.668   1.759   5.047  0.5311 -0.1417  0.2845
 8437SOL    HW136773   1.613   1.718   4.980  2.2038  0.0825 -1.2177
 8437SOL    HW236774   1.630   1.846   5.048  1.4155  0.2362  2.8670
 8438SOL     OW36775   0.151   4.182   0.965  0.4834  0.1540 -0.0475
 8438SOL    HW136776   0.099   4.230   1.030  1.3741  0.5374  0.3963
 8438SOL    HW236777   0.218   4.249   0.948 -1.4236  1.5678 -2.0056
 8439SOL     OW36778   3.746   3.434  13.286 -0.1214 -0.5976  0.0911
 8439SOL    HW136779   3.805   3.463  13.217  2.5892  0.2689  2.7628
 8439SOL    HW236780   3.723   3.345  13.261  1.3106 -0.3986 -1.9788
 8440SOL     OW36781   1.465   4.585   3.722  0.2214  0.0661  0.1903
 8440SOL    HW136782   1.511   4.520   3.775 -2.2226  0.5195  2.8871
 8440SOL    HW236783   1.378   4.547   3.733 -1.4039  2.8802 -2.8690
 8441SOL     OW36784   4.508   2.721  16.412 -0.6168 -0.0444 -0.9644
 8441SOL    HW136785   4.475   2.790  16.471 -0.6111 -1.4594  0.7007
 8441SOL    HW236786   4.490   2.765  16.329 -4.6961  0.6019  0.2394
 8442SOL     OW36787   1.539   1.892   2.216  0.4192 -0.2037 -0.2877
 8442SOL    HW136788   1.573   1.845   2.139 -0.8385 -2.0174  0.2496
 8442SOL    HW236789   1.471   1.836   2.254  1.5564 -0.7044  0.9781
 8443SOL     OW36790   2.029   1.020   8.924 -0.2688  0.1946  0.7090
 8443SOL    HW136791   1.955   0.965   8.899 -0.6495  0.4118  1.3609
 8443SOL    HW236792   2.067   0.963   8.991 -1.1286 -0.6363  0.4952
 8444SOL     OW36793   4.414   1.489   0.805  0.4897 -0.4970  0.1251
 8444SOL    HW136794   4.441   1.569   0.760 -0.2022  0.0418  0.6676
 8444SOL    HW236795   4.494   1.438   0.794  0.0839 -1.6030  2.3339
 8445SOL     OW36796   4.629   4.573   6.903 -0.0175 -0.0313 -0.3764
 8445SOL    HW136797   4.691   4.634   6.942 -0.4301  0.8319 -1.0691
 8445SOL    HW236798   4.553   4.593   6.958  0.8858 -1.8497  1.4965
 8446SOL     OW36799   1.225   3.554   4.663 -0.1055 -0.1807 -0.0522
 8446SOL    HW136800   1.157   3.497   4.701  0.1940 -0.9045 -0.5982
 8446SOL    HW236801   1.242   3.619   4.732 -0.1325 -0.8343  0.5711
 8447SOL     OW36802   2.422   2.656   3.728 -0.6932  0.1515 -0.6267
 8447SOL    HW136803   2.343   2.703   3.702 -1.5739 -1.2765 -0.5648
 8447SOL    HW236804   2.469   2.649   3.645  2.8937 -0.9758  1.5161
 8448SOL     OW36805   0.304   1.560   5.171 -0.3535 -0.6280  0.3851
 8448SOL    HW136806   0.224   1.524   5.210 -1.3930 -2.2551 -3.2354
 8448SOL    HW236807   0.267   1.597   5.091 -0.7412 -0.6640  0.5484
 8449SOL     OW36808   2.400   2.669   7.624 -0.3148  0.3809 -0.5255
 8449SOL    HW136809   2.335   2.655   7.555  0.0266  1.9208 -1.1556
 8449SOL    HW236810   2.417   2.763   7.619 -2.0521  0.6280 -1.7217
 8450SOL     OW36811   3.132   1.312   8.603 -0.3606  0.0735 -0.3438
 8450SOL    HW136812   3.183   1.235   8.628  0.7731  2.4216  4.5571
 8450SOL    HW236813   3.107   1.343   8.690  1.4596  0.2849  0.0975
 8451SOL     OW36814   3.886   1.014  16.963 -0.1350 -0.2023 -0.3845
 8451SOL    HW136815   3.812   1.071  16.944  0.2592  0.7547  1.0040
 8451SOL    HW236816   3.880   1.008  17.058 -4.6381  2.0035 -0.5676
 8452SOL     OW36817   1.566   3.069   4.733 -0.0216 -0.3307  0.3964
 8452SOL    HW136818   1.582   3.159   4.763 -0.4347 -0.8124  2.0458
 8452SOL    HW236819   1.473   3.061   4.752 -0.3876  0.5902 -0.9663
 8453SOL     OW36820   1.541   1.631   3.612  0.5632  0.1180 -0.1789
 8453SOL    HW136821   1.556   1.724   3.599  1.6267 -0.2144 -1.3117
 8453SOL    HW236822   1.517   1.590   3.529  0.3730 -1.2797  0.5640
 8454SOL     OW36823   2.501   4.216   0.849 -0.6880 -0.2821  0.1080
 8454SOL    HW136824   2.500   4.148   0.917  0.7646  2.2270  2.6821
 8454SOL    HW236825   2.584   4.265   0.857 -0.9884  0.0837  1.0323
 8455SOL     OW36826   0.885   3.366   7.877  0.4320  0.1369 -0.2085
 8455SOL    HW136827   0.876   3.350   7.971  0.9944  1.5764  0.0917
 8455SOL    HW236828   0.891   3.277   7.841 -1.1694 -0.1956  0.3737
 8456SOL     OW36829   1.357   2.764  12.152  0.1207 -0.3598 -0.2646
 8456SOL    HW136830   1.315   2.746  12.236  1.8748 -0.4992  0.5782
 8456SOL    HW236831   1.358   2.686  12.097  1.0851  0.9269 -2.0742
 8457SOL     OW36832   0.431   1.756   2.470  0.1272 -0.0083  0.3725
 8457SOL    HW136833   0.513   1.711   2.451 -0.3261 -1.6797  2.4420
 8457SOL    HW236834   0.428   1.745   2.565 -1.7065  1.1863  0.4500
 8458SOL     OW36835   4.407   3.334  10.286 -0.1505  0.1267 -0.2090
 8458SOL    HW136836   4.414   3.400  10.217 -0.2204 -0.0324 -0.3673
 8458SOL    HW236837   4.331   3.360  10.338  1.5097  2.5016  1.0126
 8459SOL     OW36838   2.553   4.220   7.407  0.1357  0.1194  0.1182
 8459SOL    HW136839   2.531   4.309   7.436 -0.3292 -0.2938  1.0478
 8459SOL    HW236840   2.646   4.212   7.425  0.4195  0.5020 -1.2154
 8460SOL     OW36841   2.412   4.277   3.813 -0.1506  0.1293 -0.1055
 8460SOL    HW136842   2.495   4.229   3.812 -0.9958 -1.3213 -0.6643
 8460SOL    HW236843   2.422   4.328   3.894 -1.2002  3.7275 -2.2357
 8461SOL     OW36844   2.293   3.238   7.582 -0.1108  0.1019 -0.0686
 8461SOL    HW136845   2.288   3.144   7.564  2.7813  0.1609 -1.2407
 8461SOL    HW236846   2.372   3.243   7.636  0.0820  0.8092 -0.4196
 8462SOL     OW36847   2.721   0.573   7.217 -0.2937  0.4074 -0.0380
 8462SOL    HW136848   2.813   0.559   7.242  0.0996  1.7256 -0.7405
 8462SOL    HW236849   2.737   0.642   7.153 -0.2308 -0.7133 -1.2259
 8463SOL     OW36850   3.949   0.902   4.488 -0.0018  0.3382 -0.3771
 8463SOL    HW136851   4.028   0.850   4.473  0.4923  0.6726  1.0878
 8463SOL    HW236852   3.889   0.832   4.514  0.3136  0.6123  1.1084
 8464SOL     OW36853   2.363   1.681   9.400 -0.3988  0.0277 -0.0723
 8464SOL    HW136854   2.437   1.735   9.428 -1.3757  1.8764 -1.0339
 8464SOL    HW236855   2.310   1.678   9.480 -0.3600 -2.5104 -0.1396
 8465SOL     OW36856   1.775   0.575   3.606  0.1516  0.5340  0.4878
 8465SOL    HW136857   1.697   0.524   3.628  1.0007 -0.7161  0.6040
 8465SOL    HW236858   1.738   0.659   3.577  0.7099  0.8617  0.7263
 8466SOL     OW36859   1.126   0.578   3.604  0.0314 -0.0757  0.4423
 8466SOL    HW136860   1.055   0.532   3.649  0.0429 -0.5583 -0.0331
 8466SOL    HW236861   1.127   0.658   3.657  1.0980  1.0179 -1.2149
 8467SOL     OW36862   4.587   0.333   4.530  0.2748 -0.1781 -0.0244
 8467SOL    HW136863   4.585   0.250   4.482  1.0330  0.0510 -0.4475
 8467SOL    HW236864   4.580   0.307   4.621 -1.4141  0.5423  0.0515
 8468SOL     OW36865   1.792   0.103   6.795  0.1602  0.2970  0.4368
 8468SOL    HW136866   1.712   0.118   6.846  0.3912  0.5543  0.7215
 8468SOL    HW236867   1.768   0.152   6.716 -0.7285 -0.0736  0.4681
 8469SOL     OW36868   1.421   4.552  13.327  0.0331  0.0955 -0.4604
 8469SOL    HW136869   1.388   4.636  13.360 -0.9927  0.0296 -1.3085
 8469SOL    HW236870   1.379   4.557  13.241 -2.0310  0.2557  0.5445
 8470SOL     OW36871   1.467   0.719  17.173 -0.4936  0.8489  0.2343
 8470SOL    HW136872   1.454   0.813  17.185 -0.9085  0.8266 -0.0526
 8470SOL    HW236873   1.445   0.698  17.082 -1.2048 -1.8855  1.0347
 8471SOL     OW36874   1.186   0.923  16.061  0.1232  0.1051  0.2661
 8471SOL    HW136875   1.215   1.011  16.086 -1.3894  0.2895  1.3450
 8471SOL    HW236876   1.273   0.884  16.054 -0.2133 -1.1319  3.1423
 8472SOL     OW36877   3.040   0.491  12.849  0.0001  0.4482  0.0669
 8472SOL    HW136878   2.952   0.530  12.844 -0.3557 -0.5479 -1.3705
 8472SOL    HW236879   3.077   0.552  12.913  0.5461  0.9089 -0.6997
 8473SOL     OW36880   1.918   3.577   8.867  0.1288  0.3118  0.3090
 8473SOL    HW136881   1.847   3.529   8.909 -1.2885 -0.5354 -3.0248
 8473SOL    HW236882   1.907   3.555   8.774 -0.8967 -0.4925  0.6207
 8474SOL     OW36883   4.292   3.626   2.535  0.0569  0.5427 -0.2428
 8474SOL    HW136884   4.325   3.702   2.585  1.5154  0.1661 -0.6269
 8474SOL    HW236885   4.235   3.674   2.476 -2.3520 -0.4493  1.3015
 8475SOL     OW36886   0.696   0.115   6.699 -0.5277 -0.0119  0.2596
 8475SOL    HW136887   0.659   0.044   6.752 -1.9653  0.3591 -0.2448
 8475SOL    HW236888   0.679   0.082   6.611 -0.4958 -4.6554  1.9908
 8476SOL     OW36889   0.598   1.818   3.227  0.1316 -0.6772  0.5622
 8476SOL    HW136890   0.583   1.817   3.133 -0.4955  0.8170  0.6481
 8476SOL    HW236891   0.683   1.775   3.242 -0.4072 -2.0362 -0.2932
 8477SOL     OW36892   2.541   3.075  16.275  0.1447  0.1682 -1.3930
 8477SOL    HW136893   2.460   3.114  16.242  0.4299  2.3667  0.5578
 8477SOL    HW236894   2.553   3.017  16.199  0.0882 -1.3469 -0.2409
 8478SOL     OW36895   2.202   1.001  12.211  0.1753 -0.0447 -0.2227
 8478SOL    HW136896   2.224   1.022  12.301 -3.2056  0.1634  0.5442
 8478SOL    HW236897   2.272   1.046  12.162  0.1126 -1.3539 -1.5087
 8479SOL     OW36898   4.144   1.990  11.588  0.6147 -0.4135 -0.2772
 8479SOL    HW136899   4.087   1.922  11.625  2.1002 -1.7106 -0.3629
 8479SOL    HW236900   4.213   1.988  11.654  0.2425  0.4475  0.1248
 8480SOL     OW36901   0.549   4.480   2.449  0.0937  0.4043  0.3963
 8480SOL    HW136902   0.550   4.481   2.544 -2.5893 -0.0756  0.4154
 8480SOL    HW236903   0.639   4.452   2.432  0.2815  0.5921  1.0767
 8481SOL     OW36904   2.861   2.258   3.115 -0.3008  0.1022 -0.3007
 8481SOL    HW136905   2.892   2.285   3.201  1.0443  0.7034 -0.9707
 8481SOL    HW236906   2.771   2.225   3.120 -1.2120  2.4424 -1.0755
 8482SOL     OW36907   1.394   2.809   9.942  0.0781 -0.3511 -0.0071
 8482SOL    HW136908   1.471   2.847   9.984 -0.5073  0.0985  0.6450
 8482SOL    HW236909   1.342   2.802  10.021  0.3761  2.5710  0.4474
 8483SOL     OW36910   2.275   1.628   3.333  0.1651  0.1389  0.0388
 8483SOL    HW136911   2.262   1.684   3.256 -0.2352 -1.3375 -0.9721
 8483SOL    HW236912   2.188   1.615   3.371 -0.0246 -1.1531 -0.8472
 8484SOL     OW36913   3.326   1.686   6.138 -0.1871 -0.2561  0.0114
 8484SOL    HW136914   3.284   1.655   6.057 -1.6664 -0.5958  0.9236
 8484SOL    HW236915   3.392   1.751   6.114 -0.0423 -0.8826 -1.3019
 8485SOL     OW36916   3.578   1.796   9.776 -0.3075  0.0182  0.2001
 8485SOL    HW136917   3.606   1.885   9.798  1.2713 -0.8080  1.5777
 8485SOL    HW236918   3.654   1.775   9.722 -1.8060  0.6455 -2.1512
 8486SOL     OW36919   2.896   1.981  11.622 -0.7551  0.0273  0.1975
 8486SOL    HW136920   2.899   2.039  11.546  0.7856 -0.3540 -0.0218
 8486SOL    HW236921   2.810   1.944  11.602 -1.3253  1.4789 -0.0088
 8487SOL     OW36922   4.392   1.999   4.179  0.0771 -0.5735 -0.2627
 8487SOL    HW136923   4.418   2.056   4.251  0.3228 -1.3620  0.2741
 8487SOL    HW236924   4.442   1.922   4.208 -1.7026 -0.3866  3.2182
 8488SOL     OW36925   4.701   3.317   3.479 -0.5278 -0.6778 -0.2407
 8488SOL    HW136926   4.658   3.251   3.425 -0.4366  0.1095 -1.2914
 8488SOL    HW236927   0.071   3.306   3.453 -0.7878 -0.4759 -1.2735
 8489SOL     OW36928   3.498   3.136   5.239  0.1792 -0.0097 -0.1630
 8489SOL    HW136929   3.559   3.163   5.308  1.6512  1.2190 -1.9575
 8489SOL    HW236930   3.555   3.142   5.163 -1.9707  2.2304 -1.6200
 8490SOL     OW36931   4.095   0.699   5.125  0.0196 -0.0862  0.5894
 8490SOL    HW136932   4.127   0.780   5.083 -0.6075 -0.3837 -0.4683
 8490SOL    HW236933   4.014   0.727   5.167 -0.6708 -2.8206  1.0123
 8491SOL     OW36934   1.219   0.958   8.397 -0.4159 -0.2034 -0.1270
 8491SOL    HW136935   1.280   1.000   8.336  0.5732 -0.4628  0.6720
 8491SOL    HW236936   1.217   0.870   8.359  1.5894  0.3028 -1.4114
 8492SOL     OW36937   1.326   1.266  14.346  0.3881  0.7416 -0.2628
 8492SOL    HW136938   1.275   1.194  14.381  0.0477  1.6724  1.1642
 8492SOL    HW236939   1.266   1.327  14.304 -0.5227  0.2204  0.3035
 8493SOL     OW36940   4.494   3.304   3.958  0.6773  0.0272 -0.8598
 8493SOL    HW136941   4.434   3.283   3.887 -0.1471 -2.1836  0.4843
 8493SOL    HW236942   4.580   3.313   3.916 -0.2198 -0.3031 -2.7847
 8494SOL     OW36943   0.086   1.707   5.332  0.0790 -0.0347 -0.1910
 8494SOL    HW136944   0.117   1.766   5.263 -2.4313  1.7263  0.1865
 8494SOL    HW236945   0.026   1.654   5.279  1.3091 -2.2313  0.6114
 8495SOL     OW36946   2.445   2.217   3.421  0.8819 -0.4676 -0.2279
 8495SOL    HW136947   2.354   2.220   3.449  1.3809  1.9898  1.1799
 8495SOL    HW236948   2.487   2.211   3.507 -0.1838 -0.2368  0.3061
 8496SOL     OW36949   2.286   3.450   4.290 -0.0841 -0.1010  0.1455
 8496SOL    HW136950   2.328   3.366   4.307  0.5023  0.4108  1.2230
 8496SOL    HW236951   2.337   3.505   4.349 -1.0230  0.2530  0.6190
 8497SOL     OW36952   0.492   3.257   8.800 -0.0222  0.1040 -0.7446
 8497SOL    HW136953   0.489   3.198   8.875  3.4536 -0.7837 -1.3381
 8497SOL    HW236954   0.580   3.252   8.764  0.6954 -1.1200  1.2239
 8498SOL     OW36955   2.423   0.624   5.129  0.0379 -0.0441 -0.9596
 8498SOL    HW136956   2.416   0.668   5.044 -0.6502  2.1030  0.2153
 8498SOL    HW236957   2.500   0.669   5.164  1.1735 -3.3580  0.8892
 8499SOL     OW36958   1.989   2.708   5.053 -0.1677  0.0309 -0.6035
 8499SOL    HW136959   1.958   2.618   5.051  1.4821 -0.5402  0.0530
 8499SOL    HW236960   1.940   2.744   5.127 -0.5798  0.5957 -1.1495
 8500SOL     OW36961   2.290   3.159   8.982  0.3694  0.5566  0.3548
 8500SOL    HW136962   2.322   3.090   8.925 -0.4077  0.6128 -0.1562
 8500SOL    HW236963   2.257   3.214   8.910  0.7857  2.7342  1.8158
 8501SOL     OW36964   4.390   3.349   5.137 -0.2258 -0.5132 -0.0498
 8501SOL    HW136965   4.391   3.424   5.077  0.4112 -2.3822 -2.4041
 8501SOL    HW236966   4.478   3.346   5.174 -1.0468 -1.5977  1.7924
 8502SOL     OW36967   3.001   1.622   8.393 -0.1363 -0.1183  0.4974
 8502SOL    HW136968   3.080   1.598   8.345  0.6972  3.5985  0.0318
 8502SOL    HW236969   2.957   1.540   8.414  0.9743 -0.5685  1.0595
 8503SOL     OW36970   1.043   3.884  17.283  0.1411  0.2907  0.6185
 8503SOL    HW136971   1.035   3.797  17.321  3.6784 -1.1429 -1.8977
 8503SOL    HW236972   0.988   3.930  17.346 -1.5791 -1.9839  0.7840
 8504SOL     OW36973   0.514   1.094   5.410 -0.3809 -0.2051  0.2657
 8504SOL    HW136974   0.516   1.106   5.505 -0.5252  0.5623  0.1742
 8504SOL    HW236975   0.585   1.031   5.415 -1.7284 -1.5380  2.5820
 8505SOL     OW36976   1.597   1.221   5.466  0.1297  0.0794  0.0522
 8505SOL    HW136977   1.593   1.142   5.521 -2.0194 -0.3372 -0.6990
 8505SOL    HW236978   1.636   1.283   5.527 -0.0493  2.8520 -2.6320
 8506SOL     OW36979   0.988   1.404   0.903 -0.4024 -0.4146  0.2689
 8506SOL    HW136980   1.063   1.362   0.946 -1.0678 -2.0172 -0.1354
 8506SOL    HW236981   0.915   1.352   0.935 -0.7424  0.3675  0.7556
 8507SOL     OW36982   2.245   3.869   2.877  0.4112 -0.2288  0.3120
 8507SOL    HW136983   2.249   3.774   2.876 -0.1467 -0.2748  2.4604
 8507SOL    HW236984   2.151   3.875   2.893 -0.0508  0.3478 -2.5900
 8508SOL     OW36985   4.392   3.648   5.018 -0.2599 -0.6007 -0.2893
 8508SOL    HW136986   4.486   3.665   5.027 -0.0730 -1.1537 -1.1437
 8508SOL    HW236987   4.362   3.726   4.970 -0.6386  0.3061  1.4480
 8509SOL     OW36988   3.361   3.537   2.933  0.0653 -0.1304 -0.5293
 8509SOL    HW136989   3.413   3.610   2.967  0.2293 -0.3140 -0.3886
 8509SOL    HW236990   3.274   3.561   2.967 -0.1367 -2.4772  0.5955
 8510SOL     OW36991   1.192   0.458   7.627 -0.0505  0.5232 -1.0166
 8510SOL    HW136992   1.164   0.417   7.546  1.3343 -4.0685  0.8060
 8510SOL    HW236993   1.120   0.452   7.690  0.2887 -2.1314 -0.8550
 8511SOL     OW36994   0.851   0.351   1.101  0.5625 -0.1737 -0.3088
 8511SOL    HW136995   0.845   0.438   1.061 -0.4120  0.2965  0.8468
 8511SOL    HW236996   0.825   0.305   1.021  0.1472 -3.2302  1.5946
 8512SOL     OW36997   3.343   0.923  15.981  0.3262 -0.3688 -0.2592
 8512SOL    HW136998   3.384   0.841  16.010  0.2506 -0.9171 -1.6607
 8512SOL    HW236999   3.250   0.900  15.982  0.3043 -0.2399  0.6486
 8513SOL     OW37000   0.647   4.501   5.743  0.2349 -0.0471  0.2227
 8513SOL    HW137001   0.677   4.554   5.669 -2.0714  1.1519  0.1226
 8513SOL    HW237002   0.658   4.415   5.704  4.0097  1.6088 -2.3730
 8514SOL     OW37003   3.434   0.699   3.750  0.4094 -0.3877  0.0559
 8514SOL    HW137004   3.523   0.668   3.768  0.4831  0.0851  0.5070
 8514SOL    HW237005   3.449   0.785   3.713 -0.8571  0.3683  1.2734
 8515SOL     OW37006   2.541   1.206   3.237  0.7793  0.2296 -0.1857
 8515SOL    HW137007   2.599   1.177   3.167 -2.6036  1.4310 -3.4615
 8515SOL    HW237008   2.530   1.294   3.202  1.1079 -0.1239 -1.1639
 8516SOL     OW37009   4.164   3.180   5.678  0.7518  0.0138  0.3184
 8516SOL    HW137010   4.111   3.244   5.725  1.3735  1.5139 -1.0033
 8516SOL    HW237011   4.244   3.233   5.687  1.2408 -0.7898  0.6825
 8517SOL     OW37012   4.265   1.886   3.943 -0.3106 -0.6255  0.2020
 8517SOL    HW137013   4.355   1.871   3.914  0.1036  0.1497  1.0788
 8517SOL    HW237014   4.284   1.948   4.014 -1.5098  1.8083 -1.6226
 8518SOL     OW37015   2.730   0.477  17.656  0.2620  0.0451 -0.5268
 8518SOL    HW137016   2.686   0.509   0.047  0.0890  3.2867 -1.9413
 8518SOL    HW237017   2.812   0.527  17.657  1.4615 -1.8697 -2.6781
 8519SOL     OW37018   1.765   2.182  16.207 -0.1807  0.3582  0.0744
 8519SOL    HW137019   1.787   2.256  16.264  1.4510 -0.2675  0.2493
 8519SOL    HW237020   1.673   2.174  16.231 -1.1216  1.5019 -3.1431
 8520SOL     OW37021   2.159   1.234   0.691 -0.1538  0.5354  0.1067
 8520SOL    HW137022   2.113   1.285   0.757  1.3279 -0.6434  2.0556
 8520SOL    HW237023   2.211   1.183   0.753  1.0450  0.4912 -0.9473
 8521SOL     OW37024   2.206   3.197   4.777 -0.2402  0.4350  0.6917
 8521SOL    HW137025   2.173   3.142   4.848  0.7439  0.7268  1.3666
 8521SOL    HW237026   2.182   3.284   4.810 -0.3292 -0.2506  2.4500
 8522SOL     OW37027   4.574   4.669   4.979  0.6552  0.4321 -0.3810
 8522SOL    HW137028   4.481   4.692   4.986  0.3877 -0.7439 -0.0580
 8522SOL    HW237029   4.608   4.680   5.068 -0.6409 -2.1785  0.4382
 8523SOL     OW37030   1.312   1.438   5.722 -0.4169  0.7486  0.0965
 8523SOL    HW137031   1.269   1.404   5.801  1.7507  0.3091  1.0873
 8523SOL    HW237032   1.258   1.511   5.693 -1.3745  0.3343  0.8526
 8524SOL     OW37033   3.910   1.618  14.934  0.2582 -0.3935  0.3529
 8524SOL    HW137034   3.823   1.624  14.894  0.2644  0.0888  0.4141
 8524SOL    HW237035   3.917   1.704  14.977 -0.3794 -0.0996 -0.1292
 8525SOL     OW37036   1.292   1.724   6.026 -0.2521 -0.1870  0.0885
 8525SOL    HW137037   1.275   1.691   5.938  1.8027  0.5149 -0.5659
 8525SOL    HW237038   1.260   1.814   6.020 -0.2457 -0.0747  1.7719
 8526SOL     OW37039   3.116   3.469  11.049  0.1112 -0.3456 -0.4984
 8526SOL    HW137040   3.191   3.468  11.108 -0.0419 -0.9178 -0.3145
 8526SOL    HW237041   3.108   3.377  11.024 -0.5207 -0.6797  0.9499
 8527SOL     OW37042   4.488   1.816   3.663  0.0504 -0.0920 -0.2822
 8527SOL    HW137043   4.472   1.746   3.726  0.5596  0.3776  0.3679
 8527SOL    HW237044   4.548   1.870   3.714 -0.9752  0.7464  0.0281
 8528SOL     OW37045   2.380   3.162   8.614 -0.4196  0.1108  0.4211
 8528SOL    HW137046   2.448   3.100   8.640  0.7405  0.7134 -1.1943
 8528SOL    HW237047   2.414   3.187   8.528  0.0904 -1.9938  0.0115
 8529SOL     OW37048   0.462   2.364   5.986  0.1272 -0.5101  0.1537
 8529SOL    HW137049   0.455   2.269   5.983 -1.0456 -0.4368  0.2605
 8529SOL    HW237050   0.519   2.383   5.911  0.1012  0.5015  0.3911
 8530SOL     OW37051   3.399   0.241   3.231 -0.1213 -0.5945 -0.0655
 8530SOL    HW137052   3.361   0.311   3.178 -1.3794 -0.7466  0.6414
 8530SOL    HW237053   3.470   0.293   3.270 -0.6689 -1.0759  1.5966
 8531SOL     OW37054   2.769   1.802   2.607 -0.1363 -0.8442 -0.0976
 8531SOL    HW137055   2.841   1.855   2.574 -0.5789  0.1967  0.6081
 8531SOL    HW237056   2.796   1.727   2.554 -0.3521 -1.4981  0.7142
 8532SOL     OW37057   2.557   1.971   7.175  1.2559  0.0995  0.0496
 8532SOL    HW137058   2.517   2.036   7.233  0.4284 -0.6691  0.3278
 8532SOL    HW237059   2.497   1.953   7.103  1.0578  1.4709 -0.1240
 8533SOL     OW37060   4.525   1.652  16.200  0.0262  0.0606  0.2771
 8533SOL    HW137061   4.485   1.718  16.257  0.8756  0.8773 -0.0633
 8533SOL    HW237062   4.454   1.614  16.148  0.9041 -2.5475  1.0113
 8534SOL     OW37063   0.283   0.588  16.436  0.5406  0.5265 -0.2094
 8534SOL    HW137064   0.295   0.644  16.360 -0.5169  2.2667  0.9039
 8534SOL    HW237065   0.254   0.503  16.403 -0.0802  1.4283 -1.9601
 8535SOL     OW37066   4.614   2.638   6.573  0.7121  0.3295  0.2365
 8535SOL    HW137067   4.562   2.712   6.541 -0.6372 -1.3136 -1.3859
 8535SOL    HW237068   4.545   2.576   6.592  0.0652  1.1648  0.6333
 8536SOL     OW37069   1.314   1.148   3.323 -0.3694 -0.7852  0.0894
 8536SOL    HW137070   1.313   1.057   3.354 -1.1627 -0.6552  0.4492
 8536SOL    HW237071   1.393   1.183   3.363  0.8113 -2.7729 -0.4760
 8537SOL     OW37072   1.317   3.703   7.409 -0.0290 -0.0988  0.2726
 8537SOL    HW137073   1.340   3.610   7.404 -1.9458 -0.6519  1.6463
 8537SOL    HW237074   1.277   3.708   7.496 -1.6494 -0.5639 -0.4354
 8538SOL     OW37075   3.540   3.105  10.179 -0.1105 -0.0242  0.1099
 8538SOL    HW137076   3.573   3.033  10.126  2.7798  1.9830 -0.8257
 8538SOL    HW237077   3.448   3.083  10.195 -0.0970 -0.3812 -0.3032
 8539SOL     OW37078   0.642   1.622   1.800 -0.0956 -0.0068  0.0214
 8539SOL    HW137079   0.580   1.692   1.820 -3.0960 -3.2311  2.0887
 8539SOL    HW237080   0.695   1.666   1.734 -0.2971  1.1415  0.6330
 8540SOL     OW37081   0.089   2.405   2.106 -0.2767 -1.0441  0.0933
 8540SOL    HW137082   0.040   2.425   2.185 -0.0127 -0.1209  0.0168
 8540SOL    HW237083   0.132   2.325   2.136 -2.7683 -1.5950  2.2313
 8541SOL     OW37084   1.871   2.881  15.382  0.3857 -0.5915 -0.0959
 8541SOL    HW137085   1.936   2.951  15.386 -0.0710 -0.2234  0.9286
 8541SOL    HW237086   1.920   2.816  15.332 -0.1740 -0.5986 -0.6293
 8542SOL     OW37087   2.561   2.647   3.458  0.3270  0.1611  0.3038
 8542SOL    HW137088   2.629   2.652   3.391 -0.7377  1.8055 -0.6435
 8542SOL    HW237089   2.591   2.562   3.490  0.1894  0.9101  2.4768
 8543SOL     OW37090   1.070   4.005   6.829 -0.2817 -0.0802  0.1034
 8543SOL    HW137091   1.028   4.042   6.906 -1.3577 -2.8649  0.8627
 8543SOL    HW237092   1.117   4.081   6.795 -2.7466  1.1624 -0.5072
 8544SOL     OW37093   0.278   2.699  16.738  0.6754  0.1888  0.4599
 8544SOL    HW137094   0.293   2.794  16.736 -1.0676  0.4535  0.3753
 8544SOL    HW237095   0.309   2.671  16.652  0.3201  0.4243  0.2560
 8545SOL     OW37096   1.775   0.512   8.291  0.2785  0.1758  0.3334
 8545SOL    HW137097   1.730   0.463   8.360  0.2625 -1.3097 -0.7104
 8545SOL    HW237098   1.733   0.597   8.294  0.3523  0.2867 -1.3800
 8546SOL     OW37099   1.814   3.844   2.283 -0.4537 -0.2597  0.5773
 8546SOL    HW137100   1.752   3.882   2.346  0.3473 -0.1244  1.2857
 8546SOL    HW237101   1.753   3.817   2.215 -1.7734 -0.1677  1.7094
 8547SOL     OW37102   2.710   3.182  15.831  0.0971  0.1292 -0.4033
 8547SOL    HW137103   2.721   3.089  15.848 -0.9251  0.3393  1.4084
 8547SOL    HW237104   2.703   3.183  15.735 -1.8368  0.3218 -0.2622
 8548SOL     OW37105   3.380   1.465   5.082 -0.6512 -0.1336  0.1686
 8548SOL    HW137106   3.430   1.544   5.062  0.0833  0.0486  2.7228
 8548SOL    HW237107   3.310   1.509   5.130 -2.3382  0.0882 -2.5300
 8549SOL     OW37108   4.571   4.412   1.377  0.1486  0.1851 -0.2263
 8549SOL    HW137109   4.605   4.386   1.463 -0.7216  0.3116  0.1583
 8549SOL    HW237110   4.606   4.501   1.374 -2.1706  1.0840 -0.6682
 8550SOL     OW37111   0.813   2.337   0.263 -0.3036  0.1217 -0.6738
 8550SOL    HW137112   0.778   2.264   0.312  0.8462  0.3315  0.4547
 8550SOL    HW237113   0.881   2.376   0.318  0.8039 -1.0315 -1.2126
 8551SOL     OW37114   4.176   1.197  14.470 -0.0620  0.0911 -0.4109
 8551SOL    HW137115   4.110   1.148  14.421 -0.4267  0.8498 -0.6787
 8551SOL    HW237116   4.127   1.218  14.549 -0.2396 -0.6897 -0.3158
 8552SOL     OW37117   4.328   1.572   9.214  0.3155  0.1835 -0.7730
 8552SOL    HW137118   4.255   1.576   9.276  0.9533 -0.9833  0.0452
 8552SOL    HW237119   4.282   1.547   9.134  0.0930 -0.8135 -0.3261
 8553SOL     OW37120   4.329   2.519   6.531  0.2088  0.9979  0.6259
 8553SOL    HW137121   4.325   2.429   6.498  3.3803  1.1961 -0.3558
 8553SOL    HW237122   4.237   2.544   6.529 -0.1768 -0.3933  1.2446
 8554SOL     OW37123   0.532   3.016  14.195  0.2707 -0.2378 -0.0102
 8554SOL    HW137124   0.557   2.962  14.119 -0.1557 -1.6235  0.8481
 8554SOL    HW237125   0.604   2.998  14.256  0.8219  0.1047 -0.5569
 8555SOL     OW37126   0.998   2.734   4.160  0.6852  0.0022  0.0431
 8555SOL    HW137127   1.078   2.779   4.130  1.9574 -1.6282  0.9558
 8555SOL    HW237128   0.985   2.683   4.080 -0.3570 -2.0961  1.5542
 8556SOL     OW37129   1.214   4.280  15.223  0.2016  0.3093 -0.1553
 8556SOL    HW137130   1.221   4.186  15.209 -1.8610  0.4445 -1.9674
 8556SOL    HW237131   1.285   4.295  15.285  2.0260  0.5754 -2.2894
 8557SOL     OW37132   1.718   4.499  13.172  0.1050  0.4132  0.0338
 8557SOL    HW137133   1.712   4.523  13.264 -0.2137  0.4790 -0.0039
 8557SOL    HW237134   1.712   4.405  13.189  0.8174  0.4680  0.6128
 8558SOL     OW37135   4.488   3.535   3.482 -0.1977 -0.4367 -0.4536
 8558SOL    HW137136   4.557   3.486   3.525 -0.1633 -1.5511 -1.7746
 8558SOL    HW237137   4.530   3.605   3.433 -0.8980  1.8218  2.1909
 8559SOL     OW37138   0.893   2.796   5.708 -0.2761  0.2109  0.2358
 8559SOL    HW137139   0.848   2.845   5.639 -1.8002 -0.8119  0.4892
 8559SOL    HW237140   0.819   2.773   5.764  1.1343 -0.0210  2.0169
 8560SOL     OW37141   3.179   2.169  13.685 -0.0204 -0.0568  0.1844
 8560SOL    HW137142   3.273   2.155  13.680 -0.2687 -1.1160 -1.3206
 8560SOL    HW237143   3.179   2.262  13.709  1.4531  0.3317 -1.3269
 8561SOL     OW37144   4.613   0.497   6.273 -0.3057 -0.0296  0.7640
 8561SOL    HW137145   4.531   0.541   6.294 -0.0667 -0.4847  2.5960
 8561SOL    HW237146   4.646   0.562   6.211 -1.5390 -2.0340 -2.0394
 8562SOL     OW37147   2.831   1.806   7.962  0.1163 -0.5216 -0.0404
 8562SOL    HW137148   2.772   1.737   7.991  1.9484 -1.4214  1.5546
 8562SOL    HW237149   2.904   1.753   7.930 -1.9578 -2.6902 -1.2351
 8563SOL     OW37150   0.444   4.323   8.509 -0.2464 -0.1766 -0.0121
 8563SOL    HW137151   0.494   4.241   8.513 -0.0794 -0.1044 -0.5552
 8563SOL    HW237152   0.492   4.375   8.574 -0.4892 -0.3582  0.3094
 8564SOL     OW37153   0.480   0.150   4.328  0.1777  0.2471 -0.0859
 8564SOL    HW137154   0.477   0.207   4.405 -0.1814  0.9467 -0.6209
 8564SOL    HW237155   0.403   0.099   4.352  1.8758 -1.8792  0.9101
 8565SOL     OW37156   1.407   0.016   8.217  0.1032 -0.3922 -0.2476
 8565SOL    HW137157   1.416   0.023   8.122 -2.6838  0.8508 -0.4304
 8565SOL    HW237158   1.487   0.060   8.246 -0.2818 -0.5490  1.0348
 8566SOL     OW37159   1.019   1.607  15.054 -0.3417 -0.5098  0.1911
 8566SOL    HW137160   1.108   1.626  15.028 -0.1101 -1.5403  0.2038
 8566SOL    HW237161   1.015   1.513  15.032  0.9872  0.3856 -3.8520
 8567SOL     OW37162   4.018   2.015   7.861 -0.1910 -0.0901 -0.2191
 8567SOL    HW137163   4.036   1.971   7.778  0.9314 -1.6273  0.8381
 8567SOL    HW237164   3.950   2.075   7.829 -0.7015 -1.1026 -1.0126
 8568SOL     OW37165   2.957   0.488   6.447  0.0320  0.2233  0.3714
 8568SOL    HW137166   2.937   0.483   6.354  1.3712 -2.2690  0.2107
 8568SOL    HW237167   2.874   0.458   6.483 -0.2961 -0.7726 -1.2486
 8569SOL     OW37168   3.679   2.942   7.159  0.5297 -0.6163  0.0477
 8569SOL    HW137169   3.671   2.872   7.223  1.1592  0.1620  0.9793
 8569SOL    HW237170   3.729   2.889   7.097 -1.7144 -2.0898 -0.4994
 8570SOL     OW37171   4.063   3.439   2.071 -0.5462  0.3722  0.0486
 8570SOL    HW137172   4.037   3.531   2.070 -2.8949 -0.2949  1.0836
 8570SOL    HW237173   4.051   3.412   1.980  2.8012  1.5135 -0.7333
 8571SOL     OW37174   1.328   2.077   7.065 -0.3360  0.1068  0.0333
 8571SOL    HW137175   1.371   1.995   7.042 -0.0601  0.1642  0.3542
 8571SOL    HW237176   1.385   2.130   7.120 -1.0218  0.5194  0.3524
 8572SOL     OW37177   2.930   0.129  13.561  0.3044  0.1579  0.4752
 8572SOL    HW137178   2.877   0.051  13.545  0.7512  0.0702 -0.5624
 8572SOL    HW237179   2.986   0.128  13.484 -3.8698  0.7742 -2.5763
 8573SOL     OW37180   4.611   1.326   0.692 -0.4999 -0.0877 -0.4100
 8573SOL    HW137181   4.683   1.383   0.718 -2.1728  1.8198  0.0106
 8573SOL    HW237182   4.655   1.246   0.662 -0.5200 -0.7222  1.2898
 8574SOL     OW37183   4.152   4.046   1.865 -0.4111  0.5365 -0.4387
 8574SOL    HW137184   4.115   4.070   1.949  1.1456 -3.7646  1.4810
 8574SOL    HW237185   4.104   4.106   1.807 -4.6723 -3.2337 -0.8543
 8575SOL     OW37186   3.360   2.399  10.798  0.4288 -0.1090 -0.2794
 8575SOL    HW137187   3.397   2.487  10.788  1.1923 -0.5352 -1.3291
 8575SOL    HW237188   3.427   2.349  10.844  0.3070  1.5294  1.6606
 8576SOL     OW37189   1.442   2.140   2.111 -0.4148 -0.1279 -0.1166
 8576SOL    HW137190   1.503   2.084   2.159  0.0051  0.3848 -0.0551
 8576SOL    HW237191   1.370   2.155   2.172 -0.0894 -0.3359  0.3195
 8577SOL     OW37192   3.218   2.022   2.497 -0.1451 -0.4020  0.2780
 8577SOL    HW137193   3.278   1.995   2.566 -2.2662 -3.0705  1.0717
 8577SOL    HW237194   3.251   2.111   2.487 -1.0373  0.0200  1.1510
 8578SOL     OW37195   0.980   0.346   7.192 -0.2790 -0.0209  0.0944
 8578SOL    HW137196   0.933   0.300   7.261 -1.2409  1.0364  0.1502
 8578SOL    HW237197   0.912   0.407   7.164  0.6991  0.6055 -0.9204
 8579SOL     OW37198   0.139   4.582  10.370  0.4335 -0.2186 -0.6079
 8579SOL    HW137199   0.078   4.540  10.431  2.3443 -2.9483 -0.5896
 8579SOL    HW237200   0.121   4.676  10.366 -0.3548 -0.3546 -0.1523
 8580SOL     OW37201   1.053   2.825   4.409 -0.5129  0.4156  0.0435
 8580SOL    HW137202   0.991   2.766   4.452  0.3215 -0.7351 -0.3103
 8580SOL    HW237203   1.034   2.810   4.317  4.0162  0.4427 -0.9215
 8581SOL     OW37204   4.003   1.011   3.218  0.1453 -0.3375  0.7513
 8581SOL    HW137205   3.973   0.922   3.232  0.0948 -0.3610  0.5056
 8581SOL    HW237206   4.010   1.053   3.304 -0.6410 -0.7771  1.0291
 8582SOL     OW37207   4.674   2.211   9.299  0.1561  0.0958 -0.3758
 8582SOL    HW137208   4.691   2.176   9.386  0.4858  3.3292  0.8873
 8582SOL    HW237209   4.587   2.246   9.315  0.1585 -0.9883  2.0280
 8583SOL     OW37210   1.810   3.958  13.065  0.2017 -0.0183  0.1801
 8583SOL    HW137211   1.879   3.905  13.025 -0.9828 -1.8968  0.6174
 8583SOL    HW237212   1.807   3.927  13.156  0.6342 -1.4268 -0.2954
 8584SOL     OW37213   3.661   0.342   4.627  0.0781  0.3333 -0.2344
 8584SOL    HW137214   3.661   0.411   4.560  0.2037  1.2950  0.7549
 8584SOL    HW237215   3.689   0.266   4.576  0.3773  0.0779  0.3194
 8585SOL     OW37216   0.089   1.540   6.435  0.1221 -0.0121 -0.5041
 8585SOL    HW137217   0.162   1.600   6.450  0.7750 -0.9148 -0.0728
 8585SOL    HW237218   0.016   1.602   6.442  0.8418  0.6112  1.3685
 8586SOL     OW37219   1.390   1.160   3.906 -0.1383  0.3513  0.0053
 8586SOL    HW137220   1.445   1.232   3.936  1.4966 -0.7703 -0.3129
 8586SOL    HW237221   1.454   1.103   3.863  0.5651  2.1896 -1.3683
 8587SOL     OW37222   4.686   2.439  16.139 -0.6734  0.0092  0.4069
 8587SOL    HW137223   4.672   2.361  16.085  0.8655 -0.0887  0.1358
 8587SOL    HW237224   4.627   2.436  16.215 -2.7498 -1.2077 -1.2530
 8588SOL     OW37225   2.975   4.323   4.132  0.5433 -0.6245  0.4682
 8588SOL    HW137226   2.959   4.377   4.054 -0.4744 -0.5294  0.7447
 8588SOL    HW237227   2.918   4.370   4.192  1.8359 -0.8038  1.8407
 8589SOL     OW37228   2.422   3.836   2.680  0.6619  0.0239 -0.3823
 8589SOL    HW137229   2.353   3.825   2.615  1.7141 -0.8545 -1.3373
 8589SOL    HW237230   2.380   3.857   2.764  2.3778 -1.4362  0.8549
 8590SOL     OW37231   0.795   2.970   4.742  0.2271  0.0078  0.3323
 8590SOL    HW137232   0.712   2.994   4.700 -0.6183 -0.0769  1.9388
 8590SOL    HW237233   0.833   3.058   4.749 -1.1763  0.5256  1.6589
 8591SOL     OW37234   2.469   1.840  13.530  0.0389  0.2186  0.3186
 8591SOL    HW137235   2.503   1.758  13.567 -0.9665 -0.2013  0.3229
 8591SOL    HW237236   2.377   1.814  13.529  0.0687  0.1139  0.2057
 8592SOL     OW37237   0.181   1.230   2.593 -0.4985  0.2683  0.1950
 8592SOL    HW137238   0.126   1.200   2.665  0.0378  1.2096  1.0010
 8592SOL    HW237239   0.121   1.228   2.519  1.3561 -0.6187 -1.2841
 8593SOL     OW37240   2.677   3.933   2.432  0.7369  0.0948 -0.0078
 8593SOL    HW137241   2.693   3.971   2.345  2.1155  1.1388  0.7070
 8593SOL    HW237242   2.762   3.936   2.476  0.6710 -0.5520  0.1648
 8594SOL     OW37243   3.271   2.935  13.699 -0.1333 -0.2235  0.4769
 8594SOL    HW137244   3.325   2.918  13.622  0.9679  3.1038  0.5328
 8594SOL    HW237245   3.330   2.993  13.748  0.5671  0.8106 -1.5944
 8595SOL     OW37246   3.080   0.887  15.548 -0.0203 -0.4659 -0.2728
 8595SOL    HW137247   3.171   0.914  15.537 -0.5955 -0.1779 -4.2155
 8595SOL    HW237248   3.057   0.929  15.631 -0.7256 -0.3703 -0.5205
 8596SOL     OW37249   1.865   0.283   8.174  0.0821  0.4224  0.1333
 8596SOL    HW137250   1.818   0.355   8.217 -0.1442 -0.4709  1.3676
 8596SOL    HW237251   1.860   0.219   8.245  1.8890 -0.7425 -0.8040
 8597SOL     OW37252   3.989   3.736   1.322 -0.1311 -0.1580  0.4408
 8597SOL    HW137253   4.078   3.713   1.298  0.2671 -0.8221  2.5412
 8597SOL    HW237254   3.987   3.831   1.335  0.0174 -0.1183  0.1747
 8598SOL     OW37255   2.969   3.046   4.241 -0.0917 -0.1092  0.5600
 8598SOL    HW137256   2.899   3.029   4.178  0.6993  1.9976 -0.8907
 8598SOL    HW237257   3.042   3.019   4.186 -0.3781 -2.4223  1.3315
 8599SOL     OW37258   4.324   2.010   6.639 -0.0507  0.0563  0.4098
 8599SOL    HW137259   4.342   1.930   6.589 -2.3249 -0.7841  0.9350
 8599SOL    HW237260   4.351   1.984   6.726  0.7999 -1.7784 -0.4083
 8600SOL     OW37261   1.942   3.126   2.310  0.3175 -0.3482 -0.6697
 8600SOL    HW137262   1.995   3.129   2.231  1.5915  0.5616  0.2108
 8600SOL    HW237263   1.911   3.035   2.315 -1.1699  0.1731 -0.2287
 8601SOL     OW37264   2.622   4.550   6.171  0.0006  0.4859  0.3480
 8601SOL    HW137265   2.700   4.603   6.154  0.0627  0.6618  1.1602
 8601SOL    HW237266   2.603   4.565   6.264 -0.2530 -0.3153  0.4259
 8602SOL     OW37267   2.885   1.000   3.792  0.1723 -0.3822  0.0358
 8602SOL    HW137268   2.931   0.957   3.720 -0.3166 -0.5507 -0.1723
 8602SOL    HW237269   2.957   1.004   3.855  0.5717  0.2642 -0.4597
 8603SOL     OW37270   0.728   3.552   2.076  0.0183  0.4285 -0.6313
 8603SOL    HW137271   0.798   3.506   2.122 -1.9231 -0.7649  1.1651
 8603SOL    HW237272   0.701   3.483   2.015  0.4841 -2.9133  2.8989
 8604SOL     OW37273   3.204   1.832   7.155 -0.1653  0.4471 -0.1064
 8604SOL    HW137274   3.275   1.838   7.091  0.2733 -1.5600  0.1900
 8604SOL    HW237275   3.251   1.813   7.237 -1.1367  1.6365  0.7327
 8605SOL     OW37276   2.024   3.286   2.853 -0.2395 -0.2967  0.4482
 8605SOL    HW137277   1.937   3.246   2.846 -0.7927  1.3805 -2.2370
 8605SOL    HW237278   2.015   3.356   2.788  1.0566  0.7474  1.3666
 8606SOL     OW37279   0.205   0.474  11.016  0.0096  0.3495 -0.2464
 8606SOL    HW137280   0.247   0.556  11.042  1.2009 -0.2524 -0.2342
 8606SOL    HW237281   0.243   0.412  11.079 -2.9187 -0.6791  0.4819
 8607SOL     OW37282   1.033   2.125   7.916 -0.1236 -0.6620  0.1291
 8607SOL    HW137283   1.091   2.120   7.993  0.4519  0.4706 -0.2235
 8607SOL    HW237284   0.951   2.149   7.959 -0.6958 -0.0934 -1.2884
 8608SOL     OW37285   3.608   1.171   2.613 -0.1741  0.2855 -0.1602
 8608SOL    HW137286   3.693   1.213   2.596  0.6331 -0.9246  0.8495
 8608SOL    HW237287   3.636   1.080   2.617 -1.8437 -0.1292  1.7882
 8609SOL     OW37288   4.502   4.291   8.502  0.4394 -0.2256 -0.1054
 8609SOL    HW137289   4.519   4.380   8.469 -2.9281 -0.0786 -1.4679
 8609SOL    HW237290   4.439   4.247   8.445  2.0623 -0.8051 -1.4684
 8610SOL     OW37291   3.493   3.345  15.541  0.2380 -0.4176  0.2619
 8610SOL    HW137292   3.519   3.264  15.584 -1.2826 -0.4655  1.1047
 8610SOL    HW237293   3.398   3.339  15.552  0.2434 -0.6644  0.1757
 8611SOL     OW37294   1.154   3.232  11.267  0.5445 -0.0315 -0.0805
 8611SOL    HW137295   1.174   3.307  11.211  0.5612  0.2772  0.3446
 8611SOL    HW237296   1.214   3.176  11.218  0.2986 -2.1626  2.0381
 8612SOL     OW37297   0.355   0.922   5.282 -0.1731  0.0330 -0.0248
 8612SOL    HW137298   0.409   0.947   5.207  1.1328  0.5971  1.1007
 8612SOL    HW237299   0.390   0.990   5.341 -1.1319  0.9757 -0.5339
 8613SOL     OW37300   2.591   3.891   9.253 -0.7887 -0.4045  0.2189
 8613SOL    HW137301   2.589   3.890   9.157 -0.9017 -2.7598  0.2399
 8613SOL    HW237302   2.497   3.876   9.255 -1.0653  1.1682 -1.1266
 8614SOL     OW37303   3.066   2.768   9.804  0.2696  0.0903  0.4567
 8614SOL    HW137304   3.086   2.841   9.745 -0.8320 -1.5572 -1.9526
 8614SOL    HW237305   2.975   2.781   9.831  0.8686  1.0805  2.0291
 8615SOL     OW37306   2.017   1.325   2.617  0.5450 -0.2543 -0.6263
 8615SOL    HW137307   1.963   1.273   2.557  0.2659  0.7811 -1.2751
 8615SOL    HW237308   1.951   1.391   2.636  0.6976  0.1232 -1.3969
 8616SOL     OW37309   3.639   4.167   9.443 -0.2798 -0.4953  0.6938
 8616SOL    HW137310   3.693   4.101   9.487  3.0198 -0.0766 -2.7988
 8616SOL    HW237311   3.593   4.214   9.513 -1.2035  0.4816 -0.5687
 8617SOL     OW37312   1.915   0.880   2.055 -0.1854 -0.1016 -0.3350
 8617SOL    HW137313   1.823   0.885   2.080 -0.0463  1.1000 -0.0512
 8617SOL    HW237314   1.900   0.906   1.964 -1.0887 -1.3835 -0.5477
 8618SOL     OW37315   3.440   2.127  13.681  0.1812 -0.5701 -0.2918
 8618SOL    HW137316   3.497   2.065  13.637 -1.1004 -1.4447 -0.7313
 8618SOL    HW237317   3.493   2.157  13.754 -1.2139  1.4561 -0.0793
 8619SOL     OW37318   3.305   2.203  13.033  0.6325  0.3978 -0.3645
 8619SOL    HW137319   3.307   2.107  13.025  2.6185  0.4728 -0.7080
 8619SOL    HW237320   3.383   2.218  13.087  0.3059  2.9377 -0.5986
 8620SOL     OW37321   3.203   0.480   1.348 -0.2233  0.6068  0.0141
 8620SOL    HW137322   3.110   0.502   1.354 -0.1248  1.1339 -0.3865
 8620SOL    HW237323   3.237   0.569   1.340  2.5991 -0.5791 -1.3888
 8621SOL     OW37324   1.759   0.124  14.031  0.2988 -0.4259 -0.4978
 8621SOL    HW137325   1.834   0.102  13.974  2.0017 -1.9090  2.3330
 8621SOL    HW237326   1.805   0.161  14.106 -1.5216  3.9597 -1.5546
 8622SOL     OW37327   0.200   2.538   8.015  0.7066 -0.1582  0.2471
 8622SOL    HW137328   0.150   2.569   7.939  1.5381  1.3000  0.2918
 8622SOL    HW237329   0.139   2.475   8.052  0.0934  0.2383 -0.0820
 8623SOL     OW37330   1.246   0.572   9.763 -0.4106 -0.0294  0.7680
 8623SOL    HW137331   1.249   0.533   9.675 -0.5731 -1.1346  1.2575
 8623SOL    HW237332   1.186   0.521   9.818  2.7669 -3.2286  1.2358
 8624SOL     OW37333   3.941   0.386  15.319 -0.1324  0.2763  0.2515
 8624SOL    HW137334   4.034   0.366  15.313 -0.8103 -1.9168 -2.5947
 8624SOL    HW237335   3.901   0.299  15.324 -0.1566  0.3505  1.3507
 8625SOL     OW37336   3.884   3.882   5.492  0.4239 -0.4603 -0.0630
 8625SOL    HW137337   3.813   3.923   5.541 -0.7611 -0.7355 -1.5691
 8625SOL    HW237338   3.944   3.955   5.503 -1.9070  1.1087  2.2241
 8626SOL     OW37339   4.399   2.053   9.637  0.7112 -0.0534 -0.1494
 8626SOL    HW137340   4.428   2.070   9.726  2.0210 -2.7405 -0.0681
 8626SOL    HW237341   4.447   1.975   9.610  1.5652 -0.1348  1.6415
 8627SOL     OW37342   0.482   0.053   2.930  0.0025 -0.2790  0.1180
 8627SOL    HW137343   0.535   0.109   2.874  2.2787 -2.0567  0.4515
 8627SOL    HW237344   0.422   0.009   2.870  1.5049 -1.4107 -0.5595
 8628SOL     OW37345   3.221   1.368   7.113  0.1126 -0.6718  0.4286
 8628SOL    HW137346   3.246   1.457   7.089  1.7163 -1.7021 -1.7569
 8628SOL    HW237347   3.159   1.381   7.185 -2.1183  0.2410 -1.6681
 8629SOL     OW37348   3.432   0.698   7.358 -0.7054  0.2709  0.4875
 8629SOL    HW137349   3.493   0.772   7.350  0.3321 -0.5638  0.7473
 8629SOL    HW237350   3.386   0.700   7.274 -0.5667 -1.4175  0.3738
 8630SOL     OW37351   3.051   2.484   3.986  0.2016  0.1555 -0.5088
 8630SOL    HW137352   3.074   2.392   3.995  0.9338  0.3532 -0.3530
 8630SOL    HW237353   2.956   2.482   3.992  0.2154 -0.4602 -0.5673
 8631SOL     OW37354   1.463   3.897  11.813 -0.0707 -0.0201  0.9474
 8631SOL    HW137355   1.380   3.884  11.767  0.0336  3.3472 -0.2425
 8631SOL    HW237356   1.512   3.821  11.781 -0.3721 -0.1394  0.7668
 8632SOL     OW37357   3.500   0.020   8.640  0.2194  0.4286 -0.2800
 8632SOL    HW137358   3.589   0.006   8.672  0.7614  0.3024 -1.8376
 8632SOL    HW237359   3.483   4.659   8.594  1.8619  0.9466 -1.8247
 8633SOL     OW37360   3.355   2.786   7.039 -0.0298  0.6632 -0.0437
 8633SOL    HW137361   3.333   2.807   6.949  0.6806 -1.9546 -0.8100
 8633SOL    HW237362   3.341   2.692   7.038  1.2039  0.4898 -1.0937
 8634SOL     OW37363   0.827   3.385   7.381  0.0759 -0.0934  0.0831
 8634SOL    HW137364   0.769   3.449   7.420  2.6329  2.4365 -0.2438
 8634SOL    HW237365   0.769   3.310   7.369 -0.6447  0.4417  0.2128
 8635SOL     OW37366   1.969   2.724  13.139 -0.0404  0.5319 -0.7753
 8635SOL    HW137367   1.918   2.782  13.194  1.5786  1.2325 -0.0247
 8635SOL    HW237368   1.932   2.739  13.052 -1.1941  1.0849 -0.1831
 8636SOL     OW37369   4.082   1.912   3.113 -0.2313 -0.2856 -0.4374
 8636SOL    HW137370   4.050   1.822   3.114 -1.2881  0.0762 -1.6717
 8636SOL    HW237371   4.168   1.906   3.072  0.4395 -0.2934  0.9865
 8637SOL     OW37372   1.549   0.394   3.678  0.8507  0.0858  0.2096
 8637SOL    HW137373   1.540   0.320   3.618 -2.3123  0.6349  0.0156
 8637SOL    HW237374   1.478   0.367   3.737 -0.1501  0.9897 -0.5970
 8638SOL     OW37375   2.786   1.745   9.805 -0.7338  0.0737 -0.4503
 8638SOL    HW137376   2.876   1.740   9.835 -1.1722  1.0513  1.0151
 8638SOL    HW237377   2.791   1.663   9.756  0.3952  0.5546 -1.1429
 8639SOL     OW37378   3.792   2.904   4.816 -0.7156  0.2208  0.0730
 8639SOL    HW137379   3.807   2.980   4.872 -1.5370 -0.3331  1.0599
 8639SOL    HW237380   3.784   2.947   4.731  1.5971 -0.0534 -0.2830
 8640SOL     OW37381   3.007   1.000  11.537  0.0030  0.0714 -0.4380
 8640SOL    HW137382   3.033   1.016  11.446 -1.2638  3.2388 -0.2545
 8640SOL    HW237383   3.055   0.917  11.542  1.6806  1.1499  1.1677
 8641SOL     OW37384   0.652   4.282   7.528 -0.2395 -0.0283 -0.2217
 8641SOL    HW137385   0.735   4.256   7.569 -0.4507  0.3241  0.4206
 8641SOL    HW237386   0.592   4.209   7.542 -0.6284  0.7282  2.0935
 8642SOL     OW37387   2.184   2.964   7.722 -0.2818 -0.2178 -0.6044
 8642SOL    HW137388   2.204   2.871   7.725  2.5118  0.3649 -1.2124
 8642SOL    HW237389   2.091   2.982   7.735  0.2873  1.9698  0.3441
 8643SOL     OW37390   3.093   1.984  10.247 -0.1901  0.2308 -0.0483
 8643SOL    HW137391   3.185   2.000  10.267 -1.5212  3.6098  3.5186
 8643SOL    HW237392   3.048   2.065  10.274  1.9041 -0.0155  4.1997
 8644SOL     OW37393   2.271   3.994  16.057 -0.3339 -0.7161  0.0108
 8644SOL    HW137394   2.321   3.987  15.975 -0.7339 -2.6481 -0.0788
 8644SOL    HW237395   2.179   4.012  16.036 -0.4132 -2.1295 -0.8586
 8645SOL     OW37396   1.331   2.008   6.376 -0.4029 -0.2157 -0.2906
 8645SOL    HW137397   1.256   2.051   6.335  0.3988  1.6310  0.1429
 8645SOL    HW237398   1.326   2.061   6.456 -2.7441  0.6262 -1.0065
 8646SOL     OW37399   0.685   0.360   5.491  0.4657  0.4120 -0.5864
 8646SOL    HW137400   0.633   0.279   5.498 -1.3274  1.4788 -1.3331
 8646SOL    HW237401   0.681   0.389   5.582  0.8629 -1.2273 -0.0552
 8647SOL     OW37402   2.642   3.992   8.796 -0.0424 -0.3458 -0.2228
 8647SOL    HW137403   2.736   3.986   8.781 -0.3308  0.4222 -2.3018
 8647SOL    HW237404   2.612   4.006   8.706  0.5982 -0.4039 -0.4440
 8648SOL     OW37405   3.995   2.097  11.381  0.3119 -0.2884 -0.3918
 8648SOL    HW137406   4.042   2.078  11.462 -2.1618 -0.9956  0.8803
 8648SOL    HW237407   4.015   2.187  11.354  1.2519 -0.3640  0.0475
 8649SOL     OW37408   1.711   3.407  12.617 -0.0483  0.3588  0.2507
 8649SOL    HW137409   1.633   3.443  12.658  0.2472  2.8733 -1.4066
 8649SOL    HW237410   1.698   3.455  12.535  0.2747 -0.0961 -0.0717
 8650SOL     OW37411   0.644   1.947  12.807 -0.2023 -0.5783  0.1008
 8650SOL    HW137412   0.581   2.007  12.769 -0.1196 -0.1260  0.6871
 8650SOL    HW237413   0.621   1.871  12.753  2.7725 -1.9101  0.6728
 8651SOL     OW37414   1.723   3.493   5.093 -0.5847  0.2996 -0.3677
 8651SOL    HW137415   1.745   3.476   5.002 -2.7500  0.3476 -0.9153
 8651SOL    HW237416   1.771   3.576   5.098  1.8365 -1.0881 -0.7905
 8652SOL     OW37417   1.969   2.824   4.692 -0.1208 -0.0579  1.0305
 8652SOL    HW137418   1.934   2.812   4.780 -0.3678 -0.6532  0.8510
 8652SOL    HW237419   2.056   2.865   4.697  0.5457 -1.3579 -0.0676
 8653SOL     OW37420   3.341   2.862   6.775  0.3784 -0.4725 -0.4486
 8653SOL    HW137421   3.302   2.817   6.700  0.3458 -0.8791 -0.1884
 8653SOL    HW237422   3.428   2.888   6.744  0.7699 -0.6136  0.5466
 8654SOL     OW37423   2.647   2.207   4.599 -0.6458  0.0498 -0.3802
 8654SOL    HW137424   2.711   2.273   4.627  1.4172 -1.9957 -0.3009
 8654SOL    HW237425   2.631   2.240   4.510 -0.6215  1.9136  0.2958
 8655SOL     OW37426   2.554   1.661   6.228  0.2506 -0.4094  0.2385
 8655SOL    HW137427   2.538   1.703   6.144 -0.2413 -2.9940 -0.9389
 8655SOL    HW237428   2.466   1.664   6.265  0.1356 -0.3218 -0.0463
 8656SOL     OW37429   0.314   3.347   2.569 -0.3401  0.0423  0.3572
 8656SOL    HW137430   0.229   3.374   2.535 -0.6943  0.2830  1.4258
 8656SOL    HW237431   0.365   3.425   2.547  1.0255 -0.3219  2.2153
 8657SOL     OW37432   0.867   1.331   9.110 -0.0282  0.0586  0.2649
 8657SOL    HW137433   0.963   1.327   9.111 -0.0761 -0.5986  2.3833
 8657SOL    HW237434   0.854   1.290   9.025 -1.7134 -0.5159  0.7962
 8658SOL     OW37435   3.479   0.191  14.778  0.0735  0.3190 -0.0759
 8658SOL    HW137436   3.533   0.170  14.854 -1.0202 -0.1529  0.5732
 8658SOL    HW237437   3.541   0.173  14.707 -1.8340 -1.8384 -1.2247
 8659SOL     OW37438   3.196   1.413   7.680 -0.4635 -0.6026  0.4463
 8659SOL    HW137439   3.269   1.372   7.636 -1.0794 -0.4317 -0.7335
 8659SOL    HW237440   3.207   1.381   7.770  1.9654  1.1760  0.7834
 8660SOL     OW37441   4.180   1.147   3.997  0.2485  0.2611  0.3250
 8660SOL    HW137442   4.228   1.229   3.986  0.2243  0.3533  0.8877
 8660SOL    HW237443   4.238   1.088   3.949  0.5606  0.6518  0.2220
 8661SOL     OW37444   2.141   4.340   2.825  0.3518  0.3732  0.5981
 8661SOL    HW137445   2.233   4.324   2.805 -0.6506 -2.1779 -1.9309
 8661SOL    HW237446   2.151   4.435   2.821  0.4920  0.2533 -1.6989
 8662SOL     OW37447   3.229   0.708  12.275  0.6223  0.3366 -0.2537
 8662SOL    HW137448   3.259   0.768  12.343 -0.0970 -0.4669  0.7582
 8662SOL    HW237449   3.162   0.762  12.232 -1.9819 -1.1940  1.9032
 8663SOL     OW37450   1.286   0.600   1.373 -0.6234  0.3264  0.2017
 8663SOL    HW137451   1.336   0.532   1.328 -0.9738  1.4471 -1.9062
 8663SOL    HW237452   1.201   0.565   1.345 -0.1392 -0.5600 -0.1737
 8664SOL     OW37453   0.904   1.658   7.592 -0.0436  0.2278  0.0540
 8664SOL    HW137454   0.973   1.674   7.657 -0.1784  1.0817 -0.0212
 8664SOL    HW237455   0.946   1.670   7.507 -1.4577 -0.6950 -0.7798
 8665SOL     OW37456   1.676   1.093   4.100  0.5863  0.7209  1.0015
 8665SOL    HW137457   1.700   1.003   4.077  0.8919  1.5922 -2.1316
 8665SOL    HW237458   1.696   1.138   4.018 -1.7333 -1.0780 -0.5358
 8666SOL     OW37459   3.128   1.671   8.737 -0.2990 -0.2872 -0.1328
 8666SOL    HW137460   3.051   1.715   8.702 -0.1480 -1.1185 -1.4818
 8666SOL    HW237461   3.083   1.610   8.795  0.9060 -1.4014 -0.3539
 8667SOL     OW37462   3.622   3.300   4.326  0.0700  0.0881 -0.2334
 8667SOL    HW137463   3.670   3.260   4.253 -1.2610  0.5790 -1.3666
 8667SOL    HW237464   3.692   3.346   4.371 -1.8608  0.7675  2.0540
 8668SOL     OW37465   2.943   0.128   4.035  0.0118  0.2888  0.0853
 8668SOL    HW137466   2.986   0.154   3.953  0.2461  1.3691  0.5529
 8668SOL    HW237467   2.882   0.064   3.999  1.5687 -1.2467  0.1697
 8669SOL     OW37468   0.294   2.433   6.665  0.3510 -0.2883 -0.2370
 8669SOL    HW137469   0.239   2.500   6.706  0.1299 -1.0980  0.8179
 8669SOL    HW237470   0.359   2.422   6.734  0.7930 -2.5701 -1.0110
 8670SOL     OW37471   0.813   3.918   5.748  0.8776 -0.1767 -0.1753
 8670SOL    HW137472   0.876   3.972   5.795  0.1135 -0.4697  1.1760
 8670SOL    HW237473   0.876   3.857   5.710  1.6504  0.4065  0.1628
 8671SOL     OW37474   0.002   4.541   4.440 -0.1452 -0.5701  0.0077
 8671SOL    HW137475   0.088   4.506   4.464  1.1828  2.6432 -0.0568
 8671SOL    HW237476   4.683   4.527   4.525 -3.4166 -0.1738 -1.4855
 8672SOL     OW37477   1.228   4.097   2.337 -0.3155 -0.6872 -0.0599
 8672SOL    HW137478   1.258   4.011   2.366 -0.0437 -0.3754  0.6004
 8672SOL    HW237479   1.169   4.109   2.412 -1.7102 -0.8350 -1.1299
 8673SOL     OW37480   3.692   2.492  13.024  0.0128 -0.0768 -0.6434
 8673SOL    HW137481   3.721   2.569  12.975  0.1791  1.3748  1.7313
 8673SOL    HW237482   3.604   2.515  13.056  0.3989 -0.4501  0.6710
 8674SOL     OW37483   2.638   3.594   2.125 -0.3007  0.3756 -0.0396
 8674SOL    HW137484   2.595   3.670   2.164  2.5086  2.9416 -1.9915
 8674SOL    HW237485   2.689   3.567   2.201 -2.5757 -2.3576  0.5473
 8675SOL     OW37486   4.617   1.799   6.167 -0.0454  0.4887 -0.1145
 8675SOL    HW137487   4.586   1.889   6.177 -2.5030 -0.5741  1.7999
 8675SOL    HW237488   4.539   1.749   6.191  0.3586  0.4500  1.1034
 8676SOL     OW37489   0.765   0.913   8.160 -0.4885  0.9642  0.2155
 8676SOL    HW137490   0.828   0.974   8.199 -1.5210  1.4459  1.1702
 8676SOL    HW237491   0.760   0.945   8.070  2.5742  2.1960  0.4909
 8677SOL     OW37492   1.288   3.246   7.268 -0.2173  0.0105  0.1533
 8677SOL    HW137493   1.369   3.205   7.238  0.1526  0.3254  0.7112
 8677SOL    HW237494   1.282   3.205   7.355 -1.5665 -1.2620 -0.5357
 8678SOL     OW37495   1.400   4.308  13.671  0.3756  0.0648 -0.0165
 8678SOL    HW137496   1.354   4.388  13.644  3.4276  1.6129 -0.6237
 8678SOL    HW237497   1.405   4.271  13.583 -1.3214 -1.5824  0.5872
 8679SOL     OW37498   4.242   2.837   5.145 -0.4050 -0.5857 -0.0412
 8679SOL    HW137499   4.230   2.867   5.055 -0.4799 -0.5021 -0.0035
 8679SOL    HW237500   4.337   2.827   5.142 -0.2363  1.3215 -0.8572
 8680SOL     OW37501   1.479   1.220   6.119 -0.2152 -0.2415  0.0692
 8680SOL    HW137502   1.517   1.302   6.088  1.3899 -1.1270 -0.3010
 8680SOL    HW237503   1.466   1.240   6.212 -0.7049 -0.7832  0.1204
 8681SOL     OW37504   4.450   4.091  11.136 -0.2243  0.2046  0.2646
 8681SOL    HW137505   4.523   4.145  11.166  0.5345 -1.9815  2.3127
 8681SOL    HW237506   4.496   4.007  11.129 -0.1016  0.2941  0.0039
 8682SOL     OW37507   2.747   0.667   9.250  0.3442  0.0231 -0.0648
 8682SOL    HW137508   2.757   0.736   9.315 -0.1628  0.7542 -0.7526
 8682SOL    HW237509   2.760   0.582   9.292  1.8055 -0.2993 -1.1770
 8683SOL     OW37510   2.913   0.431  16.682 -0.2800  0.1737 -0.3167
 8683SOL    HW137511   2.932   0.361  16.620 -4.0862 -1.5960  0.4834
 8683SOL    HW237512   3.002   0.429  16.717  0.1175  1.2090 -1.2599
 8684SOL     OW37513   1.087   0.297   0.828 -0.4200  0.2444  0.3986
 8684SOL    HW137514   1.049   0.214   0.800 -0.2703 -0.1908  1.4870
 8684SOL    HW237515   1.129   0.285   0.913  1.9871 -0.4534 -0.8943
 8685SOL     OW37516   1.203   1.686  14.678 -0.2545 -0.4513  0.3875
 8685SOL    HW137517   1.126   1.729  14.640 -1.5455 -2.8856  0.2876
 8685SOL    HW237518   1.224   1.754  14.742  1.1843  0.4844 -1.0756
 8686SOL     OW37519   1.815   0.547  14.348  0.3137  0.2238 -0.3899
 8686SOL    HW137520   1.828   0.628  14.298 -0.5636  0.1588 -0.7164
 8686SOL    HW237521   1.788   0.580  14.434 -2.1326  0.0967 -1.1135
 8687SOL     OW37522   4.131   4.623   7.055  0.0933 -0.0848  0.1554
 8687SOL    HW137523   4.071   4.696   7.058  1.4033  1.0066 -0.1870
 8687SOL    HW237524   4.175   4.636   6.971 -0.5366  0.5201 -0.0722
 8688SOL     OW37525   0.664   0.809   5.114  0.2945 -0.1518  0.1055
 8688SOL    HW137526   0.714   0.884   5.147 -0.7709  1.7419 -2.5353
 8688SOL    HW237527   0.606   0.864   5.061  0.1290 -0.3679  0.0634
 8689SOL     OW37528   1.225   1.240  12.389 -0.7529 -0.2452  0.2629
 8689SOL    HW137529   1.151   1.205  12.340 -0.4070 -1.2748  0.4903
 8689SOL    HW237530   1.236   1.326  12.347  2.4650 -0.4461  0.7203
 8690SOL     OW37531   0.153   0.623  10.427  0.6128  0.4010 -0.0292
 8690SOL    HW137532   0.059   0.603  10.423  0.2232  2.2129  0.0007
 8690SOL    HW237533   0.181   0.582  10.345  1.9006 -0.1448  0.6877
 8691SOL     OW37534   0.493   3.901   5.661  0.4735  1.0848 -0.3512
 8691SOL    HW137535   0.557   3.929   5.596 -1.5899  2.3993 -1.8381
 8691SOL    HW237536   0.466   3.990   5.687 -0.4517  0.0211  2.3390
 8692SOL     OW37537   2.801   2.750  10.020 -0.3077  0.6318 -0.4272
 8692SOL    HW137538   2.811   2.743   9.925  1.6670 -0.0081 -0.1753
 8692SOL    HW237539   2.706   2.742  10.029 -0.2328  0.0647 -0.1210
 8693SOL     OW37540   3.336   1.924  16.541  0.0599 -0.2956  0.1848
 8693SOL    HW137541   3.334   2.019  16.533 -2.3262 -0.3652 -0.0533
 8693SOL    HW237542   3.256   1.896  16.497 -0.9069  0.9327  1.2002
 8694SOL     OW37543   0.283   4.693   3.517  0.4856 -0.1717 -0.0849
 8694SOL    HW137544   0.315   0.012   3.598  0.3134  0.6605 -0.4291
 8694SOL    HW237545   0.346   4.620   3.514  1.2778  0.5300 -0.4455
 8695SOL     OW37546   1.050   0.838   5.662  0.0163 -0.8641 -0.6754
 8695SOL    HW137547   0.969   0.888   5.659  0.7108  0.2119 -1.5330
 8695SOL    HW237548   1.080   0.836   5.571 -1.2126 -0.9182 -1.0805
 8696SOL     OW37549   4.426   1.035   6.817 -0.5040 -0.7389  0.0359
 8696SOL    HW137550   4.359   1.073   6.760 -2.7151 -3.6691  0.7136
 8696SOL    HW237551   4.419   0.943   6.792 -1.2819 -0.5771 -0.3416
 8697SOL     OW37552   2.083   0.576  17.645 -0.1186  0.4379  0.6559
 8697SOL    HW137553   2.052   0.498   0.003 -1.3933 -0.6727 -2.1189
 8697SOL    HW237554   2.141   0.611   0.026  0.6912 -1.4113  0.8988
 8698SOL     OW37555   3.151   1.300   5.684 -0.3730 -0.1279  0.2628
 8698SOL    HW137556   3.101   1.254   5.617  2.8571 -1.0304 -1.5330
 8698SOL    HW237557   3.217   1.344   5.630  0.1958 -0.4053  0.7386
 8699SOL     OW37558   1.367   4.130   1.744 -0.2744 -0.6536  0.3965
 8699SOL    HW137559   1.321   4.207   1.778  0.9495  0.5286 -0.6365
 8699SOL    HW237560   1.458   4.160   1.753 -0.6987  0.8250 -0.1757
 8700SOL     OW37561   0.749   2.346  10.024 -0.2630 -0.2245  0.1385
 8700SOL    HW137562   0.757   2.358   9.929  2.9747  0.0394  0.4496
 8700SOL    HW237563   0.766   2.252  10.026  0.2520 -0.1272  0.2640
 8701SOL     OW37564   4.240   4.711  10.352 -0.6300 -0.2721 -0.2549
 8701SOL    HW137565   4.158   0.039  10.344 -0.1877  0.3710 -0.8158
 8701SOL    HW237566   4.273   0.010  10.440 -2.0603 -0.6574  0.3614
 8702SOL     OW37567   1.617   4.390   9.735  0.1106 -0.3725 -0.4229
 8702SOL    HW137568   1.535   4.374   9.688 -1.5871 -0.2642  2.4898
 8702SOL    HW237569   1.680   4.380   9.665  0.1439 -0.6839 -0.3480
 8703SOL     OW37570   1.861   2.127   1.183 -0.1179 -0.4487 -0.2198
 8703SOL    HW137571   1.798   2.150   1.115  1.0056  0.6545 -0.8914
 8703SOL    HW237572   1.846   2.033   1.197  2.5292 -0.7968  0.3104
 8704SOL     OW37573   0.024   2.386   5.387  0.1897 -0.2009 -0.6994
 8704SOL    HW137574   4.710   2.412   5.473  3.0752  1.4380 -0.0200
 8704SOL    HW237575   0.094   2.449   5.371 -0.7310  0.6857 -1.2686
 8705SOL     OW37576   2.639   2.139   4.092  0.3583 -0.0488 -0.3129
 8705SOL    HW137577   2.684   2.083   4.154 -0.0773 -0.4076 -0.3189
 8705SOL    HW237578   2.660   2.105   4.005 -0.1841 -3.8052  1.0633
 8706SOL     OW37579   2.035   0.960   0.850  0.0591  0.2951  0.0251
 8706SOL    HW137580   1.949   1.000   0.861 -0.8750 -2.2846  2.1576
 8706SOL    HW237581   2.076   0.986   0.932 -0.8834  3.1446 -0.3974
 8707SOL     OW37582   2.604   4.328   0.289 -0.7965  0.6442  0.3187
 8707SOL    HW137583   2.567   4.389   0.224 -1.4388 -1.6206 -1.4163
 8707SOL    HW237584   2.697   4.347   0.276 -1.1287  1.5170 -0.8460
 8708SOL     OW37585   1.923   0.929  13.004 -0.5798 -0.5554  0.3231
 8708SOL    HW137586   1.843   0.981  13.007 -0.0576  0.3175 -0.8636
 8708SOL    HW237587   1.885   0.857  12.954  2.1841 -1.5747 -0.2844
 8709SOL     OW37588   2.291   0.406   7.855  0.4064 -0.1802 -0.1160
 8709SOL    HW137589   2.311   0.497   7.878  2.4148 -0.7140  0.2467
 8709SOL    HW237590   2.215   0.395   7.912  0.5504 -0.3947  0.0362
 8710SOL     OW37591   4.144   0.506   2.560  0.1445 -0.2092  0.2828
 8710SOL    HW137592   4.068   0.456   2.591  0.2297  1.1027  2.5760
 8710SOL    HW237593   4.121   0.514   2.467  0.6592 -0.3889  0.1412
 8711SOL     OW37594   0.131   1.781  12.176 -0.5679 -0.0617  0.1052
 8711SOL    HW137595   0.100   1.871  12.168 -0.9655 -0.2510 -0.5580
 8711SOL    HW237596   0.217   1.789  12.216 -0.3675 -0.7098 -0.1863
 8712SOL     OW37597   0.999   0.538  12.647  0.0377 -0.4261  0.1379
 8712SOL    HW137598   1.014   0.512  12.556 -0.3015 -0.1486  0.0014
 8712SOL    HW237599   0.904   0.552  12.644 -0.0946 -1.3552  0.0188
 8713SOL     OW37600   0.813   0.516   4.382  0.2179 -0.6026 -0.5275
 8713SOL    HW137601   0.783   0.599   4.418 -0.4360 -1.1369  0.1749
 8713SOL    HW237602   0.903   0.536   4.360  0.9535 -1.6051  1.5446
 8714SOL     OW37603   3.866   0.877   8.036 -0.2531  0.5014  0.4032
 8714SOL    HW137604   3.806   0.892   8.109 -2.2591 -1.5608 -0.8281
 8714SOL    HW237605   3.949   0.876   8.083 -1.2790  0.5997  2.2368
 8715SOL     OW37606   2.712   4.071  15.783  0.0999 -0.3815  0.4712
 8715SOL    HW137607   2.681   4.009  15.717  1.4081 -0.2624 -0.2672
 8715SOL    HW237608   2.759   4.011  15.842 -1.0235 -3.4678 -1.8055
 8716SOL     OW37609   3.858   2.619   8.666  0.7155 -0.0905  0.1357
 8716SOL    HW137610   3.830   2.545   8.610 -1.2278  0.4290  0.4221
 8716SOL    HW237611   3.945   2.587   8.690  0.2222 -0.7754  1.0059
 8717SOL     OW37612   2.089   3.536   6.357  0.2015  0.0573  0.1945
 8717SOL    HW137613   2.178   3.525   6.323  0.2927  0.3561  0.3346
 8717SOL    HW237614   2.084   3.628   6.383 -0.8858 -0.5826  2.2270
 8718SOL     OW37615   2.288   3.740   9.367 -0.1201  0.2829 -0.0437
 8718SOL    HW137616   2.251   3.800   9.303 -0.0160 -0.3243 -0.6702
 8718SOL    HW237617   2.314   3.674   9.302  0.5733 -0.6989  1.2283
 8719SOL     OW37618   3.059   0.127   6.288  0.0010 -0.6814 -0.2801
 8719SOL    HW137619   3.141   0.159   6.324  1.6263 -1.6162 -3.1068
 8719SOL    HW237620   3.041   0.058   6.352 -1.0556 -0.3770 -0.2600
 8720SOL     OW37621   0.898   0.389   8.247  0.4541 -0.2096 -0.2465
 8720SOL    HW137622   0.973   0.395   8.189 -0.1262 -0.4915 -1.0191
 8720SOL    HW237623   0.884   0.479   8.275 -1.1220 -0.9614  1.4567
 8721SOL     OW37624   0.031   3.777  15.207 -0.5895 -0.4281  0.7763
 8721SOL    HW137625   4.709   3.712  15.153 -0.5194  1.7420 -1.9107
 8721SOL    HW237626   0.123   3.750  15.202 -0.5972 -0.5302  1.2445
 8722SOL     OW37627   4.403   4.647   9.900  0.0993  0.0513 -0.1148
 8722SOL    HW137628   4.363   4.716   9.846 -0.0691  0.0336 -0.0131
 8722SOL    HW237629   4.480   4.617   9.852  0.1519 -2.1269  1.3725
 8723SOL     OW37630   0.435   0.369   2.586 -0.2519 -0.2871  0.1878
 8723SOL    HW137631   0.481   0.289   2.611  0.6209 -0.2827 -1.4540
 8723SOL    HW237632   0.442   0.360   2.491  0.5052  2.5804 -0.0419
 8724SOL     OW37633   3.418   2.711   6.230 -0.8056  0.3434  0.1343
 8724SOL    HW137634   3.427   2.629   6.278 -0.0989 -0.3277 -1.1547
 8724SOL    HW237635   3.468   2.695   6.150 -0.8536 -0.5367  0.2856
 8725SOL     OW37636   1.527   3.113   5.865  0.4344  0.1751 -0.1718
 8725SOL    HW137637   1.531   3.050   5.793 -2.5058  1.5700 -1.5278
 8725SOL    HW237638   1.579   3.061   5.927  0.7059  0.2597 -0.3295
 8726SOL     OW37639   0.194   1.803   9.860 -0.2107 -0.0191 -0.0773
 8726SOL    HW137640   0.147   1.861   9.799  2.6674 -1.2078 -3.4414
 8726SOL    HW237641   0.286   1.813   9.834 -0.2704  2.8316  0.7109
 8727SOL     OW37642   2.255   2.309   5.444 -0.3870  0.2906 -0.1347
 8727SOL    HW137643   2.251   2.393   5.399  3.8450  1.7296  2.2085
 8727SOL    HW237644   2.291   2.255   5.373  0.2351  1.2125 -0.5225
 8728SOL     OW37645   2.494   3.326  15.610  0.5491  0.1267  0.8255
 8728SOL    HW137646   2.524   3.416  15.612 -0.8732  0.6377 -2.0194
 8728SOL    HW237647   2.572   3.270  15.609  0.9751  0.7583 -0.5387
 8729SOL     OW37648   1.674   3.887   1.793 -0.0835 -0.3044  0.9234
 8729SOL    HW137649   1.615   3.813   1.784  1.5237 -1.3104 -1.2075
 8729SOL    HW237650   1.673   3.923   1.705 -1.7838  2.3017  2.0138
 8730SOL     OW37651   2.027   1.814   5.536  0.1986  0.3897  0.5314
 8730SOL    HW137652   2.050   1.735   5.586 -0.3466  1.3632  2.3346
 8730SOL    HW237653   2.067   1.792   5.452 -0.4440  0.7961  0.1135
 8731SOL     OW37654   0.569   3.261  17.456 -0.1717 -0.9153  0.0136
 8731SOL    HW137655   0.499   3.326  17.454  1.0115  0.3170 -1.6771
 8731SOL    HW237656   0.634   3.316  17.499  0.6276 -1.7362 -0.1467
 8732SOL     OW37657   3.733   3.198  13.902 -0.4666  0.0759 -0.3210
 8732SOL    HW137658   3.693   3.229  13.821  0.3549  2.2619  0.1198
 8732SOL    HW237659   3.770   3.281  13.931 -0.7678  1.1467 -3.0652
 8733SOL     OW37660   1.758   1.220  15.820  0.5194  0.0128 -0.3029
 8733SOL    HW137661   1.806   1.199  15.900 -2.3698  0.3457  1.5250
 8733SOL    HW237662   1.815   1.174  15.759  0.5008 -0.1280 -0.2141
 8734SOL     OW37663   4.235   1.948   6.301 -0.4868 -0.1964 -0.7923
 8734SOL    HW137664   4.165   1.926   6.362  0.0218  1.1486  0.2623
 8734SOL    HW237665   4.193   2.013   6.245 -0.5612 -0.3120 -0.8722
 8735SOL     OW37666   2.211   3.771  10.335 -0.4137 -0.2673  0.0459
 8735SOL    HW137667   2.297   3.814  10.341 -1.1856  1.4764 -1.3152
 8735SOL    HW237668   2.231   3.693  10.387 -1.5273  0.0084  0.8777
 8736SOL     OW37669   0.486   2.013   6.192  0.0674  0.2835  0.4769
 8736SOL    HW137670   0.394   2.036   6.202  0.0028 -0.5701  1.9617
 8736SOL    HW237671   0.491   1.936   6.250 -2.6825  0.9778  1.6350
 8737SOL     OW37672   0.016   3.187   2.341 -0.2322  0.1320 -0.2168
 8737SOL    HW137673   0.041   3.279   2.346 -3.0905  0.9557 -1.4292
 8737SOL    HW237674   4.653   3.184   2.386 -0.2292 -0.4602 -0.2467
 8738SOL     OW37675   3.670   3.917  12.954 -0.8177 -0.2324 -0.0041
 8738SOL    HW137676   3.699   3.974  13.025 -2.0849  1.3812 -0.7811
 8738SOL    HW237677   3.693   3.967  12.875  1.5220  0.4687  1.1090
 8739SOL     OW37678   0.848   1.678   6.014 -0.4831 -0.0296 -0.0382
 8739SOL    HW137679   0.898   1.597   6.015  2.5701  1.8476 -1.3440
 8739SOL    HW237680   0.780   1.651   6.076 -0.0115 -0.8921  0.1062
 8740SOL     OW37681   0.855   4.399   0.438  0.0245 -0.3411 -0.1451
 8740SOL    HW137682   0.769   4.376   0.403  0.4262 -0.2335 -1.1927
 8740SOL    HW237683   0.845   4.483   0.482  2.2769  0.1537 -0.5950
 8741SOL     OW37684   2.252   2.999   7.976  0.4444 -0.0641 -0.2235
 8741SOL    HW137685   2.321   3.065   7.967  0.2838 -0.0614 -1.4410
 8741SOL    HW237686   2.226   3.009   7.885  1.0517 -0.4472 -0.4408
 8742SOL     OW37687   1.556   1.951  14.949 -0.1472 -0.2633  0.2003
 8742SOL    HW137688   1.511   1.926  15.030 -1.8438  1.3984 -0.2198
 8742SOL    HW237689   1.535   2.044  14.948 -2.7455 -0.8222  1.5747
 8743SOL     OW37690   4.399   0.741   2.496 -0.4006  0.1237  0.4286
 8743SOL    HW137691   4.472   0.744   2.434  0.3071  5.4151  1.4911
 8743SOL    HW237692   4.318   0.733   2.445 -0.0416  2.0433 -0.4642
 8744SOL     OW37693   4.460   1.200   2.920  0.0287  0.0237 -0.2218
 8744SOL    HW137694   4.419   1.286   2.927  0.9493  0.4364  0.1876
 8744SOL    HW237695   4.400   1.145   2.971  1.8782 -0.5757  1.3081
 8745SOL     OW37696   0.856   0.634   3.105 -0.4096  0.1894 -0.1834
 8745SOL    HW137697   0.804   0.569   3.058 -0.9890  1.1506 -0.8635
 8745SOL    HW237698   0.879   0.578   3.179 -0.6189  2.2162  1.4205
 8746SOL     OW37699   0.512   1.892  15.387  0.0982 -0.2127 -0.2458
 8746SOL    HW137700   0.563   1.819  15.422  0.1897 -0.5018 -0.9890
 8746SOL    HW237701   0.520   1.867  15.295  0.7106  0.2281 -0.3114
 8747SOL     OW37702   4.157   1.629  10.883  0.4080 -0.8088  0.6100
 8747SOL    HW137703   4.127   1.538  10.887 -2.6762  0.1846  0.7654
 8747SOL    HW237704   4.080   1.685  10.887 -0.2366 -1.7043  0.8581
 8748SOL     OW37705   1.709   3.013   3.348 -0.2045 -0.2551  0.2001
 8748SOL    HW137706   1.632   2.957   3.335 -0.0668 -0.3399 -0.2690
 8748SOL    HW237707   1.764   2.990   3.273  0.3372 -0.0818  0.5513
 8749SOL     OW37708   2.146   0.363   8.621  0.5317  0.0555 -0.4591
 8749SOL    HW137709   2.113   0.385   8.708 -0.1056  1.0620 -0.9693
 8749SOL    HW237710   2.081   0.298   8.594  0.1704  0.2215  0.0133
 8750SOL     OW37711   1.355   3.466   2.663 -0.3914 -0.2832 -0.1049
 8750SOL    HW137712   1.346   3.487   2.570 -1.5658 -0.1190  0.0484
 8750SOL    HW237713   1.294   3.531   2.698  1.0932  1.5989 -1.0086
 8751SOL     OW37714   3.385   3.640   7.703  0.1594  0.1331  0.0289
 8751SOL    HW137715   3.296   3.666   7.728 -0.0204 -0.2249 -0.2315
 8751SOL    HW237716   3.385   3.669   7.611  0.2207 -1.4555 -0.4631
 8752SOL     OW37717   3.758   2.226   1.090  0.2059  0.2941 -0.5428
 8752SOL    HW137718   3.744   2.230   0.996  0.2393 -1.3679 -0.6274
 8752SOL    HW237719   3.819   2.154   1.107 -1.0713 -0.5582  0.3825
 8753SOL     OW37720   3.440   2.930  13.484 -0.0292 -0.5540 -0.2125
 8753SOL    HW137721   3.452   2.835  13.486  4.0325  0.0083  1.6541
 8753SOL    HW237722   3.458   2.943  13.391  1.2713 -0.7783  0.0040
 8754SOL     OW37723   0.220   2.104  10.804  0.1143 -0.0783 -0.5190
 8754SOL    HW137724   0.134   2.143  10.790  0.3973  1.1156  1.0110
 8754SOL    HW237725   0.197   2.012  10.788 -0.9679  0.3741 -1.5687
 8755SOL     OW37726   4.361   2.413   5.712 -0.3373 -0.0253  0.1523
 8755SOL    HW137727   4.355   2.508   5.715  1.8069  0.0963  0.7269
 8755SOL    HW237728   4.363   2.390   5.619 -0.2890  0.5208  0.0162
 8756SOL     OW37729   1.970   4.419   7.248 -0.1635  0.3026  0.1661
 8756SOL    HW137730   1.897   4.368   7.215 -0.8558  1.0319  0.5692
 8756SOL    HW237731   2.028   4.417   7.171  1.0273  0.8781  1.0385
 8757SOL     OW37732   1.732   2.134  17.389 -0.2896  0.1709 -0.1000
 8757SOL    HW137733   1.765   2.222  17.403 -0.8678  0.5898 -1.4027
 8757SOL    HW237734   1.775   2.081  17.456 -0.8069  0.6777  0.6227
 8758SOL     OW37735   3.609   0.727   6.953  0.3862 -0.3251 -0.4164
 8758SOL    HW137736   3.631   0.818   6.930 -2.4277  1.0280  2.1929
 8758SOL    HW237737   3.516   0.748   6.964  0.2091 -0.3787 -1.8447
 8759SOL     OW37738   1.340   2.804   5.825  0.4376 -0.1029  0.6418
 8759SOL    HW137739   1.322   2.875   5.764 -1.6937 -1.3907 -0.2388
 8759SOL    HW237740   1.376   2.859   5.893  0.4543  1.5881 -0.7402
 8760SOL     OW37741   2.013   2.351  16.732  0.1369 -0.0425  0.1157
 8760SOL    HW137742   1.977   2.319  16.815 -0.9101 -0.4999 -0.5075
 8760SOL    HW237743   1.945   2.320  16.671 -0.5625  0.2895  0.7199
 8761SOL     OW37744   1.130   3.878  16.961  0.3845 -0.0289  0.2741
 8761SOL    HW137745   1.064   3.891  17.030  0.6456  0.8943  0.3450
 8761SOL    HW237746   1.138   3.965  16.922 -0.5965 -1.0683 -2.2796
 8762SOL     OW37747   1.822   1.192   7.125 -0.6897 -0.4444 -0.0063
 8762SOL    HW137748   1.770   1.263   7.088 -2.0955 -1.5912 -0.1951
 8762SOL    HW237749   1.892   1.183   7.061  1.0280  2.3525  1.4833
 8763SOL     OW37750   2.269   2.713  11.484 -0.0694  0.2311  0.4824
 8763SOL    HW137751   2.327   2.650  11.526  1.2636  1.3067  0.2597
 8763SOL    HW237752   2.326   2.785  11.456 -1.2271  0.8522 -0.3008
 8764SOL     OW37753   0.159   0.538  12.092  0.6034  0.3207  0.4901
 8764SOL    HW137754   0.170   0.443  12.094 -0.7438  0.1465 -0.9542
 8764SOL    HW237755   0.114   0.542  12.177  0.1547  1.6158  0.1886
 8765SOL     OW37756   4.532   4.057  13.872  0.0132 -0.4776 -0.3312
 8765SOL    HW137757   4.563   4.125  13.812 -0.7386  1.4963  1.5222
 8765SOL    HW237758   4.584   4.067  13.951  2.7025  0.4099 -2.1918
 8766SOL     OW37759   1.602   0.957   6.611 -0.0932  0.5733 -0.1882
 8766SOL    HW137760   1.555   1.017   6.669 -1.6184 -0.2716 -0.5307
 8766SOL    HW237761   1.649   1.024   6.562  1.9945  0.2685  1.3967
 8767SOL     OW37762   2.972   3.913  13.568 -0.2844  0.2022  0.0803
 8767SOL    HW137763   3.045   3.901  13.507 -0.4046 -1.7684  0.3093
 8767SOL    HW237764   3.021   3.960  13.636  1.6763 -1.2316 -0.3062
 8768SOL     OW37765   4.636   2.077   6.955 -0.3810  0.0298 -0.1908
 8768SOL    HW137766   4.670   2.151   7.006 -0.3168 -0.1009 -0.0411
 8768SOL    HW237767   4.601   2.125   6.881  2.1043 -0.2903 -1.5767
 8769SOL     OW37768   1.827   3.683  10.262  0.1916  0.1271 -0.4872
 8769SOL    HW137769   1.743   3.677  10.308  1.0322  0.5008  1.0995
 8769SOL    HW237770   1.809   3.671  10.169  1.3813 -1.2416 -0.5353
 8770SOL     OW37771   3.104   2.175   8.169  0.5841 -0.4911  0.4079
 8770SOL    HW137772   3.190   2.169   8.211  1.2396  0.2027 -0.8277
 8770SOL    HW237773   3.120   2.215   8.084  0.8857  0.5803  0.9691
 8771SOL     OW37774   2.093   3.836   5.539 -0.0991 -0.6960  0.4311
 8771SOL    HW137775   2.005   3.857   5.507  1.1091  2.5003 -0.7991
 8771SOL    HW237776   2.116   3.923   5.571 -0.4604  0.2686 -1.9118
 8772SOL     OW37777   0.373   2.086  12.284 -0.5383  0.4668 -0.1673
 8772SOL    HW137778   0.352   1.994  12.272 -2.5898  0.8464  0.6072
 8772SOL    HW237779   0.321   2.128  12.215 -0.8516  0.6768  0.1997
 8773SOL     OW37780   1.926   2.862   6.576  0.4047 -0.0238 -0.2061
 8773SOL    HW137781   1.952   2.843   6.485  0.6939 -1.6140  0.1947
 8773SOL    HW237782   1.949   2.952   6.598 -0.0813 -0.2480  1.1816
 8774SOL     OW37783   0.541   4.285  11.651  1.0092 -0.0157 -0.2720
 8774SOL    HW137784   0.536   4.193  11.626 -1.7269  0.8987 -3.1316
 8774SOL    HW237785   0.449   4.304  11.633  0.8838 -1.2906 -0.9606
 8775SOL     OW37786   2.693   3.381   4.243  0.0976  0.2192  0.3505
 8775SOL    HW137787   2.702   3.474   4.265 -0.7317  0.8671 -2.0100
 8775SOL    HW237788   2.603   3.367   4.273 -0.2224  1.8931  0.1827
 8776SOL     OW37789   0.972   3.651   7.548 -0.7997  0.0425 -0.5780
 8776SOL    HW137790   0.905   3.713   7.518  0.8569  1.5414 -1.1676
 8776SOL    HW237791   0.949   3.571   7.501 -0.9097 -0.1834 -0.1456
 8777SOL     OW37792   0.147   2.568  10.749  0.0614  0.1218 -0.0703
 8777SOL    HW137793   0.143   2.511  10.673  1.0133 -0.0062 -0.0166
 8777SOL    HW237794   0.122   2.503  10.815  0.0324 -2.1370 -2.3503
 8778SOL     OW37795   2.301   2.033   2.366 -0.1759 -0.4583  0.0048
 8778SOL    HW137796   2.301   2.029   2.270  1.4278 -1.1799  0.0463
 8778SOL    HW237797   2.331   2.124   2.369 -0.7207 -0.3834  2.7403
 8779SOL     OW37798   2.670   1.607  12.520  0.1799 -0.1116 -0.4943
 8779SOL    HW137799   2.742   1.610  12.583 -1.2768 -2.6681  1.2506
 8779SOL    HW237800   2.598   1.600  12.582  0.2923  0.2624 -0.3195
 8780SOL     OW37801   0.081   1.039   1.082 -0.1460  0.6453 -0.3698
 8780SOL    HW137802   0.165   1.047   1.035  0.6754 -0.9969  0.8191
 8780SOL    HW237803   0.051   0.952   1.057 -0.6939  0.4854  0.8672
 8781SOL     OW37804   1.776   1.153   4.888  0.0001 -0.5748 -0.0269
 8781SOL    HW137805   1.685   1.179   4.877 -0.3120 -0.8186  2.0363
 8781SOL    HW237806   1.794   1.092   4.816  0.1330  0.0245 -0.5047
 8782SOL     OW37807   3.227   2.962   0.079 -0.2660 -0.0142 -0.4128
 8782SOL    HW137808   3.298   2.956   0.143 -0.5540 -0.6857 -0.1547
 8782SOL    HW237809   3.173   3.029   0.119  0.0130  0.5903 -1.0380
 8783SOL     OW37810   3.379   4.428   7.348  0.2331  0.1222 -0.0435
 8783SOL    HW137811   3.357   4.338   7.325 -1.8989  0.6859 -0.2069
 8783SOL    HW237812   3.379   4.430   7.444 -1.1043  2.2018 -0.0873
 8784SOL     OW37813   0.042   1.728   4.050  1.2971 -0.9654  0.5121
 8784SOL    HW137814   0.083   1.741   4.135  2.1669 -0.8687  0.0809
 8784SOL    HW237815   0.112   1.756   3.991  0.7076 -1.7413 -0.5589
 8785SOL     OW37816   2.176   4.469  10.053  0.3383 -0.1304 -0.3803
 8785SOL    HW137817   2.158   4.379  10.027  0.2965 -0.3561  0.4371
 8785SOL    HW237818   2.257   4.460  10.105 -0.8772  0.4779  1.6182
 8786SOL     OW37819   3.198   4.690  11.756  0.4724  0.5507 -0.3428
 8786SOL    HW137820   3.151   4.624  11.705 -0.0762 -0.0530  0.9401
 8786SOL    HW237821   3.175   0.052  11.717 -0.3026 -0.3419 -1.7798
 8787SOL     OW37822   3.426   2.009  10.745 -0.3935  0.1018  0.1474
 8787SOL    HW137823   3.519   2.024  10.763 -0.0095 -0.7254 -1.1810
 8787SOL    HW237824   3.425   1.984  10.653 -1.8141  1.9983 -0.3573
 8788SOL     OW37825   0.338   4.620   4.049  0.2064  0.1029 -0.3979
 8788SOL    HW137826   0.342   4.528   4.027 -0.4424 -0.3218  1.2080
 8788SOL    HW237827   0.301   4.653   3.968  0.2494 -1.7177 -1.1495
 8789SOL     OW37828   2.410   1.055   1.254  0.1338 -0.2503 -0.5309
 8789SOL    HW137829   2.386   1.128   1.197 -2.0498 -0.4343  0.1616
 8789SOL    HW237830   2.378   0.979   1.205 -2.4259  0.3896  0.1436
 8790SOL     OW37831   0.495   1.080   5.692  0.0426  0.3643 -0.3591
 8790SOL    HW137832   0.566   1.105   5.751 -1.0479 -2.0590  1.9995
 8790SOL    HW237833   0.422   1.134   5.722  1.1990 -0.0912  3.2926
 8791SOL     OW37834   1.946   1.181  11.880 -0.2979  0.5877  0.1365
 8791SOL    HW137835   2.031   1.207  11.846  1.1535 -1.0406  2.4503
 8791SOL    HW237836   1.977   1.130  11.955  1.4104  0.6577 -0.5205
 8792SOL     OW37837   1.360   0.590   5.166  0.7445  0.0708  0.4027
 8792SOL    HW137838   1.452   0.571   5.149 -0.2949 -2.4071 -2.5526
 8792SOL    HW237839   1.334   0.653   5.099  2.3991  1.2296  0.8384
 8793SOL     OW37840   4.428   3.068  15.862  0.6065  0.1627 -0.0265
 8793SOL    HW137841   4.509   3.090  15.910  1.2751 -1.0539 -0.5891
 8793SOL    HW237842   4.411   2.983  15.904 -1.7319  0.9886  0.6493
 8794SOL     OW37843   1.919   0.875   7.352  0.5654  0.6203  0.0192
 8794SOL    HW137844   1.869   0.854   7.273  1.4319 -1.7138  0.0803
 8794SOL    HW237845   1.900   0.968   7.367  0.7565  0.4494  1.3633
 8795SOL     OW37846   0.479   1.941   5.248  0.3387  0.1662  0.1727
 8795SOL    HW137847   0.458   1.868   5.306 -2.7807  0.8940 -0.0464
 8795SOL    HW237848   0.399   1.994   5.239  0.7032  0.6196 -0.4169
 8796SOL     OW37849   2.848   2.765   3.532  0.1070  0.2151 -0.4988
 8796SOL    HW137850   2.794   2.725   3.465 -3.6449 -0.5889  2.9870
 8796SOL    HW237851   2.785   2.810   3.589  0.3725  1.1856 -0.9726
 8797SOL     OW37852   2.679   1.083   4.875 -0.3115 -0.3959  0.2014
 8797SOL    HW137853   2.633   1.056   4.796  0.4550  0.1701 -0.4235
 8797SOL    HW237854   2.654   1.008   4.930  0.3887 -0.4483  0.4464
 8798SOL     OW37855   2.317   0.109   4.739  0.2188  0.8057 -0.3170
 8798SOL    HW137856   2.304   0.109   4.644  0.5251  2.3087 -0.3603
 8798SOL    HW237857   2.307   0.015   4.753 -0.7715  0.6323 -2.1506
 8799SOL     OW37858   0.998   4.274   9.951 -0.0621 -0.4213 -0.6252
 8799SOL    HW137859   0.958   4.246   9.869  0.3293  0.5668 -1.1571
 8799SOL    HW237860   1.046   4.354   9.929  1.1849 -0.9751  0.1014
 8800SOL     OW37861   2.157   0.296   5.912 -0.2313  0.5993 -0.2473
 8800SOL    HW137862   2.094   0.236   5.951  1.7122 -0.3822  1.3671
 8800SOL    HW237863   2.186   0.331   5.996  1.7719 -0.4262 -0.5237
 8801SOL     OW37864   4.684   0.885   3.946  0.1774 -0.3322  0.1523
 8801SOL    HW137865   4.709   0.948   3.879 -1.9886  1.6632  1.2025
 8801SOL    HW237866   4.676   0.945   4.021 -0.8947  2.1491 -1.9314
 8802SOL     OW37867   3.797   3.753   8.783 -0.4308 -0.2481  0.3312
 8802SOL    HW137868   3.704   3.755   8.805  0.0177 -1.1702  2.2239
 8802SOL    HW237869   3.797   3.810   8.705 -0.8585 -0.3505  0.2538
 8803SOL     OW37870   2.218   2.493   9.717  0.2188 -0.3161 -1.1224
 8803SOL    HW137871   2.228   2.587   9.701  1.2088 -0.1003  0.8010
 8803SOL    HW237872   2.265   2.466   9.638  2.7297  1.8798 -0.3802
 8804SOL     OW37873   1.462   0.986   9.641 -0.2587 -0.4813  0.2660
 8804SOL    HW137874   1.519   0.909   9.647 -0.2835 -0.5715 -0.6969
 8804SOL    HW237875   1.380   0.938   9.631  0.2552 -1.6707  1.6829
 8805SOL     OW37876   2.836   3.948   3.292  0.1724 -0.2995 -0.6930
 8805SOL    HW137877   2.741   3.938   3.302  0.1689  1.4303  1.0607
 8805SOL    HW237878   2.872   3.878   3.346 -2.1408 -0.4690  0.6633
 8806SOL     OW37879   2.044   0.453  14.240  0.1107 -0.0009  0.2581
 8806SOL    HW137880   2.114   0.439  14.305  0.0640 -0.8302  0.1231
 8806SOL    HW237881   1.969   0.455  14.299 -1.1696  0.2109 -1.3828
 8807SOL     OW37882   2.902   2.050   8.851 -0.1239 -0.6233  0.2826
 8807SOL    HW137883   2.975   2.007   8.806 -1.1523 -0.3523 -1.6675
 8807SOL    HW237884   2.857   1.969   8.873  1.7010 -1.1232  2.1529
 8808SOL     OW37885   3.945   3.257   7.757  0.1010  0.4533 -0.1938
 8808SOL    HW137886   3.883   3.293   7.821  1.3444  1.2062  0.5723
 8808SOL    HW237887   4.017   3.319   7.763  0.0455  0.4347  0.6256
 8809SOL     OW37888   3.293   1.149  11.411  0.1186  0.5156  0.2908
 8809SOL    HW137889   3.375   1.106  11.390  0.0550  0.4256  0.2253
 8809SOL    HW237890   3.299   1.152  11.506  1.2779 -2.5886  0.2908
 8810SOL     OW37891   1.427   1.443  11.991  0.2412 -0.0894  0.4021
 8810SOL    HW137892   1.363   1.383  11.951 -0.8815  2.2393 -1.3009
 8810SOL    HW237893   1.416   1.428  12.085 -0.2450  4.4819  1.0668
 8811SOL     OW37894   3.828   0.594  15.479 -0.1704 -0.4227  0.0611
 8811SOL    HW137895   3.869   0.521  15.432 -2.1061 -0.3670 -1.7046
 8811SOL    HW237896   3.897   0.632  15.534  0.4635 -2.0067  0.3827
 8812SOL     OW37897   0.625   2.740   1.372 -0.0179  0.1181  0.6405
 8812SOL    HW137898   0.666   2.687   1.440  1.2313  1.2395  0.7550
 8812SOL    HW237899   0.671   2.696   1.301  1.8609  4.9012 -1.1038
 8813SOL     OW37900   0.866   1.013   4.295  0.2557  0.0476 -0.2727
 8813SOL    HW137901   0.889   1.086   4.237  2.2225  0.5331  1.1142
 8813SOL    HW237902   0.905   0.956   4.229  2.1641  1.2289 -0.1550
 8814SOL     OW37903   1.422   1.177  14.816  0.1044 -0.0603 -0.2454
 8814SOL    HW137904   1.349   1.120  14.843  0.5446  0.2100  1.5548
 8814SOL    HW237905   1.499   1.122  14.832  1.7192  2.0709 -0.6782
 8815SOL     OW37906   1.490   4.639   9.427 -0.0628 -0.0842  0.2865
 8815SOL    HW137907   1.461   4.548   9.435  0.1378 -0.0557  1.3359
 8815SOL    HW237908   1.424   4.685   9.479 -0.4100 -0.1256 -0.1181
 8816SOL     OW37909   1.875   1.451   1.994 -0.2792 -0.4394 -0.1619
 8816SOL    HW137910   1.859   1.522   2.056 -0.7937  1.0886 -2.0153
 8816SOL    HW237911   1.966   1.429   2.010 -0.1543 -1.0040 -1.6416
 8817SOL     OW37912   4.157   1.887   2.066 -0.5949  0.1837  0.9240
 8817SOL    HW137913   4.195   1.801   2.046  0.0240  0.4570  0.9257
 8817SOL    HW237914   4.193   1.936   1.993  1.4678  1.2963  2.6882
 8818SOL     OW37915   3.790   4.326   6.212 -0.1330  0.4303  0.5630
 8818SOL    HW137916   3.850   4.365   6.149 -0.9142  1.1296  0.2580
 8818SOL    HW237917   3.789   4.398   6.275 -0.7483  1.0622 -0.1717
 8819SOL     OW37918   4.299   2.255  13.018  0.5666  0.1691  0.5675
 8819SOL    HW137919   4.241   2.290  13.086 -0.2346  0.6322 -0.3677
 8819SOL    HW237920   4.234   2.196  12.980  1.6131 -2.0736  2.1884
 8820SOL     OW37921   3.734   3.838   5.197 -0.5983  0.2796 -0.1748
 8820SOL    HW137922   3.816   3.796   5.221 -2.4007 -2.7394  0.7338
 8820SOL    HW237923   3.672   3.768   5.218  1.0137 -1.4814 -1.3493
 8821SOL     OW37924   0.428   3.891   5.084 -0.2808 -0.7029 -0.1052
 8821SOL    HW137925   0.499   3.833   5.054 -0.4232 -0.7260 -0.3953
 8821SOL    HW237926   0.449   3.967   5.029  1.5738 -1.7366 -0.8531
 8822SOL     OW37927   3.787   0.958   2.669  0.4057 -0.5789  0.2802
 8822SOL    HW137928   3.814   0.914   2.588 -0.0827  2.1397 -1.3382
 8822SOL    HW237929   3.859   1.020   2.679  0.3332 -0.0688 -2.5174
 8823SOL     OW37930   3.041   3.470   4.932 -0.3658 -0.2680 -0.8647
 8823SOL    HW137931   3.128   3.500   4.903 -0.2595 -0.3608 -0.6439
 8823SOL    HW237932   2.991   3.550   4.945 -0.3814 -0.1897 -1.4160
 8824SOL     OW37933   0.792   0.358  11.379 -0.3264 -0.3380  0.2368
 8824SOL    HW137934   0.813   0.444  11.416  1.1664  0.3135 -2.1346
 8824SOL    HW237935   0.823   0.306  11.453 -0.3386 -0.0267  0.4591
 8825SOL     OW37936   4.247   4.146  11.847 -0.7987 -0.7322 -0.5604
 8825SOL    HW137937   4.210   4.110  11.766 -2.4752 -1.5373  0.5717
 8825SOL    HW237938   4.227   4.240  11.840  1.4623 -0.2366 -0.0889
 8826SOL     OW37939   3.215   4.547  12.219 -0.2305  0.3858  0.5884
 8826SOL    HW137940   3.237   4.527  12.128  0.1502  1.4892  0.4354
 8826SOL    HW237941   3.272   4.476  12.249 -0.0666  0.6829  0.9831
 8827SOL     OW37942   1.566   4.344  15.569 -0.2798  0.7220  0.0902
 8827SOL    HW137943   1.639   4.397  15.601 -0.6578  0.6183  1.1262
 8827SOL    HW237944   1.548   4.379  15.482 -1.7281 -1.0393 -0.3222
 8828SOL     OW37945   1.788   4.370   9.521  0.0408 -0.0976  0.5577
 8828SOL    HW137946   1.735   4.382   9.442  0.5295  2.6652  0.6485
 8828SOL    HW237947   1.869   4.328   9.491 -0.4511  0.1326 -1.1169
 8829SOL     OW37948   1.980   4.232   4.172 -0.2799  0.1815 -0.4062
 8829SOL    HW137949   1.962   4.138   4.171 -0.4118  0.1842  1.3477
 8829SOL    HW237950   1.931   4.252   4.252 -1.8419 -3.0476 -0.5354
 8830SOL     OW37951   4.147   4.380   3.753 -0.8928  0.0422  0.3254
 8830SOL    HW137952   4.136   4.371   3.658 -0.7559 -0.1443  0.3282
 8830SOL    HW237953   4.199   4.460   3.764 -0.5644 -0.0747 -0.3490
 8831SOL     OW37954   2.734   0.766   4.167 -0.3825  0.2187  0.0651
 8831SOL    HW137955   2.791   0.842   4.161  0.4349 -0.3942  0.0266
 8831SOL    HW237956   2.668   0.789   4.102 -0.7826  2.3260  1.2238
 8832SOL     OW37957   3.270   2.774   5.374  0.1719 -0.7605 -0.4600
 8832SOL    HW137958   3.329   2.835   5.330  0.0486 -1.1112 -1.1113
 8832SOL    HW237959   3.317   2.691   5.361 -0.0482 -0.9063 -0.3258
 8833SOL     OW37960   1.889   2.272   4.439 -0.2912  0.5058 -0.3251
 8833SOL    HW137961   1.854   2.242   4.355  0.9171 -0.7313 -0.3947
 8833SOL    HW237962   1.845   2.210   4.497  0.6283 -0.1405 -0.3161
 8834SOL     OW37963   0.319   1.389   2.143  0.1888 -0.3636 -0.2167
 8834SOL    HW137964   0.312   1.376   2.049 -1.4523 -1.0856  0.0043
 8834SOL    HW237965   0.302   1.298   2.168 -1.8220 -0.7712 -3.0794
 8835SOL     OW37966   0.607   3.028  16.679  0.3287 -0.0340  0.6013
 8835SOL    HW137967   0.551   3.004  16.604 -0.6630  2.2867  0.5808
 8835SOL    HW237968   0.658   3.097  16.637  1.0855 -0.4576  0.8346
 8836SOL     OW37969   0.951   1.760  10.363  0.2326 -0.4891 -0.1686
 8836SOL    HW137970   1.038   1.723  10.353  1.0382  1.3488  0.0035
 8836SOL    HW237971   0.933   1.726  10.450  0.5786  0.1940  0.1717
 8837SOL     OW37972   0.493   0.311   2.305 -0.3006  0.4447  0.2151
 8837SOL    HW137973   0.448   0.232   2.273  1.6188 -0.8572  0.6736
 8837SOL    HW237974   0.436   0.378   2.268 -0.4881  0.6281  0.8288
 8838SOL     OW37975   4.646   2.446  12.799 -0.2292  0.0086  0.3196
 8838SOL    HW137976   4.577   2.399  12.753  2.2679  0.3878 -3.8762
 8838SOL    HW237977   4.654   2.532  12.757  1.0613 -0.7881 -1.0900
 8839SOL     OW37978   4.041   0.210   3.942  0.7490 -0.0053  0.1307
 8839SOL    HW137979   4.075   0.285   3.990 -0.2637 -0.3799  1.4460
 8839SOL    HW237980   3.948   0.217   3.960  0.1294 -0.1166 -3.0121
 8840SOL     OW37981   3.916   4.191   3.756 -0.3497 -0.1707 -0.0852
 8840SOL    HW137982   3.969   4.122   3.717 -1.4549 -0.8625 -0.3449
 8840SOL    HW237983   3.935   4.165   3.846 -0.4217  0.3314  0.0797
 8841SOL     OW37984   3.230   2.806   4.325  0.3631 -0.3455 -0.6033
 8841SOL    HW137985   3.196   2.817   4.414 -0.6546 -0.6156 -0.9566
 8841SOL    HW237986   3.239   2.897   4.294 -0.7838  0.0718  0.2694
 8842SOL     OW37987   0.791   0.823   4.022  0.1172 -0.2487 -0.0179
 8842SOL    HW137988   0.863   0.867   3.977 -0.3056  2.0425  1.5009
 8842SOL    HW237989   0.808   0.731   4.006  0.7311  0.1774 -1.7655
 8843SOL     OW37990   3.650   3.537   4.631  0.2434 -0.1772  0.3045
 8843SOL    HW137991   3.692   3.522   4.546 -0.1363 -0.4629  0.1707
 8843SOL    HW237992   3.641   3.633   4.631  0.4768 -0.1468 -0.9537
 8844SOL     OW37993   2.557   2.762  16.950  0.0632 -0.6238 -0.7728
 8844SOL    HW137994   2.488   2.752  16.885  0.5271 -0.2272 -1.3219
 8844SOL    HW237995   2.572   2.856  16.939 -0.8241 -0.4185 -0.2831
 8845SOL     OW37996   0.131   3.768  11.214 -0.4337  0.2396 -0.0139
 8845SOL    HW137997   0.156   3.676  11.206  0.1405  0.1599  2.7300
 8845SOL    HW237998   0.050   3.769  11.265  0.4381 -0.7701  1.4165
 8846SOL     OW37999   0.149   1.212   0.292 -0.5664  0.0846  0.0788
 8846SOL    HW138000   0.238   1.230   0.321 -1.2205 -0.9040  2.6234
 8846SOL    HW238001   0.151   1.238   0.200  1.5208  0.4939  0.2377
 8847SOL     OW38002   2.235   4.444   7.389  0.0760 -0.0914 -0.0755
 8847SOL    HW138003   2.274   4.397   7.316  0.9194 -1.1644  1.0666
 8847SOL    HW238004   2.160   4.490   7.350 -0.7986 -0.1304  1.5296
 8848SOL     OW38005   0.017   2.219   7.875  0.0676 -0.3568 -0.3251
 8848SOL    HW138006   0.025   2.200   7.969  1.9976 -1.3766 -0.6909
 8848SOL    HW238007   4.699   2.138   7.840 -0.7831  0.0683 -0.3483
 8849SOL     OW38008   0.765   2.464  12.375  0.4522 -0.2640 -0.1486
 8849SOL    HW138009   0.784   2.451  12.468  3.4369 -0.9719 -0.8751
 8849SOL    HW238010   0.802   2.385  12.338 -2.0350 -0.6821 -1.7977
 8850SOL     OW38011   1.680   3.001   4.296 -0.0119 -0.6473  0.2382
 8850SOL    HW138012   1.732   3.027   4.372 -0.6571  0.5508  0.2747
 8850SOL    HW238013   1.596   3.044   4.315  1.0248  0.5236  2.1899
 8851SOL     OW38014   4.693   0.420   6.534  0.0802  0.2401  0.0180
 8851SOL    HW138015   4.617   0.447   6.587  0.7892  0.8584  0.7216
 8851SOL    HW238016   4.662   0.422   6.443  1.2402 -0.1139 -0.3782
 8852SOL     OW38017   1.820   2.289   0.625 -0.1953 -0.1232  0.1837
 8852SOL    HW138018   1.894   2.296   0.686 -1.5686  1.0762  1.6836
 8852SOL    HW238019   1.835   2.204   0.583 -1.7009 -1.0293  1.5068
 8853SOL     OW38020   0.883   1.994   8.264 -0.3632 -0.2743 -0.4762
 8853SOL    HW138021   0.864   1.901   8.280  0.2749 -0.2572  0.3937
 8853SOL    HW238022   0.803   2.018   8.218  0.4799  1.3998 -1.0703
 8854SOL     OW38023   0.418   1.277   4.457 -0.3660  0.1247  0.2281
 8854SOL    HW138024   0.364   1.203   4.483 -1.6739  1.5628  1.6087
 8854SOL    HW238025   0.382   1.330   4.528 -4.9400 -0.6804 -1.5049
 8855SOL     OW38026   1.861   1.168  13.262  0.0001  0.3385 -0.6708
 8855SOL    HW138027   1.897   1.227  13.195  3.0343  0.0518  0.7186
 8855SOL    HW238028   1.916   1.194  13.336  0.1115  1.7399 -1.2484
 8856SOL     OW38029   3.162   0.001  14.393 -0.4091  0.0529  0.6119
 8856SOL    HW138030   3.197   0.054  14.465  1.4871 -0.2142 -0.1306
 8856SOL    HW238031   3.226   0.018  14.324  1.1430  3.7608  2.8938
 8857SOL     OW38032   4.319   2.061  12.639 -0.8104  0.2837  0.6421
 8857SOL    HW138033   4.345   1.991  12.579  2.3156  0.6756  1.4994
 8857SOL    HW238034   4.236   2.090  12.602  0.3342  2.3174 -0.3184
 8858SOL     OW38035   0.522   2.730  11.724 -0.4447 -0.2889  0.8494
 8858SOL    HW138036   0.559   2.808  11.684 -0.6748 -0.6649 -0.1131
 8858SOL    HW238037   0.487   2.769  11.804 -0.1087 -0.2184  0.9609
 8859SOL     OW38038   2.159   1.812   4.681 -0.2238  0.4709  0.3448
 8859SOL    HW138039   2.175   1.888   4.737  1.3057  1.1373 -1.0244
 8859SOL    HW238040   2.178   1.739   4.741  0.6643  1.8313  1.7305
 8860SOL     OW38041   1.236   1.696   7.482 -0.5719 -0.1845 -0.2817
 8860SOL    HW138042   1.290   1.622   7.456  2.8748  1.9405  0.9518
 8860SOL    HW238043   1.200   1.657   7.562  2.9662 -0.9141  0.9337
 8861SOL     OW38044   2.251   4.236   7.740 -0.1313  0.2569 -0.3176
 8861SOL    HW138045   2.324   4.248   7.801  0.5162 -2.2976 -0.5843
 8861SOL    HW238046   2.180   4.238   7.805 -1.0103  2.1871 -1.3315
 8862SOL     OW38047   1.788   3.696  16.411  0.5757 -0.1655 -0.5064
 8862SOL    HW138048   1.766   3.710  16.319  0.4895 -0.8153 -0.5789
 8862SOL    HW238049   1.865   3.641  16.400  0.2704 -0.5501 -0.7032
 8863SOL     OW38050   0.423   0.110   3.690 -0.5636  0.7283 -0.0474
 8863SOL    HW138051   0.480   0.034   3.695  0.1566  1.3295  1.0101
 8863SOL    HW238052   0.487   0.178   3.670  2.3607 -1.1274  3.0970
 8864SOL     OW38053   0.234   1.653   0.944 -0.0560  0.0027  0.3720
 8864SOL    HW138054   0.171   1.685   1.008 -0.3771 -1.0238  0.5621
 8864SOL    HW238055   0.301   1.722   0.941  0.4001 -0.3781  1.6877
 8865SOL     OW38056   3.348   1.425  14.302 -0.0280 -0.6153  1.1890
 8865SOL    HW138057   3.390   1.408  14.218 -1.3262  2.3901 -0.0893
 8865SOL    HW238058   3.294   1.349  14.321 -1.2153 -0.6984 -2.5361
 8866SOL     OW38059   1.314   1.621   1.794  0.2134 -0.0282  0.0474
 8866SOL    HW138060   1.342   1.693   1.738 -1.4837  2.0626  1.9444
 8866SOL    HW238061   1.377   1.553   1.772 -0.5010 -1.5134  2.5518
 8867SOL     OW38062   0.779   4.059   6.711  0.1125  0.2756 -0.4715
 8867SOL    HW138063   0.864   4.058   6.754  0.1449  0.5593 -0.5271
 8867SOL    HW238064   0.721   4.018   6.775  2.6235  1.4268  2.5328
 8868SOL     OW38065   3.722   1.605   2.209 -0.2352 -0.4871 -0.1289
 8868SOL    HW138066   3.790   1.599   2.142 -1.2486 -1.2292 -1.0828
 8868SOL    HW238067   3.763   1.616   2.295  1.1825  0.9894 -0.9933
 8869SOL     OW38068   4.611   1.630   7.798 -0.2594  0.0191 -1.0216
 8869SOL    HW138069   4.526   1.590   7.780 -0.4428 -0.7799  1.5571
 8869SOL    HW238070   4.583   1.699   7.859 -1.0265 -2.0211  0.9347
 8870SOL     OW38071   3.830   1.118   9.124  0.2262  0.1568 -0.7542
 8870SOL    HW138072   3.788   1.084   9.045 -0.9871 -1.8748  0.7718
 8870SOL    HW238073   3.809   1.211   9.120  0.1264  0.1632 -0.0717
 8871SOL     OW38074   2.364   4.476   2.524 -0.0092 -0.7745  0.9027
 8871SOL    HW138075   2.306   4.403   2.504 -1.3767  0.4183  0.4996
 8871SOL    HW238076   2.303   4.543   2.491  1.2940 -0.4576 -0.8541
 8872SOL     OW38077   3.666   3.279   8.305 -0.4939  0.4716  0.2076
 8872SOL    HW138078   3.747   3.230   8.289 -0.3243  0.8943 -0.2004
 8872SOL    HW238079   3.695   3.347   8.366  1.4834  0.4239 -0.6706
 8873SOL     OW38080   2.703   4.451   9.933 -0.0211  0.3221  0.4999
 8873SOL    HW138081   2.736   4.488   9.851  0.3548  2.2033  1.4828
 8873SOL    HW238082   2.668   4.527   9.979  0.1804  0.5547  0.2680
 8874SOL     OW38083   4.025   3.495   9.812  0.0615  0.8389  0.1672
 8874SOL    HW138084   4.095   3.545   9.853 -0.2088  0.1312  1.4998
 8874SOL    HW238085   3.979   3.573   9.781 -2.1096  0.0313  1.3358
 8875SOL     OW38086   4.506   0.470   3.812  0.0089 -0.5222 -0.0001
 8875SOL    HW138087   4.589   0.452   3.857 -1.9859  0.1156  3.9819
 8875SOL    HW238088   4.530   0.458   3.720 -2.0246 -3.0000 -0.2148
 8876SOL     OW38089   3.623   4.539   4.740 -0.7864  0.0343 -0.1672
 8876SOL    HW138090   3.641   4.495   4.823 -0.0966 -2.0836 -1.4367
 8876SOL    HW238091   3.681   4.489   4.683 -1.9075 -0.8102 -0.5785
 8877SOL     OW38092   4.640   0.037   8.574 -0.1937 -0.0800 -0.3314
 8877SOL    HW138093   4.566   4.701   8.596  1.4695 -2.5602 -1.1393
 8877SOL    HW238094   4.678   0.054   8.661 -1.5627  4.1280 -0.5742
 8878SOL     OW38095   3.091   1.006   0.912 -0.0162 -0.2905  0.0237
 8878SOL    HW138096   3.184   1.030   0.919 -0.4493  2.3166 -3.1327
 8878SOL    HW238097   3.054   1.020   0.999  0.9161 -1.0621  0.5461
 8879SOL     OW38098   0.875   1.970   4.927 -0.0274 -0.0223  0.0793
 8879SOL    HW138099   0.933   1.979   5.002 -0.1878  1.6317 -0.0071
 8879SOL    HW238100   0.929   1.922   4.864  0.2481  0.8489 -0.3386
 8880SOL     OW38101   1.803   3.965  17.596  0.4372  0.1701 -0.3237
 8880SOL    HW138102   1.829   4.056  17.608 -2.1748  0.9043 -0.1626
 8880SOL    HW238103   1.710   3.959  17.617  0.4769 -0.6855 -0.3698
 8881SOL     OW38104   1.228   4.057   6.490  0.3524  0.2848 -0.3906
 8881SOL    HW138105   1.161   3.993   6.512  0.0116  1.0846  0.9345
 8881SOL    HW238106   1.217   4.120   6.562 -2.8869 -0.3714 -0.3322
 8882SOL     OW38107   2.691   2.197   5.449 -0.1226 -0.6189 -0.2185
 8882SOL    HW138108   2.772   2.159   5.417 -0.9750 -3.0400  0.4356
 8882SOL    HW238109   2.641   2.120   5.478  0.2359  0.0348  2.1627
 8883SOL     OW38110   0.985   4.487  11.118  0.1700  0.2678 -0.2167
 8883SOL    HW138111   0.987   4.424  11.046  0.8029  3.1144 -2.6990
 8883SOL    HW238112   1.079   4.493  11.130  0.4864 -0.8575 -2.1411
 8884SOL     OW38113   2.373   0.229   8.757 -0.4273  1.0001 -0.1560
 8884SOL    HW138114   2.290   0.258   8.717 -0.2538  1.9364  0.1638
 8884SOL    HW238115   2.387   0.165   8.688  0.1453  0.0997  0.8135
 8885SOL     OW38116   0.747   0.518  14.395  0.1497 -0.2475  0.3900
 8885SOL    HW138117   0.700   0.440  14.424 -0.5831 -0.5240 -1.5301
 8885SOL    HW238118   0.824   0.510  14.451  1.4387  0.9862 -1.2255
 8886SOL     OW38119   1.707   2.167   3.171 -0.2436  0.1670 -0.3652
 8886SOL    HW138120   1.760   2.228   3.222 -0.2468  0.7063 -1.0070
 8886SOL    HW238121   1.719   2.089   3.225  3.5990  0.7669 -0.3690
 8887SOL     OW38122   1.245   3.906   9.071 -0.3451  0.1194 -0.6641
 8887SOL    HW138123   1.192   3.981   9.044 -0.9259 -0.4884 -1.2200
 8887SOL    HW238124   1.273   3.870   8.987  1.5902 -0.9358  0.4256
 8888SOL     OW38125   4.195   1.421   1.412 -0.7724 -0.0131  0.0289
 8888SOL    HW138126   4.153   1.436   1.327  0.6322 -0.3611 -0.7409
 8888SOL    HW238127   4.128   1.376   1.463 -0.0613 -0.9865  0.1144
 8889SOL     OW38128   1.823   0.799  11.741 -0.2415  0.5564  0.4328
 8889SOL    HW138129   1.817   0.805  11.837  0.6573 -4.1255  0.7752
 8889SOL    HW238130   1.885   0.727  11.729  1.3718  1.9507  0.3970
 8890SOL     OW38131   4.601   3.002  10.540 -0.1465 -0.2161  0.1979
 8890SOL    HW138132   4.534   3.047  10.489 -0.2371 -0.9260 -0.3036
 8890SOL    HW238133   4.570   3.045  10.620  3.6266 -0.0853  1.5504
 8891SOL     OW38134   1.461   3.554   4.081 -0.2230  0.1717 -0.0592
 8891SOL    HW138135   1.479   3.636   4.034  1.0218  0.8408  1.5728
 8891SOL    HW238136   1.509   3.575   4.162 -0.0615 -1.7064  0.3350
 8892SOL     OW38137   2.425   1.831  16.382  0.4251 -0.2229  0.0494
 8892SOL    HW138138   2.371   1.906  16.406  1.3305  0.4014  0.1471
 8892SOL    HW238139   2.504   1.838  16.436 -0.1150  2.2996  0.5197
 8893SOL     OW38140   2.810   4.652  16.558  0.1206  0.0041 -0.7352
 8893SOL    HW138141   2.747   4.712  16.517  0.5063 -0.5302 -2.0955
 8893SOL    HW238142   2.857   4.714  16.613 -1.4449  0.6857 -0.1561
 8894SOL     OW38143   2.191   1.306   5.309 -0.0303 -0.4238 -0.0389
 8894SOL    HW138144   2.216   1.215   5.296  0.3599 -0.5210  1.3269
 8894SOL    HW238145   2.101   1.305   5.276  0.6700 -2.6704 -1.8603
 8895SOL     OW38146   0.696   2.390   7.036  0.2024 -0.9536  0.3450
 8895SOL    HW138147   0.707   2.475   6.993 -2.5226  0.8043  3.1280
 8895SOL    HW238148   0.724   2.334   6.963  1.0000  1.7732 -1.4694
 8896SOL     OW38149   2.040   1.116   1.193 -0.2035  0.0915 -0.4332
 8896SOL    HW138150   1.972   1.050   1.178  0.0910 -0.2710 -0.1865
 8896SOL    HW238151   2.099   1.062   1.246 -0.7857  1.3206  1.4876
 8897SOL     OW38152   2.529   2.111  11.843  0.5245 -0.6166 -0.5336
 8897SOL    HW138153   2.580   2.148  11.916 -0.4429  0.1369 -0.2426
 8897SOL    HW238154   2.522   2.019  11.866  1.1586  0.2204  3.0461
 8898SOL     OW38155   3.775   2.981   2.523  0.3480  0.0051  0.2017
 8898SOL    HW138156   3.866   2.977   2.494  0.5333  1.7713  0.5526
 8898SOL    HW238157   3.757   2.888   2.541 -1.2288 -0.4487 -3.6690
 8899SOL     OW38158   0.416   4.223   1.172  0.0097 -0.8037  0.7075
 8899SOL    HW138159   0.469   4.282   1.226  0.3172  0.7872 -1.3530
 8899SOL    HW238160   0.331   4.222   1.216  0.0995 -1.4894  0.8720
 8900SOL     OW38161   4.687   1.237   2.409  0.1010 -0.0143 -0.4740
 8900SOL    HW138162   4.655   1.324   2.436 -0.7682 -1.0090  1.7293
 8900SOL    HW238163   4.707   1.251   2.317 -0.7726 -1.1143 -0.8323
 8901SOL     OW38164   2.256   4.593   7.850  0.3572 -0.2517  0.0710
 8901SOL    HW138165   2.240   4.501   7.867 -1.1587  0.1853  1.0334
 8901SOL    HW238166   2.171   4.631   7.872  0.1684 -1.7296  1.8372
 8902SOL     OW38167   3.126   3.329   3.554  0.2092  0.1718  0.0339
 8902SOL    HW138168   3.163   3.292   3.634  0.7641 -2.2421 -1.3212
 8902SOL    HW238169   3.184   3.289   3.489 -1.6847 -0.8802 -0.9879
 8903SOL     OW38170   2.426   3.111   4.625  0.2756 -0.3686 -0.2952
 8903SOL    HW138171   2.464   3.024   4.637  0.4066  0.0909  2.7920
 8903SOL    HW238172   2.357   3.126   4.689  0.9476  0.9190  0.1264
 8904SOL     OW38173   2.035   3.543   9.210  0.5083  0.5016  0.2204
 8904SOL    HW138174   2.023   3.601   9.135 -0.8572 -1.4614 -1.1074
 8904SOL    HW238175   2.098   3.478   9.177  2.6387  3.3207 -1.2321
 8905SOL     OW38176   1.900   0.381   7.355  0.4032  0.3012 -0.2428
 8905SOL    HW138177   1.945   0.455   7.314 -0.7252  1.0195 -0.1876
 8905SOL    HW238178   1.950   0.309   7.316 -0.2107  0.6715 -1.7243
 8906SOL     OW38179   4.527   3.926   3.978  0.1221 -0.5287  0.1284
 8906SOL    HW138180   4.507   3.864   3.907 -3.4056  0.1643  0.5158
 8906SOL    HW238181   4.562   4.002   3.931 -1.7982 -1.1547 -2.3244
 8907SOL     OW38182   1.557   3.982   4.688 -0.6514 -0.3821  0.6052
 8907SOL    HW138183   1.550   3.940   4.774  0.5560  1.3729  1.5463
 8907SOL    HW238184   1.640   3.954   4.651 -1.2819 -1.8973  0.3225
 8908SOL     OW38185   1.727   0.332   1.909 -0.4738 -0.2292 -0.0567
 8908SOL    HW138186   1.687   0.394   1.970  1.7228  0.3627  0.7697
 8908SOL    HW238187   1.691   0.252   1.946 -0.4661 -0.0645  0.3061
 8909SOL     OW38188   3.559   1.365   6.933 -0.3142  0.2474 -0.4823
 8909SOL    HW138189   3.637   1.409   6.900  0.2487 -1.8853 -1.9471
 8909SOL    HW238190   3.539   1.321   6.851  0.6932  1.6813 -1.5018
 8910SOL     OW38191   4.040   1.489   2.600 -0.1032 -0.0047  0.5207
 8910SOL    HW138192   4.058   1.488   2.506 -0.4234  0.4354  0.4586
 8910SOL    HW238193   4.128   1.470   2.632  0.6802  0.5229 -1.3621
 8911SOL     OW38194   4.437   0.722   3.872  0.2210  0.1196 -0.0673
 8911SOL    HW138195   4.460   0.632   3.850  1.3626  0.1878  0.8189
 8911SOL    HW238196   4.522   0.757   3.898  0.8473 -1.1746 -0.3465
 8912SOL     OW38197   2.184   3.383   3.328  0.6880 -0.2841  0.0917
 8912SOL    HW138198   2.158   3.468   3.292  1.5278 -0.9112 -1.9864
 8912SOL    HW238199   2.101   3.337   3.316  0.8221 -0.5791  0.3016
 8913SOL     OW38200   0.136   3.651  13.344  0.7158 -0.8787 -0.6343
 8913SOL    HW138201   0.149   3.664  13.251 -0.9247 -3.1469 -1.2114
 8913SOL    HW238202   0.042   3.666  13.354  0.7160 -0.0628 -1.9056
 8914SOL     OW38203   2.009   3.104   8.819  0.1241  0.3068  0.4673
 8914SOL    HW138204   2.028   3.151   8.737  0.2010 -0.1484  0.2247
 8914SOL    HW238205   2.039   3.016   8.796  3.3500  1.0001  2.0658
 8915SOL     OW38206   1.074   0.542  10.118 -0.2029  0.3154 -0.5226
 8915SOL    HW138207   0.979   0.547  10.123 -0.2733 -0.6177 -1.0529
 8915SOL    HW238208   1.077   0.464  10.064  1.9131 -0.2114  0.3363
 8916SOL     OW38209   1.363   0.886   2.593 -0.2885 -0.1089 -0.3608
 8916SOL    HW138210   1.268   0.897   2.588 -0.4643 -0.7328  1.7726
 8916SOL    HW238211   1.371   0.808   2.648 -1.0864  0.1671  0.1381
 8917SOL     OW38212   4.547   2.091   2.463  0.6266 -0.4867 -0.5758
 8917SOL    HW138213   4.456   2.119   2.470  0.3867 -0.8231 -2.3227
 8917SOL    HW238214   4.553   2.030   2.537  1.2870 -0.0023 -0.2271
 8918SOL     OW38215   2.038   1.618   6.263  0.2307 -0.4729 -0.3619
 8918SOL    HW138216   1.966   1.554   6.266 -0.2537  0.0625 -0.5052
 8918SOL    HW238217   2.011   1.668   6.185 -1.1036  0.1339  0.4770
 8919SOL     OW38218   2.828   4.557   3.144  0.4408 -0.1534 -0.5737
 8919SOL    HW138219   2.866   4.576   3.058 -1.5793 -0.1387 -1.4641
 8919SOL    HW238220   2.807   4.464   3.139  2.8715 -0.6596 -1.2087
 8920SOL     OW38221   4.325   2.259   9.845 -0.0075  0.4429 -0.3650
 8920SOL    HW138222   4.255   2.324   9.843  1.3728  1.8570 -2.9808
 8920SOL    HW238223   4.408   2.307   9.845  0.5061 -0.4022 -3.4280
 8921SOL     OW38224   0.303   0.222  15.756  0.3539  0.3036  0.2768
 8921SOL    HW138225   0.228   0.278  15.778 -1.4149 -1.8568 -0.2550
 8921SOL    HW238226   0.379   0.247  15.808 -1.3044  1.5046  2.1469
 8922SOL     OW38227   2.886   1.453   8.813 -0.3531  0.3335 -0.2776
 8922SOL    HW138228   2.860   1.361   8.810  0.1718  0.2045 -0.6977
 8922SOL    HW238229   2.841   1.481   8.893  1.2936  0.1538  0.6971
 8923SOL     OW38230   2.333   2.291   2.590 -0.0865 -0.1386  0.3039
 8923SOL    HW138231   2.419   2.275   2.628  0.1473  1.4380  0.4401
 8923SOL    HW238232   2.360   2.280   2.499  0.0604  0.5693  0.2658
 8924SOL     OW38233   0.531   3.300  11.057 -0.1142 -0.2174 -0.1955
 8924SOL    HW138234   0.470   3.263  10.994 -0.6121  0.4678 -0.1174
 8924SOL    HW238235   0.577   3.369  11.009  0.1616 -0.8923 -0.8964
 8925SOL     OW38236   3.405   3.011   6.011  0.0410 -0.1485  0.3655
 8925SOL    HW138237   3.360   3.084   6.053 -0.9990 -1.1959  1.0828
 8925SOL    HW238238   3.486   3.023   6.060 -0.6158 -1.4695  1.7712
 8926SOL     OW38239   3.767   1.416  12.017  0.3819 -0.1505  0.2899
 8926SOL    HW138240   3.811   1.464  11.947 -1.7338  3.7824  1.6514
 8926SOL    HW238241   3.833   1.348  12.033  0.2249  0.2049  2.5375
 8927SOL     OW38242   1.437   2.012  13.110  0.3089  0.1167  0.5994
 8927SOL    HW138243   1.507   1.948  13.097  1.6969  1.6605  0.4799
 8927SOL    HW238244   1.414   2.023  13.018  0.6656  0.4273  0.5509
 8928SOL     OW38245   3.273   4.021   6.178  0.0879 -0.3086  0.0087
 8928SOL    HW138246   3.334   3.949   6.189  0.8949 -0.0214 -2.4640
 8928SOL    HW238247   3.253   4.035   6.270 -3.3933 -3.9003 -0.2005
 8929SOL     OW38248   2.011   4.708   0.905 -0.2395  0.1339  0.0935
 8929SOL    HW138249   2.013   4.689   0.999 -0.1781 -0.2734  0.0108
 8929SOL    HW238250   1.967   0.071   0.913  0.3593  0.3966  0.6454
 8930SOL     OW38251   2.788   0.058   1.882 -0.7798  0.7494  0.9011
 8930SOL    HW138252   2.822   4.691   1.895  0.0514  0.8360 -0.6963
 8930SOL    HW238253   2.852   0.094   1.821 -0.1016  0.6549  1.5561
 8931SOL     OW38254   1.260   3.090   1.235 -0.8520 -0.2762  0.5537
 8931SOL    HW138255   1.295   3.028   1.171  2.3029  1.9594  0.1388
 8931SOL    HW238256   1.180   3.048   1.269 -1.0743  0.1069  0.5049
 8932SOL     OW38257   1.542   1.522   2.136 -0.8029 -0.2655 -0.2376
 8932SOL    HW138258   1.563   1.602   2.088 -1.8423 -0.3582 -0.8700
 8932SOL    HW238259   1.473   1.549   2.197  0.5859  2.3396  0.1563
 8933SOL     OW38260   1.937   0.298  17.603  0.3095 -0.3030 -0.2116
 8933SOL    HW138261   1.961   0.275   0.006  2.5376  0.3406 -0.6444
 8933SOL    HW238262   1.854   0.345  17.618  1.2373  1.8346 -1.8548
 8934SOL     OW38263   3.272   0.507   0.389  0.1848  1.0781 -0.0065
 8934SOL    HW138264   3.313   0.592   0.373  0.3330  1.1996  0.9950
 8934SOL    HW238265   3.308   0.491   0.477  0.1443  4.3438  0.5880
 8935SOL     OW38266   3.784   3.151   5.312  0.1406 -0.3576 -0.4750
 8935SOL    HW138267   3.754   3.097   5.384  1.4450 -0.1205  0.2531
 8935SOL    HW238268   3.860   3.179   5.363 -0.6475 -1.2344  1.1670
 8936SOL     OW38269   1.612   1.585   2.507 -0.0399  0.0973  0.3557
 8936SOL    HW138270   1.679   1.639   2.464  2.7249 -2.8759  0.8839
 8936SOL    HW238271   1.544   1.593   2.441 -1.3290  1.7023  1.8689
 8937SOL     OW38272   2.274   3.811  12.587 -0.3158 -0.8329  0.1301
 8937SOL    HW138273   2.233   3.883  12.635 -0.1318 -1.2427  0.9046
 8937SOL    HW238274   2.363   3.845  12.581 -1.0007  1.0737  0.7820
 8938SOL     OW38275   0.520   3.862   4.743  0.1814 -0.8157 -0.6881
 8938SOL    HW138276   0.569   3.832   4.667  3.1281  0.0193  0.9002
 8938SOL    HW238277   0.493   3.951   4.718 -3.5984 -1.3989  1.3647
 8939SOL     OW38278   4.505   1.538   9.653 -0.4840  0.2909 -0.1839
 8939SOL    HW138279   4.545   1.585   9.727 -0.7203 -2.6230  1.8101
 8939SOL    HW238280   4.434   1.597   9.626  0.2630  0.1527 -2.4026
 8940SOL     OW38281   0.641   1.671   9.881  0.4633 -0.3857 -0.1331
 8940SOL    HW138282   0.678   1.745   9.930  0.1200  0.0608 -0.5480
 8940SOL    HW238283   0.719   1.619   9.861 -0.2504 -2.0970  1.5079
 8941SOL     OW38284   2.904   2.543   8.559 -0.1481 -0.1127  0.3701
 8941SOL    HW138285   2.923   2.593   8.638 -0.1479 -1.2771  1.1158
 8941SOL    HW238286   2.868   2.461   8.593  1.5845 -0.5915  1.0929
 8942SOL     OW38287   4.552   0.313  13.741  0.1907 -0.2376  0.2012
 8942SOL    HW138288   4.486   0.268  13.793  0.5843  0.6431  1.4495
 8942SOL    HW238289   4.495   0.336  13.667  1.1673  4.1640  0.7890
 8943SOL     OW38290   3.924   3.287   2.264  0.6674 -0.1781 -0.5918
 8943SOL    HW138291   3.967   3.336   2.194 -1.7834  1.5508 -0.8690
 8943SOL    HW238292   3.842   3.336   2.258  0.0968 -1.0293  0.3087
 8944SOL     OW38293   2.400   1.077   9.161  0.1750 -0.1137  0.3966
 8944SOL    HW138294   2.440   1.059   9.076 -1.2720  1.6381 -0.6513
 8944SOL    HW238295   2.472   1.122   9.206 -0.0088 -0.0884  0.6647
 8945SOL     OW38296   1.737   4.254   7.114 -0.0630  0.3439 -0.1261
 8945SOL    HW138297   1.683   4.330   7.094  0.0248 -0.0568 -1.8960
 8945SOL    HW238298   1.788   4.249   7.033 -1.4718  0.2388 -0.9987
 8946SOL     OW38299   4.528   3.755   3.302 -0.0793 -0.0958 -0.4474
 8946SOL    HW138300   4.506   3.791   3.388 -0.6961 -1.3636 -0.0783
 8946SOL    HW238301   4.604   3.809   3.281  0.0974 -0.0154  0.4156
 8947SOL     OW38302   1.919   3.031  17.251  0.3614 -0.2335 -0.1481
 8947SOL    HW138303   1.895   3.090  17.180 -0.0107 -1.0298 -0.6854
 8947SOL    HW238304   1.967   3.091  17.308  1.5950 -0.4774 -0.9421
 8948SOL     OW38305   0.192   1.868   1.529  0.2959 -0.2334  0.5186
 8948SOL    HW138306   0.152   1.919   1.459 -2.5307 -1.3722  1.2993
 8948SOL    HW238307   0.177   1.926   1.604 -1.8116  0.6842 -0.6239
 8949SOL     OW38308   3.193   2.432   8.907  0.1134  0.0241  0.0744
 8949SOL    HW138309   3.135   2.411   8.980 -0.2281  2.6605  0.5460
 8949SOL    HW238310   3.187   2.351   8.855 -1.6743 -0.7440  1.5114
 8950SOL     OW38311   2.817   1.988   2.995 -0.1318  0.3068 -0.0714
 8950SOL    HW138312   2.809   1.914   2.935 -1.2245 -0.7884  1.4351
 8950SOL    HW238313   2.838   2.055   2.929  1.3591  0.2314  0.3290
 8951SOL     OW38314   3.906   1.957  11.028  0.4248 -0.7593  0.3699
 8951SOL    HW138315   3.902   1.863  11.009 -1.9879 -0.7743  0.8808
 8951SOL    HW238316   3.870   1.961  11.116 -0.4153  0.9670 -0.0438
 8952SOL     OW38317   0.563   3.353   1.935  0.4662 -0.3125 -0.0613
 8952SOL    HW138318   0.596   3.347   1.846  0.5456  0.6065 -0.1005
 8952SOL    HW238319   0.567   3.266   1.974  0.2876 -0.4942 -0.4494
 8953SOL     OW38320   1.176   4.698   7.293 -0.0432 -0.0501  0.4010
 8953SOL    HW138321   1.100   4.701   7.234  0.2950  1.4987  0.0390
 8953SOL    HW238322   1.135   4.635   7.351 -0.5838  0.4993  0.6184
 8954SOL     OW38323   4.570   1.550   9.337  0.3214  0.4519 -0.3460
 8954SOL    HW138324   4.517   1.554   9.417 -0.9627  2.1608 -1.2971
 8954SOL    HW238325   4.514   1.593   9.273  0.8897 -1.4650 -2.1150
 8955SOL     OW38326   3.399   2.793  14.546 -0.2410  0.5272  0.0716
 8955SOL    HW138327   3.426   2.732  14.478 -1.7752 -0.5458  0.4210
 8955SOL    HW238328   3.470   2.857  14.536 -0.9403  0.9228 -2.1845
 8956SOL     OW38329   2.532   2.592   5.315  0.0530  0.0029 -0.4429
 8956SOL    HW138330   2.523   2.511   5.266  1.7392  0.2273 -1.1252
 8956SOL    HW238331   2.555   2.558   5.402 -1.1177 -0.1077 -0.1731
 8957SOL     OW38332   4.654   0.231   6.279  0.3492 -0.1402  0.0857
 8957SOL    HW138333   4.620   0.319   6.295  1.5279  0.3703 -0.2262
 8957SOL    HW238334   4.634   0.184   6.360 -0.6760 -2.3694 -1.4819
 8958SOL     OW38335   0.823   4.434   0.038 -0.6296  0.2657 -0.4248
 8958SOL    HW138336   0.897   4.481   0.077 -0.0451 -0.1129 -1.0631
 8958SOL    HW238337   0.794   4.375   0.107  0.7897 -0.6432 -0.6012
 8959SOL     OW38338   2.202   1.962  12.709  0.9718  0.0879 -0.4218
 8959SOL    HW138339   2.256   2.009  12.773  0.2782 -0.4243  0.5495
 8959SOL    HW238340   2.209   2.019  12.633  0.2885  0.3145 -0.3185
 8960SOL     OW38341   2.973   1.944   8.328  0.0364  0.1621  0.2439
 8960SOL    HW138342   3.003   1.991   8.250  0.0080  1.7182  1.1683
 8960SOL    HW238343   3.022   1.862   8.330  0.8398  0.6445  0.1005
 8961SOL     OW38344   4.703   1.691   1.154 -0.4970  0.1847  0.2694
 8961SOL    HW138345   4.704   1.661   1.245 -0.9396  0.2829  0.3077
 8961SOL    HW238346   4.672   1.609   1.116  0.6265 -0.4988  0.8368
 8962SOL     OW38347   1.415   0.541   7.354  0.4442  0.1715  0.5232
 8962SOL    HW138348   1.326   0.506   7.359  0.1338  1.0597  1.3221
 8962SOL    HW238349   1.457   0.482   7.417  0.1674  0.2279  0.7608
 8963SOL     OW38350   0.029   0.551  13.856  0.7069 -0.2902  0.2000
 8963SOL    HW138351   0.044   0.535  13.949 -1.6164 -1.6170  0.3371
 8963SOL    HW238352   4.676   0.492  13.840  1.1257 -0.6258 -0.5168
 8964SOL     OW38353   2.242   3.471  10.701 -0.1721 -0.5406  0.2468
 8964SOL    HW138354   2.230   3.379  10.679  2.8939 -1.1590  1.1386
 8964SOL    HW238355   2.292   3.458  10.782 -0.2361  0.2980  0.4237
 8965SOL     OW38356   0.625   3.746   4.969  0.6848 -0.2360 -0.0263
 8965SOL    HW138357   0.610   3.767   4.877 -1.2931 -2.7668 -0.2728
 8965SOL    HW238358   0.707   3.696   4.969  0.3159 -0.8487  1.1169
 8966SOL     OW38359   4.412   3.200   7.876  0.1811  0.1157  0.0026
 8966SOL    HW138360   4.384   3.192   7.968  0.5221  1.0216  0.1853
 8966SOL    HW238361   4.372   3.119   7.843  0.4749  0.7339 -1.8158
 8967SOL     OW38362   3.522   1.113  13.355 -0.1176 -0.6434 -0.3467
 8967SOL    HW138363   3.573   1.033  13.342  0.2791 -0.4260 -0.1045
 8967SOL    HW238364   3.457   1.082  13.419  0.7224  1.4386  1.5034
 8968SOL     OW38365   0.959   1.068   8.249  0.3028 -0.1080 -0.1224
 8968SOL    HW138366   1.040   1.044   8.294  0.3334 -2.5330 -1.4591
 8968SOL    HW238367   0.986   1.090   8.160 -0.2636  1.5824  0.1225
 8969SOL     OW38368   0.560   2.133   7.372 -0.1714 -0.3096  0.1880
 8969SOL    HW138369   0.516   2.064   7.322  0.8229 -1.2053  0.5690
 8969SOL    HW238370   0.628   2.164   7.312  0.5402  0.9249  1.6143
 8970SOL     OW38371   1.757   3.790   7.159 -0.4422  0.5918  0.2210
 8970SOL    HW138372   1.679   3.802   7.214 -0.6206 -0.4610  0.2096
 8970SOL    HW238373   1.769   3.870   7.108  0.5255  1.0289  1.1426
 8971SOL     OW38374   1.097   4.605  11.766 -0.5595  0.3883  0.1584
 8971SOL    HW138375   1.161   4.597  11.837 -0.6428 -0.9321  0.0848
 8971SOL    HW238376   1.160   4.636  11.701 -0.1026  0.6431  0.7212
 8972SOL     OW38377   1.931   3.134   6.620 -0.2630 -0.6873 -0.4057
 8972SOL    HW138378   1.871   3.205   6.597  1.8247  1.0211 -0.6142
 8972SOL    HW238379   2.017   3.150   6.581  0.7212  1.3957  2.5956
 8973SOL     OW38380   2.933   2.896   1.815  0.2787 -0.3028  0.1048
 8973SOL    HW138381   2.872   2.889   1.889  0.9955 -2.7902  0.4466
 8973SOL    HW238382   2.913   2.981   1.775 -0.4222 -1.4489 -1.9974
 8974SOL     OW38383   2.441   4.092   4.508  0.5663 -0.9449 -0.1234
 8974SOL    HW138384   2.501   4.092   4.434  0.2724  0.5967 -0.3605
 8974SOL    HW238385   2.482   4.035   4.574  1.1167 -1.7835 -1.1916
 8975SOL     OW38386   4.057   1.749   7.946  0.1921 -0.0751 -0.8335
 8975SOL    HW138387   3.964   1.728   7.940  0.8468 -2.8554 -1.0838
 8975SOL    HW238388   4.051   1.844   7.936  0.2288 -0.1453 -1.4917
 8976SOL     OW38389   2.788   4.133   8.284 -0.1212  0.1531 -0.2151
 8976SOL    HW138390   2.845   4.057   8.284 -0.8467 -0.3913  0.3985
 8976SOL    HW238391   2.831   4.174   8.359 -0.1342  0.9905 -0.6624
 8977SOL     OW38392   3.645   0.399   6.546 -0.0456  0.1099 -0.4352
 8977SOL    HW138393   3.732   0.369   6.523  0.1276 -2.8610  4.0254
 8977SOL    HW238394   3.668   0.454   6.621  1.0919 -1.8650  0.6698
 8978SOL     OW38395   4.202   2.205   5.033 -0.9668  0.2598  0.2064
 8978SOL    HW138396   4.164   2.167   4.954  0.1130  0.4349 -0.3947
 8978SOL    HW238397   4.149   2.284   5.028 -1.2676  0.0194 -0.3891
 8979SOL     OW38398   4.110   1.795  15.238  0.5208 -0.8210  0.2436
 8979SOL    HW138399   4.087   1.744  15.316  0.7436 -1.6146 -0.2156
 8979SOL    HW238400   4.177   1.736  15.204  0.9932 -0.1853  0.0550
 8980SOL     OW38401   0.120   1.875   4.688 -0.3947 -0.2218  0.6640
 8980SOL    HW138402   0.088   1.918   4.767 -1.5408 -0.3422  0.2623
 8980SOL    HW238403   0.210   1.896   4.710 -0.3913 -2.1123  2.4187
 8981SOL     OW38404   4.579   2.267  16.541 -0.2198 -0.0747  0.4704
 8981SOL    HW138405   4.554   2.330  16.473 -0.0225  0.1602  0.6137
 8981SOL    HW238406   4.666   2.299  16.567  0.3371 -2.5875  1.6915
 8982SOL     OW38407   2.958   4.421   9.555  0.4098 -0.0609 -0.2111
 8982SOL    HW138408   2.890   4.365   9.517 -1.8668  2.2096  0.5551
 8982SOL    HW238409   2.929   4.508   9.529 -1.8913 -0.3795  1.2653
 8983SOL     OW38410   2.747   3.221   7.555 -0.6020 -0.0683 -0.1459
 8983SOL    HW138411   2.810   3.285   7.523  0.2542 -1.1222 -0.5695
 8983SOL    HW238412   2.778   3.145   7.504 -0.3023  1.0431 -1.6161
 8984SOL     OW38413   0.861   1.978   7.216 -0.8843 -0.0345  0.1430
 8984SOL    HW138414   0.876   1.946   7.304 -0.6606  1.3236  0.6086
 8984SOL    HW238415   0.847   2.073   7.224 -0.0308  0.1537 -0.5344
 8985SOL     OW38416   0.355   3.149   4.173 -0.1968 -0.1353 -0.4684
 8985SOL    HW138417   0.424   3.082   4.170 -1.2697 -1.3776  2.7621
 8985SOL    HW238418   0.357   3.186   4.085 -0.8998 -0.0086 -0.4271
 8986SOL     OW38419   4.342   0.335   3.151  0.3829 -0.2198 -0.3640
 8986SOL    HW138420   4.423   0.312   3.196  0.9319  0.9246 -0.7749
 8986SOL    HW238421   4.300   0.379   3.225 -2.8958 -1.2677 -1.6106
 8987SOL     OW38422   0.376   4.439  10.769 -0.1604  0.3663  0.7033
 8987SOL    HW138423   0.371   4.491  10.849  2.4385  4.9239 -2.1087
 8987SOL    HW238424   0.366   4.510  10.705  1.9447 -1.7695 -1.9995
 8988SOL     OW38425   0.855   2.066   0.822  0.0461 -0.2344  0.0886
 8988SOL    HW138426   0.852   1.991   0.763  0.0493  0.1906 -0.4532
 8988SOL    HW238427   0.826   2.139   0.768 -0.0027  2.4144  3.6691
 8989SOL     OW38428   0.019   0.160   0.231  0.3412  0.1802 -0.0714
 8989SOL    HW138429   0.043   0.068   0.231  0.1960  0.1400  1.4202
 8989SOL    HW238430   0.090   0.198   0.282 -1.2280  2.4096  0.4946
 8990SOL     OW38431   1.633   2.852  12.138 -0.0104  0.6699  0.6091
 8990SOL    HW138432   1.543   2.838  12.168  0.7507 -0.1511  2.5337
 8990SOL    HW238433   1.618   2.890  12.052  1.4724 -1.9791 -0.7910
 8991SOL     OW38434   1.640   1.033   2.093 -0.1507 -0.2228 -0.1060
 8991SOL    HW138435   1.574   1.101   2.084 -0.3005 -0.2682  0.6676
 8991SOL    HW238436   1.679   1.040   2.005 -0.7656  0.4895 -0.3223
 8992SOL     OW38437   2.800   2.064   4.901 -0.0603 -0.1577  0.5003
 8992SOL    HW138438   2.744   2.139   4.882 -0.3157 -0.2704  0.8269
 8992SOL    HW238439   2.759   1.991   4.855 -0.8874  1.4785 -1.3819
 8993SOL     OW38440   2.459   4.591  14.070 -0.1730  0.3348 -0.7535
 8993SOL    HW138441   2.540   4.640  14.054  0.1315  0.0390 -0.1257
 8993SOL    HW238442   2.470   4.577  14.164  0.4461  0.6952 -0.7761
 8994SOL     OW38443   3.858   1.368   4.659 -0.4907  0.2496 -0.4549
 8994SOL    HW138444   3.879   1.275   4.654 -0.2093  0.2825  0.1216
 8994SOL    HW238445   3.814   1.390   4.577  0.3121  2.1535 -0.3831
 8995SOL     OW38446   1.521   0.019   6.232  0.1778 -0.0751  0.2746
 8995SOL    HW138447   1.589   0.005   6.298 -0.9536 -0.0106  1.4634
 8995SOL    HW238448   1.477   0.098   6.263  0.9257  0.6445 -0.5142
 8996SOL     OW38449   4.357   4.584   3.849  0.1069 -0.2013  0.5461
 8996SOL    HW138450   4.306   4.613   3.925 -0.9615 -0.0913 -0.2100
 8996SOL    HW238451   4.430   4.536   3.888  1.6948  1.2644 -0.6428
 8997SOL     OW38452   0.450   0.958  13.268 -0.0262  0.4164 -0.1659
 8997SOL    HW138453   0.503   0.987  13.194  0.6849  2.1882  1.0328
 8997SOL    HW238454   0.492   1.001  13.342  1.2440  0.5133 -0.9567
 8998SOL     OW38455   0.620   4.327  14.993 -0.3580  0.1955 -0.3443
 8998SOL    HW138456   0.665   4.374  14.922 -1.1976  1.4778 -0.0392
 8998SOL    HW238457   0.697   4.317  15.047 -1.9684  0.5016  1.9972
 8999SOL     OW38458   2.185   4.605   2.384 -0.4177 -0.0094  0.1291
 8999SOL    HW138459   2.238   4.642   2.314  1.4508  0.4428  1.7857
 8999SOL    HW238460   2.128   4.677   2.408 -0.0298  0.2898  0.1488
 9000SOL     OW38461   2.287   2.883   8.411 -0.2280 -0.4075  0.7698
 9000SOL    HW138462   2.232   2.827   8.355 -1.4888 -0.1932  1.7849
 9000SOL    HW238463   2.290   2.965   8.360 -2.1363 -0.5229  0.4621
 9001SOL     OW38464   0.959   0.407   5.406  0.1421 -0.0908  0.1005
 9001SOL    HW138465   0.866   0.382   5.413  0.5318 -1.7561 -0.6848
 9001SOL    HW238466   0.953   0.498   5.436  0.4960  1.2421 -3.9238
 9002SOL     OW38467   3.399   4.121   7.524 -0.0897  0.2266  0.2209
 9002SOL    HW138468   3.361   4.107   7.437 -0.8446  1.8601  0.2932
 9002SOL    HW238469   3.451   4.041   7.535  1.2323  1.2648  1.5405
 9003SOL     OW38470   0.444   0.691   8.446  0.1938  0.0088 -0.3298
 9003SOL    HW138471   0.401   0.619   8.401 -1.4220  1.3266 -0.9020
 9003SOL    HW238472   0.463   0.746   8.371 -0.4918 -0.7426 -1.0542
 9004SOL     OW38473   0.236   4.380  16.319 -0.1279 -0.2229  0.1345
 9004SOL    HW138474   0.166   4.420  16.370 -1.2111 -2.6514  0.5956
 9004SOL    HW238475   0.181   4.339  16.252 -0.5417  1.3244 -0.4509
 9005SOL     OW38476   0.669   2.939   6.717  0.8278  0.1085 -0.0129
 9005SOL    HW138477   0.678   2.996   6.794  1.3011 -0.7778  0.5804
 9005SOL    HW238478   0.760   2.925   6.690  0.3049 -4.2014  0.5181
 9006SOL     OW38479   4.261   2.967  12.151 -0.2246  0.4102 -0.5488
 9006SOL    HW138480   4.237   3.044  12.201  0.4190  0.3534 -0.1542
 9006SOL    HW238481   4.320   2.998  12.083 -1.3278  0.1896 -1.6011
 9007SOL     OW38482   1.483   0.282   2.409 -0.3284  0.6504 -0.0990
 9007SOL    HW138483   1.558   0.268   2.350 -2.4312 -2.7460 -2.0092
 9007SOL    HW238484   1.496   0.231   2.489 -0.1190  0.8152 -0.0285
 9008SOL     OW38485   0.383   1.416   7.162  0.3511 -0.1949 -0.0377
 9008SOL    HW138486   0.385   1.354   7.089 -0.3160 -1.1884  0.7935
 9008SOL    HW238487   0.472   1.402   7.195  0.6144  0.2562 -0.5651
 9009SOL     OW38488   4.557   3.542   3.105 -0.9930  0.0049  0.5193
 9009SOL    HW138489   4.618   3.608   3.074 -1.3683 -0.3415 -0.9404
 9009SOL    HW238490   4.480   3.594   3.128 -0.5604  0.4021  1.0498
 9010SOL     OW38491   4.393   2.126   5.301  0.3527 -0.1952  0.4046
 9010SOL    HW138492   4.311   2.118   5.252  0.4148  1.0155  0.0993
 9010SOL    HW238493   4.380   2.207   5.351  0.2996  0.6168 -0.9409
 9011SOL     OW38494   1.237   2.771   3.246 -0.1147  0.3738 -0.4567
 9011SOL    HW138495   1.174   2.714   3.201 -0.0616  0.5073 -0.7012
 9011SOL    HW238496   1.203   2.858   3.225  3.6033  2.3004  1.4709
 9012SOL     OW38497   3.178   3.470   7.253  0.4542  0.0565  1.0102
 9012SOL    HW138498   3.098   3.459   7.201 -1.1582  1.8638  3.1050
 9012SOL    HW238499   3.243   3.435   7.192  2.0624  0.9504  2.2338
 9013SOL     OW38500   0.335   1.660   8.043  0.3248 -0.4490  0.2333
 9013SOL    HW138501   0.321   1.736   7.987 -1.0743 -1.5666 -0.9393
 9013SOL    HW238502   0.295   1.696   8.122  0.1625  1.2211 -0.6111
 9014SOL     OW38503   1.889   2.598   2.325 -0.0480  0.3862  0.5879
 9014SOL    HW138504   1.978   2.599   2.360 -0.1187  1.1713  0.7466
 9014SOL    HW238505   1.911   2.519   2.275 -1.1646 -0.4386  1.3932
 9015SOL     OW38506   2.848   0.814  12.922  0.4495 -0.8311  0.3369
 9015SOL    HW138507   2.759   0.848  12.927  0.9103  0.7870 -2.2347
 9015SOL    HW238508   2.837   0.722  12.898 -1.0317 -0.1510 -1.5721
 9016SOL     OW38509   4.673   2.022  13.127  0.4519 -0.5644  0.1695
 9016SOL    HW138510   4.631   2.066  13.054 -0.8472 -1.0345  0.6310
 9016SOL    HW238511   0.038   2.000  13.094  1.3671  0.6782  1.7176
 9017SOL     OW38512   3.899   3.273   9.047 -0.1769 -0.4601 -0.1005
 9017SOL    HW138513   3.813   3.307   9.074  0.2150  0.1953  0.3101
 9017SOL    HW238514   3.951   3.293   9.125 -1.7054  1.6208  0.3947
 9018SOL     OW38515   3.455   0.515  13.471  0.3923  0.3205  0.4824
 9018SOL    HW138516   3.404   0.475  13.541  1.2983  0.2568  1.1076
 9018SOL    HW238517   3.395   0.585  13.443 -0.0166 -0.7362 -1.2844
 9019SOL     OW38518   2.563   0.828  11.826 -0.4160  0.2963 -0.7119
 9019SOL    HW138519   2.599   0.796  11.909 -4.0864 -0.5691  0.5600
 9019SOL    HW238520   2.570   0.751  11.770  1.5137  0.1276 -0.2225
 9020SOL     OW38521   0.404   2.304   0.483 -0.2873 -0.4486 -0.1535
 9020SOL    HW138522   0.467   2.376   0.488 -2.0252  0.9803  0.7733
 9020SOL    HW238523   0.432   2.250   0.558  0.1934  1.0762  0.7707
 9021SOL     OW38524   0.732   2.389  11.011  0.3116 -0.8591 -0.3117
 9021SOL    HW138525   0.780   2.354  11.086  1.1097  0.1356 -0.3650
 9021SOL    HW238526   0.642   2.375  11.041 -0.4642  0.7219 -1.9180
 9022SOL     OW38527   2.460   4.527   7.504 -0.5056 -0.4375  0.4494
 9022SOL    HW138528   2.514   4.589   7.455  0.2101  0.8128  2.8166
 9022SOL    HW238529   2.378   4.512   7.457  0.0306  1.1643 -0.9945
 9023SOL     OW38530   4.487   2.974   2.248  0.1642  0.4754  0.5979
 9023SOL    HW138531   4.418   2.992   2.185  0.9835  0.8019 -0.2083
 9023SOL    HW238532   4.524   3.062   2.253  1.1404 -0.1369  4.3045
 9024SOL     OW38533   0.130   2.821   8.802  0.0285  0.3075 -0.4101
 9024SOL    HW138534   0.109   2.805   8.710 -2.6864 -1.2103  0.4824
 9024SOL    HW238535   0.098   2.738   8.836  2.6031 -0.6020 -0.1710
 9025SOL     OW38536   3.650   3.047   5.791 -0.3286 -0.3528  0.3033
 9025SOL    HW138537   3.628   3.129   5.747  0.6763 -0.3640 -0.2184
 9025SOL    HW238538   3.622   3.064   5.881  1.3857  1.3162  0.5286
 9026SOL     OW38539   0.556   1.748   6.029  0.0204 -0.2723  0.0359
 9026SOL    HW138540   0.534   1.696   5.952 -0.5992  0.4799 -0.2998
 9026SOL    HW238541   0.642   1.784   6.005 -0.8709 -0.2747 -3.1733
 9027SOL     OW38542   2.864   0.465   7.657  0.4404 -0.1850  0.0536
 9027SOL    HW138543   2.940   0.413   7.633  0.8368 -0.6600  2.3120
 9027SOL    HW238544   2.812   0.478   7.578  0.6698 -0.0644 -0.0761
 9028SOL     OW38545   3.091   4.642   4.231 -0.0809  0.3020 -0.4288
 9028SOL    HW138546   3.000   4.623   4.209 -1.2531  1.2162  3.5678
 9028SOL    HW238547   3.106   4.551   4.254  0.8496  0.2543 -1.2385
 9029SOL     OW38548   0.748   4.178  11.905  0.5371  0.2193  0.5010
 9029SOL    HW138549   0.797   4.162  11.986  1.1798  1.4045  0.3482
 9029SOL    HW238550   0.779   4.107  11.849  0.5947 -0.0207  0.8400
 9030SOL     OW38551   1.458   2.774  15.651 -0.2605  0.2310 -0.1699
 9030SOL    HW138552   1.488   2.701  15.596 -1.2967 -0.8935  0.7546
 9030SOL    HW238553   1.524   2.843  15.640 -0.9026  1.0061  0.8815
 9031SOL     OW38554   0.367   1.131  14.841 -0.0401  0.4986 -0.4877
 9031SOL    HW138555   0.377   1.225  14.850 -1.2652  0.5378  0.3205
 9031SOL    HW238556   0.340   1.129  14.749 -1.4419 -0.6387 -0.0535
 9032SOL     OW38557   3.969   0.715   3.235  0.6683 -0.1909  0.6130
 9032SOL    HW138558   3.883   0.673   3.230  0.9898 -0.5495 -1.7065
 9032SOL    HW238559   4.003   0.689   3.150  0.2703  0.3163  0.3026
 9033SOL     OW38560   0.031   1.205   5.097  0.4201  0.0134  0.3424
 9033SOL    HW138561   4.712   1.194   5.011  2.3174  0.5936 -0.6307
 9033SOL    HW238562   4.701   1.146   5.154 -0.7851 -0.3084 -1.0837
 9034SOL     OW38563   4.605   2.322  11.964 -0.2231 -0.2155 -0.1882
 9034SOL    HW138564   4.572   2.252  11.907 -0.0951 -0.0585 -0.4561
 9034SOL    HW238565   4.563   2.316  12.050  1.5023  2.3035  0.8445
 9035SOL     OW38566   1.168   0.702   4.004 -0.3664 -0.5455  0.0525
 9035SOL    HW138567   1.256   0.730   4.026 -1.5789  2.5320  0.9338
 9035SOL    HW238568   1.126   0.767   3.947 -1.5282 -1.0888  0.2861
 9036SOL     OW38569   2.187   3.263  13.531  0.0917 -0.2762  0.8320
 9036SOL    HW138570   2.167   3.271  13.438 -2.3738  1.6673  1.5206
 9036SOL    HW238571   2.142   3.182  13.553  0.2850 -1.1237 -1.8880
 9037SOL     OW38572   0.349   1.988   2.680  0.2822  0.5610 -0.5509
 9037SOL    HW138573   0.276   1.933   2.708 -0.1316  2.3214  1.7437
 9037SOL    HW238574   0.337   2.072   2.724  1.6358  0.1698  0.5670
 9038SOL     OW38575   2.942   4.612  10.062  0.1859  0.3613  0.0864
 9038SOL    HW138576   2.933   4.671   9.987  0.2399 -1.5128 -1.3851
 9038SOL    HW238577   2.849   4.590  10.072  0.6154 -1.2352  0.5067
 9039SOL     OW38578   2.135   2.365   4.404 -0.8734 -0.1339 -0.4183
 9039SOL    HW138579   2.136   2.456   4.436 -1.9383 -0.6514  1.1189
 9039SOL    HW238580   2.041   2.348   4.401 -1.2732  2.0701 -0.5627
 9040SOL     OW38581   3.847   1.735   6.224 -0.4365 -0.5116 -0.8486
 9040SOL    HW138582   3.943   1.742   6.220 -0.2693 -1.1603  1.4925
 9040SOL    HW238583   3.829   1.690   6.142 -0.6827 -0.7754 -0.6489
 9041SOL     OW38584   2.895   2.383  13.068  0.7402 -0.7583 -0.4286
 9041SOL    HW138585   2.948   2.370  12.989  2.1200 -1.7719  0.6650
 9041SOL    HW238586   2.847   2.300  13.067  1.0087 -0.8958 -1.8409
 9042SOL     OW38587   3.276   2.105   9.027  0.8881 -0.6703  0.2859
 9042SOL    HW138588   3.363   2.105   8.985  2.5995 -0.6293  3.8597
 9042SOL    HW238589   3.264   2.197   9.049 -0.5236 -1.5568  3.1353
 9043SOL     OW38590   3.935   1.132   5.630  0.1600  0.3797  0.5433
 9043SOL    HW138591   3.955   1.080   5.708 -0.4700  1.3511  1.3552
 9043SOL    HW238592   3.840   1.125   5.622  0.2925 -0.8144  0.0162
 9044SOL     OW38593   0.511   2.367  12.354 -0.2005  0.3231  0.1866
 9044SOL    HW138594   0.481   2.338  12.268  0.5133 -2.1068  0.7455
 9044SOL    HW238595   0.594   2.414  12.342 -0.3794  1.1655  2.2025
 9045SOL     OW38596   4.400   4.671   7.044 -0.2947 -0.1962 -0.3767
 9045SOL    HW138597   4.308   4.654   7.066 -0.2187 -1.2577 -0.8370
 9045SOL    HW238598   4.428   0.029   7.089 -1.3270 -0.5826  0.9512
 9046SOL     OW38599   1.149   3.284   2.710 -0.7171  0.3729  0.0264
 9046SOL    HW138600   1.104   3.300   2.627  0.9790  2.7790 -0.4220
 9046SOL    HW238601   1.229   3.334   2.692  0.0653 -1.4452 -1.5259
 9047SOL     OW38602   3.419   1.156   3.883 -0.1207 -0.2467 -0.2241
 9047SOL    HW138603   3.403   1.114   3.968  1.1166 -0.0514  0.1059
 9047SOL    HW238604   3.493   1.212   3.906 -0.7517  0.9908 -1.1932
 9048SOL     OW38605   1.139   0.314   3.200 -0.0013 -0.1008  0.2239
 9048SOL    HW138606   1.230   0.321   3.229  0.5877 -1.6347 -1.2448
 9048SOL    HW238607   1.131   0.220   3.183 -1.0324 -0.0153  0.2515
 9049SOL     OW38608   2.952   4.543  13.748 -0.5733 -0.2723  0.2037
 9049SOL    HW138609   2.906   4.465  13.718 -0.5618 -1.5056  3.3696
 9049SOL    HW238610   2.923   4.596  13.673 -0.5610  1.4264  1.3980
 9050SOL     OW38611   1.851   3.629   5.917  0.3762 -0.7364  0.0444
 9050SOL    HW138612   1.947   3.634   5.916  0.4271 -2.0596 -0.8108
 9050SOL    HW238613   1.838   3.616   5.823  0.7333 -1.1128  0.0493
 9051SOL     OW38614   1.273   1.331   4.132 -0.2025  0.5348  0.1057
 9051SOL    HW138615   1.362   1.357   4.108 -1.3573 -0.2538 -5.0250
 9051SOL    HW238616   1.227   1.386   4.069 -1.7013 -0.9454 -0.0934
 9052SOL     OW38617   2.105   1.931   8.374 -0.1666  0.5504  0.1727
 9052SOL    HW138618   2.041   1.860   8.375  2.6868 -1.9842  0.1343
 9052SOL    HW238619   2.048   2.003   8.346 -1.6720  0.3634  2.7078
 9053SOL     OW38620   0.032   1.396  12.154 -0.2788  0.0022 -0.4740
 9053SOL    HW138621   0.127   1.394  12.143 -0.0912  0.8018  0.9996
 9053SOL    HW238622   0.009   1.443  12.075  0.1552  1.3336  0.1895
 9054SOL     OW38623   3.484   2.171   1.169 -0.5818 -0.0402  0.6983
 9054SOL    HW138624   3.570   2.132   1.157 -0.3994 -0.2007  2.4901
 9054SOL    HW238625   3.454   2.128   1.250 -1.1584  1.5094  1.3129
 9055SOL     OW38626   4.237   0.451  15.442  0.0902 -0.3988  0.0290
 9055SOL    HW138627   4.308   0.388  15.455 -0.0231 -0.3790  0.7389
 9055SOL    HW238628   4.268   0.502  15.367  0.3228 -2.0192 -0.9784
 9056SOL     OW38629   1.439   0.190  10.753  0.4866 -0.8147 -0.0628
 9056SOL    HW138630   1.460   0.137  10.831  0.4573  0.9048  1.1106
 9056SOL    HW238631   1.441   0.277  10.793  1.4760 -1.1597  0.6582
 9057SOL     OW38632   4.468   4.379   4.261  0.4909  0.0938 -0.3586
 9057SOL    HW138633   4.457   4.297   4.212  1.4275  0.2329 -0.8078
 9057SOL    HW238634   4.401   4.438   4.227  1.4544  1.4665  0.1437
 9058SOL     OW38635   3.204   0.789   3.838  0.1828  0.6619  0.1166
 9058SOL    HW138636   3.138   0.738   3.885  0.2126  1.1675  0.7010
 9058SOL    HW238637   3.260   0.724   3.795  0.0229  2.0506 -2.1967
 9059SOL     OW38638   2.580   2.947   9.022  0.3837 -0.3768  0.8620
 9059SOL    HW138639   2.508   2.921   8.964 -0.5566 -0.5153  2.0991
 9059SOL    HW238640   2.609   3.029   8.982  0.8804 -1.0961 -0.2544
 9060SOL     OW38641   4.608   4.655  13.268  0.9530 -1.2414 -0.3696
 9060SOL    HW138642   4.675   4.678  13.333  0.7724 -0.1122 -0.5859
 9060SOL    HW238643   4.600   0.012  13.215 -1.2201 -1.1835  0.0175
 9061SOL     OW38644   2.198   2.085   2.763  0.2404  0.5507 -0.0770
 9061SOL    HW138645   2.214   2.165   2.712 -0.1533  1.0347  0.5629
 9061SOL    HW238646   2.111   2.072   2.726  0.7972 -2.2301 -0.4169
 9062SOL     OW38647   2.805   1.583   7.294 -0.0947  0.0596  0.0319
 9062SOL    HW138648   2.866   1.654   7.313 -0.8808  0.5412  0.7275
 9062SOL    HW238649   2.730   1.638   7.272 -0.8042 -0.7203  0.4760
 9063SOL     OW38650   1.408   3.934   7.135  0.0513  0.8252  0.1043
 9063SOL    HW138651   1.454   4.001   7.085  0.4762 -0.4555 -1.2413
 9063SOL    HW238652   1.414   3.867   7.067 -1.4263 -0.3459  1.1080
 9064SOL     OW38653   2.559   1.306   3.526  0.2699 -0.5903 -0.7773
 9064SOL    HW138654   2.503   1.382   3.539  0.5527 -0.3743 -0.8138
 9064SOL    HW238655   2.567   1.314   3.430  1.3116  1.4649 -0.5271
 9065SOL     OW38656   0.738   3.054   5.811 -1.0820  0.3569  0.5838
 9065SOL    HW138657   0.779   3.033   5.727 -2.6052  0.9439 -0.3081
 9065SOL    HW238658   0.652   3.094   5.793 -0.7637  0.6656 -0.2658
 9066SOL     OW38659   4.404   3.657   6.082  0.2064  0.0349  0.1573
 9066SOL    HW138660   4.457   3.734   6.103 -0.8616  0.5300  1.0226
 9066SOL    HW238661   4.388   3.689   5.993 -1.3993  0.9074  0.7728
 9067SOL     OW38662   1.785   2.428  16.335  0.3225 -0.0837 -0.4716
 9067SOL    HW138663   1.728   2.501  16.309  1.0140  1.0098  1.0693
 9067SOL    HW238664   1.725   2.396  16.402  1.4790 -0.6106  0.3079
 9068SOL     OW38665   1.103   3.740   5.164  0.0179 -0.1615  0.2466
 9068SOL    HW138666   1.099   3.663   5.107 -0.7015  1.5963 -2.0599
 9068SOL    HW238667   1.069   3.810   5.109  0.3090  1.0434  1.6088
 9069SOL     OW38668   3.560   2.337   8.639  0.1184 -0.4023 -0.4865
 9069SOL    HW138669   3.583   2.296   8.723  4.0103  0.2799 -1.2239
 9069SOL    HW238670   3.506   2.410   8.668  0.5308  0.3957 -1.7206
 9070SOL     OW38671   3.501   1.962   6.672 -0.0233  0.0530  0.0043
 9070SOL    HW138672   3.510   1.891   6.609 -2.2793 -0.6515  0.4923
 9070SOL    HW238673   3.420   1.931   6.711 -1.7684  0.7430 -3.1247
 9071SOL     OW38674   4.663   1.400   8.669 -0.2777 -0.0562  0.5327
 9071SOL    HW138675   4.585   1.383   8.617 -1.7907  2.7771  1.9150
 9071SOL    HW238676   4.626   1.365   8.750 -0.4017  0.5237  0.7212
 9072SOL     OW38677   1.949   2.456  10.786  0.5004 -0.3783 -0.0823
 9072SOL    HW138678   1.973   2.530  10.731 -0.4191 -1.0942 -1.4302
 9072SOL    HW238679   2.032   2.437  10.832  0.8225  1.0165 -0.0913
 9073SOL     OW38680   2.752   4.058   5.576 -0.2383 -0.1431  0.3362
 9073SOL    HW138681   2.798   3.977   5.599  1.4705  0.4589 -0.9621
 9073SOL    HW238682   2.822   4.117   5.605 -0.4941 -0.3119  1.3013
 9074SOL     OW38683   1.804   2.873   2.250 -0.0476  0.1063 -0.6772
 9074SOL    HW138684   1.801   2.783   2.279  0.3108  0.9205  1.8265
 9074SOL    HW238685   1.710   2.890   2.253  0.0913  0.7772 -0.0796
 9075SOL     OW38686   3.556   1.104  15.972  0.4131 -0.3223  0.0044
 9075SOL    HW138687   3.485   1.041  15.966 -0.7586  1.0652 -0.7539
 9075SOL    HW238688   3.575   1.107  15.878  1.4108  3.4863  0.3264
 9076SOL     OW38689   3.046   0.780   1.188 -0.2414  0.7118 -0.1083
 9076SOL    HW138690   3.003   0.727   1.255  2.2261 -0.5581  0.4859
 9076SOL    HW238691   3.139   0.767   1.207 -0.0768 -0.9132 -2.0479
 9077SOL     OW38692   3.472   1.949  11.651 -0.1770  0.0830  1.1057
 9077SOL    HW138693   3.377   1.953  11.637 -0.2885 -1.6078  1.3772
 9077SOL    HW238694   3.494   2.015  11.717  2.6839 -0.9800  1.2139
 9078SOL     OW38695   4.106   2.374   8.486  0.1471 -0.1350  0.3646
 9078SOL    HW138696   4.013   2.395   8.490 -0.0331 -1.1941  1.8642
 9078SOL    HW238697   4.123   2.386   8.579 -1.7961  2.0581  0.4412
 9079SOL     OW38698   1.996   4.148   7.927 -0.7854  0.2987 -0.2256
 9079SOL    HW138699   1.960   4.129   7.840  0.9143 -0.3600 -0.7708
 9079SOL    HW238700   2.017   4.057   7.947  0.6213  0.3481 -1.5436
 9080SOL     OW38701   3.709   2.599   5.567 -0.5770 -0.6761 -0.2742
 9080SOL    HW138702   3.714   2.509   5.598 -1.5626  0.4310  3.1937
 9080SOL    HW238703   3.635   2.601   5.507  0.3243  0.4175 -1.3520
 9081SOL     OW38704   4.417   4.002   1.867 -0.1577 -0.4109 -0.3512
 9081SOL    HW138705   4.325   4.016   1.886 -0.2355  0.5387 -1.4262
 9081SOL    HW238706   4.454   4.089   1.884 -2.5564  0.4889  0.1790
 9082SOL     OW38707   1.280   4.386   1.839  0.0847 -0.0497 -0.3572
 9082SOL    HW138708   1.338   4.446   1.792 -0.8461 -0.1337 -1.6004
 9082SOL    HW238709   1.290   4.417   1.929  1.0569  0.0168 -0.4851
 9083SOL     OW38710   2.744   0.171  14.340 -0.3625  0.9026  0.0971
 9083SOL    HW138711   2.672   0.232  14.354 -0.1394  1.5878 -1.6830
 9083SOL    HW238712   2.800   0.195  14.413  0.2063 -3.0167  0.9415
 9084SOL     OW38713   3.384   2.808   4.659 -0.1966  0.0838 -0.1350
 9084SOL    HW138714   3.425   2.843   4.738 -1.2864 -1.8066  1.2669
 9084SOL    HW238715   3.416   2.875   4.599  1.3367  0.0090  0.6013
 9085SOL     OW38716   2.396   2.083  12.214 -0.0593 -0.2946  0.2167
 9085SOL    HW138717   2.343   2.121  12.144 -0.5322  0.8964  1.2044
 9085SOL    HW238718   2.478   2.131  12.210  0.6861 -1.7850 -2.2442
 9086SOL     OW38719   4.279   3.559   9.531 -0.4432 -0.0943  0.3033
 9086SOL    HW138720   4.228   3.635   9.559  0.6032  0.4328  0.7989
 9086SOL    HW238721   4.260   3.503   9.606  0.8454 -0.6498  0.2115
 9087SOL     OW38722   4.571   2.271   6.730 -0.4842 -0.3551  0.4739
 9087SOL    HW138723   4.621   2.348   6.755  2.2938 -2.3951  1.1990
 9087SOL    HW238724   4.562   2.275   6.635 -1.0234 -3.7959  0.3622
 9088SOL     OW38725   2.984   1.296   5.438  0.3693 -0.5959  0.3834
 9088SOL    HW138726   3.011   1.378   5.396 -2.1988 -0.2851 -0.6337
 9088SOL    HW238727   2.953   1.254   5.358 -1.1871  0.0470  0.6527
 9089SOL     OW38728   2.331   2.808   2.226 -0.1405  0.4959 -0.2494
 9089SOL    HW138729   2.377   2.885   2.193 -0.2326 -0.5760 -2.9136
 9089SOL    HW238730   2.281   2.772   2.152 -0.7235  0.5364  0.1261
 9090SOL     OW38731   1.950   2.931   0.730 -0.1321 -0.3426 -0.3643
 9090SOL    HW138732   1.871   2.877   0.737  0.3706 -1.1350 -0.8956
 9090SOL    HW238733   1.976   2.934   0.822  0.2415 -0.2123 -0.4765
 9091SOL     OW38734   1.614   2.444   9.166  0.0416 -0.4412  0.5379
 9091SOL    HW138735   1.522   2.466   9.180  0.0604  0.2752 -0.4719
 9091SOL    HW238736   1.598   2.357   9.131  0.6757  0.6127 -2.3428
 9092SOL     OW38737   4.506   1.535   7.486  0.7267  0.2170 -0.3263
 9092SOL    HW138738   4.601   1.530   7.482  0.6570 -1.7139  0.5624
 9092SOL    HW238739   4.496   1.502   7.575  0.5557 -1.0168 -0.7957
 9093SOL     OW38740   0.029   0.533   8.110  0.0927 -0.3216  0.2878
 9093SOL    HW138741   0.104   0.590   8.129 -0.9734  0.5532  1.8211
 9093SOL    HW238742   4.674   0.589   8.123  1.3691  1.6230 -0.5881
 9094SOL     OW38743   3.331   0.668   8.772  0.0460  0.1844 -0.4244
 9094SOL    HW138744   3.273   0.612   8.824 -0.5398  0.8152 -0.4121
 9094SOL    HW238745   3.270   0.661   8.699  3.1078 -0.7561 -2.8966
 9095SOL     OW38746   1.107   1.031   0.896  0.0853  0.1618  0.8814
 9095SOL    HW138747   1.055   1.074   0.827  1.6359  1.2873  0.3985
 9095SOL    HW238748   1.094   0.938   0.882 -0.5605  0.2706  0.7431
 9096SOL     OW38749   3.898   0.053   7.931  0.1771  0.7206  0.1122
 9096SOL    HW138750   3.898   0.144   7.962 -0.3659  0.6005  0.4823
 9096SOL    HW238751   3.825   0.013   7.979  1.3681 -1.3798  0.1703
 9097SOL     OW38752   2.264   3.644   6.032 -0.6294 -0.0343  0.3098
 9097SOL    HW138753   2.274   3.593   6.112 -0.2498 -1.4554 -0.6528
 9097SOL    HW238754   2.330   3.711   6.049  1.9324 -2.4677 -0.0286
 9098SOL     OW38755   1.018   1.027   4.589 -0.2183  0.2616 -0.4101
 9098SOL    HW138756   0.927   1.006   4.609 -0.3319  0.6589 -0.5099
 9098SOL    HW238757   1.005   1.119   4.564  0.9304 -0.0637 -2.2140
 9099SOL     OW38758   0.391   0.040   8.533  0.0042 -0.6819  0.3293
 9099SOL    HW138759   0.338   0.047   8.612  0.8235 -0.0441  0.8233
 9099SOL    HW238760   0.449   0.115   8.547  1.5256 -1.5251 -1.3971
 9100SOL     OW38761   3.463   3.736   8.410  0.0891 -0.1421 -0.5829
 9100SOL    HW138762   3.459   3.640   8.419 -0.9047 -0.1220 -0.7899
 9100SOL    HW238763   3.381   3.760   8.366 -0.0714  0.0410 -0.1795
 9101SOL     OW38764   3.769   2.904   9.624  0.1127  0.2280 -0.1746
 9101SOL    HW138765   3.802   2.823   9.662 -1.1457  0.6239  1.8244
 9101SOL    HW238766   3.705   2.935   9.688  2.1240 -0.4268  2.1491
 9102SOL     OW38767   0.833   3.657   6.264  0.2861 -0.1048  0.3592
 9102SOL    HW138768   0.823   3.563   6.275  2.0199 -0.2787  0.4085
 9102SOL    HW238769   0.928   3.668   6.271  0.5426 -2.1968  0.2279
 9103SOL     OW38770   2.410   4.243  13.194 -0.7189  0.0533  0.2227
 9103SOL    HW138771   2.489   4.279  13.232 -0.1159 -0.9302 -0.0919
 9103SOL    HW238772   2.431   4.274  13.106 -1.7477 -0.0594 -0.0702
 9104SOL     OW38773   3.799   3.843   2.289 -0.2334 -1.4513 -0.0267
 9104SOL    HW138774   3.731   3.900   2.255  0.3424 -0.8445 -0.1507
 9104SOL    HW238775   3.861   3.845   2.215 -1.1828  1.0895 -0.7304
 9105SOL     OW38776   2.889   3.376   6.546  0.1535 -0.4390  0.0871
 9105SOL    HW138777   2.922   3.306   6.490 -0.2186  1.2163 -2.1835
 9105SOL    HW238778   2.957   3.373   6.614 -0.2493  1.0886  0.5541
 9106SOL     OW38779   3.497   0.096  11.538  0.2580 -0.2090 -0.3009
 9106SOL    HW138780   3.419   0.041  11.533  1.0361 -1.4035  0.7332
 9106SOL    HW238781   3.499   0.117  11.632 -0.2895 -1.3879 -0.0244
 9107SOL     OW38782   1.403   3.576   7.095 -0.4111  0.2718 -0.6108
 9107SOL    HW138783   1.319   3.557   7.139 -0.3076  1.6740  0.1899
 9107SOL    HW238784   1.459   3.551   7.168  0.8641 -2.2147 -2.4277
 9108SOL     OW38785   0.879   2.793  17.669 -0.2592 -0.1496  0.0602
 9108SOL    HW138786   0.922   2.758  17.591  1.4802 -0.3938  1.1368
 9108SOL    HW238787   0.897   2.721   0.042 -0.8787  0.6486  1.1849
 9109SOL     OW38788   2.406   2.570   5.722  0.6429 -0.1487  0.5491
 9109SOL    HW138789   2.468   2.538   5.656 -2.0971 -0.8449 -1.6969
 9109SOL    HW238790   2.396   2.663   5.705  1.1346  0.0224  1.1840
 9110SOL     OW38791   0.931   2.137   5.660 -0.1986  0.4355 -0.0124
 9110SOL    HW138792   0.927   2.149   5.565 -0.2439 -0.3500 -0.1072
 9110SOL    HW238793   0.943   2.229   5.684  0.5401  0.5038 -0.6455
 9111SOL     OW38794   0.216   1.370   3.102 -0.3084 -0.5474  0.2094
 9111SOL    HW138795   0.121   1.380   3.088 -0.0636  2.3518  0.5118
 9111SOL    HW238796   0.240   1.320   3.024  3.0033 -1.0194  1.5418
 9112SOL     OW38797   2.230   1.095   3.168 -0.4014  0.8852 -0.0112
 9112SOL    HW138798   2.259   1.011   3.205 -0.6094  1.5688  1.6884
 9112SOL    HW238799   2.309   1.113   3.116 -0.7720 -0.5626 -1.0832
 9113SOL     OW38800   2.859   2.228   5.115 -0.1146  0.3358 -0.0036
 9113SOL    HW138801   2.901   2.195   5.194 -0.0845 -1.9790 -0.9912
 9113SOL    HW238802   2.908   2.177   5.050 -0.0773  0.4341 -0.0519
 9114SOL     OW38803   3.548   0.533  15.926 -0.1466  0.2117  0.2305
 9114SOL    HW138804   3.568   0.449  15.969 -0.1027 -0.6383 -1.4464
 9114SOL    HW238805   3.541   0.495  15.838  0.4105 -2.4634  1.3300
 9115SOL     OW38806   0.698   1.311  17.345 -0.3302 -0.3135 -0.3760
 9115SOL    HW138807   0.760   1.239  17.362 -0.4122 -0.3966 -0.4280
 9115SOL    HW238808   0.760   1.371  17.303 -0.6037  0.1233 -0.1420
 9116SOL     OW38809   2.734   4.305  10.183 -0.0797 -0.2676  0.0842
 9116SOL    HW138810   2.765   4.249  10.255 -2.6504  2.5091  3.3553
 9116SOL    HW238811   2.725   4.389  10.229  2.5795  0.9647 -1.6640
 9117SOL     OW38812   1.061   1.089  17.015  0.0436 -0.1848  0.6141
 9117SOL    HW138813   0.969   1.111  17.030  0.1065 -0.3690  1.2573
 9117SOL    HW238814   1.075   1.070  17.107 -1.3282 -2.8943  0.2451
 9118SOL     OW38815   1.721   3.318  11.962  0.0495  0.2542 -0.0671
 9118SOL    HW138816   1.704   3.412  11.952 -2.7884 -0.2762 -0.3929
 9118SOL    HW238817   1.748   3.300  11.872  2.1176  1.5408  0.2841
 9119SOL     OW38818   4.186   1.331   7.503 -0.2879 -0.1417 -0.2071
 9119SOL    HW138819   4.108   1.361   7.456  2.3415  0.3725 -4.2468
 9119SOL    HW238820   4.165   1.341   7.596 -3.5383  1.8088 -1.1582
 9120SOL     OW38821   0.972   3.973   7.412  0.1375 -0.4380  0.5010
 9120SOL    HW138822   0.888   3.942   7.379 -0.0613  0.7199 -0.0482
 9120SOL    HW238823   1.031   3.918   7.360  0.6350 -0.2449  0.8598
 9121SOL     OW38824   2.670   1.823   5.629 -0.0094 -0.5864  0.5048
 9121SOL    HW138825   2.638   1.765   5.560 -0.6773 -1.5334  1.6230
 9121SOL    HW238826   2.585   1.850   5.663  0.3836  1.1641  0.1075
 9122SOL     OW38827   0.858   4.511   6.110 -0.1339 -0.2149  0.2130
 9122SOL    HW138828   0.841   4.600   6.079  0.2802 -0.0957  0.3240
 9122SOL    HW238829   0.809   4.512   6.192 -0.7069  0.4572 -0.1398
 9123SOL     OW38830   4.341   0.193   6.630 -0.6231 -0.3470  0.1633
 9123SOL    HW138831   4.411   0.145   6.587 -0.0891 -0.4653  1.1874
 9123SOL    HW238832   4.272   0.152   6.578 -0.1318 -0.6544 -0.2415
 9124SOL     OW38833   0.062   3.831  13.716  0.2324  0.5743 -0.4513
 9124SOL    HW138834   4.693   3.861  13.702 -0.0981  0.1898  0.8241
 9124SOL    HW238835   0.105   3.915  13.700 -2.3329  1.3573 -3.0883
 9125SOL     OW38836   3.036   3.939   7.657 -0.2250 -0.0398  0.4709
 9125SOL    HW138837   2.966   3.967   7.716  0.2655 -1.0288  1.5381
 9125SOL    HW238838   3.079   3.865   7.700 -0.2508  0.2516  1.0019
 9126SOL     OW38839   2.886   4.508  15.911 -0.0710  0.2091 -0.4226
 9126SOL    HW138840   2.915   4.419  15.887 -0.1017  0.6465 -2.1022
 9126SOL    HW238841   2.796   4.491  15.939 -0.0381 -0.5849 -0.7877
 9127SOL     OW38842   3.047   0.685   0.212 -0.1706 -0.0343  0.4269
 9127SOL    HW138843   3.140   0.667   0.228  0.7465  3.0873 -1.3237
 9127SOL    HW238844   3.044   0.654   0.122 -1.8170 -0.5746  0.6638
 9128SOL     OW38845   0.374   1.075  15.411 -0.5411  0.2289  0.3879
 9128SOL    HW138846   0.402   0.990  15.447  2.3385  1.1852  0.4093
 9128SOL    HW238847   0.319   1.111  15.480 -0.1623 -1.5558  1.6417
 9129SOL     OW38848   0.463   3.795  13.686 -0.3156  0.2920  0.3334
 9129SOL    HW138849   0.383   3.745  13.704 -0.5738  0.6920  0.2935
 9129SOL    HW238850   0.452   3.778  13.593 -0.1095 -1.7306  0.6638
 9130SOL     OW38851   3.087   3.568   1.893  0.2401 -0.9737 -0.4146
 9130SOL    HW138852   2.995   3.592   1.888  0.5408  0.6995  2.0751
 9130SOL    HW238853   3.092   3.492   1.952  0.3325  0.6476  1.6648
 9131SOL     OW38854   1.313   4.044  15.498 -0.1034 -0.1211  0.4800
 9131SOL    HW138855   1.269   3.974  15.546 -0.3491 -0.6728 -0.5625
 9131SOL    HW238856   1.294   4.022  15.407  1.7864  0.4283 -0.0480
 9132SOL     OW38857   2.438   1.093   5.283  0.1417 -0.0850 -0.8203
 9132SOL    HW138858   2.353   1.053   5.265  0.0623 -0.9497  1.4569
 9132SOL    HW238859   2.465   1.055   5.367 -1.0602 -0.8198 -0.7668
 9133SOL     OW38860   2.053   2.661   5.440  0.5057 -0.8804 -0.2184
 9133SOL    HW138861   2.021   2.576   5.410 -2.0998  0.3477 -0.9477
 9133SOL    HW238862   2.138   2.663   5.396  0.4925 -1.8373 -0.2837
 9134SOL     OW38863   0.500   0.954   2.972  0.3914 -0.5282  0.1523
 9134SOL    HW138864   0.523   0.984   2.884 -0.5716 -0.0840  0.0578
 9134SOL    HW238865   0.482   0.860   2.961 -0.4701 -0.3692  0.2621
 9135SOL     OW38866   2.082   4.504   4.182 -0.0642  0.1067 -0.0706
 9135SOL    HW138867   2.081   4.505   4.087  1.7960 -0.6039 -0.0915
 9135SOL    HW238868   2.058   4.412   4.191  0.2654 -0.3428 -3.7862
 9136SOL     OW38869   0.508   2.397   2.877 -0.5353  0.4641 -0.4073
 9136SOL    HW138870   0.416   2.390   2.905  0.2065  0.2480  1.9191
 9136SOL    HW238871   0.523   2.491   2.887 -0.2465  0.2538  1.1371
 9137SOL     OW38872   0.258   2.248  17.289  0.1038  0.0241 -0.5259
 9137SOL    HW138873   0.238   2.180  17.354 -0.3202  0.4223 -0.2367
 9137SOL    HW238874   0.295   2.195  17.219 -2.6581 -0.8556 -1.3237
 9138SOL     OW38875   0.392   0.084   9.449 -0.2518  0.0079  0.0610
 9138SOL    HW138876   0.455   0.014   9.467 -1.8516 -0.6277  3.1354
 9138SOL    HW238877   0.452   0.158   9.449 -1.2333  0.7928 -2.0339
 9139SOL     OW38878   3.812   3.411  15.796 -0.0891  0.1103  0.5584
 9139SOL    HW138879   3.853   3.378  15.876 -0.4859 -0.3093  0.5862
 9139SOL    HW238880   3.877   3.379  15.733 -0.2710 -1.6408  1.2689
 9140SOL     OW38881   0.215   2.441  16.802  0.3062 -0.3973 -0.4009
 9140SOL    HW138882   0.245   2.531  16.790  1.7318 -0.5317  2.2556
 9140SOL    HW238883   0.179   2.413  16.718 -1.9481 -1.0182  0.7601
 9141SOL     OW38884   2.597   2.445   7.610  0.2958  0.5166  0.6278
 9141SOL    HW138885   2.512   2.404   7.629  1.7176 -1.8478  1.9507
 9141SOL    HW238886   2.591   2.459   7.516 -1.4696 -1.5713  0.4113
 9142SOL     OW38887   2.967   1.904   2.438 -0.3018  0.2588  0.0606
 9142SOL    HW138888   2.918   1.963   2.381  1.1000 -0.2869 -1.7031
 9142SOL    HW238889   3.043   1.959   2.455  0.9837 -1.4356 -0.1709
 9143SOL     OW38890   2.490   2.284  13.491 -0.6747 -0.7626  0.4352
 9143SOL    HW138891   2.485   2.372  13.528 -0.2352 -1.0767  1.2180
 9143SOL    HW238892   2.409   2.294  13.440  0.2806 -0.7612 -1.0920
 9144SOL     OW38893   1.071   2.927   4.866 -0.3293 -0.2006 -0.0797
 9144SOL    HW138894   1.165   2.944   4.870 -0.0365 -1.9527  0.1665
 9144SOL    HW238895   1.058   2.941   4.772  1.6824  3.9145  0.2251
 9145SOL     OW38896   0.131   1.627   4.594 -0.6680  0.7416 -0.0690
 9145SOL    HW138897   0.103   1.646   4.504 -0.2115 -1.6387 -0.6935
 9145SOL    HW238898   0.131   1.716   4.629  1.0703  0.5933  0.2858
 9146SOL     OW38899   1.939   1.862   6.022 -0.0434 -0.3016 -0.1369
 9146SOL    HW138900   1.884   1.908   6.085 -0.7957 -2.0311  0.4463
 9146SOL    HW238901   1.890   1.879   5.941 -0.3776  1.3360  0.3996
 9147SOL     OW38902   1.041   2.634  15.447  0.5322 -0.2313 -0.6161
 9147SOL    HW138903   1.017   2.703  15.385 -1.9444 -1.2572 -0.8285
 9147SOL    HW238904   1.130   2.608  15.425  1.5546  2.0177  0.8966
 9148SOL     OW38905   1.278   1.579  12.480 -0.2763 -0.0040 -0.3303
 9148SOL    HW138906   1.235   1.503  12.519  1.8680 -0.2406  1.5611
 9148SOL    HW238907   1.204   1.637  12.461  0.2888  1.2486  1.2986
 9149SOL     OW38908   1.077   4.067   8.322 -0.2995  0.2047  0.2082
 9149SOL    HW138909   0.999   4.085   8.269  0.0417  0.1835 -0.3100
 9149SOL    HW238910   1.080   4.141   8.382 -0.7246  0.0183  0.4588
 9150SOL     OW38911   2.947   1.027   4.349 -0.2077  0.2182 -0.3372
 9150SOL    HW138912   3.037   1.056   4.365 -0.4684  0.6305  0.3783
 9150SOL    HW238913   2.946   1.044   4.255  0.8087 -0.9217 -0.5423
 9151SOL     OW38914   3.053   0.366   2.327 -0.3325  0.3555 -0.1022
 9151SOL    HW138915   3.050   0.360   2.422  1.0751  0.9588 -0.0242
 9151SOL    HW238916   3.141   0.332   2.314  0.3537  2.5178 -1.1114
 9152SOL     OW38917   2.569   1.530   5.146  0.1588  0.0949  0.0576
 9152SOL    HW138918   2.578   1.520   5.051  0.3555 -0.4084  0.1281
 9152SOL    HW238919   2.609   1.448   5.176  0.9175  0.5621  0.3437
 9153SOL     OW38920   2.116   2.097   4.326 -0.1209 -0.0334 -0.2757
 9153SOL    HW138921   2.125   2.173   4.383  2.4344  0.9939 -2.0530
 9153SOL    HW238922   2.191   2.124   4.273 -0.5542  1.4410 -0.1514
 9154SOL     OW38923   2.665   1.622  11.972 -0.1978 -0.2707  0.1553
 9154SOL    HW138924   2.761   1.618  11.969 -0.3480 -3.2633 -0.6355
 9154SOL    HW238925   2.650   1.600  12.064 -1.4614  0.7481  0.1848
 9155SOL     OW38926   1.000   3.648   9.720  0.6752  0.4321  0.5343
 9155SOL    HW138927   1.071   3.602   9.674 -0.2016  0.8896 -1.2522
 9155SOL    HW238928   1.030   3.738   9.728 -0.1234  0.4996  2.7148
 9156SOL     OW38929   1.026   4.382  14.949 -0.3963  0.0091 -0.4063
 9156SOL    HW138930   1.113   4.358  14.916  0.3601  0.7775  1.0494
 9156SOL    HW238931   1.008   4.304  15.002  3.4655  0.1666  1.0914
 9157SOL     OW38932   1.095   3.715  17.517  0.8124 -0.3255 -0.1730
 9157SOL    HW138933   1.078   3.622  17.530  2.3550 -0.6352 -0.3974
 9157SOL    HW238934   1.040   3.764  17.579  1.6818  0.0849  0.2717
 9158SOL     OW38935   3.067   0.321   7.599  0.2645 -0.2507 -0.1961
 9158SOL    HW138936   3.038   0.251   7.542  1.0164  0.5644 -1.5978
 9158SOL    HW238937   3.157   0.288   7.606 -0.6971 -2.2061  2.5775
 9159SOL     OW38938   2.115   0.010   9.975  0.5291 -0.1653 -0.4229
 9159SOL    HW138939   2.024   0.011   9.946  0.2580  0.2431  0.4360
 9159SOL    HW238940   2.118   4.638  10.000  1.6784  0.3678  1.4296
 9160SOL     OW38941   3.179   2.636  10.736 -0.5387  0.0135 -0.4463
 9160SOL    HW138942   3.132   2.718  10.717 -0.7834 -0.3310 -1.3542
 9160SOL    HW238943   3.178   2.598  10.648  2.7104  0.1157 -0.5291
 9161SOL     OW38944   1.426   0.171   6.974 -0.0184 -0.6576  0.0969
 9161SOL    HW138945   1.404   0.183   6.882 -0.6864  2.2654  0.6121
 9161SOL    HW238946   1.516   0.204   6.979 -0.4623  0.8934 -2.3153
 9162SOL     OW38947   0.297   3.926   3.707 -0.6471 -0.2010  0.3039
 9162SOL    HW138948   0.280   3.907   3.615 -1.1017  1.3122  0.0713
 9162SOL    HW238949   0.206   3.949   3.726 -0.5059  0.7160 -0.1109
 9163SOL     OW38950   4.072   3.341   8.820 -0.0088 -0.6821  0.6164
 9163SOL    HW138951   4.031   3.281   8.882  0.5122  0.1896  1.8073
 9163SOL    HW238952   4.161   3.328   8.853  0.5189  0.7847 -0.2013
 9164SOL     OW38953   0.001   0.049   4.085 -0.8445 -0.2553  0.0829
 9164SOL    HW138954   4.717   4.676   4.098 -1.1147 -0.2124  0.2873
 9164SOL    HW238955   0.067   0.044   4.016 -1.1936 -1.0358 -0.1891
 9165SOL     OW38956   4.080   0.788   2.645 -0.2830 -0.5374  0.0933
 9165SOL    HW138957   4.096   0.697   2.622 -1.6158 -0.4827 -1.1148
 9165SOL    HW238958   4.035   0.827   2.570  0.6555  2.3187  0.9997
 9166SOL     OW38959   1.690   4.602   3.330 -0.0007  0.2259 -0.4741
 9166SOL    HW138960   1.689   4.526   3.271  0.1957  0.9190 -1.3757
 9166SOL    HW238961   1.694   4.675   3.268 -2.0854  1.0415  0.3650
 9167SOL     OW38962   0.751   0.914  13.568  0.5033 -0.2015 -0.4448
 9167SOL    HW138963   0.681   0.886  13.626  1.2736 -2.0771 -0.4227
 9167SOL    HW238964   0.826   0.871  13.609 -1.5037 -2.3093  0.9349
 9168SOL     OW38965   3.601   4.170   4.750  0.5443 -0.4816 -0.1187
 9168SOL    HW138966   3.622   4.244   4.693 -0.4701 -0.0108  0.1232
 9168SOL    HW238967   3.626   4.096   4.695  2.0440 -0.4353  0.4821
 9169SOL     OW38968   3.431   0.930   3.532 -0.0362 -0.8289 -0.7357
 9169SOL    HW138969   3.424   0.999   3.467  2.5468  0.8356  0.7634
 9169SOL    HW238970   3.514   0.945   3.577 -1.2879  1.0648  0.9179
 9170SOL     OW38971   3.241   0.956   9.079 -0.3082  0.5872  0.5451
 9170SOL    HW138972   3.208   0.869   9.101 -0.7589  0.8852  1.0693
 9170SOL    HW238973   3.330   0.937   9.051 -0.6241 -0.3909  0.1956
 9171SOL     OW38974   2.664   0.656   0.908 -0.8114 -0.5964 -0.6313
 9171SOL    HW138975   2.621   0.719   0.851 -1.7024 -0.1223  0.5593
 9171SOL    HW238976   2.726   0.609   0.852 -1.8703 -0.4029 -1.9750
 9172SOL     OW38977   0.339   3.116  16.563  0.4175  0.4351 -1.1673
 9172SOL    HW138978   0.256   3.115  16.516 -0.6215 -0.0331  0.6671
 9172SOL    HW238979   0.393   3.189  16.534 -0.0734  0.4863 -1.9343
 9173SOL     OW38980   4.158   2.701   4.257  0.3632  0.0998  0.1271
 9173SOL    HW138981   4.237   2.736   4.299  1.8685 -2.3041 -0.6797
 9173SOL    HW238982   4.197   2.674   4.173  3.1964 -1.1650  1.8537
 9174SOL     OW38983   1.886   4.708  14.618 -0.7741 -0.4600  1.1729
 9174SOL    HW138984   1.960   4.654  14.590 -3.3235 -3.0688 -0.5745
 9174SOL    HW238985   1.898   0.067  14.567  0.7011 -0.9199  0.8064
 9175SOL     OW38986   4.534   1.839   8.002  0.1251  0.2506  0.2511
 9175SOL    HW138987   4.482   1.804   8.075 -0.4068  2.3524  0.8877
 9175SOL    HW238988   4.597   1.899   8.042 -2.0910  1.6958  1.5756
 9176SOL     OW38989   0.810   3.675   4.711 -0.1971  0.4220  0.2127
 9176SOL    HW138990   0.874   3.641   4.649  0.0284 -1.0527  1.2472
 9176SOL    HW238991   0.763   3.740   4.658  0.9467  0.6563 -0.4940
 9177SOL     OW38992   0.377   2.939  17.174  0.3426 -0.3919 -0.3293
 9177SOL    HW138993   0.472   2.940  17.164  0.6392  4.9288  2.9695
 9177SOL    HW238994   0.369   2.860  17.227 -2.2261 -0.4206 -0.7732
 9178SOL     OW38995   1.223   0.162  13.968  0.0888  0.3685  0.0221
 9178SOL    HW138996   1.312   0.183  13.940  0.1433  1.3787  0.9591
 9178SOL    HW238997   1.174   0.197  13.894  0.2604  0.1145 -0.2095
 9179SOL     OW38998   1.080   2.601  10.338 -0.4931  0.7063  0.1287
 9179SOL    HW138999   1.172   2.580  10.348 -0.7764 -1.0201 -0.9176
 9179SOL    HW239000   1.055   2.573  10.427 -0.9327  1.0938  0.1323
 9180SOL     OW39001   3.070   0.667   8.046 -0.1753  0.5561 -0.5890
 9180SOL    HW139002   3.095   0.741   7.991  1.8547 -0.5598 -1.1727
 9180SOL    HW239003   3.073   0.599   7.978  0.8217 -0.1732  0.1855
 9181SOL     OW39004   3.583   3.587  13.797 -0.3970  0.2247 -0.8635
 9181SOL    HW139005   3.612   3.587  13.706  0.6394  2.6032 -0.5345
 9181SOL    HW239006   3.526   3.663  13.809 -0.7899 -0.1970 -0.0481
 9182SOL     OW39007   3.682   2.748   1.111 -0.1894 -0.0701  0.1146
 9182SOL    HW139008   3.704   2.833   1.075  0.1726 -0.1618  0.1187
 9182SOL    HW239009   3.610   2.731   1.051  0.0604  3.3052 -1.1020
 9183SOL     OW39010   4.466   2.953  16.583  0.4757  0.1927 -0.3919
 9183SOL    HW139011   4.539   3.008  16.555  0.9264  0.3531  1.1013
 9183SOL    HW239012   4.387   2.993  16.546 -1.0549 -2.2351  0.2609
 9184SOL     OW39013   0.946   0.536   6.976 -0.3701 -0.0960 -0.3368
 9184SOL    HW139014   0.954   0.629   6.959 -2.7317  0.6769  2.6392
 9184SOL    HW239015   1.036   0.524   7.007 -0.4846  0.7423  0.3291
 9185SOL     OW39016   0.161   0.901   8.069  0.4195 -0.0550 -0.0829
 9185SOL    HW139017   0.253   0.910   8.042  0.6793 -0.4605  0.6716
 9185SOL    HW239018   0.174   0.857   8.153 -0.2769 -0.6513 -0.2878
 9186SOL     OW39019   2.454   1.099  12.134 -0.3274  0.1808 -0.3968
 9186SOL    HW139020   2.531   1.066  12.089  0.5942  1.5267  0.1916
 9186SOL    HW239021   2.454   1.188  12.100  0.6566  0.9541  1.6162
 9187SOL     OW39022   3.738   4.090  12.742 -0.1585  0.3070  0.0839
 9187SOL    HW139023   3.670   4.148  12.707  0.2657  0.1642 -0.9824
 9187SOL    HW239024   3.782   4.072  12.659 -0.3886  0.0351  0.0216
 9188SOL     OW39025   1.151   2.898   5.470  0.3686 -0.5367 -0.2716
 9188SOL    HW139026   1.214   2.968   5.482  0.0058 -0.2578  0.0108
 9188SOL    HW239027   1.082   2.940   5.418  0.4211  1.2178  1.1054
 9189SOL     OW39028   4.228   0.651   3.710 -0.5368  0.4024 -0.4399
 9189SOL    HW139029   4.216   0.663   3.616  4.3954 -0.1636 -1.1372
 9189SOL    HW239030   4.319   0.672   3.730 -0.5484  0.8084 -0.8207
 9190SOL     OW39031   1.050   1.514  11.596 -0.6333  0.3563  0.6685
 9190SOL    HW139032   0.964   1.546  11.624 -0.6471  0.8822  0.0345
 9190SOL    HW239033   1.079   1.500  11.686  0.0999 -2.0254  0.0725
 9191SOL     OW39034   0.267   4.129  13.212  0.1420 -0.2031 -0.5714
 9191SOL    HW139035   0.206   4.187  13.258  1.4718  1.1625 -0.5753
 9191SOL    HW239036   0.274   4.057  13.276 -0.4592 -2.1207 -2.6681
 9192SOL     OW39037   0.647   4.029   0.698  0.6776 -0.2299  0.1513
 9192SOL    HW139038   0.701   3.950   0.700 -1.0987 -1.4154  0.9994
 9192SOL    HW239039   0.715   4.089   0.669  0.7910 -0.3833  0.1006
 9193SOL     OW39040   0.622   1.266  17.632  0.5043 -0.2994  0.2291
 9193SOL    HW139041   0.527   1.275  17.632  0.6538  1.3495 -1.3582
 9193SOL    HW239042   0.645   1.329  17.563  0.5810 -1.2753 -0.6282
 9194SOL     OW39043   3.513   1.556   6.273 -0.2389 -0.0253 -0.2340
 9194SOL    HW139044   3.585   1.557   6.210 -0.3152 -0.5645 -0.3314
 9194SOL    HW239045   3.437   1.579   6.219 -0.9408 -1.8233 -0.0196
 9195SOL     OW39046   3.560   2.687   2.259 -0.2859 -0.1751  0.2683
 9195SOL    HW139047   3.621   2.689   2.185 -2.1354  1.7281 -1.1962
 9195SOL    HW239048   3.586   2.607   2.306 -2.0156 -1.2847 -0.6425
 9196SOL     OW39049   2.758   0.862   1.366  0.2343  0.0841  0.1710
 9196SOL    HW139050   2.700   0.804   1.416 -1.7838  0.7790 -1.4057
 9196SOL    HW239051   2.727   0.836   1.280  1.0727 -0.3615 -0.0047
 9197SOL     OW39052   0.453   2.450   3.229  0.2664 -0.0627  0.5109
 9197SOL    HW139053   0.530   2.467   3.176 -0.8428  1.1744 -0.7001
 9197SOL    HW239054   0.386   2.422   3.166  1.5768  0.0181 -0.9334
 9198SOL     OW39055   2.868   2.945   9.477  0.0045 -0.6155 -0.1437
 9198SOL    HW139056   2.826   3.022   9.440  1.2081  0.0393 -0.1402
 9198SOL    HW239057   2.836   2.885   9.410 -2.4571 -0.3938  0.8401
 9199SOL     OW39058   2.284   1.642   6.641 -0.3818 -0.0868  0.3284
 9199SOL    HW139059   2.318   1.554   6.625 -0.1978 -0.0429  0.4716
 9199SOL    HW239060   2.208   1.628   6.697  1.7947 -2.3093  2.7200
 9200SOL     OW39061   0.069   3.322  16.765 -0.1209 -0.1731  0.2408
 9200SOL    HW139062   0.071   3.379  16.689  1.1681  0.8255  1.0217
 9200SOL    HW239063   0.047   3.240  16.722 -3.8263  0.5167  0.7998
 9201SOL     OW39064   4.184   4.674   3.644 -0.3354  0.1029 -0.3970
 9201SOL    HW139065   4.251   4.673   3.712 -0.5975  1.4351 -0.1138
 9201SOL    HW239066   4.193   0.042   3.611  0.4162  0.2099  0.0843
 9202SOL     OW39067   1.557   3.340   7.781 -0.3770 -0.3927  0.0714
 9202SOL    HW139068   1.591   3.281   7.849  0.3140  1.4826  1.3607
 9202SOL    HW239069   1.629   3.403   7.783 -0.3987 -0.3189 -1.5299
 9203SOL     OW39070   4.525   0.664   8.897  0.6024  0.0251  0.1448
 9203SOL    HW139071   4.614   0.696   8.886  0.6983  0.2494  1.6229
 9203SOL    HW239072   4.537   0.602   8.969 -1.0483  0.0548  0.4585
 9204SOL     OW39073   4.157   0.758   6.445 -1.0688  0.4926 -0.2450
 9204SOL    HW139074   4.118   0.680   6.484  2.1347 -0.8516  0.2727
 9204SOL    HW239075   4.089   0.788   6.385  1.1602  1.1614 -2.4280
 9205SOL     OW39076   2.264   4.332   5.456 -0.9288 -0.3616 -0.2724
 9205SOL    HW139077   2.358   4.314   5.456 -0.7956  0.3605 -0.2296
 9205SOL    HW239078   2.223   4.261   5.406 -0.5602 -0.0891 -0.9688
 9206SOL     OW39079   3.524   1.711   5.133  0.3344  0.0486 -0.4134
 9206SOL    HW139080   3.609   1.699   5.091 -0.3806 -2.9737 -0.9867
 9206SOL    HW239081   3.541   1.794   5.179 -0.4162  0.4826 -0.9127
 9207SOL     OW39082   2.295   2.438   7.436  0.0791  0.3553  0.3817
 9207SOL    HW139083   2.357   2.458   7.366 -0.7912  0.9705 -0.2259
 9207SOL    HW239084   2.267   2.527   7.458 -0.7436  0.3735 -0.7458
 9208SOL     OW39085   0.435   2.880  14.535 -0.0246  0.5271 -0.4214
 9208SOL    HW139086   0.376   2.842  14.600 -0.3923 -1.2191 -1.7783
 9208SOL    HW239087   0.386   2.870  14.453 -1.4779 -0.4384  0.5473
 9209SOL     OW39088   1.233   2.044   3.548  0.8824 -0.5155 -0.5545
 9209SOL    HW139089   1.157   2.100   3.537  1.3750  0.3013  0.2611
 9209SOL    HW239090   1.295   2.084   3.487  1.1840  2.1559  1.5351
 9210SOL     OW39091   1.772   2.125   5.273  0.2748 -0.4087 -0.3194
 9210SOL    HW139092   1.798   2.103   5.363  1.3330 -1.1972 -0.8122
 9210SOL    HW239093   1.677   2.120   5.274  0.3150 -1.3116 -1.1138
 9211SOL     OW39094   3.993   2.474   3.505  0.4798 -0.2718  0.1067
 9211SOL    HW139095   3.905   2.442   3.482  0.2584  0.8353 -0.5435
 9211SOL    HW239096   4.057   2.427   3.452 -0.0004  0.8408 -1.4531
 9212SOL     OW39097   0.036   1.825   6.960 -0.6020  0.1179 -0.0990
 9212SOL    HW139098   4.708   1.898   6.997 -1.1748 -0.7619  0.8746
 9212SOL    HW239099   0.123   1.835   7.000 -0.5997 -0.3324  0.0040
 9213SOL     OW39100   3.013   4.142   9.992  0.2817 -0.2378  0.6369
 9213SOL    HW139101   3.078   4.198  10.033  3.4447 -1.4835 -2.6504
 9213SOL    HW239102   3.067   4.071   9.956 -1.2078 -1.3012  0.4532
 9214SOL     OW39103   3.376   0.415   2.547  0.2349  0.2971  0.6977
 9214SOL    HW139104   3.328   0.382   2.471 -1.1087  1.6660  0.9523
 9214SOL    HW239105   3.458   0.382   2.511  1.2939  2.4661  1.1602
 9215SOL     OW39106   2.319   1.837   2.741 -0.2070  0.8816 -0.2386
 9215SOL    HW139107   2.283   1.925   2.749 -0.5332  0.5827  1.5761
 9215SOL    HW239108   2.241   1.781   2.735  0.8016 -0.6500  0.9463
 9216SOL     OW39109   2.943   1.171   0.747  0.4379 -0.9550 -0.1193
 9216SOL    HW139110   3.000   1.124   0.808  2.3902 -0.7895 -1.8080
 9216SOL    HW239111   2.979   1.144   0.662  3.5939 -3.2370  1.9595
 9217SOL     OW39112   2.271   3.277   5.078  0.0871  0.3595 -0.2646
 9217SOL    HW139113   2.295   3.206   5.137 -1.3231 -0.6951 -0.9569
 9217SOL    HW239114   2.359   3.308   5.055 -0.8108  1.3113 -2.4432
 9218SOL     OW39115   4.059   1.989   9.074 -0.2520 -0.3643 -0.1447
 9218SOL    HW139116   4.045   1.914   9.016  0.6735 -1.8755  1.5952
 9218SOL    HW239117   3.983   1.966   9.126 -0.8488  1.1419 -0.3473
 9219SOL     OW39118   3.825   3.799   6.828  0.0181  0.4961 -0.4011
 9219SOL    HW139119   3.859   3.754   6.750 -1.3656 -0.2713 -0.5580
 9219SOL    HW239120   3.901   3.795   6.885  0.5437  1.1292 -1.0554
 9220SOL     OW39121   4.563   4.208  13.632  0.0468  0.1613  0.7734
 9220SOL    HW139122   4.498   4.143  13.607 -1.1663  1.9718 -0.8198
 9220SOL    HW239123   4.566   4.253  13.547  0.2625 -0.1529  0.6152
 9221SOL     OW39124   0.413   2.959   0.684 -0.6148 -0.1614  0.3805
 9221SOL    HW139125   0.501   2.955   0.647 -0.3455 -0.5258  1.0565
 9221SOL    HW239126   0.353   2.940   0.613  0.5190 -1.3676 -0.2455
 9222SOL     OW39127   1.178   1.704   6.474 -0.0301  0.4320 -0.0338
 9222SOL    HW139128   1.168   1.621   6.428  0.1731  0.0106  0.6762
 9222SOL    HW239129   1.137   1.766   6.414  0.5585  0.6135 -0.2570
 9223SOL     OW39130   3.223   2.939  16.199  0.5842 -0.1095 -0.5453
 9223SOL    HW139131   3.165   2.967  16.270  0.1542 -1.5545 -0.3166
 9223SOL    HW239132   3.150   2.933  16.137  0.3254  0.8065 -0.3313
 9224SOL     OW39133   1.696   0.733   2.107  0.0260  0.0146 -0.1044
 9224SOL    HW139134   1.647   0.811   2.132  1.1560  0.8841 -0.6001
 9224SOL    HW239135   1.617   0.678   2.111 -0.0809  0.0819 -1.3838
 9225SOL     OW39136   0.688   1.533   0.239  0.0949 -0.1848 -0.1036
 9225SOL    HW139137   0.643   1.563   0.159  0.0312 -1.6566 -0.6095
 9225SOL    HW239138   0.735   1.458   0.202  1.8909  0.2248  1.3210
 9226SOL     OW39139   3.205   0.384  13.520  0.1414 -0.0327 -0.5578
 9226SOL    HW139140   3.119   0.425  13.513  1.7974  3.3253 -0.9289
 9226SOL    HW239141   3.236   0.403  13.609  1.1013  1.2255 -1.1711
 9227SOL     OW39142   3.078   2.918   3.051  0.2475 -0.2682 -0.2773
 9227SOL    HW139143   3.153   2.976   3.057  1.0494 -1.3601  0.1754
 9227SOL    HW239144   3.021   2.937   3.126  1.1434  1.2962 -0.0046
 9228SOL     OW39145   4.681   3.898  15.637 -0.6505  0.0635 -0.3888
 9228SOL    HW139146   4.704   3.812  15.602  1.2367  0.2143  0.4670
 9228SOL    HW239147   4.688   3.958  15.563 -0.5472  2.5379  1.6359
 9229SOL     OW39148   0.645   2.716   1.991 -0.0846  0.0842  0.4236
 9229SOL    HW139149   0.565   2.732   1.940  0.5659  0.3170 -0.5354
 9229SOL    HW239150   0.697   2.667   1.927 -0.9551 -0.4305  0.1106
 9230SOL     OW39151   2.855   2.722  14.953 -0.0853 -0.3219  0.3966
 9230SOL    HW139152   2.773   2.674  14.964  0.1023 -0.8809 -0.6081
 9230SOL    HW239153   2.850   2.777  15.031 -1.3608  1.5467 -0.9736
 9231SOL     OW39154   2.245   0.051   9.209 -0.2597 -0.3458  0.1664
 9231SOL    HW139155   2.298   0.069   9.132  0.4950 -0.7488  0.5839
 9231SOL    HW239156   2.169   0.104   9.187  0.1561  0.3615  0.4494
 9232SOL     OW39157   0.827   0.354  15.317  0.1743  0.3685 -0.3258
 9232SOL    HW139158   0.737   0.334  15.290 -1.1453  2.8009  2.2367
 9232SOL    HW239159   0.803   0.415  15.386  0.0049 -1.8357  1.5444
 9233SOL     OW39160   0.046   3.622   3.613 -0.0087 -0.5418  0.3594
 9233SOL    HW139161   0.064   3.699   3.560  0.2774 -0.3747  0.6995
 9233SOL    HW239162   0.111   3.620   3.684 -0.8009 -0.8774  1.0830
 9234SOL     OW39163   0.093   3.600   3.342  0.1654  0.3388  0.3067
 9234SOL    HW139164   0.095   3.538   3.415  0.0159  0.3690  0.3348
 9234SOL    HW239165   0.000   3.615   3.323  0.3690 -0.6217 -1.4982
 9235SOL     OW39166   1.996   3.793  15.541 -0.4231 -0.3217 -0.2476
 9235SOL    HW139167   1.908   3.774  15.575 -1.0956  2.6264 -0.3169
 9235SOL    HW239168   2.032   3.707  15.520  0.0388 -0.1301 -0.2332
 9236SOL     OW39169   4.647   3.180   4.724 -0.5618 -0.1696 -0.7291
 9236SOL    HW139170   0.002   3.123   4.712 -0.8775 -1.1117  1.7652
 9236SOL    HW239171   4.579   3.115   4.705 -0.5273 -0.1998 -0.7498
 9237SOL     OW39172   4.023   3.989   9.116  0.4913 -0.3600  0.1757
 9237SOL    HW139173   4.080   3.964   9.189  0.7354 -0.0256  0.0998
 9237SOL    HW239174   4.012   3.908   9.067  0.2984  0.4761 -1.1545
 9238SOL     OW39175   2.257   4.682  16.800 -0.2106  0.1765  0.3554
 9238SOL    HW139176   2.328   4.628  16.763 -0.8311 -1.5683  1.7460
 9238SOL    HW239177   2.258   0.021  16.726  0.6496  0.0385  0.2504
 9239SOL     OW39178   1.305   1.693   0.446  0.0272 -0.0198 -0.0369
 9239SOL    HW139179   1.331   1.735   0.364 -2.6287  0.7147 -0.5014
 9239SOL    HW239180   1.395   1.668   0.466  0.6380  0.8634 -1.6639
 9240SOL     OW39181   4.188   4.474  17.443  0.3412  0.0751 -0.1343
 9240SOL    HW139182   4.171   4.530  17.518 -0.2709 -1.1026  0.6027
 9240SOL    HW239183   4.211   4.394  17.489 -0.6006  0.3083  0.7447
 9241SOL     OW39184   4.511   1.996   7.184  0.4085  0.2689 -0.0262
 9241SOL    HW139185   4.530   2.041   7.102 -1.2537  0.0009 -0.5450
 9241SOL    HW239186   4.489   2.071   7.238  1.7010 -0.1740  1.1237
 9242SOL     OW39187   1.637   2.858   6.148 -0.3000 -0.1864 -0.6944
 9242SOL    HW139188   1.689   2.923   6.196 -1.6487  0.4778 -0.1144
 9242SOL    HW239189   1.676   2.881   6.064 -0.2411  0.3373 -0.5248
 9243SOL     OW39190   3.299   2.198  12.746  0.7048  0.1793  0.0547
 9243SOL    HW139191   3.307   2.153  12.830 -1.1380  0.1112  0.1809
 9243SOL    HW239192   3.390   2.198  12.714 -0.3069 -0.2617 -2.7911
 9244SOL     OW39193   0.167   3.011  12.551  0.4678 -0.4283 -0.1663
 9244SOL    HW139194   0.201   3.036  12.637 -1.4681 -0.8292  0.7239
 9244SOL    HW239195   0.191   2.918  12.558  0.8380 -0.2496  0.9301
 9245SOL     OW39196   2.634   2.609  16.335  0.5934 -0.1984  0.1349
 9245SOL    HW139197   2.653   2.680  16.397 -0.1095 -1.0472  1.3010
 9245SOL    HW239198   2.661   2.536  16.391  0.6610 -0.6911 -0.5361
 9246SOL     OW39199   1.898   3.973   4.235 -0.1972 -1.3195  0.7866
 9246SOL    HW139200   1.845   3.907   4.189 -0.5830  1.3334 -2.5412
 9246SOL    HW239201   1.839   3.975   4.311 -0.8126 -0.9380  0.2989
 9247SOL     OW39202   4.627   4.176   0.786 -0.4266 -0.0301 -0.2092
 9247SOL    HW139203   4.704   4.227   0.761  1.3428 -1.2543  2.8632
 9247SOL    HW239204   4.585   4.167   0.700  0.1401  0.8283 -0.5814
 9248SOL     OW39205   1.684   2.011   2.941 -0.2532 -0.9297  0.2053
 9248SOL    HW139206   1.684   2.080   3.007  3.6174 -1.3435  0.6045
 9248SOL    HW239207   1.619   2.045   2.880  0.5606  0.5451  0.1762
 9249SOL     OW39208   3.982   2.813   6.330 -0.1911 -0.2244 -0.2212
 9249SOL    HW139209   3.978   2.740   6.268 -1.1762 -0.0333 -0.3775
 9249SOL    HW239210   4.051   2.863   6.286  0.0161  1.2710  1.8229
 9250SOL     OW39211   3.341   1.297   4.446 -0.1117  0.6502  0.0327
 9250SOL    HW139212   3.379   1.277   4.360  0.9047  1.1833  0.3710
 9250SOL    HW239213   3.357   1.391   4.451  0.1457  0.6563 -0.9955
 9251SOL     OW39214   2.547   0.925   5.061 -0.2042  0.4854  0.3207
 9251SOL    HW139215   2.605   0.867   5.110 -1.6271 -1.8727 -0.8140
 9251SOL    HW239216   2.517   0.988   5.127  1.2400  1.6638 -0.1284
 9252SOL     OW39217   4.316   0.015  11.409  0.2249 -0.2574 -0.2083
 9252SOL    HW139218   4.270   4.653  11.398  0.1440 -0.1605 -0.6153
 9252SOL    HW239219   4.251   0.076  11.373  0.5970  0.0544 -0.3501
 9253SOL     OW39220   4.640   0.025  14.049  0.2631 -0.1737 -0.1806
 9253SOL    HW139221   4.680   4.665  14.018 -1.2668 -1.1311  0.3393
 9253SOL    HW239222   4.557   0.023  14.002  0.1916 -1.1058 -0.0018
 9254SOL     OW39223   2.913   1.647   6.157  0.4464  0.0258  0.0255
 9254SOL    HW139224   2.862   1.601   6.089 -0.6830  2.5749 -0.8348
 9254SOL    HW239225   2.848   1.707   6.194 -0.5679 -0.3805 -1.0601
 9255SOL     OW39226   3.022   4.498  14.929 -0.5085  0.0464  0.0603
 9255SOL    HW139227   3.054   4.441  15.000  0.9254  1.5267  0.5863
 9255SOL    HW239228   2.941   4.456  14.899 -0.6660 -0.1267  0.7258
 9256SOL     OW39229   4.200   0.412  10.986 -0.2174  0.2364 -0.3024
 9256SOL    HW139230   4.209   0.319  10.962  1.5364  0.4235 -0.4093
 9256SOL    HW239231   4.125   0.421  11.043 -1.3205 -1.1830 -1.5185
 9257SOL     OW39232   1.763   1.183   6.586  0.1177  0.2358  0.3289
 9257SOL    HW139233   1.858   1.180   6.588  0.0922 -2.4516 -1.9082
 9257SOL    HW239234   1.735   1.210   6.673  0.9903  2.0258  0.0527
 9258SOL     OW39235   3.811   0.276   9.231  0.9058  0.4317  0.5035
 9258SOL    HW139236   3.752   0.230   9.171  1.4432 -1.2631  1.3000
 9258SOL    HW239237   3.820   0.356   9.178  0.5142  1.9287  2.6760
 9259SOL     OW39238   2.099   2.971   5.027  0.2458 -0.6575  0.0684
 9259SOL    HW139239   2.071   2.880   5.020  1.0745 -0.7176 -2.3677
 9259SOL    HW239240   2.184   2.961   5.071  0.4153  2.9171  0.5790
 9260SOL     OW39241   3.269   3.814  14.900 -0.1296  0.2704  0.1823
 9260SOL    HW139242   3.339   3.759  14.865 -0.6053 -0.4516  0.3800
 9260SOL    HW239243   3.240   3.862  14.822  0.9420  0.4434 -0.1146
 9261SOL     OW39244   2.196   1.789   8.901  0.4841 -0.7278  0.3828
 9261SOL    HW139245   2.269   1.813   8.843 -0.9153 -0.8417 -1.4031
 9261SOL    HW239246   2.239   1.788   8.987 -0.1607  1.5735  0.7443
 9262SOL     OW39247   0.498   0.844   8.220 -0.2313  0.0907 -0.1345
 9262SOL    HW139248   0.453   0.914   8.173 -2.0958 -0.5504  0.7207
 9262SOL    HW239249   0.589   0.860   8.195 -0.2192  1.1845  0.6127
 9263SOL     OW39250   4.354   4.116   7.511  0.5544 -0.4868  0.6389
 9263SOL    HW139251   4.300   4.041   7.535  0.9327 -0.3146  2.0101
 9263SOL    HW239252   4.440   4.103   7.551  1.2296  1.5858 -0.1024
 9264SOL     OW39253   3.575   0.726   8.547 -0.1713 -0.2221 -0.2640
 9264SOL    HW139254   3.522   0.690   8.619 -0.0161  1.6787  0.7947
 9264SOL    HW239255   3.618   0.647   8.515 -1.3865 -0.8765 -0.2906
 9265SOL     OW39256   2.615   2.931  16.057  0.5570  0.0529  0.1484
 9265SOL    HW139257   2.658   2.847  16.073  0.5698  0.0686  0.1964
 9265SOL    HW239258   2.622   2.927  15.961  3.1854 -1.9054  0.4188
 9266SOL     OW39259   3.350   0.696   2.537  0.2995 -0.2616  0.7303
 9266SOL    HW139260   3.345   0.601   2.526  0.6906 -0.3909  1.7249
 9266SOL    HW239261   3.342   0.717   2.443  1.0313 -1.1494  0.4801
 9267SOL     OW39262   3.478   2.229   6.666  0.3184  0.0945  0.0694
 9267SOL    HW139263   3.463   2.248   6.573 -3.9881  0.7774  0.8869
 9267SOL    HW239264   3.493   2.135   6.656 -0.5343  0.0451 -0.9186
 9268SOL     OW39265   2.989   4.174   5.658 -0.2514 -0.2848  0.3510
 9268SOL    HW139266   3.065   4.125   5.625 -1.1327  0.1025 -2.2960
 9268SOL    HW239267   3.049   4.238   5.697  0.6948 -1.5371  0.9286
 9269SOL     OW39268   2.936   0.815   3.422 -0.6124  0.4484  0.3784
 9269SOL    HW139269   2.958   0.722   3.429  1.7645  0.9165 -0.7604
 9269SOL    HW239270   3.003   0.861   3.473 -0.1499  0.2430 -0.0347
 9270SOL     OW39271   2.802   3.208  10.371 -0.3317 -0.1476 -0.1930
 9270SOL    HW139272   2.826   3.264  10.297  2.1273 -0.9572  0.0071
 9270SOL    HW239273   2.709   3.201  10.350 -0.3352 -2.2710  0.5916
 9271SOL     OW39274   2.040   2.452   3.305  0.1756  0.1530 -0.4184
 9271SOL    HW139275   2.045   2.423   3.214 -2.0419  1.7158 -1.0340
 9271SOL    HW239276   2.034   2.369   3.352 -2.7599  0.9507  0.6120
 9272SOL     OW39277   1.202   3.074   3.852  0.4660  0.9454  0.3096
 9272SOL    HW139278   1.205   3.059   3.757  2.3816  0.8377  0.3959
 9272SOL    HW239279   1.191   3.169   3.854  0.1700  0.8999  0.6929
 9273SOL     OW39280   0.832   3.263  11.045 -0.2119 -0.3003 -0.4504
 9273SOL    HW139281   0.850   3.170  11.032 -1.0396 -0.4757 -0.2810
 9273SOL    HW239282   0.747   3.255  11.089 -0.5768 -1.6165 -1.4076
 9274SOL     OW39283   0.347   3.551   1.955 -0.2294  0.6218  0.4314
 9274SOL    HW139284   0.270   3.494   1.954 -0.3014  0.6749  2.1940
 9274SOL    HW239285   0.421   3.496   1.927  0.5778  0.9083  1.9751
 9275SOL     OW39286   1.119   2.831   0.546 -0.2886  0.0519  0.4577
 9275SOL    HW139287   1.118   2.919   0.584  1.1020  1.0453 -1.7883
 9275SOL    HW239288   1.117   2.844   0.451  3.0706  1.3548  0.5652
 9276SOL     OW39289   3.559   3.293   5.913  0.1968  0.4038  0.4397
 9276SOL    HW139290   3.598   3.305   5.827  0.2780  0.8150  0.5359
 9276SOL    HW239291   3.471   3.327   5.903  0.5662  1.0291 -0.6267
 9277SOL     OW39292   3.486   3.671   7.416 -0.6921 -0.4558  0.1776
 9277SOL    HW139293   3.405   3.717   7.392 -0.5529  0.5392  1.6262
 9277SOL    HW239294   3.533   3.733   7.471 -1.2351  0.3028 -0.2134
 9278SOL     OW39295   3.157   0.445  16.797 -0.2578  0.0957  0.5892
 9278SOL    HW139296   3.220   0.449  16.725 -1.9595  2.0747 -0.7739
 9278SOL    HW239297   3.194   0.368  16.841  1.9760  0.2759 -0.9827
 9279SOL     OW39298   0.730   0.477  12.580  0.1094  0.4088 -0.4503
 9279SOL    HW139299   0.778   0.479  12.497 -2.4967  0.0249 -1.9557
 9279SOL    HW239300   0.721   0.383  12.594  1.1574  0.2082 -1.1420
 9280SOL     OW39301   0.545   2.865   7.787 -0.3574 -0.1176 -0.0703
 9280SOL    HW139302   0.489   2.823   7.852  0.2171 -0.6112  0.1038
 9280SOL    HW239303   0.558   2.787   7.733  1.3868  0.8506 -1.0667
 9281SOL     OW39304   3.822   1.951   9.480  0.2125  0.2197 -0.1154
 9281SOL    HW139305   3.748   2.007   9.503 -0.5195  0.2664 -2.5725
 9281SOL    HW239306   3.810   1.870   9.529 -2.6696 -0.5995 -2.2157
 9282SOL     OW39307   4.228   2.737   6.730 -0.0045 -0.0980  0.1991
 9282SOL    HW139308   4.185   2.694   6.657 -1.5390  1.0622  0.4253
 9282SOL    HW239309   4.169   2.701   6.796 -1.5478 -1.7968 -2.1243
 9283SOL     OW39310   4.717   2.979   1.629  0.1482 -0.3318  0.0064
 9283SOL    HW139311   4.708   2.898   1.679 -0.4557 -0.6742 -0.6625
 9283SOL    HW239312   0.092   2.977   1.630  0.0673 -2.6519  1.5808
 9284SOL     OW39313   2.630   0.804  12.692 -0.1710 -0.6715 -0.2347
 9284SOL    HW139314   2.622   0.857  12.771 -2.6194 -2.2722  0.5859
 9284SOL    HW239315   2.542   0.775  12.669 -0.4685 -3.1807  4.1616
 9285SOL     OW39316   3.185   1.084   7.114  0.3541 -0.3058 -0.2691
 9285SOL    HW139317   3.220   1.040   7.037 -0.6706 -1.2055 -0.2213
 9285SOL    HW239318   3.168   1.171   7.076 -1.5629 -0.3346  0.5212
 9286SOL     OW39319   4.601   2.753   6.282 -0.4199 -0.2385 -0.2327
 9286SOL    HW139320   4.584   2.825   6.342 -2.4937 -0.0812 -0.9933
 9286SOL    HW239321   4.633   2.691   6.346 -0.2584  0.6119  0.5081
 9287SOL     OW39322   3.351   2.611   4.064 -0.8261 -0.0846 -0.2276
 9287SOL    HW139323   3.284   2.604   3.996  0.9013 -1.2046 -1.8260
 9287SOL    HW239324   3.424   2.559   4.032 -1.9798 -1.0517 -1.2863
 9288SOL     OW39325   0.049   2.068  15.527  0.6724  0.1175 -0.2144
 9288SOL    HW139326   0.110   2.020  15.472  1.7293 -0.1161  1.1547
 9288SOL    HW239327   4.686   2.047  15.487  0.3774  2.6991 -0.9519
 9289SOL     OW39328   1.793   4.704   4.956 -0.5742  0.1974  0.3732
 9289SOL    HW139329   1.789   0.064   4.905 -1.6483  0.1773  0.4388
 9289SOL    HW239330   1.835   0.006   5.039  0.6643  3.4456 -1.1348
 9290SOL     OW39331   1.941   0.800   1.735  0.4470 -0.1692  0.1924
 9290SOL    HW139332   2.022   0.782   1.688  0.5913 -0.5219  0.5797
 9290SOL    HW239333   1.917   0.707   1.735  0.2569 -0.1246 -0.2395
 9291SOL     OW39334   1.517   1.466   1.675 -0.0014  0.7566 -0.3812
 9291SOL    HW139335   1.487   1.375   1.680  1.5490  0.2969  0.4240
 9291SOL    HW239336   1.608   1.449   1.700  0.3987  2.7162 -0.5339
 9292SOL     OW39337   0.606   2.752   3.215  0.3629 -0.1367 -0.3573
 9292SOL    HW139338   0.599   2.845   3.235  1.7320  0.0796 -0.9114
 9292SOL    HW239339   0.625   2.719   3.303  1.5992 -0.4089 -0.7243
 9293SOL     OW39340   0.761   4.289  10.521  0.5576  0.1973  0.1193
 9293SOL    HW139341   0.848   4.318  10.495  0.7875 -0.9348 -0.3821
 9293SOL    HW239342   0.773   4.202  10.484  3.1712  0.0150  1.4063
 9294SOL     OW39343   0.937   0.118   2.433  0.5261  0.1713 -0.2025
 9294SOL    HW139344   0.937   0.075   2.347 -2.1031 -1.3629  0.5711
 9294SOL    HW239345   1.018   0.168   2.422 -0.3826  1.4552 -0.9535
 9295SOL     OW39346   0.269   4.035   4.425 -0.5225 -0.3893 -0.3624
 9295SOL    HW139347   0.174   4.027   4.424 -0.8301  3.2820 -1.0339
 9295SOL    HW239348   0.289   4.085   4.346 -1.7602  1.5400  0.5374
 9296SOL     OW39349   4.515   4.448  10.944  0.1276  0.4821 -1.2940
 9296SOL    HW139350   4.424   4.428  10.964  1.2006 -1.0312  1.9762
 9296SOL    HW239351   4.539   4.535  10.978  2.4144 -0.4466 -0.4851
 9297SOL     OW39352   3.333   1.010   2.645  0.0860  0.6066 -0.5761
 9297SOL    HW139353   3.310   0.917   2.641 -1.1103  0.8742  0.1484
 9297SOL    HW239354   3.382   1.027   2.564  1.6938 -2.2410 -0.2099
 9298SOL     OW39355   3.090   0.594   5.489  0.1542 -0.8527  0.6143
 9298SOL    HW139356   3.074   0.517   5.434 -1.3563  1.2943 -1.9570
 9298SOL    HW239357   3.082   0.549   5.573  1.9428 -0.0817  1.1872
 9299SOL     OW39358   4.234   2.971  16.992 -0.4332 -0.0532 -0.1360
 9299SOL    HW139359   4.198   3.007  16.911  1.7708  1.0886 -0.6215
 9299SOL    HW239360   4.317   2.941  16.953  0.3128  1.7595  0.0466
 9300SOL     OW39361   3.432   3.578   7.059  0.4604 -0.2782  0.0689
 9300SOL    HW139362   3.447   3.528   7.139 -1.8550  2.4502  2.1957
 9300SOL    HW239363   3.518   3.617   7.043 -0.1420  1.8011  1.8984
 9301SOL     OW39364   4.628   3.834  10.529  0.2033  0.2999  0.5293
 9301SOL    HW139365   4.720   3.815  10.511 -0.5888 -2.0794 -1.0558
 9301SOL    HW239366   4.638   3.826  10.624  1.0002 -1.9017  0.2616
 9302SOL     OW39367   0.137   1.581   8.645  0.3361 -0.7980 -0.1603
 9302SOL    HW139368   0.137   1.616   8.556 -1.7660  2.5426  1.1304
 9302SOL    HW239369   0.070   1.513   8.637  0.1654 -0.5061 -1.2192
 9303SOL     OW39370   1.527   3.509   5.883  0.4324  0.0300  0.0251
 9303SOL    HW139371   1.549   3.584   5.937  0.8866 -0.3395  0.3449
 9303SOL    HW239372   1.600   3.450   5.897 -0.2482 -0.7151  0.4472
 9304SOL     OW39373   0.811   3.330   6.345 -0.1850 -0.3128 -0.5548
 9304SOL    HW139374   0.790   3.276   6.268 -0.7933  0.7528 -1.1299
 9304SOL    HW239375   0.892   3.286   6.372  0.4743  1.1970 -0.0810
 9305SOL     OW39376   4.367   4.545   5.219  0.5222 -0.2930  0.2591
 9305SOL    HW139377   4.369   4.533   5.124 -1.5879  0.7870  0.0762
 9305SOL    HW239378   4.279   4.573   5.244  1.0121 -0.3013  1.9801
 9306SOL     OW39379   2.710   1.973   8.136  0.0938  0.2538 -0.4554
 9306SOL    HW139380   2.760   2.052   8.156 -0.9648  0.3955  1.6445
 9306SOL    HW239381   2.770   1.926   8.079 -0.4641  0.0903 -0.9191
 9307SOL     OW39382   3.223   1.043   8.678  0.5623 -0.8814 -0.3491
 9307SOL    HW139383   3.156   1.026   8.612  0.5448 -0.5163 -0.4241
 9307SOL    HW239384   3.302   1.006   8.639  0.9421  0.7745 -1.1567
 9308SOL     OW39385   3.689   1.292   2.928 -0.6360  0.0726 -0.7847
 9308SOL    HW139386   3.726   1.221   2.981  0.1533  1.2102  0.2092
 9308SOL    HW239387   3.658   1.246   2.850 -1.3852 -0.1726 -0.3413
 9309SOL     OW39388   1.259   3.229   3.384  0.1182  0.7868  0.1348
 9309SOL    HW139389   1.278   3.173   3.308 -1.4336 -0.0471  0.3504
 9309SOL    HW239390   1.345   3.267   3.399  1.7072 -1.9281 -1.9988
 9310SOL     OW39391   4.686   2.322   3.988  0.1580 -0.4645  0.7721
 9310SOL    HW139392   4.718   2.381   3.920 -1.6908  0.1804  0.4541
 9310SOL    HW239393   0.038   2.307   4.047  0.2217  2.6465  1.4948
 9311SOL     OW39394   1.072   2.309   4.817  0.3452  0.3698  0.0714
 9311SOL    HW139395   1.085   2.397   4.782 -2.0856  0.1795 -1.3736
 9311SOL    HW239396   0.976   2.312   4.816  0.2781 -1.8990 -1.7784
 9312SOL     OW39397   1.161   0.346  15.564 -0.0754  0.2402  0.0811
 9312SOL    HW139398   1.108   0.425  15.566 -0.0080  0.2709  0.6525
 9312SOL    HW239399   1.103   0.275  15.593  1.3387 -1.1907 -0.5329
 9313SOL     OW39400   0.583   0.557   5.171 -0.0186  0.1050 -0.2543
 9313SOL    HW139401   0.629   0.625   5.122 -0.6184 -1.4379 -2.9861
 9313SOL    HW239402   0.568   0.592   5.259 -0.6533 -0.7795 -0.0030
 9314SOL     OW39403   1.229   0.183   7.979  0.1286  0.1442  0.0451
 9314SOL    HW139404   1.182   0.174   7.896  0.8602 -2.6507 -0.0635
 9314SOL    HW239405   1.296   0.117   7.962 -0.3331 -0.3173  0.0088
 9315SOL     OW39406   2.149   3.026   7.440  0.5780  0.1179 -0.0912
 9315SOL    HW139407   2.067   3.068   7.466  0.3246 -1.2451  1.2935
 9315SOL    HW239408   2.173   2.977   7.518  1.6626 -0.7685 -0.9827
 9316SOL     OW39409   4.672   2.606  16.609 -0.7140  0.3835 -0.3138
 9316SOL    HW139410   4.714   2.522  16.589 -0.0785  0.9978 -1.5909
 9316SOL    HW239411   4.625   2.610  16.526  0.4518  2.9656 -0.8697
 9317SOL     OW39412   3.287   3.590   4.831 -0.4096  0.0709  0.5541
 9317SOL    HW139413   3.379   3.607   4.849 -1.1657  2.0955  2.4622
 9317SOL    HW239414   3.259   3.639   4.754  1.6542 -0.2701 -0.4063
 9318SOL     OW39415   1.790   0.855  12.017  0.1672 -0.1013  0.2846
 9318SOL    HW139416   1.866   0.911  12.030 -1.9983  2.3011  2.4474
 9318SOL    HW239417   1.738   0.919  12.066  0.6823  0.2012  0.4368
 9319SOL     OW39418   4.623   2.930   8.564 -0.1669  0.0994  0.6153
 9319SOL    HW139419   4.623   2.994   8.635 -0.3675 -0.0469  0.7478
 9319SOL    HW239420   4.655   2.981   8.490 -1.7709  2.1345  1.3236
 9320SOL     OW39421   4.464   0.450   8.254  0.0117  0.0949  0.1295
 9320SOL    HW139422   4.413   0.472   8.176 -0.3308 -0.8615  0.0809
 9320SOL    HW239423   4.425   0.500   8.325 -0.7977 -2.2461  1.3482
 9321SOL     OW39424   2.527   2.529   6.953 -0.1463  0.2328 -0.1079
 9321SOL    HW139425   2.540   2.504   6.862 -0.0127 -0.7263  0.1684
 9321SOL    HW239426   2.445   2.577   6.941  0.7987  1.9509  0.4603
 9322SOL     OW39427   0.019   1.747   8.848 -0.7207  0.1456 -0.0011
 9322SOL    HW139428   0.011   1.666   8.898 -2.0020 -0.9108 -1.9225
 9322SOL    HW239429   0.069   1.712   8.774 -2.7443  0.1122 -1.3484
 9323SOL     OW39430   2.099   1.814   9.493  0.0431 -0.0858 -0.3930
 9323SOL    HW139431   2.116   1.728   9.532 -0.2975 -1.1625 -2.6240
 9323SOL    HW239432   2.124   1.866   9.569  0.2670 -0.1196 -0.4428
 9324SOL     OW39433   3.822   1.936   9.210  0.2862  0.4630 -0.2992
 9324SOL    HW139434   3.823   1.970   9.299 -0.9739 -1.3899  0.4109
 9324SOL    HW239435   3.728   1.923   9.197  0.5699 -3.4498  1.6998
 9325SOL     OW39436   1.362   0.700   8.723  0.0457  0.0184  0.1931
 9325SOL    HW139437   1.316   0.781   8.701 -2.0663 -0.8282  1.5242
 9325SOL    HW239438   1.302   0.654   8.781  1.2759 -1.5650  0.2100
 9326SOL     OW39439   4.124   4.267   7.604 -0.3301 -0.8667 -0.7352
 9326SOL    HW139440   4.205   4.220   7.583  0.8693  1.6019 -1.6514
 9326SOL    HW239441   4.141   4.359   7.584  0.1723 -0.6668  0.6306
 9327SOL     OW39442   0.536   1.484   1.461  0.6711 -0.4280  0.4021
 9327SOL    HW139443   0.576   1.570   1.444 -2.4189  0.8523 -0.4963
 9327SOL    HW239444   0.593   1.461   1.534  0.5609  1.7026  1.1724
 9328SOL     OW39445   1.627   2.093  12.677  0.2167  0.0383  0.2627
 9328SOL    HW139446   1.538   2.118  12.702  0.1280  1.4093 -1.3887
 9328SOL    HW239447   1.648   2.017  12.731 -0.5179  1.3118  2.3642
 9329SOL     OW39448   1.552   4.127   6.610  0.2191 -0.0255 -0.3044
 9329SOL    HW139449   1.486   4.196   6.607  0.0011 -0.2384 -0.4049
 9329SOL    HW239450   1.494   4.069   6.561  0.5153 -0.5602 -0.0183
 9330SOL     OW39451   0.854   1.437  10.227  0.1260  0.2094  0.4893
 9330SOL    HW139452   0.940   1.465  10.196  0.6525 -0.7211  1.1109
 9330SOL    HW239453   0.811   1.436  10.141 -0.5973 -2.9026  0.8957
 9331SOL     OW39454   2.050   2.494   7.122  0.4488  0.1113 -0.1164
 9331SOL    HW139455   2.136   2.477   7.162  0.2475 -2.8584 -0.9871
 9331SOL    HW239456   1.993   2.439   7.176  0.6146  0.3282  0.2845
 9332SOL     OW39457   0.250   1.543   6.711 -0.1017 -0.1605  0.4885
 9332SOL    HW139458   0.274   1.590   6.791 -0.1213 -1.5406  1.2976
 9332SOL    HW239459   0.201   1.471   6.750  0.5372 -0.9504 -0.1714
 9333SOL     OW39460   2.050   0.179  14.150 -0.8079  0.0631  0.4634
 9333SOL    HW139461   2.028   0.252  14.207  0.0730 -0.1343  1.0475
 9333SOL    HW239462   2.092   0.124  14.216 -0.3395  0.4496  0.4867
 9334SOL     OW39463   0.567   0.700   0.941 -0.5342 -0.3362 -0.3787
 9334SOL    HW139464   0.507   0.710   1.015 -0.0532 -0.6231  0.0506
 9334SOL    HW239465   0.510   0.726   0.869  2.9033  1.4059 -2.4833
 9335SOL     OW39466   3.623   0.809  10.406 -0.1381 -0.1080 -0.4210
 9335SOL    HW139467   3.719   0.812  10.409 -0.1142 -0.9304 -0.2524
 9335SOL    HW239468   3.613   0.758  10.486 -2.9683 -1.9942 -1.9742
 9336SOL     OW39469   2.592   2.387   2.903 -0.2877 -0.3809 -0.5666
 9336SOL    HW139470   2.566   2.299   2.875 -0.4780 -1.2177  2.1562
 9336SOL    HW239471   2.559   2.443   2.834 -1.6808 -1.8465 -1.1116
 9337SOL     OW39472   1.391   3.776   1.857  0.1452 -0.7098  0.3250
 9337SOL    HW139473   1.371   3.802   1.767  1.4852 -0.9119 -0.0294
 9337SOL    HW239474   1.304   3.750   1.888 -0.8685  1.3053 -0.8727
 9338SOL     OW39475   0.075   1.490  14.362  0.3169  0.3528 -0.1067
 9338SOL    HW139476   0.042   1.439  14.435 -1.6080 -0.2228 -1.3722
 9338SOL    HW239477   0.170   1.480  14.361  0.3380  0.6022 -0.7554
 9339SOL     OW39478   4.363   4.398   4.835  0.9399 -0.4804  0.5561
 9339SOL    HW139479   4.415   4.452   4.776  0.1107 -1.1513 -0.7712
 9339SOL    HW239480   4.410   4.314   4.836 -0.0671 -1.0691 -1.1790
 9340SOL     OW39481   2.474   2.385  13.802 -1.3747  0.4801 -0.1622
 9340SOL    HW139482   2.467   2.475  13.836 -1.0728  0.7596 -0.8501
 9340SOL    HW239483   2.386   2.356  13.828 -1.1181 -0.0315  0.1317
 9341SOL     OW39484   1.377   2.201   3.995 -0.7058 -0.1991  0.3870
 9341SOL    HW139485   1.384   2.150   3.914 -0.8920 -0.6480  0.6530
 9341SOL    HW239486   1.468   2.218   4.018 -0.4149 -0.8904 -0.2265
 9342SOL     OW39487   4.050   0.871  15.644  0.4541 -0.1152  0.1631
 9342SOL    HW139488   4.116   0.846  15.709  0.6880  0.3696  0.1139
 9342SOL    HW239489   4.032   0.959  15.679  0.3510 -0.0753  0.0069
 9343SOL     OW39490   2.606   2.683  12.702 -0.7055 -0.2039  0.4749
 9343SOL    HW139491   2.572   2.772  12.713 -0.7427 -0.0186 -1.0717
 9343SOL    HW239492   2.675   2.684  12.767 -1.0242  1.9093  0.7791
 9344SOL     OW39493   2.313   4.340  14.253 -0.3179  0.0482 -0.2990
 9344SOL    HW139494   2.351   4.418  14.294  1.8620  1.0012 -4.1651
 9344SOL    HW239495   2.364   4.276  14.303  1.1787  2.7833  1.6735
 9345SOL     OW39496   2.455   4.526   1.804 -0.3779 -0.1713  0.2662
 9345SOL    HW139497   2.379   4.497   1.855  0.0315 -2.4900 -0.4155
 9345SOL    HW239498   2.424   4.489   1.721  0.0960 -2.3226  1.0331
 9346SOL     OW39499   2.911   1.807   8.584  0.4193  0.0563  0.3078
 9346SOL    HW139500   2.968   1.747   8.536  0.5741  1.6102 -1.4591
 9346SOL    HW239501   2.837   1.798   8.523  0.5886  0.0892  0.0979
 9347SOL     OW39502   3.621   1.944  13.561 -0.2879 -0.2569  0.8305
 9347SOL    HW139503   3.680   1.940  13.485 -1.6849  2.3250 -0.3891
 9347SOL    HW239504   3.542   1.909  13.518  1.8890 -1.5236 -2.1520
 9348SOL     OW39505   1.310   4.655  14.699  0.5312 -0.2588 -0.0008
 9348SOL    HW139506   1.319   4.587  14.632 -0.6816 -0.3136 -0.1158
 9348SOL    HW239507   1.274   0.003  14.644 -0.1394 -0.9026 -0.3808
 9349SOL     OW39508   0.794   3.264   6.068  0.4128 -0.3504  0.0158
 9349SOL    HW139509   0.886   3.236   6.066  1.0642  2.0903 -2.6862
 9349SOL    HW239510   0.764   3.233   5.983 -0.9960  0.0718  0.3696
 9350SOL     OW39511   0.923   0.094   3.967  0.1934  0.1533  0.0447
 9350SOL    HW139512   0.988   0.025   3.953 -0.2126 -0.8738  3.1760
 9350SOL    HW239513   0.899   0.111   3.876  1.1069 -0.6763 -0.3555
 9351SOL     OW39514   3.998   2.816   3.746 -0.4244 -0.1065  0.1924
 9351SOL    HW139515   3.957   2.734   3.773  1.5583 -0.2828  2.6298
 9351SOL    HW239516   3.912   2.858   3.750 -0.9577 -0.9824 -2.0940
 9352SOL     OW39517   4.540   2.135   2.917  0.0139  0.0043 -0.6218
 9352SOL    HW139518   4.627   2.157   2.951 -0.4266  1.9119 -0.6784
 9352SOL    HW239519   4.545   2.187   2.836 -1.8557  0.7665 -0.2569
 9353SOL     OW39520   1.701   1.104   2.564  0.2220 -0.1761 -0.3235
 9353SOL    HW139521   1.702   1.105   2.660  0.1331 -0.7073 -0.3189
 9353SOL    HW239522   1.609   1.118   2.541 -0.3658 -1.1447  1.4568
 9354SOL     OW39523   2.776   3.126   4.572  0.0005  0.2268 -0.4757
 9354SOL    HW139524   2.729   3.195   4.619 -0.0514 -0.4130  0.4121
 9354SOL    HW239525   2.867   3.155   4.580 -0.0611  0.9932 -2.3805
 9355SOL     OW39526   0.930   0.433   3.708  0.0806 -0.2883 -0.4054
 9355SOL    HW139527   0.837   0.445   3.689  0.0770 -0.4613 -0.5003
 9355SOL    HW239528   0.927   0.343   3.741 -3.8393  1.1275  3.1181
 9356SOL     OW39529   2.435   4.129   0.216 -0.2878  0.1416 -0.2330
 9356SOL    HW139530   2.377   4.205   0.214  0.4797  0.6446 -2.9521
 9356SOL    HW239531   2.511   4.187   0.220  0.1794 -0.4350 -0.8398
 9357SOL     OW39532   3.164   2.672   7.853  0.2161 -0.3945  0.1615
 9357SOL    HW139533   3.136   2.737   7.918  1.8476  1.5849 -1.1260
 9357SOL    HW239534   3.177   2.726   7.775  0.5218 -0.2564  0.3087
 9358SOL     OW39535   1.100   3.056   7.161  0.7905  0.2102 -0.2040
 9358SOL    HW139536   1.037   3.061   7.233 -1.2422 -0.3456 -1.9401
 9358SOL    HW239537   1.170   3.099   7.210 -0.8830  1.0946  1.4546
 9359SOL     OW39538   0.505   4.640   6.202 -0.1933 -0.4574 -0.1383
 9359SOL    HW139539   0.467   0.005   6.221  0.0535 -0.5692  0.8564
 9359SOL    HW239540   0.451   4.600   6.134 -1.3735  0.0713  0.4857
 9360SOL     OW39541   3.825   1.257  14.018 -0.1676  0.0426  0.5252
 9360SOL    HW139542   3.903   1.256  13.963 -0.6778  1.4074 -0.2111
 9360SOL    HW239543   3.831   1.170  14.058 -0.0495  0.6469  1.8342
 9361SOL     OW39544   1.940   0.203   6.329 -0.1653  0.0713 -0.1955
 9361SOL    HW139545   1.897   0.241   6.252 -0.2440 -0.5817 -0.4724
 9361SOL    HW239546   1.885   0.126   6.340  0.5590 -0.1654  1.7335
 9362SOL     OW39547   3.347   1.040   5.380  0.1083  0.2295  0.5549
 9362SOL    HW139548   3.382   0.954   5.360 -0.4968  0.1598 -0.2033
 9362SOL    HW239549   3.266   1.046   5.330 -0.0649  0.2688  0.8421
 9363SOL     OW39550   1.399   0.970   1.014  0.5154  0.3333 -0.0824
 9363SOL    HW139551   1.435   0.884   1.038  0.7082  0.6395  0.7165
 9363SOL    HW239552   1.342   0.940   0.944  0.4816 -0.2363  0.1879
 9364SOL     OW39553   0.053   1.973   4.290 -0.2953 -0.0860  0.4995
 9364SOL    HW139554   0.085   2.045   4.236 -1.3087 -0.6551 -0.8691
 9364SOL    HW239555   0.118   1.906   4.268 -2.2378 -1.2122 -1.8482
 9365SOL     OW39556   3.862   4.075   6.305 -0.2604 -0.5055  0.0944
 9365SOL    HW139557   3.870   4.027   6.223  2.2805 -0.1579  0.1157
 9365SOL    HW239558   3.836   4.162   6.274  1.0633 -0.5702 -1.2192
 9366SOL     OW39559   2.786   1.029   0.366 -0.3077  0.0123  0.5361
 9366SOL    HW139560   2.766   1.088   0.439  3.0991  3.0723 -0.9568
 9366SOL    HW239561   2.881   1.034   0.356 -0.3989 -0.9884 -0.8298
 9367SOL     OW39562   2.381   3.438  10.940 -0.2390 -0.3384  0.3968
 9367SOL    HW139563   2.399   3.532  10.934  3.2315 -0.8587  2.6623
 9367SOL    HW239564   2.465   3.398  10.963  0.1522  1.1738  1.6017
 9368SOL     OW39565   1.707   3.866   6.280 -0.0607  0.0001 -0.3053
 9368SOL    HW139566   1.625   3.839   6.238 -0.6621  1.5937 -0.1752
 9368SOL    HW239567   1.668   3.943   6.322  0.0439  0.9631 -1.9886
 9369SOL     OW39568   1.698   2.094   4.184 -0.0086  0.4931 -0.7248
 9369SOL    HW139569   1.692   2.148   4.104 -0.0400  2.3008  0.4920
 9369SOL    HW239570   1.647   2.146   4.246  0.1568  0.8249 -0.8668
 9370SOL     OW39571   2.617   1.215   0.246 -0.1983 -0.1044  0.1874
 9370SOL    HW139572   2.683   1.160   0.288  1.0369 -0.0685 -1.6984
 9370SOL    HW239573   2.581   1.153   0.182 -3.7829  2.5804 -0.3816
 9371SOL     OW39574   1.121   3.934   4.291  0.4246 -0.7897  0.8687
 9371SOL    HW139575   1.170   3.901   4.366  0.6823  1.0594  1.5082
 9371SOL    HW239576   1.059   3.865   4.264 -1.0032  1.3210 -1.2726
 9372SOL     OW39577   2.698   1.002   4.440 -0.4101 -0.1332 -0.0952
 9372SOL    HW139578   2.648   1.076   4.405 -0.5562 -0.3224 -0.2858
 9372SOL    HW239579   2.777   0.996   4.387  0.5987 -2.0352  1.6501
 9373SOL     OW39580   1.324   1.725   2.062  0.1419 -0.0524 -0.1498
 9373SOL    HW139581   1.321   1.676   1.980  2.1534  0.8177 -0.7374
 9373SOL    HW239582   1.398   1.786   2.058 -0.3733  0.5949  0.1583
 9374SOL     OW39583   3.802   0.557   1.399  0.5542 -0.0266  0.1836
 9374SOL    HW139584   3.847   0.474   1.385  1.3256  0.4486 -0.1132
 9374SOL    HW239585   3.708   0.542   1.386  0.2916  0.8471  1.0884
 9375SOL     OW39586   3.776   1.611   8.561  0.7439  0.9121 -0.7741
 9375SOL    HW139587   3.804   1.555   8.489 -1.9600 -0.5512 -0.6769
 9375SOL    HW239588   3.755   1.552   8.633  0.2789  0.9910 -0.8413
 9376SOL     OW39589   3.440   2.203   3.082  0.0139 -0.3815  0.4573
 9376SOL    HW139590   3.403   2.256   3.011  2.7645  1.4803  0.3811
 9376SOL    HW239591   3.381   2.128   3.081 -1.1426  0.5215  0.5630
 9377SOL     OW39592   2.711   2.233   8.983  0.2086 -0.3624 -0.0951
 9377SOL    HW139593   2.766   2.158   8.964  0.0510  0.0404 -2.1672
 9377SOL    HW239594   2.772   2.304   9.004  1.9998 -2.0566  0.3191
 9378SOL     OW39595   4.540   3.890  13.593  0.9646 -0.1225  0.0076
 9378SOL    HW139596   4.558   3.899  13.499 -0.1948 -0.2704 -0.2308
 9378SOL    HW239597   4.471   3.956  13.590  1.0200 -0.3383 -5.9463
 9379SOL     OW39598   2.940   0.761   7.656 -0.2229 -0.1536 -0.0170
 9379SOL    HW139599   2.947   0.678   7.609  1.1404  0.2616 -0.5601
 9379SOL    HW239600   3.031   0.778   7.681  0.6739 -1.1085 -2.6093
 9380SOL     OW39601   1.137   0.006   3.209  0.7071 -0.1664 -0.2315
 9380SOL    HW139602   1.143   0.006   3.305  1.7551  2.3516 -0.3012
 9380SOL    HW239603   1.177   4.644   3.187  1.0176  0.6724 -2.8143
 9381SOL     OW39604   1.386   0.426   8.605 -0.4616 -0.7349  0.3413
 9381SOL    HW139605   1.340   0.363   8.661 -0.1116 -0.4024  1.0071
 9381SOL    HW239606   1.383   0.508   8.654  1.6085  0.1836 -1.0747
 9382SOL     OW39607   3.176   2.306   4.553 -0.3226  0.2147  0.1915
 9382SOL    HW139608   3.100   2.364   4.555  0.6781  1.6726 -3.9209
 9382SOL    HW239609   3.230   2.356   4.492  0.0943 -0.5737 -0.0775
 9383SOL     OW39610   3.036   3.958   4.948  0.0889 -0.0879  0.0796
 9383SOL    HW139611   3.042   4.034   5.007  0.8643 -0.5370  0.5765
 9383SOL    HW239612   3.131   3.942   4.946 -0.0836 -1.0809 -0.0496
 9384SOL     OW39613   2.195   1.160   8.738 -0.2289 -0.1049  0.0112
 9384SOL    HW139614   2.279   1.116   8.747  0.9101  2.3574  1.2343
 9384SOL    HW239615   2.137   1.100   8.785  2.0559 -2.0886  0.3013
 9385SOL     OW39616   4.147   3.155   4.231 -0.0281 -0.1637 -0.0950
 9385SOL    HW139617   4.123   3.181   4.142 -3.0528  0.5552  0.9465
 9385SOL    HW239618   4.220   3.096   4.213 -0.6962 -1.1193  0.3236
 9386SOL     OW39619   4.150   0.051   6.522 -0.3897 -0.5289 -0.1347
 9386SOL    HW139620   4.123   0.012   6.439 -0.9249  2.4623 -1.3771
 9386SOL    HW239621   4.070   0.048   6.575 -1.3524  0.5202 -1.4962
 9387SOL     OW39622   2.837   2.228   8.219 -0.4679  0.4738 -0.0839
 9387SOL    HW139623   2.791   2.228   8.303 -1.3071  0.9542 -0.5410
 9387SOL    HW239624   2.927   2.210   8.246 -0.5844 -1.5165 -0.9601
 9388SOL     OW39625   3.972   4.144   4.032  0.0667  0.0953 -0.5732
 9388SOL    HW139626   3.991   4.050   4.034 -2.7920 -0.5444 -2.9627
 9388SOL    HW239627   4.039   4.176   4.093  0.4189  1.4227 -1.6678
 9389SOL     OW39628   0.128   3.547  15.875 -0.5317  0.3127  0.1902
 9389SOL    HW139629   0.095   3.594  15.799 -2.7318 -0.2716  0.7756
 9389SOL    HW239630   0.222   3.560  15.870  0.2545 -4.3840  2.0998
 9390SOL     OW39631   4.014   4.057   6.638 -0.5523  0.5104 -0.1576
 9390SOL    HW139632   3.967   4.138   6.620 -1.5395  0.4271  1.9708
 9390SOL    HW239633   4.050   4.068   6.726  0.0515  2.6501 -0.6701
 9391SOL     OW39634   3.017   2.516   7.700  0.0214  0.4507 -0.1069
 9391SOL    HW139635   2.963   2.517   7.779 -0.5454  1.1740 -0.5122
 9391SOL    HW239636   3.086   2.572   7.734  0.2919  0.2501 -0.3238
 9392SOL     OW39637   0.811   3.798   3.058  0.2194 -0.0028  0.1154
 9392SOL    HW139638   0.746   3.779   2.991 -2.0933  2.1457  1.7337
 9392SOL    HW239639   0.878   3.735   3.032  0.4155  1.2386 -2.3123
 9393SOL     OW39640   2.305   1.352   8.217 -0.4485  0.3605 -0.1062
 9393SOL    HW139641   2.280   1.366   8.125 -0.5107  1.3061  0.0480
 9393SOL    HW239642   2.371   1.285   8.198 -1.8548 -1.3462  1.0880
 9394SOL     OW39643   3.929   1.111   4.677  0.1043  0.3712 -0.1938
 9394SOL    HW139644   4.015   1.100   4.717  0.9371 -0.3950 -2.2196
 9394SOL    HW239645   3.937   1.065   4.593  1.2274 -0.4950  0.3940
 9395SOL     OW39646   0.778   3.040   2.059  0.1485  0.2565 -0.0155
 9395SOL    HW139647   0.800   2.967   2.116 -1.1922  0.3115  0.5764
 9395SOL    HW239648   0.749   3.098   2.130  1.7986 -0.3549  1.1698
 9396SOL     OW39649   0.734   1.339   7.519  0.4181 -0.1978  0.0415
 9396SOL    HW139650   0.724   1.273   7.587 -2.0671 -0.5751 -0.6708
 9396SOL    HW239651   0.692   1.417   7.554  1.1666  0.3656 -0.3166
 9397SOL     OW39652   4.257   2.930  10.790  0.3872 -0.1692 -0.3815
 9397SOL    HW139653   4.292   3.015  10.762 -1.6349  0.9278  0.3790
 9397SOL    HW239654   4.227   2.884  10.712  2.7007 -3.5911  0.7590
 9398SOL     OW39655   3.146   0.629   0.723 -0.1553 -0.2925  0.6589
 9398SOL    HW139656   3.086   0.579   0.668 -0.3545  2.5409 -1.7167
 9398SOL    HW239657   3.078   0.678   0.768  1.6932  1.5630  1.4756
 9399SOL     OW39658   4.713   3.364   3.815  0.3031 -0.3892  0.1144
 9399SOL    HW139659   0.010   3.410   3.734 -0.5120  0.8655  0.6411
 9399SOL    HW239660   0.018   3.274   3.794 -1.0157 -0.9514  0.8873
 9400SOL     OW39661   2.759   4.630   0.437 -0.0658 -0.1469  0.2408
 9400SOL    HW139662   2.666   4.615   0.453 -0.2827  1.9908  0.8762
 9400SOL    HW239663   2.768   0.003   0.421  0.5769 -0.1104  0.8304
 9401SOL     OW39664   4.205   3.368   3.061 -0.4930 -0.3197 -0.2297
 9401SOL    HW139665   4.212   3.461   3.082  1.1017 -0.2528 -1.0421
 9401SOL    HW239666   4.217   3.320   3.143  1.8724 -1.8836 -1.4672
 9402SOL     OW39667   3.748   4.083  15.356  0.1650  0.3115  0.4324
 9402SOL    HW139668   3.691   4.036  15.295 -0.0349 -0.2426  1.0429
 9402SOL    HW239669   3.687   4.152  15.383 -3.3862 -3.5073  2.2835
 9403SOL     OW39670   1.552   3.585  11.975 -0.2698  0.2928  0.4976
 9403SOL    HW139671   1.483   3.617  12.034 -1.2481 -1.0271  0.0660
 9403SOL    HW239672   1.635   3.601  12.019 -1.0482  2.9405  1.0389
 9404SOL     OW39673   1.346   0.493   2.376 -0.4792 -0.6832  0.1730
 9404SOL    HW139674   1.404   0.421   2.401  1.3178  0.9117  0.6092
 9404SOL    HW239675   1.375   0.562   2.436 -1.6646 -0.9875  1.0744
 9405SOL     OW39676   0.876   1.953   2.709 -0.0434 -0.8588 -0.1160
 9405SOL    HW139677   0.928   1.936   2.787  0.9841 -3.2616 -1.3545
 9405SOL    HW239678   0.786   1.958   2.740  0.0845 -1.2600  0.3092
 9406SOL     OW39679   3.608   0.272   4.174  0.0782  0.3752 -0.1261
 9406SOL    HW139680   3.640   0.221   4.100 -1.3370  0.2123 -0.6278
 9406SOL    HW239681   3.692   0.307   4.203 -0.5028  0.1187  1.8762
 9407SOL     OW39682   4.101   1.612   8.382  0.3130  0.5338 -0.3640
 9407SOL    HW139683   4.054   1.555   8.322  2.7571 -0.2597 -1.5049
 9407SOL    HW239684   4.052   1.693   8.365  0.7395  0.7666 -0.4871
 9408SOL     OW39685   0.803   1.642   2.629 -0.2566  0.1909 -0.3813
 9408SOL    HW139686   0.853   1.562   2.641 -1.6653 -0.7736 -0.9297
 9408SOL    HW239687   0.742   1.620   2.558 -0.0446  0.3577 -0.6137
 9409SOL     OW39688   1.106   0.914   6.586 -0.2452 -0.3817 -0.7738
 9409SOL    HW139689   1.188   0.900   6.635 -0.3267 -0.9376 -0.7899
 9409SOL    HW239690   1.085   0.827   6.551  2.2806 -0.8268 -1.2400
 9410SOL     OW39691   4.268   2.405   2.854  0.0806 -0.1299  0.4190
 9410SOL    HW139692   4.236   2.316   2.841 -1.7493  0.9370 -2.4159
 9410SOL    HW239693   4.260   2.397   2.949 -2.4046  2.5236  0.4200
 9411SOL     OW39694   2.160   1.520   0.949 -0.0207 -0.2378  0.2065
 9411SOL    HW139695   2.138   1.431   0.923 -1.4565  0.9797 -2.7970
 9411SOL    HW239696   2.113   1.568   0.880 -0.5692  2.5181  2.4670
 9412SOL     OW39697   0.848   2.088  11.680 -0.1506 -0.0159 -0.3261
 9412SOL    HW139698   0.810   2.000  11.683  0.2089 -0.0989  1.8041
 9412SOL    HW239699   0.814   2.141  11.752  0.7753 -1.1661  0.9963
 9413SOL     OW39700   3.386   1.521   9.856  0.3537 -0.6615  0.0789
 9413SOL    HW139701   3.449   1.588   9.882 -0.0492  0.1383 -1.0025
 9413SOL    HW239702   3.305   1.553   9.895 -0.2918  0.9625 -2.5898
 9414SOL     OW39703   1.867   0.070   9.866 -0.2567  0.2211 -0.3512
 9414SOL    HW139704   1.859   4.698   9.888  0.2648  0.3299  0.3001
 9414SOL    HW239705   1.777   0.089   9.840 -0.3955 -0.0790 -0.0822
 9415SOL     OW39706   1.689   2.677   0.100 -0.3440  0.0064 -0.1183
 9415SOL    HW139707   1.690   2.698   0.006  0.7504 -1.0614 -0.3509
 9415SOL    HW239708   1.618   2.614   0.095  0.0265 -0.1740 -3.1462
 9416SOL     OW39709   3.678   4.154   6.675  0.0834  0.1549 -0.1187
 9416SOL    HW139710   3.723   4.080   6.634  2.3235  2.4690 -1.8833
 9416SOL    HW239711   3.751   4.202   6.714 -1.3934  0.7139  1.9797
 9417SOL     OW39712   3.867   0.341   4.200  0.4330  0.0004  0.3097
 9417SOL    HW139713   3.909   0.268   4.244  2.0866  0.4191 -0.5704
 9417SOL    HW239714   3.945   0.387   4.167  1.3435 -2.0920 -0.4649
 9418SOL     OW39715   0.156   2.880   2.915  0.6811  0.6826  0.2034
 9418SOL    HW139716   0.075   2.844   2.879  0.6513  0.3172  0.6301
 9418SOL    HW239717   0.121   2.959   2.957  1.0094  0.4005  1.0073
 9419SOL     OW39718   2.542   1.613  13.699  0.5235  0.1452 -0.0729
 9419SOL    HW139719   2.536   1.537  13.757 -0.8916 -0.1006 -0.5499
 9419SOL    HW239720   2.488   1.669  13.755  1.7062 -0.0017  1.2254
 9420SOL     OW39721   2.741   0.184   0.411  0.6579 -0.5160 -1.1485
 9420SOL    HW139722   2.702   0.195   0.325 -0.3877  2.9224 -0.2390
 9420SOL    HW239723   2.792   0.264   0.423 -1.9971  1.0503 -0.2325
 9421SOL     OW39724   1.109   1.663  11.367  0.6043 -0.1016  0.0857
 9421SOL    HW139725   1.087   1.601  11.297  1.4065  1.0365 -1.1734
 9421SOL    HW239726   1.108   1.609  11.446  3.0692 -0.8208 -0.3760
 9422SOL     OW39727   0.252   3.662  13.084 -0.0504 -0.3994 -0.3659
 9422SOL    HW139728   0.217   3.626  13.002  0.4260 -1.3543 -0.1513
 9422SOL    HW239729   0.290   3.745  13.057 -1.7083  0.6852  0.6662
 9423SOL     OW39730   4.129   1.653  14.471  0.7975  0.1444 -0.1059
 9423SOL    HW139731   4.194   1.592  14.436 -1.6433 -2.2318 -0.5381
 9423SOL    HW239732   4.144   1.649  14.566 -2.2335  3.0773  0.4993
 9424SOL     OW39733   1.087   1.290  13.328 -0.6867 -0.2274 -0.3892
 9424SOL    HW139734   1.033   1.239  13.268 -2.6214  0.4078  0.8092
 9424SOL    HW239735   1.091   1.226  13.399 -2.0919  0.0588 -0.0441
 9425SOL     OW39736   4.702   2.879   3.750  0.5389 -0.4088 -0.7326
 9425SOL    HW139737   0.014   2.850   3.665 -1.9859 -2.3358 -1.0768
 9425SOL    HW239738   4.647   2.803   3.770  1.0089 -0.2830  1.0626
 9426SOL     OW39739   3.401   0.505   9.089  0.0006 -0.1028 -0.1099
 9426SOL    HW139740   3.473   0.474   9.034 -0.3751 -0.6833 -0.2718
 9426SOL    HW239741   3.343   0.429   9.091 -0.7908  0.5089  0.4781
 9427SOL     OW39742   0.807   1.630  14.178 -0.3081 -0.6097  0.0103
 9427SOL    HW139743   0.825   1.618  14.084  0.1956 -1.4539  0.2154
 9427SOL    HW239744   0.758   1.712  14.187 -0.5974 -0.5445 -1.9731
 9428SOL     OW39745   1.234   1.735   4.583  0.6064 -0.6289 -0.5754
 9428SOL    HW139746   1.330   1.728   4.578  0.9412  1.6025  2.5381
 9428SOL    HW239747   1.212   1.642   4.587  0.1987 -0.5893 -1.9048
 9429SOL     OW39748   3.897   3.523  16.162  0.9097 -0.1171 -0.5272
 9429SOL    HW139749   3.833   3.581  16.122 -0.6580 -0.9504  0.7780
 9429SOL    HW239750   3.905   3.456  16.094  0.8315 -0.9772  0.3159
 9430SOL     OW39751   1.720   0.278   5.492 -0.2139 -0.1422 -0.1117
 9430SOL    HW139752   1.669   0.316   5.564  0.7839 -1.5041  1.3167
 9430SOL    HW239753   1.781   0.223   5.541 -0.4211 -0.3591 -0.0966
 9431SOL     OW39754   1.789   2.695   7.153 -0.6098  0.4020  0.0113
 9431SOL    HW139755   1.786   2.707   7.058  0.7328 -2.3753 -0.3876
 9431SOL    HW239756   1.823   2.606   7.164  1.2965  1.2755  0.9706
 9432SOL     OW39757   3.715   0.150  13.170  0.3665  0.4933 -0.9130
 9432SOL    HW139758   3.689   0.234  13.208  2.1365  0.8721 -0.5361
 9432SOL    HW239759   3.662   0.089  13.221  1.4398  0.4176  0.1102
 9433SOL     OW39760   1.007   2.226   2.168 -0.2890 -0.2328 -0.1811
 9433SOL    HW139761   0.975   2.139   2.194  0.9799 -0.2272  1.3798
 9433SOL    HW239762   0.920   2.264   2.154  0.1812  0.6234 -0.7002
 9434SOL     OW39763   3.032   2.303  12.807 -0.3856  0.0955  0.1415
 9434SOL    HW139764   3.034   2.369  12.738  0.5161 -0.3214 -0.2347
 9434SOL    HW239765   3.120   2.293  12.845 -1.1195 -2.0766  1.2808
 9435SOL     OW39766   2.048   0.777   6.543 -0.1281  0.1880 -0.6037
 9435SOL    HW139767   2.088   0.862   6.528  1.8967 -0.3796  1.5166
 9435SOL    HW239768   1.981   0.781   6.475 -1.0197  2.0675  0.3943
 9436SOL     OW39769   1.498   4.321   8.447  0.4407 -0.3308 -0.2766
 9436SOL    HW139770   1.406   4.331   8.472  0.9253  0.6008  1.1314
 9436SOL    HW239771   1.497   4.227   8.428 -0.4905 -0.5148  0.6479
 9437SOL     OW39772   4.577   3.052   4.077 -0.4817 -0.0555  0.1831
 9437SOL    HW139773   4.663   3.011   4.069 -0.7127 -0.2904 -1.0076
 9437SOL    HW239774   4.595   3.140   4.045  1.7860 -0.0534  1.4101
 9438SOL     OW39775   4.400   3.438   6.710  0.2851 -0.3640 -0.0714
 9438SOL    HW139776   4.413   3.532   6.707  2.6010 -0.7047 -0.9297
 9438SOL    HW239777   4.336   3.426   6.640 -2.1459 -2.0682  2.4701
 9439SOL     OW39778   0.121   0.341   8.296 -0.3338  0.1458  0.3809
 9439SOL    HW139779   0.116   0.246   8.284 -2.4313  0.3123 -0.0792
 9439SOL    HW239780   0.051   0.378   8.242  0.1589 -0.4224 -0.6476
 9440SOL     OW39781   0.483   3.681   2.149 -0.1194  0.1899  0.0982
 9440SOL    HW139782   0.418   3.625   2.106  0.0091  0.3532 -0.3098
 9440SOL    HW239783   0.562   3.659   2.100 -0.5506 -1.4142  0.1292
 9441SOL     OW39784   0.833   1.496   9.817  0.0251 -0.1052 -0.0141
 9441SOL    HW139785   0.779   1.453   9.883  0.1685 -0.2299  0.0220
 9441SOL    HW239786   0.826   1.446   9.736  1.5577 -2.4585  1.3052
 9442SOL     OW39787   2.766   0.397   6.609 -0.1342 -0.1625  0.1024
 9442SOL    HW139788   2.673   0.418   6.619 -0.0042  0.2339  0.4806
 9442SOL    HW239789   2.754   0.308   6.641  1.0171  0.5072  2.3842
 9443SOL     OW39790   0.767   0.786   5.811  0.1468 -0.4932  0.0585
 9443SOL    HW139791   0.837   0.799   5.875  0.7059 -1.2103 -0.3960
 9443SOL    HW239792   0.693   0.836   5.845  1.4785  2.4159 -1.3110
 9444SOL     OW39793   1.588   1.053  11.083 -0.3587 -0.1397  0.1579
 9444SOL    HW139794   1.578   1.048  11.178 -2.3180 -0.1665 -0.0481
 9444SOL    HW239795   1.571   0.962  11.061  3.9456 -0.8590 -0.2393
 9445SOL     OW39796   1.093   1.010   1.519  0.1972  0.4019 -0.5829
 9445SOL    HW139797   1.151   1.042   1.589  0.1002  0.7733 -0.6704
 9445SOL    HW239798   1.149   0.943   1.481  0.3168 -0.0377  0.3742
 9446SOL     OW39799   4.123   2.306   6.304 -0.4175 -0.2407 -0.0585
 9446SOL    HW139800   4.209   2.264   6.304 -0.5633 -0.5277 -1.8595
 9446SOL    HW239801   4.098   2.285   6.394 -2.0273  1.0500 -0.1993
 9447SOL     OW39802   1.325   3.001  16.949 -0.0947  0.2069  0.1291
 9447SOL    HW139803   1.306   3.061  17.021  1.9814  0.6852  0.2881
 9447SOL    HW239804   1.297   3.037  16.865  1.2183  3.6319  1.1580
 9448SOL     OW39805   4.055   2.626   3.039 -0.4191  0.7535 -0.1222
 9448SOL    HW139806   4.143   2.620   3.003 -1.6795 -0.4014 -3.0905
 9448SOL    HW239807   4.018   2.710   3.012 -0.3308  0.8309 -0.0014
 9449SOL     OW39808   3.194   2.101  13.424  0.1400 -0.1542  0.3556
 9449SOL    HW139809   3.186   2.187  13.382  2.1652 -1.5880 -2.8875
 9449SOL    HW239810   3.171   2.121  13.515 -2.3950  0.2902 -0.3608
 9450SOL     OW39811   3.505   3.612   5.428  0.1337 -0.0713 -0.1767
 9450SOL    HW139812   3.559   3.570   5.362  2.3997  1.8814  0.4514
 9450SOL    HW239813   3.571   3.667   5.470  0.9638 -0.5415 -0.8673
 9451SOL     OW39814   3.956   4.516   6.769 -0.0908  0.0301 -0.8151
 9451SOL    HW139815   3.890   4.448   6.753  2.1836 -2.2684 -0.3620
 9451SOL    HW239816   3.896   4.582   6.805 -1.7155 -0.8907 -1.8332
 9452SOL     OW39817   4.075   0.455   6.346 -0.5244  0.4536  0.5306
 9452SOL    HW139818   4.128   0.480   6.421 -0.9653  1.1077  0.6267
 9452SOL    HW239819   4.111   0.520   6.287  1.1385  0.3409  1.4276
 9453SOL     OW39820   1.974   1.008  12.552 -0.5864 -0.1623  0.4601
 9453SOL    HW139821   1.976   1.063  12.474 -0.0300 -2.2739 -1.0259
 9453SOL    HW239822   1.896   1.050  12.588 -0.6342 -0.2446  0.4523
 9454SOL     OW39823   4.137   4.663  12.938  0.4537  0.0184  0.5419
 9454SOL    HW139824   4.081   4.714  12.997  1.0403  2.3616 -0.9296
 9454SOL    HW239825   4.160   0.002  12.868  0.0039  0.3983  0.7206
 9455SOL     OW39826   3.807   3.746   4.517 -0.2353  0.5133  0.3701
 9455SOL    HW139827   3.821   3.724   4.425  0.0360  1.0165  0.2902
 9455SOL    HW239828   3.887   3.712   4.557 -1.8820 -1.0270  2.3308
 9456SOL     OW39829   2.178   4.472   3.904  0.4970 -0.4699 -0.5244
 9456SOL    HW139830   2.273   4.457   3.898  1.0439  2.1538  1.3996
 9456SOL    HW239831   2.146   4.427   3.826 -0.5237 -0.8687  0.1358
 9457SOL     OW39832   0.324   0.679  11.137  0.2280  0.1490  0.3964
 9457SOL    HW139833   0.419   0.679  11.131  0.0797 -1.2912 -1.8197
 9457SOL    HW239834   0.315   0.634  11.221  3.2277 -0.1067  0.5825
 9458SOL     OW39835   1.339   0.994   5.497  0.0184  0.3529  0.3182
 9458SOL    HW139836   1.334   0.901   5.473  0.9479  0.2492  0.5164
 9458SOL    HW239837   1.434   1.004   5.491  0.1366 -1.4901 -0.9429
 9459SOL     OW39838   3.907   1.459   8.230  0.5619 -0.2741 -0.1179
 9459SOL    HW139839   3.879   1.414   8.310  1.3521  1.1458  0.9529
 9459SOL    HW239840   3.837   1.521   8.209  0.4422 -0.1248  0.7079
 9460SOL     OW39841   2.346   0.990   7.812 -0.5954  0.2109 -0.7283
 9460SOL    HW139842   2.435   0.996   7.848 -0.7514 -0.9635 -0.1623
 9460SOL    HW239843   2.364   0.938   7.734  1.9095  0.4444 -0.3086
 9461SOL     OW39844   2.590   2.175   3.156  0.1597  0.3205  0.1277
 9461SOL    HW139845   2.545   2.193   3.238  0.1608 -0.8400  0.3879
 9461SOL    HW239846   2.514   2.153   3.103  2.5822 -2.2384 -2.3110
 9462SOL     OW39847   2.503   3.722  13.779  0.0777 -0.1193  0.1476
 9462SOL    HW139848   2.458   3.798  13.741  0.6864  0.1344 -0.0695
 9462SOL    HW239849   2.458   3.706  13.862 -1.6346  1.9676 -0.3702
 9463SOL     OW39850   2.633   1.574  12.236  0.2317 -0.1740  0.3282
 9463SOL    HW139851   2.694   1.590  12.308  0.6598 -1.3694  0.2244
 9463SOL    HW239852   2.552   1.552  12.282  0.3887  1.0641  1.2050
 9464SOL     OW39853   4.677   0.279   0.559 -0.3929 -0.5311  0.0795
 9464SOL    HW139854   0.017   0.272   0.485  2.6140 -0.2840  2.5358
 9464SOL    HW239855   4.669   0.187   0.584  1.2130 -0.8557 -0.6101
 9465SOL     OW39856   3.325   0.333   2.804 -0.1122 -0.1231 -1.2001
 9465SOL    HW139857   3.411   0.294   2.819  0.1285  1.5079  1.6250
 9465SOL    HW239858   3.340   0.386   2.725  1.3807  2.5276  0.8360
 9466SOL     OW39859   3.467   0.248  16.046  0.2262  0.7216 -0.0640
 9466SOL    HW139860   3.429   0.200  15.972  2.3752  0.5948 -1.0745
 9466SOL    HW239861   3.502   0.175  16.097  2.3185  1.3138 -0.6482
 9467SOL     OW39862   0.059   3.771   6.511  0.0119 -0.7544  0.1237
 9467SOL    HW139863   0.028   3.724   6.588 -0.2405  0.9629  1.0664
 9467SOL    HW239864   0.061   3.864   6.532  0.2877 -0.8478  0.5075
 9468SOL     OW39865   1.156   3.744   3.927 -0.0250 -0.4783  0.2166
 9468SOL    HW139866   1.225   3.810   3.936 -0.4929  0.3680 -2.2955
 9468SOL    HW239867   1.161   3.724   3.834 -1.0205  1.0418 -0.1585
 9469SOL     OW39868   0.036   0.249   1.945 -0.0191 -0.1646 -0.0443
 9469SOL    HW139869   4.683   0.238   2.004 -0.0465  0.7707  0.0904
 9469SOL    HW239870   0.064   0.157   1.937 -2.8046 -0.9128 -1.1436
 9470SOL     OW39871   2.810   3.060   5.940  0.1374  0.0418  0.1130
 9470SOL    HW139872   2.767   3.050   5.856  0.0294  0.0590  0.1663
 9470SOL    HW239873   2.877   2.992   5.928  0.9484  0.8936 -0.2089
 9471SOL     OW39874   1.570   1.270  14.482  0.2319 -0.0272  0.1838
 9471SOL    HW139875   1.487   1.244  14.442  1.0544 -1.4263 -0.5969
 9471SOL    HW239876   1.549   1.363  14.486 -0.2223 -0.2039  1.7891
 9472SOL     OW39877   2.247   1.682   0.413 -0.5058  0.1526  0.3027
 9472SOL    HW139878   2.269   1.675   0.320 -0.5390 -0.9462  0.3885
 9472SOL    HW239879   2.337   1.696   0.442 -0.0760 -1.3296 -0.3494
 9473SOL     OW39880   3.790   4.407   4.881 -0.4495  0.5256 -0.0834
 9473SOL    HW139881   3.768   4.356   4.960 -1.1609  0.8109 -0.0990
 9473SOL    HW239882   3.820   4.491   4.915  0.1945  1.8294 -3.9661
 9474SOL     OW39883   2.928   4.065   4.296 -0.8558 -0.0668  0.0136
 9474SOL    HW139884   2.957   4.124   4.227 -2.7417  0.1184 -0.6182
 9474SOL    HW239885   2.947   4.117   4.374 -1.1870  1.8413 -1.2064
 9475SOL     OW39886   2.177   3.006   7.068 -0.4941 -0.1384 -0.3710
 9475SOL    HW139887   2.126   3.034   7.144  2.1336 -2.1920  2.1927
 9475SOL    HW239888   2.226   3.082   7.036 -1.2623 -0.0517 -1.3007
 9476SOL     OW39889   4.361   3.383   7.180  0.5208  0.0920  0.5137
 9476SOL    HW139890   4.347   3.449   7.247 -1.6423 -0.6029  0.7238
 9476SOL    HW239891   4.424   3.429   7.124 -0.3086 -0.4093 -0.8297
 9477SOL     OW39892   3.397   2.701   2.500 -0.0696  0.3192  0.0018
 9477SOL    HW139893   3.424   2.783   2.542  1.5051 -0.5738  0.7277
 9477SOL    HW239894   3.456   2.702   2.425 -0.1506 -0.2080 -0.0667
 9478SOL     OW39895   3.519   0.734  16.437  0.7027  0.0250 -0.2758
 9478SOL    HW139896   3.519   0.739  16.342 -2.3712  0.3839 -0.2714
 9478SOL    HW239897   3.457   0.665  16.463 -0.9007  2.2702  1.9748
 9479SOL     OW39898   4.388   2.197   6.110 -0.1496  0.1347  0.0953
 9479SOL    HW139899   4.423   2.213   6.023 -0.4390 -1.0718 -0.2405
 9479SOL    HW239900   4.323   2.131   6.084 -2.3064  0.7924  3.7709
 9480SOL     OW39901   3.300   2.511   2.696 -0.0926 -0.1862  0.3099
 9480SOL    HW139902   3.344   2.567   2.632  0.3691  1.0998  1.7595
 9480SOL    HW239903   3.251   2.571   2.752 -0.9899 -0.6592  0.0432
 9481SOL     OW39904   3.576   1.594   2.638  0.4234 -0.0193 -0.5475
 9481SOL    HW139905   3.498   1.638   2.605  1.2564  3.9548  2.8103
 9481SOL    HW239906   3.631   1.666   2.608  0.9130  0.0313  0.4684
 9482SOL     OW39907   0.172   2.084   4.869 -0.2710 -0.4484 -0.0382
 9482SOL    HW139908   0.206   2.169   4.899 -2.3450  0.6797 -0.9262
 9482SOL    HW239909   0.081   2.098   4.892  0.4581  1.0766  1.9690
 9483SOL     OW39910   2.308   3.391   1.970  0.1319 -0.3008  0.5609
 9483SOL    HW139911   2.302   3.302   1.936 -2.5628 -0.5397  1.6910
 9483SOL    HW239912   2.370   3.433   1.911 -0.7250 -0.8122 -0.6835
 9484SOL     OW39913   1.978   0.976  11.198  0.6615 -0.2408 -0.4235
 9484SOL    HW139914   1.989   1.066  11.230  0.9871 -0.7585  0.9237
 9484SOL    HW239915   1.996   0.928  11.279 -0.2432 -1.0391 -0.6968
 9485SOL     OW39916   4.716   3.110   7.889 -0.8257  0.3351 -0.6048
 9485SOL    HW139917   4.714   3.021   7.852  2.0788 -0.3310  0.8790
 9485SOL    HW239918   4.620   3.118   7.886 -0.8477 -0.2718 -1.5972
 9486SOL     OW39919   3.255   1.889   6.755  0.0655  0.4229  0.2631
 9486SOL    HW139920   3.265   1.815   6.695 -0.3444  0.6370 -0.0713
 9486SOL    HW239921   3.162   1.905   6.742  0.4282  0.6622 -2.1464
 9487SOL     OW39922   4.024   0.300   5.803  0.2199 -0.1489 -0.3415
 9487SOL    HW139923   3.965   0.374   5.820  1.8058 -0.2480  5.7298
 9487SOL    HW239924   3.963   0.236   5.766 -1.0460  0.3670  0.8277
 9488SOL     OW39925   1.982   1.211   8.557 -0.2722  0.2208  0.1285
 9488SOL    HW139926   2.055   1.201   8.618  1.9665  2.6053 -2.1670
 9488SOL    HW239927   1.999   1.137   8.498 -3.2377 -1.6580  1.6148
 9489SOL     OW39928   0.014   2.815   3.223  0.9103  0.2629  0.1072
 9489SOL    HW139929   4.684   2.828   3.303 -0.6148 -1.9661 -0.5101
 9489SOL    HW239930   0.051   2.900   3.198 -0.7700  0.6275 -1.1229
 9490SOL     OW39931   2.989   1.783  10.383 -0.0307  0.2517 -0.4446
 9490SOL    HW139932   3.028   1.851  10.329  1.1353 -1.7662 -2.1274
 9490SOL    HW239933   3.006   1.824  10.468 -2.4372 -1.8982  1.0543
 9491SOL     OW39934   1.909   3.647   9.998 -0.2469 -0.3879  0.8431
 9491SOL    HW139935   2.001   3.659  10.023 -0.5536  0.7692  1.4364
 9491SOL    HW239936   1.904   3.701   9.919  0.0005 -2.3892 -0.5372
 9492SOL     OW39937   2.596   2.724  10.339 -0.2584  0.2695 -0.3380
 9492SOL    HW139938   2.589   2.632  10.367 -0.8136 -0.2808 -2.2751
 9492SOL    HW239939   2.575   2.770  10.420 -0.1988  1.6586 -1.1116
 9493SOL     OW39940   4.676   2.013  13.747 -0.5181  0.1828  0.0634
 9493SOL    HW139941   4.718   2.041  13.828  1.9974 -0.8855 -0.8359
 9493SOL    HW239942   0.023   1.954  13.713  0.0017  0.8430 -0.0542
 9494SOL     OW39943   2.083   1.782  10.666 -0.8973 -0.3738  0.1762
 9494SOL    HW139944   2.177   1.801  10.658  0.0078 -3.0292  4.0509
 9494SOL    HW239945   2.052   1.871  10.657  2.0102  0.5085 -1.3522
 9495SOL     OW39946   2.175   0.254  17.483  0.3145  0.1433  0.5050
 9495SOL    HW139947   2.092   0.275  17.524 -1.1351 -1.0615 -1.8093
 9495SOL    HW239948   2.221   0.338  17.495 -0.8256  0.7544  0.5517
 9496SOL     OW39949   2.636   2.008  12.938  0.3857 -0.3126  0.2335
 9496SOL    HW139950   2.705   2.029  12.875 -1.9483 -2.3006 -3.0141
 9496SOL    HW239951   2.683   2.037  13.016 -3.4986  2.4169  1.5410
 9497SOL     OW39952   4.210   4.382   4.475  0.5811 -0.5610  0.3818
 9497SOL    HW139953   4.250   4.467   4.492 -1.3341  0.5921 -0.9871
 9497SOL    HW239954   4.156   4.379   4.554  0.3420 -0.1130  0.2336
 9498SOL     OW39955   3.282   4.295  12.579  0.2150  0.7479  0.4646
 9498SOL    HW139956   3.320   4.381  12.563 -1.6188  1.3244 -0.7848
 9498SOL    HW239957   3.206   4.305  12.521  1.4401  0.9990 -1.0871
 9499SOL     OW39958   4.082   1.979   5.309 -0.1692 -0.0093  0.3591
 9499SOL    HW139959   4.074   2.074   5.317 -0.0401  0.1376 -1.2213
 9499SOL    HW239960   3.992   1.969   5.276  0.0501  3.0186 -1.1072
 9500SOL     OW39961   0.012   3.168  10.053  0.2049 -0.3371  0.9621
 9500SOL    HW139962   0.088   3.189   9.999 -1.0476 -0.7242 -0.9324
 9500SOL    HW239963   0.042   3.082  10.084 -1.9426 -1.0068  1.1777
 9501SOL     OW39964   3.343   2.158   2.165 -0.1218 -0.1027 -0.2603
 9501SOL    HW139965   3.276   2.093   2.145 -0.9650  1.2043 -1.6983
 9501SOL    HW239966   3.402   2.159   2.090  1.5813  2.8928  1.1099
 9502SOL     OW39967   1.391   4.334   6.575 -0.3496 -0.6416 -0.2813
 9502SOL    HW139968   1.356   4.375   6.496 -0.5375  0.3786  0.3312
 9502SOL    HW239969   1.409   4.413   6.626  2.0276 -0.6447 -1.1317
 9503SOL     OW39970   0.768   0.055  11.379 -0.3437 -0.7115  0.3313
 9503SOL    HW139971   0.675   0.061  11.399 -1.1663 -0.4974 -3.5178
 9503SOL    HW239972   0.809   0.106  11.449 -0.0302  0.2262 -0.5244
 9504SOL     OW39973   1.702   2.541  17.251 -0.0745  0.0193  0.6119
 9504SOL    HW139974   1.779   2.514  17.300 -1.0012 -0.7852  1.5992
 9504SOL    HW239975   1.648   2.582  17.319 -0.9361  0.9419 -0.6036
 9505SOL     OW39976   3.022   1.697  11.590 -0.0279 -0.4644 -0.2973
 9505SOL    HW139977   3.056   1.724  11.504  0.4364 -0.3852 -0.0859
 9505SOL    HW239978   3.049   1.606  11.605 -0.6094 -0.6870 -0.6099
 9506SOL     OW39979   4.543   0.638   4.151 -0.5817  0.0333  0.5067
 9506SOL    HW139980   4.599   0.589   4.090  0.0216 -0.7404  1.6726
 9506SOL    HW239981   4.501   0.566   4.198 -0.3991 -2.7242 -3.5589
 9507SOL     OW39982   0.969   0.837   5.335  0.4684  0.0270  0.1760
 9507SOL    HW139983   0.966   0.758   5.388  2.1345  1.4865  2.4665
 9507SOL    HW239984   1.061   0.843   5.309  0.5333 -0.1684  0.3700
 9508SOL     OW39985   0.646   3.879   5.409  0.1607 -0.2586 -0.5589
 9508SOL    HW139986   0.739   3.895   5.396  0.8967 -1.7359  2.6910
 9508SOL    HW239987   0.645   3.783   5.412 -0.8119 -0.2573 -0.6839
 9509SOL     OW39988   3.877   2.207  17.220  0.4408  0.2212  0.0097
 9509SOL    HW139989   3.907   2.260  17.145 -2.0766  2.4555  0.5672
 9509SOL    HW239990   3.783   2.221  17.225  0.2911  0.0710 -2.0980
 9510SOL     OW39991   1.433   3.280   3.998  0.5764  0.6515 -0.4595
 9510SOL    HW139992   1.449   3.372   4.014  0.6509  0.6139 -0.3143
 9510SOL    HW239993   1.518   3.245   4.025 -0.4830 -1.4295  0.2318
 9511SOL     OW39994   4.275   2.487  12.532 -0.2476  0.2203 -0.1624
 9511SOL    HW139995   4.318   2.513  12.450 -0.3577  2.1475  0.3952
 9511SOL    HW239996   4.253   2.569  12.576 -0.7045 -1.4528  2.7471
 9512SOL     OW39997   1.330   2.979   0.313  0.0515 -0.5598  0.6182
 9512SOL    HW139998   1.352   3.049   0.375 -0.5427 -0.6966  0.9770
 9512SOL    HW239999   1.421   2.956   0.296 -0.1570  0.0669 -1.3901
 9513SOL     OW40000   3.166   1.081   3.316  0.6178 -0.1888  0.1646
 9513SOL    HW140001   3.178   1.176   3.314 -2.5089  0.2317  1.7849
 9513SOL    HW240002   3.155   1.053   3.406 -0.2108 -1.7568 -0.4244
 9514SOL     OW40003   3.250   2.709   6.540 -0.2440  0.0987 -0.2344
 9514SOL    HW140004   3.178   2.729   6.480  0.1922  1.1990 -0.3721
 9514SOL    HW240005   3.228   2.625   6.582 -0.8142  0.4601  0.1950
 9515SOL     OW40006   2.775   2.765   4.053 -0.2227 -0.5107 -0.3313
 9515SOL    HW140007   2.680   2.773   4.067 -0.4318  1.0208 -2.6267
 9515SOL    HW240008   2.793   2.689   4.109 -1.8180 -0.3043  0.4768
 9516SOL     OW40009   3.594   2.958   6.695 -0.3800 -0.1711 -0.1028
 9516SOL    HW140010   3.673   3.001   6.664 -1.7956  1.1626 -1.8584
 9516SOL    HW240011   3.610   2.872   6.656 -3.1240  0.4816 -2.6354
 9517SOL     OW40012   4.376   0.179  15.379 -0.3454 -0.2311 -0.2451
 9517SOL    HW140013   4.462   0.183  15.337 -0.3715  0.0019 -0.2791
 9517SOL    HW240014   4.349   0.112  15.316  0.9259 -0.0935 -0.9429
 9518SOL     OW40015   1.612   4.019  15.605 -0.3929 -0.1032 -0.1594
 9518SOL    HW140016   1.542   4.081  15.583 -0.2135  0.3854  0.6183
 9518SOL    HW240017   1.689   4.076  15.617 -1.7479  1.5191  0.8651
 9519SOL     OW40018   1.743   4.249   4.862 -0.4820  0.2265  0.2133
 9519SOL    HW140019   1.827   4.286   4.890 -0.2109 -1.2411  1.3301
 9519SOL    HW240020   1.711   4.204   4.940 -1.1954 -0.8354 -0.6969
 9520SOL     OW40021   4.600   2.088  14.314 -0.3774  0.3360  0.4916
 9520SOL    HW140022   4.521   2.046  14.348 -0.5151  2.8865  3.3349
 9520SOL    HW240023   4.563   2.164  14.269  1.2983  0.1942 -1.1501
 9521SOL     OW40024   2.640   0.750   8.042 -0.3794  0.4055  0.2541
 9521SOL    HW140025   2.683   0.684   8.096  2.3473  0.5450 -1.6861
 9521SOL    HW240026   2.656   0.715   7.954 -0.5422  1.7200 -0.3080
 9522SOL     OW40027   2.493   1.304   2.867 -0.0732  0.0347  0.0395
 9522SOL    HW140028   2.538   1.317   2.784  0.4491 -0.5660  0.2292
 9522SOL    HW240029   2.570   1.289   2.922 -0.5764  1.3011  1.1148
 9523SOL     OW40030   1.943   0.715  10.282  0.1830  0.0727 -0.0249
 9523SOL    HW140031   1.955   0.636  10.335  2.8230  0.3286 -0.2606
 9523SOL    HW240032   1.878   0.763  10.334  0.5111 -0.0230  0.4800
 9524SOL     OW40033   1.287   1.695  14.984  0.1167 -0.1563 -0.2532
 9524SOL    HW140034   1.260   1.787  14.985 -0.3287 -0.2766 -2.2606
 9524SOL    HW240035   1.343   1.699  15.062 -0.7884  0.4123  0.3803
 9525SOL     OW40036   1.990   2.325   3.705 -0.3064 -0.1057 -0.0402
 9525SOL    HW140037   1.956   2.408   3.737 -0.9195 -0.2453 -0.3299
 9525SOL    HW240038   2.004   2.277   3.787  1.7912 -0.0234 -0.3635
 9526SOL     OW40039   1.081   4.152   2.546 -0.0450  0.3758 -0.6196
 9526SOL    HW140040   1.146   4.220   2.567  0.1698 -0.9264  2.9629
 9526SOL    HW240041   0.998   4.190   2.576  0.6794  0.5030  1.2401
 9527SOL     OW40042   3.224   3.059   5.222 -1.1131  0.0621  0.1310
 9527SOL    HW140043   3.310   3.101   5.231 -1.2649  0.0132  1.7317
 9527SOL    HW240044   3.210   3.078   5.129  1.6941  1.5647  0.0137
 9528SOL     OW40045   2.938   0.881   9.111  0.5811  0.3529  0.1689
 9528SOL    HW140046   2.891   0.823   9.170  1.0497  2.2721  2.4152
 9528SOL    HW240047   3.032   0.867   9.119  0.5424  0.4271  0.7542
 9529SOL     OW40048   2.443   1.884  12.556  0.4805  0.3047  0.3487
 9529SOL    HW140049   2.470   1.835  12.634 -1.1502 -0.6044  0.3364
 9529SOL    HW240050   2.360   1.920  12.586  0.7326  2.6001 -1.7239
 9530SOL     OW40051   3.894   1.676  10.932 -0.8010 -0.2362 -0.0833
 9530SOL    HW140052   3.837   1.701  10.859 -0.2838 -3.1665 -1.4666
 9530SOL    HW240053   3.877   1.582  10.934  2.1260 -0.7217  0.9103
 9531SOL     OW40054   3.279   1.011  12.115 -0.2210 -0.1524  0.5023
 9531SOL    HW140055   3.255   1.028  12.024 -1.5563  0.5886  0.9832
 9531SOL    HW240056   3.199   0.966  12.142 -1.1796  0.5722 -1.1306
 9532SOL     OW40057   2.381   0.958   0.932  0.6026  0.0950  0.5277
 9532SOL    HW140058   2.430   1.024   0.883 -1.0136 -0.2656 -1.5448
 9532SOL    HW240059   2.372   0.891   0.865  1.5026  0.2748  0.2319
 9533SOL     OW40060   4.496   2.756   5.116 -0.5065 -0.1062  0.4163
 9533SOL    HW140061   4.488   2.715   5.030  1.3453  2.2855 -0.8742
 9533SOL    HW240062   4.571   2.712   5.155 -0.5960 -1.0660 -0.4757
 9534SOL     OW40063   3.886   4.650   4.170  0.2554 -0.0614 -0.0635
 9534SOL    HW140064   3.811   4.648   4.111 -0.7101  1.2690  1.1116
 9534SOL    HW240065   3.878   4.564   4.212  0.9777 -1.3161 -2.4736
 9535SOL     OW40066   0.740   2.907  15.853 -0.3519  0.0310 -0.1057
 9535SOL    HW140067   0.710   2.819  15.872 -2.3488  0.6637 -0.2961
 9535SOL    HW240068   0.702   2.926  15.767 -0.4673  0.5384  0.0514
 9536SOL     OW40069   4.356   4.163   5.286 -0.9769 -0.1497 -0.2301
 9536SOL    HW140070   4.340   4.254   5.262  1.1619  0.2869  0.0096
 9536SOL    HW240071   4.388   4.164   5.376  1.7954  0.3576 -1.2159
 9537SOL     OW40072   2.632   2.341   8.596 -0.1128  0.4579  0.0573
 9537SOL    HW140073   2.627   2.262   8.541  0.8211  2.8840 -3.4986
 9537SOL    HW240074   2.718   2.330   8.637 -0.3629 -0.9420  0.2058
 9538SOL     OW40075   1.732   4.251   3.644  0.5505 -0.2901  0.1716
 9538SOL    HW140076   1.787   4.201   3.584 -1.6924 -1.5224 -0.8762
 9538SOL    HW240077   1.645   4.246   3.603  0.7881  0.8412 -0.4855
 9539SOL     OW40078   3.314   0.305   2.272 -0.2591 -0.0265 -0.0081
 9539SOL    HW140079   3.340   0.217   2.244  1.5354 -0.3295  2.6693
 9539SOL    HW240080   3.396   0.348   2.250 -0.9161  0.3836 -1.6808
 9540SOL     OW40081   3.098   1.619  12.175  0.4097  0.2557  0.1281
 9540SOL    HW140082   3.079   1.575  12.258  3.8082 -2.0944 -0.3266
 9540SOL    HW240083   3.061   1.704  12.198 -3.4445 -1.4990  0.3801
 9541SOL     OW40084   1.459   4.637  14.015  0.3955 -0.4335  0.1273
 9541SOL    HW140085   1.519   4.573  14.055 -0.3569 -0.7849  0.7051
 9541SOL    HW240086   1.497   4.656  13.930  0.5113  0.8601  0.4760
 9542SOL     OW40087   1.947   4.045   2.122  0.1323 -0.5332 -0.2596
 9542SOL    HW140088   1.913   3.970   2.171 -0.4599  0.2409  0.5178
 9542SOL    HW240089   1.876   4.108   2.134 -0.6246 -2.0241  3.1735
 9543SOL     OW40090   0.077   2.224   2.879 -0.2131 -0.0978 -0.1863
 9543SOL    HW140091   0.136   2.153   2.905 -1.0669 -0.2809  1.2907
 9543SOL    HW240092   0.116   2.237   2.793 -4.1701 -1.3701 -2.1503
 9544SOL     OW40093   1.234   3.438  11.093  0.5001 -0.4659  0.5935
 9544SOL    HW140094   1.321   3.456  11.057 -0.6088  1.5909 -0.9903
 9544SOL    HW240095   1.215   3.520  11.139  0.2152  0.8728 -1.9070
 9545SOL     OW40096   2.955   4.080  14.035  0.4981 -0.1188 -0.1578
 9545SOL    HW140097   2.907   4.135  13.973  0.6511  0.6902  0.4355
 9545SOL    HW240098   3.007   4.024  13.978 -0.2586 -1.4296  0.4433
 9546SOL     OW40099   3.363   2.120   8.266 -0.1384  0.5205 -0.6473
 9546SOL    HW140100   3.453   2.140   8.291  0.4158 -1.0263 -1.3682
 9546SOL    HW240101   3.336   2.079   8.349  0.4585  0.7774 -0.3298
 9547SOL     OW40102   3.774   4.064  17.434  0.4411  0.0170 -0.2624
 9547SOL    HW140103   3.733   4.093  17.516  0.0394  0.7182 -0.7144
 9547SOL    HW240104   3.860   4.106  17.439  0.5383 -0.2832  0.6981
 9548SOL     OW40105   2.035   0.285   9.375  0.4972  0.1075  0.1054
 9548SOL    HW140106   2.021   0.192   9.396 -1.7132  0.4401  0.0562
 9548SOL    HW240107   2.014   0.290   9.282  0.9600  1.4961  0.0831
 9549SOL     OW40108   2.302   1.108  12.681 -0.1128  0.1426  0.4231
 9549SOL    HW140109   2.377   1.163  12.704  2.9697 -4.5917  1.9525
 9549SOL    HW240110   2.248   1.106  12.761 -0.0833  0.5611  0.4527
 9550SOL     OW40111   3.153   3.897   7.177  0.3347  0.1145  0.8089
 9550SOL    HW140112   3.206   3.972   7.207 -0.1578  2.1229 -3.4026
 9550SOL    HW240113   3.093   3.876   7.249  0.4679  0.8185  1.1297
 9551SOL     OW40114   2.848   2.444   6.370  0.0840  0.0951 -0.4128
 9551SOL    HW140115   2.798   2.384   6.315 -0.9700  0.4040  0.1937
 9551SOL    HW240116   2.830   2.534   6.344  0.6492 -0.4630 -2.7337
 9552SOL     OW40117   0.851   1.536   8.120 -0.1761  0.3512 -0.3785
 9552SOL    HW140118   0.868   1.591   8.196  1.4989  2.0901 -2.0056
 9552SOL    HW240119   0.771   1.569   8.079 -0.7624  0.9051  1.2211
 9553SOL     OW40120   0.969   3.915  11.542  0.5560  0.7019  0.1197
 9553SOL    HW140121   0.935   3.851  11.479  1.5372  2.2789 -2.0473
 9553SOL    HW240122   1.023   3.967  11.482  2.4014 -0.7635  0.5237
 9554SOL     OW40123   0.306   0.695   4.296 -0.5444  0.3281 -0.3046
 9554SOL    HW140124   0.290   0.758   4.226  2.9772  0.0880 -1.3354
 9554SOL    HW240125   0.352   0.756   4.352 -0.6028 -1.1021  1.3057
 9555SOL     OW40126   2.787   3.033   4.035 -0.6699  0.6945 -0.2322
 9555SOL    HW140127   2.781   2.938   4.025 -0.5949  0.6606  0.0358
 9555SOL    HW240128   2.802   3.061   3.944 -2.4694  2.0711 -0.0963
 9556SOL     OW40129   1.812   1.664   7.402  0.0129 -0.1248 -0.3746
 9556SOL    HW140130   1.724   1.695   7.422 -0.4134 -2.0028  0.6636
 9556SOL    HW240131   1.828   1.606   7.476 -1.9212 -0.6336 -0.3409
 9557SOL     OW40132   3.286   0.757   1.286  0.0664 -0.3374  0.3973
 9557SOL    HW140133   3.302   0.851   1.281  3.2866 -1.0041 -2.1079
 9557SOL    HW240134   3.325   0.714   1.209  0.9160  0.9679  0.1013
 9558SOL     OW40135   2.913   4.670   8.613 -0.2988  0.0454  0.3940
 9558SOL    HW140136   2.924   0.044   8.617 -0.3857  0.1017 -0.6115
 9558SOL    HW240137   2.871   4.663   8.527  2.6254  0.4129 -1.0633
 9559SOL     OW40138   0.667   0.294   9.693  0.3796  0.1774 -0.3661
 9559SOL    HW140139   0.744   0.247   9.663 -1.7986 -1.9973 -2.6123
 9559SOL    HW240140   0.699   0.382   9.712  0.5808  0.5404 -2.3230
 9560SOL     OW40141   3.604   0.971   3.764  0.0044  0.1606  1.0485
 9560SOL    HW140142   3.657   0.953   3.842  1.7251 -0.3065 -0.2256
 9560SOL    HW240143   3.523   1.018   3.785  1.3688  2.5119  1.0316
 9561SOL     OW40144   1.148   3.698   1.282  0.2431 -0.1690 -0.0890
 9561SOL    HW140145   1.165   3.615   1.238 -1.3024 -1.3114  1.4717
 9561SOL    HW240146   1.180   3.765   1.222 -3.9518  0.8456 -1.2052
 9562SOL     OW40147   3.444   2.970   2.229  0.3751 -0.3853 -0.3497
 9562SOL    HW140148   3.496   3.024   2.290  0.1539 -0.9348  0.3321
 9562SOL    HW240149   3.490   2.887   2.241  0.3898 -0.2673  0.4396
 9563SOL     OW40150   1.837   0.490   2.216 -0.2879  0.0572 -0.4461
 9563SOL    HW140151   1.930   0.502   2.196 -0.9254  0.3096 -3.3177
 9563SOL    HW240152   1.800   0.543   2.145 -0.8030 -1.0436 -0.9987
 9564SOL     OW40153   3.822   2.170   4.707  0.1645 -0.0824 -0.1158
 9564SOL    HW140154   3.904   2.206   4.742  0.9391 -1.3632 -0.6118
 9564SOL    HW240155   3.785   2.251   4.672  1.4860  0.8807  0.7080
 9565SOL     OW40156   4.023   4.248   8.496 -0.9477  0.3176  0.7632
 9565SOL    HW140157   4.052   4.158   8.508  0.0155  0.3206 -1.4653
 9565SOL    HW240158   4.026   4.261   8.401  0.4126 -3.1966  0.3384
 9566SOL     OW40159   0.759   2.241   7.948  0.0958  0.3151 -0.3702
 9566SOL    HW140160   0.736   2.282   8.032 -2.1231 -3.4059  0.8336
 9566SOL    HW240161   0.751   2.313   7.886  0.8571  2.0212  1.4721
 9567SOL     OW40162   0.629   1.607   6.925  0.0406 -0.4410  0.1630
 9567SOL    HW140163   0.691   1.583   6.856  1.3004  0.0769  1.1244
 9567SOL    HW240164   0.687   1.676   6.957  0.2639 -0.5908  0.0840
 9568SOL     OW40165   4.582   0.192   2.127 -0.1563  0.2433  0.1615
 9568SOL    HW140166   4.557   0.102   2.147  2.3638 -0.5494 -0.2616
 9568SOL    HW240167   4.512   0.210   2.064  0.6823  1.6281 -0.3674
   4.72122   4.72122  17.68724
